{"builder_meta": null, "nsites": null, "elements": null, "nelements": null, "composition": null, "composition_reduced": null, "formula_pretty": "Ac3Br", "formula_anonymous": "AB3", "chemsys": null, "volume": 319.9333446819538, "density": 7.898587871097114, "density_atomic": 39.99166808524423, "symmetry": null, "property_name": null, "material_id": "mp-1183119", "deprecated": null, "deprecation_reasons": null, "last_updated": null, "origins": null, "warnings": null, "structure": {"@module": "pymatgen.core.structure", "@class": "Structure", "charge": 0, "lattice": {"matrix": [[3.970873, -6.8777539999999995, 0.0], [3.970873, 6.8777539999999995, 0.0], [0.0, 0.0, 5.857292]], "pbc": [true, true, true], "a": 7.941746184980039, "b": 7.941746184980039, "c": 5.857292, "alpha": 90.0, "beta": 90.0, "gamma": 120.00000154099371, "volume": 319.93334468195377}, "properties": {}, "sites": [{"species": [{"element": "Ac", "occu": 1}], "abc": [0.170874, 0.341746999999999, 0.25], "properties": {"magmom": 0.0}, "label": "Ac", "xyz": [2.035552888132996, 1.175222459241993, 1.464323]}, {"species": [{"element": "Ac", "occu": 1}], "abc": [0.658253, 0.829125999999999, 0.25], "properties": {"magmom": 0.0}, "label": "Ac", "xyz": [5.906193111866996, 1.1752224592419926, 1.464323]}, {"species": [{"element": "Ac", "occu": 1}], "abc": [0.170874, 0.829125999999999, 0.25], "properties": {"magmom": 0.0}, "label": "Ac", "xyz": [3.970872999999996, 4.527295326007993, 1.464323]}, {"species": [{"element": "Ac", "occu": 1}], "abc": [0.829125999999999, 0.658253, 0.75], "properties": {"magmom": 0.0}, "label": "Ac", "xyz": [5.906193111866996, -1.1752224592419926, 4.392969]}, {"species": [{"element": "Ac", "occu": 1}], "abc": [0.341746999999999, 0.170874, 0.75], "properties": {"magmom": 0.0}, "label": "Ac", "xyz": [2.035552888132996, -1.175222459241993, 4.392969]}, {"species": [{"element": "Ac", "occu": 1}], "abc": [0.829125999999999, 0.170874, 0.75], "properties": {"magmom": 0.0}, "label": "Ac", "xyz": [3.970872999999996, -4.527295326007993, 4.392969]}, {"species": [{"element": "Br", "occu": 1}], "abc": [0.333333, 0.666667, 0.75], "properties": {"magmom": 0.0}, "label": "Br", "xyz": [3.970873, 2.292589251836, 4.392969]}, {"species": [{"element": "Br", "occu": 1}], "abc": [0.666667, 0.333333, 0.25], "properties": {"magmom": 0.0}, "label": "Br", "xyz": [3.970873, -2.292589251836, 1.464323]}]}, "task_ids": null, "uncorrected_energy_per_atom": null, "energy_per_atom": -3.7508530225000003, "formation_energy_per_atom": -0.250735133125, "energy_above_hull": 0.580771254583333, "is_stable": false, "equilibrium_reaction_energy_per_atom": null, "decomposes_to": null, "xas": null, "grain_boundaries": null, "band_gap": 0.0, "cbm": null, "vbm": null, "efermi": 6.03741119, "is_gap_direct": null, "is_metal": null, "es_source_calc_id": null, "bandstructure": null, "dos": null, "dos_energy_up": null, "dos_energy_down": null, "is_magnetic": null, "ordering": null, "total_magnetization": 0.00015879999999900002, "total_magnetization_normalized_vol": null, "total_magnetization_normalized_formula_units": null, "num_magnetic_sites": null, "num_unique_magnetic_sites": null, "types_of_magnetic_species": null, "bulk_modulus": null, "shear_modulus": null, "universal_anisotropy": null, "homogeneous_poisson": null, "e_total": null, "e_ionic": null, "e_electronic": null, "n": null, "e_ij_max": null, "weighted_surface_energy_EV_PER_ANG2": null, "weighted_surface_energy": null, "weighted_work_function": null, "surface_anisotropy": null, "shape_factor": null, "has_reconstructed": null, "possible_species": null, "has_props": null, "theoretical": null, "database_IDs": null, "fields_not_requested": ["builder_meta", "nsites", "elements", "nelements", "composition", "composition_reduced", "chemsys", "symmetry", "property_name", "deprecated", "deprecation_reasons", "last_updated", "origins", "warnings", "task_ids", "uncorrected_energy_per_atom", "equilibrium_reaction_energy_per_atom", "decomposes_to", "xas", "grain_boundaries", "cbm", "vbm", "is_gap_direct", "is_metal", "es_source_calc_id", "bandstructure", "dos", "dos_energy_up", "dos_energy_down", "is_magnetic", "ordering", "total_magnetization_normalized_vol", "total_magnetization_normalized_formula_units", "num_magnetic_sites", "num_unique_magnetic_sites", "types_of_magnetic_species", "bulk_modulus", "shear_modulus", "universal_anisotropy", "homogeneous_poisson", "e_total", "e_ionic", "e_electronic", "n", "e_ij_max", "weighted_surface_energy_EV_PER_ANG2", "weighted_surface_energy", "weighted_work_function", "surface_anisotropy", "shape_factor", "has_reconstructed", "possible_species", "has_props", "theoretical", "database_IDs"]}