{
  "builder_meta": null,
  "nsites": null,
  "elements": null,
  "nelements": null,
  "composition": null,
  "composition_reduced": null,
  "formula_pretty": "Ac3Eu",
  "formula_anonymous": "AB3",
  "chemsys": null,
  "volume": 372.4880085881115,
  "density": 7.426651227319795,
  "density_atomic": 46.561001073513935,
  "symmetry": null,
  "property_name": null,
  "material_id": "mp-1183271",
  "deprecated": null,
  "deprecation_reasons": null,
  "last_updated": null,
  "origins": null,
  "warnings": null,
  "structure": {
    "@module": "pymatgen.core.structure",
    "@class": "Structure",
    "charge": 0,
    "lattice": {
      "matrix": [
        [4.03473263, -6.9883425500000005, 0.0],
        [4.03469547, 6.9883199, 0.0],
        [0.0, 0.0, 6.60535341]
      ],
      "pbc": [true, true, true],
      "a": 8.06944849365353,
      "b": 8.069410298180067,
      "c": 6.60535341,
      "alpha": 90.0,
      "beta": 90.0,
      "gamma": 120.00001062523027,
      "volume": 372.4880085881115
    },
    "properties": {},
    "sites": [
      {
        "species": [{ "element": "Ac", "occu": 1 }],
        "abc": [0.1676347, 0.3352752, 0.25],
        "properties": { "magmom": 0.21 },
        "label": "Ac",
        "xyz": [2.0290945246536047, 1.171521645269995, 1.6513383525]
      },
      {
        "species": [{ "element": "Ac", "occu": 1 }],
        "abc": [0.6647195, 0.83235484, 0.25],
        "properties": { "magmom": 0.21 },
        "label": "Ac",
        "xyz": [6.04026375882786, 1.1714743265685907, 1.6513383525]
      },
      {
        "species": [{ "element": "Ac", "occu": 1 }],
        "abc": [0.16763901, 0.83235862, 0.25],
        "properties": { "magmom": 0.21 },
        "label": "Ac",
        "xyz": [4.034692137237347, 4.645269481459662, 1.6513383525]
      },
      {
        "species": [{ "element": "Ac", "occu": 1 }],
        "abc": [0.8323556400000001, 0.66471837, 0.75],
        "properties": { "magmom": 0.21 },
        "label": "Ac",
        "xyz": [6.040268656737317, -1.1715217227779195, 4.9540150575]
      },
      {
        "species": [{ "element": "Ac", "occu": 1 }],
        "abc": [0.33528168, 0.16763785, 0.75],
        "properties": { "magmom": 0.21 },
        "label": "Ac",
        "xyz": [2.029139608532758, -1.1715563074312694, 4.9540150575]
      },
      {
        "species": [{ "element": "Ac", "occu": 1 }],
        "abc": [0.83236127, 0.16764915, 0.75],
        "properties": { "magmom": 0.21 },
        "label": "Ac",
        "xyz": [4.034768442071591, -4.645239788949954, 4.9540150575]
      },
      {
        "species": [{ "element": "Eu", "occu": 1 }],
        "abc": [0.33334256, 0.66668069, 0.75],
        "properties": { "magmom": 6.928 },
        "label": "Eu",
        "xyz": [4.0348016636792075, 2.329465937098802, 4.9540150575]
      },
      {
        "species": [{ "element": "Eu", "occu": 1 }],
        "abc": [0.66666566, 0.33332629, 0.25],
        "properties": { "magmom": 6.928 },
        "label": "Eu",
        "xyz": [4.0346877639973915, -2.329497252801663, 1.6513383525]
      }
    ]
  },
  "task_ids": null,
  "uncorrected_energy_per_atom": null,
  "energy_per_atom": -61.09313170625,
  "formation_energy_per_atom": 0.015198531874999002,
  "energy_above_hull": 0.015198531874999002,
  "is_stable": false,
  "equilibrium_reaction_energy_per_atom": null,
  "decomposes_to": null,
  "xas": null,
  "grain_boundaries": null,
  "band_gap": 0.0,
  "cbm": null,
  "vbm": null,
  "efermi": 5.65780892,
  "is_gap_direct": null,
  "is_metal": null,
  "es_source_calc_id": null,
  "bandstructure": null,
  "dos": null,
  "dos_energy_up": null,
  "dos_energy_down": null,
  "is_magnetic": null,
  "ordering": null,
  "total_magnetization": 18.7282161,
  "total_magnetization_normalized_vol": null,
  "total_magnetization_normalized_formula_units": null,
  "num_magnetic_sites": null,
  "num_unique_magnetic_sites": null,
  "types_of_magnetic_species": null,
  "bulk_modulus": null,
  "shear_modulus": null,
  "universal_anisotropy": null,
  "homogeneous_poisson": null,
  "e_total": null,
  "e_ionic": null,
  "e_electronic": null,
  "n": null,
  "e_ij_max": null,
  "weighted_surface_energy_EV_PER_ANG2": null,
  "weighted_surface_energy": null,
  "weighted_work_function": null,
  "surface_anisotropy": null,
  "shape_factor": null,
  "has_reconstructed": null,
  "possible_species": null,
  "has_props": null,
  "theoretical": null,
  "database_IDs": null,
  "fields_not_requested": [
    "builder_meta",
    "nsites",
    "elements",
    "nelements",
    "composition",
    "composition_reduced",
    "chemsys",
    "symmetry",
    "property_name",
    "deprecated",
    "deprecation_reasons",
    "last_updated",
    "origins",
    "warnings",
    "task_ids",
    "uncorrected_energy_per_atom",
    "equilibrium_reaction_energy_per_atom",
    "decomposes_to",
    "xas",
    "grain_boundaries",
    "cbm",
    "vbm",
    "is_gap_direct",
    "is_metal",
    "es_source_calc_id",
    "bandstructure",
    "dos",
    "dos_energy_up",
    "dos_energy_down",
    "is_magnetic",
    "ordering",
    "total_magnetization_normalized_vol",
    "total_magnetization_normalized_formula_units",
    "num_magnetic_sites",
    "num_unique_magnetic_sites",
    "types_of_magnetic_species",
    "bulk_modulus",
    "shear_modulus",
    "universal_anisotropy",
    "homogeneous_poisson",
    "e_total",
    "e_ionic",
    "e_electronic",
    "n",
    "e_ij_max",
    "weighted_surface_energy_EV_PER_ANG2",
    "weighted_surface_energy",
    "weighted_work_function",
    "surface_anisotropy",
    "shape_factor",
    "has_reconstructed",
    "possible_species",
    "has_props",
    "theoretical",
    "database_IDs"
  ]
}
