{"builder_meta": null, "nsites": null, "elements": null, "nelements": null, "composition": null, "composition_reduced": null, "formula_pretty": "Ac3Hg", "formula_anonymous": "AB3", "chemsys": null, "volume": 303.98050672482145, "density": 9.631634945915158, "density_atomic": 37.99756334060268, "symmetry": null, "property_name": null, "material_id": "mp-985291", "deprecated": null, "deprecation_reasons": null, "last_updated": null, "origins": null, "warnings": null, "structure": {"@module": "pymatgen.core.structure", "@class": "Structure", "charge": 0, "lattice": {"matrix": [[3.852478, -6.672688, 0.0], [3.852478, 6.672688, 0.0], [0.0, 0.0, 5.912549]], "pbc": [true, true, true], "a": 7.7049563195275805, "b": 7.7049563195275805, "c": 5.912549, "alpha": 90.0, "beta": 90.0, "gamma": 120.00000274365924, "volume": 303.98050672482145}, "properties": {}, "sites": [{"species": [{"element": "Ac", "occu": 1}], "abc": [0.175969, 0.351939, 0.25], "properties": {"magmom": 0.004}, "label": "Ac", "xyz": [2.0337539560240003, 1.17419290736, 1.47813725]}, {"species": [{"element": "Ac", "occu": 1}], "abc": [0.648061, 0.824031, 0.25], "properties": {"magmom": 0.003}, "label": "Ac", "xyz": [5.671202043976, 1.1741929073599993, 1.47813725]}, {"species": [{"element": "Ac", "occu": 1}], "abc": [0.175969, 0.824031, 0.25], "properties": {"magmom": 0.004}, "label": "Ac", "xyz": [3.8524779999999996, 4.3243155306559995, 1.47813725]}, {"species": [{"element": "Ac", "occu": 1}], "abc": [0.824031, 0.648061, 0.75], "properties": {"magmom": 0.005}, "label": "Ac", "xyz": [5.671202043976, -1.1741929073599993, 4.434411750000001]}, {"species": [{"element": "Ac", "occu": 1}], "abc": [0.351939, 0.175969, 0.75], "properties": {"magmom": 0.004}, "label": "Ac", "xyz": [2.0337539560240003, -1.17419290736, 4.434411750000001]}, {"species": [{"element": "Ac", "occu": 1}], "abc": [0.824031, 0.175969, 0.75], "properties": {"magmom": 0.005}, "label": "Ac", "xyz": [3.8524779999999996, -4.3243155306559995, 4.434411750000001]}, {"species": [{"element": "Hg", "occu": 1}], "abc": [0.333333, 0.666667, 0.75], "properties": {"magmom": -0.0}, "label": "Hg", "xyz": [3.8524779999999996, 2.2242337817920004, 4.434411750000001]}, {"species": [{"element": "Hg", "occu": 1}], "abc": [0.666667, 0.333333, 0.25], "properties": {"magmom": -0.0}, "label": "Hg", "xyz": [3.8524779999999996, -2.2242337817920004, 1.47813725]}]}, "task_ids": null, "uncorrected_energy_per_atom": null, "energy_per_atom": -63.911418104166664, "formation_energy_per_atom": -0.09135691416666701, "energy_above_hull": 0.067722800416667, "is_stable": false, "equilibrium_reaction_energy_per_atom": null, "decomposes_to": null, "xas": null, "grain_boundaries": null, "band_gap": 0.0, "cbm": null, "vbm": null, "efermi": 5.94825271, "is_gap_direct": null, "is_metal": null, "es_source_calc_id": null, "bandstructure": null, "dos": null, "dos_energy_up": null, "dos_energy_down": null, "is_magnetic": null, "ordering": null, "total_magnetization": 0.0505843, "total_magnetization_normalized_vol": null, "total_magnetization_normalized_formula_units": null, "num_magnetic_sites": null, "num_unique_magnetic_sites": null, "types_of_magnetic_species": null, "bulk_modulus": null, "shear_modulus": null, "universal_anisotropy": null, "homogeneous_poisson": null, "e_total": null, "e_ionic": null, "e_electronic": null, "n": null, "e_ij_max": null, "weighted_surface_energy_EV_PER_ANG2": null, "weighted_surface_energy": null, "weighted_work_function": null, "surface_anisotropy": null, "shape_factor": null, "has_reconstructed": null, "possible_species": null, "has_props": null, "theoretical": null, "database_IDs": null, "fields_not_requested": ["builder_meta", "nsites", "elements", "nelements", "composition", "composition_reduced", "chemsys", "symmetry", "property_name", "deprecated", "deprecation_reasons", "last_updated", "origins", "warnings", "task_ids", "uncorrected_energy_per_atom", "equilibrium_reaction_energy_per_atom", "decomposes_to", "xas", "grain_boundaries", "cbm", "vbm", "is_gap_direct", "is_metal", "es_source_calc_id", "bandstructure", "dos", "dos_energy_up", "dos_energy_down", "is_magnetic", "ordering", "total_magnetization_normalized_vol", "total_magnetization_normalized_formula_units", "num_magnetic_sites", "num_unique_magnetic_sites", "types_of_magnetic_species", "bulk_modulus", "shear_modulus", "universal_anisotropy", "homogeneous_poisson", "e_total", "e_ionic", "e_electronic", "n", "e_ij_max", "weighted_surface_energy_EV_PER_ANG2", "weighted_surface_energy", "weighted_work_function", "surface_anisotropy", "shape_factor", "has_reconstructed", "possible_species", "has_props", "theoretical", "database_IDs"]}