{
  "builder_meta": null,
  "nsites": null,
  "elements": null,
  "nelements": null,
  "composition": null,
  "composition_reduced": null,
  "formula_pretty": "Ac3In",
  "formula_anonymous": "AB3",
  "chemsys": null,
  "volume": 309.22633068126885,
  "density": 8.547052742837637,
  "density_atomic": 38.653291335158606,
  "symmetry": null,
  "property_name": null,
  "material_id": "mp-985305",
  "deprecated": null,
  "deprecation_reasons": null,
  "last_updated": null,
  "origins": null,
  "warnings": null,
  "structure": {
    "@module": "pymatgen.core.structure",
    "@class": "Structure",
    "charge": 0,
    "lattice": {
      "matrix": [
        [7.72676594, -1.698e-5, 1.04e-6],
        [-3.8633968, 6.69160438, -1.07e-6],
        [2e-8, -1.05e-6, 5.9806585]
      ],
      "pbc": [true, true, true],
      "a": 7.726765940018727,
      "b": 7.72679778515567,
      "c": 5.980658500000092,
      "alpha": 90.00001674158366,
      "beta": 89.99999209653068,
      "gamma": 120.000107993318,
      "volume": 309.2263306812688
    },
    "properties": {},
    "sites": [
      {
        "species": [{ "element": "Ac", "occu": 1 }],
        "abc": [0.17718954, 0.35437908, 0.249999],
        "properties": { "magmom": 0.117 },
        "label": "Ac",
        "xyz": [-4.896062696143652e-6, 2.3713613327310314, 1.495158449433006]
      },
      {
        "species": [{ "element": "Ac", "occu": 1 }],
        "abc": [0.64562292, 0.82281246, 0.249999],
        "properties": { "magmom": 0.117 },
        "label": "Ac",
        "xyz": [1.8097261683751964, 5.505924236078443, 1.4951584353800045]
      },
      {
        "species": [{ "element": "Ac", "occu": 1 }],
        "abc": [0.17718954, 0.82281246, 0.249999],
        "properties": { "magmom": 0.117 },
        "label": "Ac",
        "xyz": [-1.8097489173678802, 5.505932190077236, 1.4951579482092894]
      },
      {
        "species": [{ "element": "Ac", "occu": 1 }],
        "abc": [0.82281046, 0.64562092, 0.75],
        "properties": { "magmom": 0.117 },
        "label": "Ac",
        "xyz": [3.8633740560626766, 4.320225017270019, 4.4854940399084935]
      },
      {
        "species": [{ "element": "Ac", "occu": 1 }],
        "abc": [0.35437708, 0.17718654, 0.75],
        "properties": { "magmom": 0.117 },
        "label": "Ac",
        "xyz": [2.053646855021583, 1.1856554223182267, 4.485494053962565]
      },
      {
        "species": [{ "element": "Ac", "occu": 1 }],
        "abc": [0.82281146, 0.17718654, 0.75],
        "properties": { "magmom": 0.117 },
        "label": "Ac",
        "xyz": [5.673129667530601, 1.1856474683024545, 4.485494541134321]
      },
      {
        "species": [{ "element": "In", "occu": 1 }],
        "abc": [0.333333, 0.666667, 0.75],
        "properties": { "magmom": -0.036000000000000004 },
        "label": "In",
        "xyz": [-1.3068387579992944e-5, 4.46106536970712, 4.485493508332629]
      },
      {
        "species": [{ "element": "In", "occu": 1 }],
        "abc": [0.666667, 0.333333, 0.249999],
        "properties": { "magmom": -0.036000000000000004 },
        "label": "In",
        "xyz": [3.8633822283875596, 2.23052098029393, 1.49515898100887]
      }
    ]
  },
  "task_ids": null,
  "uncorrected_energy_per_atom": null,
  "energy_per_atom": -57.372981195,
  "formation_energy_per_atom": -0.25022404062499903,
  "energy_above_hull": 0.0,
  "is_stable": true,
  "equilibrium_reaction_energy_per_atom": null,
  "decomposes_to": null,
  "xas": null,
  "grain_boundaries": null,
  "band_gap": 0.0,
  "cbm": null,
  "vbm": null,
  "efermi": 6.5213184,
  "is_gap_direct": null,
  "is_metal": null,
  "es_source_calc_id": null,
  "bandstructure": null,
  "dos": null,
  "dos_energy_up": null,
  "dos_energy_down": null,
  "is_magnetic": null,
  "ordering": null,
  "total_magnetization": 1.6420447,
  "total_magnetization_normalized_vol": null,
  "total_magnetization_normalized_formula_units": null,
  "num_magnetic_sites": null,
  "num_unique_magnetic_sites": null,
  "types_of_magnetic_species": null,
  "bulk_modulus": null,
  "shear_modulus": null,
  "universal_anisotropy": null,
  "homogeneous_poisson": null,
  "e_total": null,
  "e_ionic": null,
  "e_electronic": null,
  "n": null,
  "e_ij_max": null,
  "weighted_surface_energy_EV_PER_ANG2": null,
  "weighted_surface_energy": null,
  "weighted_work_function": null,
  "surface_anisotropy": null,
  "shape_factor": null,
  "has_reconstructed": null,
  "possible_species": null,
  "has_props": null,
  "theoretical": null,
  "database_IDs": null,
  "fields_not_requested": [
    "builder_meta",
    "nsites",
    "elements",
    "nelements",
    "composition",
    "composition_reduced",
    "chemsys",
    "symmetry",
    "property_name",
    "deprecated",
    "deprecation_reasons",
    "last_updated",
    "origins",
    "warnings",
    "task_ids",
    "uncorrected_energy_per_atom",
    "equilibrium_reaction_energy_per_atom",
    "decomposes_to",
    "xas",
    "grain_boundaries",
    "cbm",
    "vbm",
    "is_gap_direct",
    "is_metal",
    "es_source_calc_id",
    "bandstructure",
    "dos",
    "dos_energy_up",
    "dos_energy_down",
    "is_magnetic",
    "ordering",
    "total_magnetization_normalized_vol",
    "total_magnetization_normalized_formula_units",
    "num_magnetic_sites",
    "num_unique_magnetic_sites",
    "types_of_magnetic_species",
    "bulk_modulus",
    "shear_modulus",
    "universal_anisotropy",
    "homogeneous_poisson",
    "e_total",
    "e_ionic",
    "e_electronic",
    "n",
    "e_ij_max",
    "weighted_surface_energy_EV_PER_ANG2",
    "weighted_surface_energy",
    "weighted_work_function",
    "surface_anisotropy",
    "shape_factor",
    "has_reconstructed",
    "possible_species",
    "has_props",
    "theoretical",
    "database_IDs"
  ]
}
