{
  "builder_meta": null,
  "nsites": null,
  "elements": null,
  "nelements": null,
  "composition": null,
  "composition_reduced": null,
  "formula_pretty": "Ac3La",
  "formula_anonymous": "AB3",
  "chemsys": null,
  "volume": 362.5610853243514,
  "density": 7.51037614881384,
  "density_atomic": 45.32013566554392,
  "symmetry": null,
  "property_name": null,
  "material_id": "mp-985540",
  "deprecated": null,
  "deprecation_reasons": null,
  "last_updated": null,
  "origins": null,
  "warnings": null,
  "structure": {
    "@module": "pymatgen.core.structure",
    "@class": "Structure",
    "charge": 0,
    "lattice": {
      "matrix": [
        [8.02157841, -6.679999999999999e-6, 0.0],
        [-4.0107953, 6.9469021699999995, -0.0],
        [-0.0, -0.0, 6.50624452]
      ],
      "pbc": [true, true, true],
      "a": 8.021578410002782,
      "b": 8.021591406825257,
      "c": 6.50624452,
      "alpha": 90.0,
      "beta": 90.0,
      "gamma": 120.00004438606321,
      "volume": 362.5610853243513
    },
    "properties": {},
    "sites": [
      {
        "species": [{ "element": "Ac", "occu": 1 }],
        "abc": [0.83188043, 0.16811957, 0.75],
        "properties": { "magmom": -0.152 },
        "label": "Ac",
        "xyz": [5.998700915795495, 1.1679046486911944, 4.87968339]
      },
      {
        "species": [{ "element": "Ac", "occu": 1 }],
        "abc": [0.33623915, 0.16811957, 0.75],
        "properties": { "magmom": -0.152 },
        "label": "Ac",
        "xyz": [2.02287552504273, 1.1679079595749449, 4.87968339]
      },
      {
        "species": [{ "element": "Ac", "occu": 1 }],
        "abc": [0.83188043, 0.6637608500000001, 0.75],
        "properties": { "magmom": -0.152 },
        "label": "Ac",
        "xyz": [4.010785199485511, 4.611076132264772, 4.87968339]
      },
      {
        "species": [{ "element": "Ac", "occu": 1 }],
        "abc": [0.16811957, 0.83188143, 0.249999],
        "properties": { "magmom": -0.152 },
        "label": "Ac",
        "xyz": [-1.9879218165907953, 5.778997788210975, 1.62655462375548]
      },
      {
        "species": [{ "element": "Ac", "occu": 1 }],
        "abc": [0.66376185, 0.83188143, 0.249999],
        "properties": { "magmom": -0.152 },
        "label": "Ac",
        "xyz": [1.9879115957403792, 5.778994477320545, 1.62655462375548]
      },
      {
        "species": [{ "element": "Ac", "occu": 1 }],
        "abc": [0.16811857, 0.33623815, 0.249999],
        "properties": { "magmom": -0.152 },
        "label": "Ac",
        "xyz": [-6.100268621356264e-6, 2.3358124108397376, 1.62655462375548]
      },
      {
        "species": [{ "element": "La", "occu": 1 }],
        "abc": [0.666667, 0.333333999999999, 0.249999],
        "properties": { "magmom": -0.262 },
        "label": "La",
        "xyz": [4.010787173329274, 2.315634234599213, 1.62655462375548]
      },
      {
        "species": [{ "element": "La", "occu": 1 }],
        "abc": [0.333333, 0.666666, 0.75],
        "properties": { "magmom": -0.262 },
        "label": "La",
        "xyz": [-4.063329269943239e-6, 4.631261255400779, 4.87968339]
      }
    ]
  },
  "task_ids": null,
  "uncorrected_energy_per_atom": null,
  "energy_per_atom": -58.890162435,
  "formation_energy_per_atom": 0.024142175625001,
  "energy_above_hull": 0.024142175625001,
  "is_stable": false,
  "equilibrium_reaction_energy_per_atom": null,
  "decomposes_to": null,
  "xas": null,
  "grain_boundaries": null,
  "band_gap": 0.0,
  "cbm": null,
  "vbm": null,
  "efermi": 6.43012379,
  "is_gap_direct": null,
  "is_metal": null,
  "es_source_calc_id": null,
  "bandstructure": null,
  "dos": null,
  "dos_energy_up": null,
  "dos_energy_down": null,
  "is_magnetic": null,
  "ordering": null,
  "total_magnetization": 3.8029159,
  "total_magnetization_normalized_vol": null,
  "total_magnetization_normalized_formula_units": null,
  "num_magnetic_sites": null,
  "num_unique_magnetic_sites": null,
  "types_of_magnetic_species": null,
  "bulk_modulus": null,
  "shear_modulus": null,
  "universal_anisotropy": null,
  "homogeneous_poisson": null,
  "e_total": null,
  "e_ionic": null,
  "e_electronic": null,
  "n": null,
  "e_ij_max": null,
  "weighted_surface_energy_EV_PER_ANG2": null,
  "weighted_surface_energy": null,
  "weighted_work_function": null,
  "surface_anisotropy": null,
  "shape_factor": null,
  "has_reconstructed": null,
  "possible_species": null,
  "has_props": null,
  "theoretical": null,
  "database_IDs": null,
  "fields_not_requested": [
    "builder_meta",
    "nsites",
    "elements",
    "nelements",
    "composition",
    "composition_reduced",
    "chemsys",
    "symmetry",
    "property_name",
    "deprecated",
    "deprecation_reasons",
    "last_updated",
    "origins",
    "warnings",
    "task_ids",
    "uncorrected_energy_per_atom",
    "equilibrium_reaction_energy_per_atom",
    "decomposes_to",
    "xas",
    "grain_boundaries",
    "cbm",
    "vbm",
    "is_gap_direct",
    "is_metal",
    "es_source_calc_id",
    "bandstructure",
    "dos",
    "dos_energy_up",
    "dos_energy_down",
    "is_magnetic",
    "ordering",
    "total_magnetization_normalized_vol",
    "total_magnetization_normalized_formula_units",
    "num_magnetic_sites",
    "num_unique_magnetic_sites",
    "types_of_magnetic_species",
    "bulk_modulus",
    "shear_modulus",
    "universal_anisotropy",
    "homogeneous_poisson",
    "e_total",
    "e_ionic",
    "e_electronic",
    "n",
    "e_ij_max",
    "weighted_surface_energy_EV_PER_ANG2",
    "weighted_surface_energy",
    "weighted_work_function",
    "surface_anisotropy",
    "shape_factor",
    "has_reconstructed",
    "possible_species",
    "has_props",
    "theoretical",
    "database_IDs"
  ]
}
