{
  "builder_meta": null,
  "nsites": null,
  "elements": null,
  "nelements": null,
  "composition": null,
  "composition_reduced": null,
  "formula_pretty": "Ac3Np",
  "formula_anonymous": "AB3",
  "chemsys": null,
  "volume": 323.8291764380507,
  "density": 9.414685112108275,
  "density_atomic": 40.47864705475634,
  "symmetry": null,
  "property_name": null,
  "material_id": "mp-1183280",
  "deprecated": null,
  "deprecation_reasons": null,
  "last_updated": null,
  "origins": null,
  "warnings": null,
  "structure": {
    "@module": "pymatgen.core.structure",
    "@class": "Structure",
    "charge": 0,
    "lattice": {
      "matrix": [
        [3.891116, -6.73961, 0.0],
        [3.891116, 6.73961, 0.0],
        [0.0, 0.0, 6.174148]
      ],
      "pbc": [true, true, true],
      "a": 7.782231471599646,
      "b": 7.782231471599646,
      "c": 6.174148,
      "alpha": 90.0,
      "beta": 90.0,
      "gamma": 119.99999550788402,
      "volume": 323.8291764380507
    },
    "properties": {},
    "sites": [
      {
        "species": [{ "element": "Ac", "occu": 1 }],
        "abc": [0.829183, 0.170817, 0.75],
        "properties": { "magmom": -0.094 },
        "label": "Ac",
        "xyz": [3.891116, -4.43713007726, 4.630611]
      },
      {
        "species": [{ "element": "Ac", "occu": 1 }],
        "abc": [0.341634, 0.170817, 0.75],
        "properties": { "magmom": -0.094 },
        "label": "Ac",
        "xyz": [1.9940062853159999, -1.15123996137, 4.630611]
      },
      {
        "species": [{ "element": "Ac", "occu": 1 }],
        "abc": [0.829183, 0.658366, 0.75],
        "properties": { "magmom": -0.094 },
        "label": "Ac",
        "xyz": [5.788225714684, -1.15123996137, 4.630611]
      },
      {
        "species": [{ "element": "Ac", "occu": 1 }],
        "abc": [0.170817, 0.829183, 0.25],
        "properties": { "magmom": -0.095 },
        "label": "Ac",
        "xyz": [3.891116, 4.43713007726, 1.543537]
      },
      {
        "species": [{ "element": "Ac", "occu": 1 }],
        "abc": [0.658366, 0.829183, 0.25],
        "properties": { "magmom": -0.095 },
        "label": "Ac",
        "xyz": [5.788225714684, 1.15123996137, 1.543537]
      },
      {
        "species": [{ "element": "Ac", "occu": 1 }],
        "abc": [0.170817, 0.341634, 0.25],
        "properties": { "magmom": -0.095 },
        "label": "Ac",
        "xyz": [1.9940062853159999, 1.15123996137, 1.543537]
      },
      {
        "species": [{ "element": "Np", "occu": 1 }],
        "abc": [0.666667, 0.333333, 0.25],
        "properties": { "magmom": -4.301 },
        "label": "Np",
        "xyz": [3.8911160000000002, -2.2465411597400005, 1.543537]
      },
      {
        "species": [{ "element": "Np", "occu": 1 }],
        "abc": [0.333333, 0.666667, 0.75],
        "properties": { "magmom": -4.307 },
        "label": "Np",
        "xyz": [3.8911160000000002, 2.2465411597400005, 4.630611]
      }
    ]
  },
  "task_ids": null,
  "uncorrected_energy_per_atom": null,
  "energy_per_atom": -71.77244533625,
  "formation_energy_per_atom": 0.46171710593749504,
  "energy_above_hull": 0.46171710593749504,
  "is_stable": false,
  "equilibrium_reaction_energy_per_atom": null,
  "decomposes_to": null,
  "xas": null,
  "grain_boundaries": null,
  "band_gap": 0.0,
  "cbm": null,
  "vbm": null,
  "efermi": 7.03524762,
  "is_gap_direct": null,
  "is_metal": null,
  "es_source_calc_id": null,
  "bandstructure": null,
  "dos": null,
  "dos_energy_up": null,
  "dos_energy_down": null,
  "is_magnetic": null,
  "ordering": null,
  "total_magnetization": 11.0625291,
  "total_magnetization_normalized_vol": null,
  "total_magnetization_normalized_formula_units": null,
  "num_magnetic_sites": null,
  "num_unique_magnetic_sites": null,
  "types_of_magnetic_species": null,
  "bulk_modulus": null,
  "shear_modulus": null,
  "universal_anisotropy": null,
  "homogeneous_poisson": null,
  "e_total": null,
  "e_ionic": null,
  "e_electronic": null,
  "n": null,
  "e_ij_max": null,
  "weighted_surface_energy_EV_PER_ANG2": null,
  "weighted_surface_energy": null,
  "weighted_work_function": null,
  "surface_anisotropy": null,
  "shape_factor": null,
  "has_reconstructed": null,
  "possible_species": null,
  "has_props": null,
  "theoretical": null,
  "database_IDs": null,
  "fields_not_requested": [
    "builder_meta",
    "nsites",
    "elements",
    "nelements",
    "composition",
    "composition_reduced",
    "chemsys",
    "symmetry",
    "property_name",
    "deprecated",
    "deprecation_reasons",
    "last_updated",
    "origins",
    "warnings",
    "task_ids",
    "uncorrected_energy_per_atom",
    "equilibrium_reaction_energy_per_atom",
    "decomposes_to",
    "xas",
    "grain_boundaries",
    "cbm",
    "vbm",
    "is_gap_direct",
    "is_metal",
    "es_source_calc_id",
    "bandstructure",
    "dos",
    "dos_energy_up",
    "dos_energy_down",
    "is_magnetic",
    "ordering",
    "total_magnetization_normalized_vol",
    "total_magnetization_normalized_formula_units",
    "num_magnetic_sites",
    "num_unique_magnetic_sites",
    "types_of_magnetic_species",
    "bulk_modulus",
    "shear_modulus",
    "universal_anisotropy",
    "homogeneous_poisson",
    "e_total",
    "e_ionic",
    "e_electronic",
    "n",
    "e_ij_max",
    "weighted_surface_energy_EV_PER_ANG2",
    "weighted_surface_energy",
    "weighted_work_function",
    "surface_anisotropy",
    "shape_factor",
    "has_reconstructed",
    "possible_species",
    "has_props",
    "theoretical",
    "database_IDs"
  ]
}
