{"builder_meta": null, "nsites": null, "elements": null, "nelements": null, "composition": null, "composition_reduced": null, "formula_pretty": "Ac3Nd", "formula_anonymous": "AB3", "chemsys": null, "volume": 350.671571231021, "density": 7.815555595730561, "density_atomic": 43.833946403877626, "symmetry": null, "property_name": null, "material_id": "mp-985554", "deprecated": null, "deprecation_reasons": null, "last_updated": null, "origins": null, "warnings": null, "structure": {"@module": "pymatgen.core.structure", "@class": "Structure", "charge": 0, "lattice": {"matrix": [[7.99413076, -1.38e-06, -2.04e-06], [-3.99706502, 6.92311586, 9e-08], [-1.519999999999999e-06, -8.9e-07, 6.33618363]], "pbc": [true, true, true], "a": 7.994130760000379, "b": 7.994126718103182, "c": 6.336183630000245, "alpha": 89.9999994522674, "beta": 90.00002836595056, "gamma": 120.00002363680304, "volume": 350.671571231021}, "properties": {}, "sites": [{"species": [{"element": "Ac", "occu": 1}], "abc": [0.83091477, 0.16908506, 0.74999958], "properties": {"magmom": 0.003}, "label": "Ac", "xyz": [5.966596203065363, 1.1705936464130429, 4.7521333814544]}, {"species": [{"element": "Ac", "occu": 1}], "abc": [0.33817006, 0.16908484000000001, 0.74999911], "properties": {"magmom": 0.003}, "label": "Ac", "xyz": [2.0275314393821016, 1.1705928033156718, 4.752131408647283]}, {"species": [{"element": "Ac", "occu": 1}], "abc": [0.83091485, 0.66182926, 0.74999918], "properties": {"magmom": 0.003}, "label": "Ac", "xyz": [3.9970662369685472, 4.5819188323563, 4.752130891327763]}, {"species": [{"element": "Ac", "occu": 1}], "abc": [0.16903874, 0.83096057, 0.25000183], "properties": {"magmom": 0.003}, "label": "Ac", "xyz": [-1.9700860162834009, 5.752835845426551, 1.5840572326634645]}, {"species": [{"element": "Ac", "occu": 1}], "abc": [0.66192215, 0.83096065, 0.25000153], "properties": {"magmom": 0.003}, "label": "Ac", "xyz": [1.9700880929265456, 5.75283571909698, 1.5840543263262266]}, {"species": [{"element": "Ac", "occu": 1}], "abc": [0.16903864, 0.33807736, 0.2500014], "properties": {"magmom": 0.003}, "label": "Ac", "xyz": [-5.780595089401418e-07, 2.3405482771483603, 1.5840544637452187]}, {"species": [{"element": "Nd", "occu": 1}], "abc": [0.6666667900000001, 0.33333176000000003, 0.24998994], "properties": {"magmom": 0.005}, "label": "Nd", "xyz": [3.997072394673717, 2.307693251806497, 1.583980835492289]}, {"species": [{"element": "Nd", "occu": 1}], "abc": [0.33333299, 0.66666751, 0.75001143], "properties": {"magmom": 0.005}, "label": "Nd", "xyz": [-7.0155271016815955e-06, 4.61541528431801, 4.752209525079667]}]}, "task_ids": null, "uncorrected_energy_per_atom": null, "energy_per_atom": -58.81408571625, "formation_energy_per_atom": 0.018526088750000003, "energy_above_hull": 0.018526088750000003, "is_stable": false, "equilibrium_reaction_energy_per_atom": null, "decomposes_to": null, "xas": null, "grain_boundaries": null, "band_gap": 0.0, "cbm": null, "vbm": null, "efermi": 5.50494719, "is_gap_direct": null, "is_metal": null, "es_source_calc_id": null, "bandstructure": null, "dos": null, "dos_energy_up": null, "dos_energy_down": null, "is_magnetic": null, "ordering": null, "total_magnetization": 0.1009824, "total_magnetization_normalized_vol": null, "total_magnetization_normalized_formula_units": null, "num_magnetic_sites": null, "num_unique_magnetic_sites": null, "types_of_magnetic_species": null, "bulk_modulus": null, "shear_modulus": null, "universal_anisotropy": null, "homogeneous_poisson": null, "e_total": null, "e_ionic": null, "e_electronic": null, "n": null, "e_ij_max": null, "weighted_surface_energy_EV_PER_ANG2": null, "weighted_surface_energy": null, "weighted_work_function": null, "surface_anisotropy": null, "shape_factor": null, "has_reconstructed": null, "possible_species": null, "has_props": null, "theoretical": null, "database_IDs": null, "fields_not_requested": ["builder_meta", "nsites", "elements", "nelements", "composition", "composition_reduced", "chemsys", "symmetry", "property_name", "deprecated", "deprecation_reasons", "last_updated", "origins", "warnings", "task_ids", "uncorrected_energy_per_atom", "equilibrium_reaction_energy_per_atom", "decomposes_to", "xas", "grain_boundaries", "cbm", "vbm", "is_gap_direct", "is_metal", "es_source_calc_id", "bandstructure", "dos", "dos_energy_up", "dos_energy_down", "is_magnetic", "ordering", "total_magnetization_normalized_vol", "total_magnetization_normalized_formula_units", "num_magnetic_sites", "num_unique_magnetic_sites", "types_of_magnetic_species", "bulk_modulus", "shear_modulus", "universal_anisotropy", "homogeneous_poisson", "e_total", "e_ionic", "e_electronic", "n", "e_ij_max", "weighted_surface_energy_EV_PER_ANG2", "weighted_surface_energy", "weighted_work_function", "surface_anisotropy", "shape_factor", "has_reconstructed", "possible_species", "has_props", "theoretical", "database_IDs"]}