{
  "builder_meta": null,
  "nsites": null,
  "elements": null,
  "nelements": null,
  "composition": null,
  "composition_reduced": null,
  "formula_pretty": "Ac3Pa",
  "formula_anonymous": "AB3",
  "chemsys": null,
  "volume": 313.94101627190605,
  "density": 9.648125796784818,
  "density_atomic": 39.242627033988256,
  "symmetry": null,
  "property_name": null,
  "material_id": "mp-1183126",
  "deprecated": null,
  "deprecation_reasons": null,
  "last_updated": null,
  "origins": null,
  "warnings": null,
  "structure": {
    "@module": "pymatgen.core.structure",
    "@class": "Structure",
    "charge": 0,
    "lattice": {
      "matrix": [
        [3.823188, -6.621956, 0.0],
        [3.823188, 6.621956, 0.0],
        [0.0, 0.0, 6.200206]
      ],
      "pbc": [true, true, true],
      "a": 7.646376118742786,
      "b": 7.646376118742786,
      "c": 6.200206,
      "alpha": 90.0,
      "beta": 90.0,
      "gamma": 120.0000010274095,
      "volume": 313.94101627190605
    },
    "properties": {},
    "sites": [
      {
        "species": [{ "element": "Ac", "occu": 1 }],
        "abc": [0.171985, 0.34397000000000005, 0.25],
        "properties": { "magmom": 0.028 },
        "label": "Ac",
        "xyz": [1.9725929645400002, 1.1388771026600004, 1.5500515]
      },
      {
        "species": [{ "element": "Ac", "occu": 1 }],
        "abc": [0.65603, 0.828015, 0.25],
        "properties": { "magmom": 0.029 },
        "label": "Ac",
        "xyz": [5.67378303546, 1.1388771026599995, 1.5500515]
      },
      {
        "species": [{ "element": "Ac", "occu": 1 }],
        "abc": [0.171985, 0.828015, 0.25],
        "properties": { "magmom": 0.022 },
        "label": "Ac",
        "xyz": [3.823188, 4.34420179468, 1.5500515]
      },
      {
        "species": [{ "element": "Ac", "occu": 1 }],
        "abc": [0.828015, 0.65603, 0.75],
        "properties": { "magmom": 0.027 },
        "label": "Ac",
        "xyz": [5.67378303546, -1.1388771026599995, 4.650154499999999]
      },
      {
        "species": [{ "element": "Ac", "occu": 1 }],
        "abc": [0.34397000000000005, 0.171985, 0.75],
        "properties": { "magmom": 0.03 },
        "label": "Ac",
        "xyz": [1.9725929645400002, -1.1388771026600004, 4.650154499999999]
      },
      {
        "species": [{ "element": "Ac", "occu": 1 }],
        "abc": [0.828015, 0.171985, 0.75],
        "properties": { "magmom": 0.021 },
        "label": "Ac",
        "xyz": [3.823188, -4.34420179468, 4.650154499999999]
      },
      {
        "species": [{ "element": "Pa", "occu": 1 }],
        "abc": [0.333333, 0.666667, 0.75],
        "properties": { "magmom": 0.895 },
        "label": "Pa",
        "xyz": [3.823188, 2.2073230813039997, 4.650154499999999]
      },
      {
        "species": [{ "element": "Pa", "occu": 1 }],
        "abc": [0.666667, 0.333333, 0.25],
        "properties": { "magmom": 0.896 },
        "label": "Pa",
        "xyz": [3.823188, -2.2073230813039997, 1.5500515]
      }
    ]
  },
  "task_ids": null,
  "uncorrected_energy_per_atom": null,
  "energy_per_atom": -70.27646323500001,
  "formation_energy_per_atom": 0.415650869374999,
  "energy_above_hull": 0.415650869374999,
  "is_stable": false,
  "equilibrium_reaction_energy_per_atom": null,
  "decomposes_to": null,
  "xas": null,
  "grain_boundaries": null,
  "band_gap": 0.0,
  "cbm": null,
  "vbm": null,
  "efermi": 7.24871906,
  "is_gap_direct": null,
  "is_metal": null,
  "es_source_calc_id": null,
  "bandstructure": null,
  "dos": null,
  "dos_energy_up": null,
  "dos_energy_down": null,
  "is_magnetic": null,
  "ordering": null,
  "total_magnetization": 2.608224899999999,
  "total_magnetization_normalized_vol": null,
  "total_magnetization_normalized_formula_units": null,
  "num_magnetic_sites": null,
  "num_unique_magnetic_sites": null,
  "types_of_magnetic_species": null,
  "bulk_modulus": null,
  "shear_modulus": null,
  "universal_anisotropy": null,
  "homogeneous_poisson": null,
  "e_total": null,
  "e_ionic": null,
  "e_electronic": null,
  "n": null,
  "e_ij_max": null,
  "weighted_surface_energy_EV_PER_ANG2": null,
  "weighted_surface_energy": null,
  "weighted_work_function": null,
  "surface_anisotropy": null,
  "shape_factor": null,
  "has_reconstructed": null,
  "possible_species": null,
  "has_props": null,
  "theoretical": null,
  "database_IDs": null,
  "fields_not_requested": [
    "builder_meta",
    "nsites",
    "elements",
    "nelements",
    "composition",
    "composition_reduced",
    "chemsys",
    "symmetry",
    "property_name",
    "deprecated",
    "deprecation_reasons",
    "last_updated",
    "origins",
    "warnings",
    "task_ids",
    "uncorrected_energy_per_atom",
    "equilibrium_reaction_energy_per_atom",
    "decomposes_to",
    "xas",
    "grain_boundaries",
    "cbm",
    "vbm",
    "is_gap_direct",
    "is_metal",
    "es_source_calc_id",
    "bandstructure",
    "dos",
    "dos_energy_up",
    "dos_energy_down",
    "is_magnetic",
    "ordering",
    "total_magnetization_normalized_vol",
    "total_magnetization_normalized_formula_units",
    "num_magnetic_sites",
    "num_unique_magnetic_sites",
    "types_of_magnetic_species",
    "bulk_modulus",
    "shear_modulus",
    "universal_anisotropy",
    "homogeneous_poisson",
    "e_total",
    "e_ionic",
    "e_electronic",
    "n",
    "e_ij_max",
    "weighted_surface_energy_EV_PER_ANG2",
    "weighted_surface_energy",
    "weighted_work_function",
    "surface_anisotropy",
    "shape_factor",
    "has_reconstructed",
    "possible_species",
    "has_props",
    "theoretical",
    "database_IDs"
  ]
}
