{"builder_meta": null, "nsites": null, "elements": null, "nelements": null, "composition": null, "composition_reduced": null, "formula_pretty": "Ac3Pm", "formula_anonymous": "AB3", "chemsys": null, "volume": 346.43706381773933, "density": 7.918351771582973, "density_atomic": 43.304632977217416, "symmetry": null, "property_name": null, "material_id": "mp-1183109", "deprecated": null, "deprecation_reasons": null, "last_updated": null, "origins": null, "warnings": null, "structure": {"@module": "pymatgen.core.structure", "@class": "Structure", "charge": 0, "lattice": {"matrix": [[3.98906172, -6.90925731, -0.0], [3.98906172, 6.90925731, 0.0], [-0.0, 0.0, 6.28481113]], "pbc": [true, true, true], "a": 7.978123211743336, "b": 7.978123211743336, "c": 6.28481113, "alpha": 90.0, "beta": 90.0, "gamma": 119.9999981071564, "volume": 346.43706381773933}, "properties": {}, "sites": [{"species": [{"element": "Ac", "occu": 1}], "abc": [0.8305276300000001, 0.16947237, 0.75], "properties": {"magmom": 0.002}, "label": "Ac", "xyz": [3.9890617200000005, -4.567400887468951, 4.713608347499999]}, {"species": [{"element": "Ac", "occu": 1}], "abc": [0.33894474, 0.16947237, 0.75], "properties": {"magmom": 0.002}, "label": "Ac", "xyz": [2.0281072312940296, -1.1709282112655248, 4.713608347499999]}, {"species": [{"element": "Ac", "occu": 1}], "abc": [0.8305276300000001, 0.66105526, 0.75], "properties": {"magmom": 0.002}, "label": "Ac", "xyz": [5.950016208705971, -1.170928211265525, 4.713608347499999]}, {"species": [{"element": "Ac", "occu": 1}], "abc": [0.16947237, 0.8305276300000001, 0.25], "properties": {"magmom": 0.002}, "label": "Ac", "xyz": [3.9890617200000005, 4.567400887468951, 1.5712027825]}, {"species": [{"element": "Ac", "occu": 1}], "abc": [0.66105526, 0.8305276300000001, 0.25], "properties": {"magmom": 0.002}, "label": "Ac", "xyz": [5.950016208705971, 1.170928211265525, 1.5712027825]}, {"species": [{"element": "Ac", "occu": 1}], "abc": [0.16947237, 0.33894474, 0.25], "properties": {"magmom": 0.002}, "label": "Ac", "xyz": [2.0281072312940296, 1.1709282112655248, 1.5712027825]}, {"species": [{"element": "Pm", "occu": 1}], "abc": [0.666667, 0.333333, 0.25], "properties": {"magmom": 0.005}, "label": "Pm", "xyz": [3.9890617200000005, -2.30309037617154, 1.5712027825]}, {"species": [{"element": "Pm", "occu": 1}], "abc": [0.333333, 0.666667, 0.75], "properties": {"magmom": 0.005}, "label": "Pm", "xyz": [3.9890617200000005, 2.30309037617154, 4.713608347499999]}]}, "task_ids": null, "uncorrected_energy_per_atom": null, "energy_per_atom": -58.82649353125, "formation_energy_per_atom": 0.036769143749999005, "energy_above_hull": 0.036769143749999005, "is_stable": false, "equilibrium_reaction_energy_per_atom": null, "decomposes_to": null, "xas": null, "grain_boundaries": null, "band_gap": 0.0, "cbm": null, "vbm": null, "efermi": 5.46708955, "is_gap_direct": null, "is_metal": null, "es_source_calc_id": null, "bandstructure": null, "dos": null, "dos_energy_up": null, "dos_energy_down": null, "is_magnetic": null, "ordering": null, "total_magnetization": 0.043981, "total_magnetization_normalized_vol": null, "total_magnetization_normalized_formula_units": null, "num_magnetic_sites": null, "num_unique_magnetic_sites": null, "types_of_magnetic_species": null, "bulk_modulus": null, "shear_modulus": null, "universal_anisotropy": null, "homogeneous_poisson": null, "e_total": null, "e_ionic": null, "e_electronic": null, "n": null, "e_ij_max": null, "weighted_surface_energy_EV_PER_ANG2": null, "weighted_surface_energy": null, "weighted_work_function": null, "surface_anisotropy": null, "shape_factor": null, "has_reconstructed": null, "possible_species": null, "has_props": null, "theoretical": null, "database_IDs": null, "fields_not_requested": ["builder_meta", "nsites", "elements", "nelements", "composition", "composition_reduced", "chemsys", "symmetry", "property_name", "deprecated", "deprecation_reasons", "last_updated", "origins", "warnings", "task_ids", "uncorrected_energy_per_atom", "equilibrium_reaction_energy_per_atom", "decomposes_to", "xas", "grain_boundaries", "cbm", "vbm", "is_gap_direct", "is_metal", "es_source_calc_id", "bandstructure", "dos", "dos_energy_up", "dos_energy_down", "is_magnetic", "ordering", "total_magnetization_normalized_vol", "total_magnetization_normalized_formula_units", "num_magnetic_sites", "num_unique_magnetic_sites", "types_of_magnetic_species", "bulk_modulus", "shear_modulus", "universal_anisotropy", "homogeneous_poisson", "e_total", "e_ionic", "e_electronic", "n", "e_ij_max", "weighted_surface_energy_EV_PER_ANG2", "weighted_surface_energy", "weighted_work_function", "surface_anisotropy", "shape_factor", "has_reconstructed", "possible_species", "has_props", "theoretical", "database_IDs"]}