{
  "builder_meta": null,
  "nsites": null,
  "elements": null,
  "nelements": null,
  "composition": null,
  "composition_reduced": null,
  "formula_pretty": "Ac3Pr",
  "formula_anonymous": "AB3",
  "chemsys": null,
  "volume": 353.3404698907035,
  "density": 7.725182243542989,
  "density_atomic": 44.16755873633794,
  "symmetry": null,
  "property_name": null,
  "material_id": "mp-985302",
  "deprecated": null,
  "deprecation_reasons": null,
  "last_updated": null,
  "origins": null,
  "warnings": null,
  "structure": {
    "@module": "pymatgen.core.structure",
    "@class": "Structure",
    "charge": 0,
    "lattice": {
      "matrix": [
        [8.0102044, 4.15e-6, -2.66e-6],
        [-4.0050986, 6.93703865, 3.669999999999998e-6],
        [-2.149999999999999e-6, 2.189999999999999e-6, 6.35880548]
      ],
      "pbc": [true, true, true],
      "a": 8.010204400001516,
      "b": 8.010200997935648,
      "c": 6.358805480000741,
      "alpha": 89.99994697358471,
      "beta": 90.00003839906189,
      "gamma": 119.99995463134968,
      "volume": 353.3404698907035
    },
    "properties": {},
    "sites": [
      {
        "species": [{ "element": "Ac", "occu": 1 }],
        "abc": [0.16825452, 0.33650924, 0.25005015],
        "properties": { "magmom": -0.007 },
        "label": "Ac",
        "xyz": [-1.2719499877410785e-7, 2.3343788498282128, 1.59002105152671]
      },
      {
        "species": [{ "element": "Ac", "occu": 1 }],
        "abc": [0.66349051, 0.83174441, 0.25005016],
        "properties": { "magmom": -0.007 },
        "label": "Ac",
        "xyz": [1.9834756929035735, 5.769846420186913, 1.5900216153001052]
      },
      {
        "species": [{ "element": "Ac", "occu": 1 }],
        "abc": [0.16825424, 0.83174494, 0.2500502],
        "properties": { "magmom": -0.007 },
        "label": "Ac",
        "xyz": [-1.9834701787923583, 5.769848041586965, 1.5900231869827475]
      },
      {
        "species": [{ "element": "Ac", "occu": 1 }],
        "abc": [0.83175184, 0.6635013, 0.74995099],
        "properties": { "magmom": -0.007 },
        "label": "Ac",
        "xyz": [4.005112508353287, 4.602739256588049, 4.768792687533302]
      },
      {
        "species": [{ "element": "Ac", "occu": 1 }],
        "abc": [0.33649792, 0.16824752, 0.7499510500000001],
        "properties": { "magmom": -0.007 },
        "label": "Ac",
        "xyz": [2.021567600174618, 1.1671425878658157, 4.768792568855686]
      },
      {
        "species": [{ "element": "Ac", "occu": 1 }],
        "abc": [0.83175096, 0.16824736, 0.74995101],
        "properties": { "magmom": -0.007 },
        "label": "Ac",
        "xyz": [5.988646321111856, 1.1671435332396598, 4.768790997129792]
      },
      {
        "species": [{ "element": "Pr", "occu": 1 }],
        "abc": [0.33333337, 0.66666581, 0.74995097],
        "properties": { "magmom": -0.01 },
        "label": "Pr",
        "xyz": [4.512347376099513e-6, 4.624689516329666, 4.768793897764074]
      },
      {
        "species": [{ "element": "Pr", "occu": 1 }],
        "abc": [0.66666663, 0.33333242, 0.25004948],
        "properties": { "magmom": -0.01 },
        "label": "Pr",
        "xyz": [4.005106226676178, 2.3123431951129088, 1.5900154536918958]
      }
    ]
  },
  "task_ids": null,
  "uncorrected_energy_per_atom": null,
  "energy_per_atom": -58.81129837125,
  "formation_energy_per_atom": 0.017800280208334,
  "energy_above_hull": 0.017800280208334,
  "is_stable": false,
  "equilibrium_reaction_energy_per_atom": null,
  "decomposes_to": null,
  "xas": null,
  "grain_boundaries": null,
  "band_gap": 0.0,
  "cbm": null,
  "vbm": null,
  "efermi": 5.4714197,
  "is_gap_direct": null,
  "is_metal": null,
  "es_source_calc_id": null,
  "bandstructure": null,
  "dos": null,
  "dos_energy_up": null,
  "dos_energy_down": null,
  "is_magnetic": null,
  "ordering": null,
  "total_magnetization": 0.232402299999999,
  "total_magnetization_normalized_vol": null,
  "total_magnetization_normalized_formula_units": null,
  "num_magnetic_sites": null,
  "num_unique_magnetic_sites": null,
  "types_of_magnetic_species": null,
  "bulk_modulus": null,
  "shear_modulus": null,
  "universal_anisotropy": null,
  "homogeneous_poisson": null,
  "e_total": null,
  "e_ionic": null,
  "e_electronic": null,
  "n": null,
  "e_ij_max": null,
  "weighted_surface_energy_EV_PER_ANG2": null,
  "weighted_surface_energy": null,
  "weighted_work_function": null,
  "surface_anisotropy": null,
  "shape_factor": null,
  "has_reconstructed": null,
  "possible_species": null,
  "has_props": null,
  "theoretical": null,
  "database_IDs": null,
  "fields_not_requested": [
    "builder_meta",
    "nsites",
    "elements",
    "nelements",
    "composition",
    "composition_reduced",
    "chemsys",
    "symmetry",
    "property_name",
    "deprecated",
    "deprecation_reasons",
    "last_updated",
    "origins",
    "warnings",
    "task_ids",
    "uncorrected_energy_per_atom",
    "equilibrium_reaction_energy_per_atom",
    "decomposes_to",
    "xas",
    "grain_boundaries",
    "cbm",
    "vbm",
    "is_gap_direct",
    "is_metal",
    "es_source_calc_id",
    "bandstructure",
    "dos",
    "dos_energy_up",
    "dos_energy_down",
    "is_magnetic",
    "ordering",
    "total_magnetization_normalized_vol",
    "total_magnetization_normalized_formula_units",
    "num_magnetic_sites",
    "num_unique_magnetic_sites",
    "types_of_magnetic_species",
    "bulk_modulus",
    "shear_modulus",
    "universal_anisotropy",
    "homogeneous_poisson",
    "e_total",
    "e_ionic",
    "e_electronic",
    "n",
    "e_ij_max",
    "weighted_surface_energy_EV_PER_ANG2",
    "weighted_surface_energy",
    "weighted_work_function",
    "surface_anisotropy",
    "shape_factor",
    "has_reconstructed",
    "possible_species",
    "has_props",
    "theoretical",
    "database_IDs"
  ]
}
