{"builder_meta": null, "nsites": null, "elements": null, "nelements": null, "composition": null, "composition_reduced": null, "formula_pretty": "Ac3Sm", "formula_anonymous": "AB3", "chemsys": null, "volume": 344.63610464958464, "density": 8.011382091335042, "density_atomic": 43.07951308119808, "symmetry": null, "property_name": null, "material_id": "mp-985547", "deprecated": null, "deprecation_reasons": null, "last_updated": null, "origins": null, "warnings": null, "structure": {"@module": "pymatgen.core.structure", "@class": "Structure", "charge": 0, "lattice": {"matrix": [[7.96327208, 0.0, -0.0], [-3.98163604, 6.89639747, -0.0], [0.0, -0.0, 6.27547978]], "pbc": [true, true, true], "a": 7.96327208, "b": 7.963273423614769, "c": 6.27547978, "alpha": 90.0, "beta": 90.0, "gamma": 119.99999441857447, "volume": 344.63610464958464}, "properties": {}, "sites": [{"species": [{"element": "Ac", "occu": 1}], "abc": [0.169753, 0.33950499, 0.249999], "properties": {"magmom": -0.0}, "label": "Ac", "xyz": [4.021452400193581e-06, 2.3413613540883755, 1.56886366952022]}, {"species": [{"element": "Ac", "occu": 1}], "abc": [0.66049501, 0.830247, 0.249999], "properties": {"magmom": -0.0}, "label": "Ac", "xyz": [1.9539600948104408, 5.72571331027509, 1.56886366952022]}, {"species": [{"element": "Ac", "occu": 1}], "abc": [0.169753, 0.830247, 0.249999], "properties": {"magmom": -0.0}, "label": "Ac", "xyz": [-1.95395205190564, 5.72571331027509, 1.56886366952022]}, {"species": [{"element": "Ac", "occu": 1}], "abc": [0.830248, 0.66049701, 0.75], "properties": {"magmom": -0.0}, "label": "Ac", "xyz": [3.9816320185475997, 4.5550499087065655, 4.706609835]}, {"species": [{"element": "Ac", "occu": 1}], "abc": [0.33950299, 0.169752, 0.75], "properties": {"magmom": -0.0}, "label": "Ac", "xyz": [2.0276640002814394, 1.1706772633274398, 4.706609835]}, {"species": [{"element": "Ac", "occu": 1}], "abc": [0.830245999999999, 0.169752, 0.75], "properties": {"magmom": -0.0}, "label": "Ac", "xyz": [5.935584110269593, 1.1706772633274398, 4.706609835]}, {"species": [{"element": "Sm", "occu": 1}], "abc": [0.333333, 0.666667, 0.75], "properties": {"magmom": -0.0}, "label": "Sm", "xyz": [-3.981636039984693e-06, 4.59760061213249, 4.706609835]}, {"species": [{"element": "Sm", "occu": 1}], "abc": [0.666666, 0.333333, 0.249999], "properties": {"magmom": -0.0}, "label": "Sm", "xyz": [3.98163205836396, 2.29879685786751, 1.56886366952022]}]}, "task_ids": null, "uncorrected_energy_per_atom": null, "energy_per_atom": -58.87216764125, "formation_energy_per_atom": 0.039172998124996, "energy_above_hull": 0.039172998124996, "is_stable": false, "equilibrium_reaction_energy_per_atom": null, "decomposes_to": null, "xas": null, "grain_boundaries": null, "band_gap": 0.0, "cbm": null, "vbm": null, "efermi": 5.49197262, "is_gap_direct": null, "is_metal": null, "es_source_calc_id": null, "bandstructure": null, "dos": null, "dos_energy_up": null, "dos_energy_down": null, "is_magnetic": null, "ordering": null, "total_magnetization": 0.00018539999999900002, "total_magnetization_normalized_vol": null, "total_magnetization_normalized_formula_units": null, "num_magnetic_sites": null, "num_unique_magnetic_sites": null, "types_of_magnetic_species": null, "bulk_modulus": null, "shear_modulus": null, "universal_anisotropy": null, "homogeneous_poisson": null, "e_total": null, "e_ionic": null, "e_electronic": null, "n": null, "e_ij_max": null, "weighted_surface_energy_EV_PER_ANG2": null, "weighted_surface_energy": null, "weighted_work_function": null, "surface_anisotropy": null, "shape_factor": null, "has_reconstructed": null, "possible_species": null, "has_props": null, "theoretical": null, "database_IDs": null, "fields_not_requested": ["builder_meta", "nsites", "elements", "nelements", "composition", "composition_reduced", "chemsys", "symmetry", "property_name", "deprecated", "deprecation_reasons", "last_updated", "origins", "warnings", "task_ids", "uncorrected_energy_per_atom", "equilibrium_reaction_energy_per_atom", "decomposes_to", "xas", "grain_boundaries", "cbm", "vbm", "is_gap_direct", "is_metal", "es_source_calc_id", "bandstructure", "dos", "dos_energy_up", "dos_energy_down", "is_magnetic", "ordering", "total_magnetization_normalized_vol", "total_magnetization_normalized_formula_units", "num_magnetic_sites", "num_unique_magnetic_sites", "types_of_magnetic_species", "bulk_modulus", "shear_modulus", "universal_anisotropy", "homogeneous_poisson", "e_total", "e_ionic", "e_electronic", "n", "e_ij_max", "weighted_surface_energy_EV_PER_ANG2", "weighted_surface_energy", "weighted_work_function", "surface_anisotropy", "shape_factor", "has_reconstructed", "possible_species", "has_props", "theoretical", "database_IDs"]}