{
  "builder_meta": null,
  "nsites": null,
  "elements": null,
  "nelements": null,
  "composition": null,
  "composition_reduced": null,
  "formula_pretty": "Ac3Sc",
  "formula_anonymous": "AB3",
  "chemsys": null,
  "volume": 318.0863005992664,
  "density": 7.579566615941284,
  "density_atomic": 39.7607875749083,
  "symmetry": null,
  "property_name": null,
  "material_id": "mp-985561",
  "deprecated": null,
  "deprecation_reasons": null,
  "last_updated": null,
  "origins": null,
  "warnings": null,
  "structure": {
    "@module": "pymatgen.core.structure",
    "@class": "Structure",
    "charge": 0,
    "lattice": {
      "matrix": [
        [3.862675, -6.690349, 0.0],
        [3.862675, 6.690349, 0.0],
        [0.0, 0.0, 6.154291]
      ],
      "pbc": [true, true, true],
      "a": 7.725349694183818,
      "b": 7.725349694183818,
      "c": 6.154291,
      "alpha": 90.0,
      "beta": 90.0,
      "gamma": 119.99999738100713,
      "volume": 318.0863005992664
    },
    "properties": {},
    "sites": [
      {
        "species": [{ "element": "Ac", "occu": 1 }],
        "abc": [0.656714999999999, 0.828357, 0.25],
        "properties": { "magmom": -0.013000000000000001 },
        "label": "Ac",
        "xyz": [5.736350487599996, 1.148344883058006, 1.53857275]
      },
      {
        "species": [{ "element": "Ac", "occu": 1 }],
        "abc": [0.171643, 0.343285, 0.25],
        "properties": { "magmom": -0.013000000000000001 },
        "label": "Ac",
        "xyz": [1.9889995124, 1.1483448830580003, 1.53857275]
      },
      {
        "species": [{ "element": "Ac", "occu": 1 }],
        "abc": [0.343285, 0.171643, 0.75],
        "properties": { "magmom": 0.013000000000000001 },
        "label": "Ac",
        "xyz": [1.9889995124, -1.1483448830580003, 4.61571825]
      },
      {
        "species": [{ "element": "Ac", "occu": 1 }],
        "abc": [0.828357, 0.656714999999999, 0.75],
        "properties": { "magmom": 0.013000000000000001 },
        "label": "Ac",
        "xyz": [5.736350487599996, -1.148344883058006, 4.61571825]
      },
      {
        "species": [{ "element": "Ac", "occu": 1 }],
        "abc": [0.171643, 0.828357, 0.25],
        "properties": { "magmom": -0.013000000000000001 },
        "label": "Ac",
        "xyz": [3.862675, 4.393645853186, 1.53857275]
      },
      {
        "species": [{ "element": "Ac", "occu": 1 }],
        "abc": [0.828357, 0.171643, 0.75],
        "properties": { "magmom": 0.013000000000000001 },
        "label": "Ac",
        "xyz": [3.862675, -4.393645853186, 4.61571825]
      },
      {
        "species": [{ "element": "Sc", "occu": 1 }],
        "abc": [0.666667, 0.333333, 0.25],
        "properties": { "magmom": 0.08600000000000001 },
        "label": "Sc",
        "xyz": [3.862675, -2.2301207935660003, 1.53857275]
      },
      {
        "species": [{ "element": "Sc", "occu": 1 }],
        "abc": [0.333333, 0.666667, 0.75],
        "properties": { "magmom": -0.08600000000000001 },
        "label": "Sc",
        "xyz": [3.862675, 2.2301207935660003, 4.61571825]
      }
    ]
  },
  "task_ids": null,
  "uncorrected_energy_per_atom": null,
  "energy_per_atom": -54.20837872,
  "formation_energy_per_atom": 0.119352678124997,
  "energy_above_hull": 0.119352678124997,
  "is_stable": false,
  "equilibrium_reaction_energy_per_atom": null,
  "decomposes_to": null,
  "xas": null,
  "grain_boundaries": null,
  "band_gap": 0.0,
  "cbm": null,
  "vbm": null,
  "efermi": 5.72201279,
  "is_gap_direct": null,
  "is_metal": null,
  "es_source_calc_id": null,
  "bandstructure": null,
  "dos": null,
  "dos_energy_up": null,
  "dos_energy_down": null,
  "is_magnetic": null,
  "ordering": null,
  "total_magnetization": 0.0001585,
  "total_magnetization_normalized_vol": null,
  "total_magnetization_normalized_formula_units": null,
  "num_magnetic_sites": null,
  "num_unique_magnetic_sites": null,
  "types_of_magnetic_species": null,
  "bulk_modulus": null,
  "shear_modulus": null,
  "universal_anisotropy": null,
  "homogeneous_poisson": null,
  "e_total": null,
  "e_ionic": null,
  "e_electronic": null,
  "n": null,
  "e_ij_max": null,
  "weighted_surface_energy_EV_PER_ANG2": null,
  "weighted_surface_energy": null,
  "weighted_work_function": null,
  "surface_anisotropy": null,
  "shape_factor": null,
  "has_reconstructed": null,
  "possible_species": null,
  "has_props": null,
  "theoretical": null,
  "database_IDs": null,
  "fields_not_requested": [
    "builder_meta",
    "nsites",
    "elements",
    "nelements",
    "composition",
    "composition_reduced",
    "chemsys",
    "symmetry",
    "property_name",
    "deprecated",
    "deprecation_reasons",
    "last_updated",
    "origins",
    "warnings",
    "task_ids",
    "uncorrected_energy_per_atom",
    "equilibrium_reaction_energy_per_atom",
    "decomposes_to",
    "xas",
    "grain_boundaries",
    "cbm",
    "vbm",
    "is_gap_direct",
    "is_metal",
    "es_source_calc_id",
    "bandstructure",
    "dos",
    "dos_energy_up",
    "dos_energy_down",
    "is_magnetic",
    "ordering",
    "total_magnetization_normalized_vol",
    "total_magnetization_normalized_formula_units",
    "num_magnetic_sites",
    "num_unique_magnetic_sites",
    "types_of_magnetic_species",
    "bulk_modulus",
    "shear_modulus",
    "universal_anisotropy",
    "homogeneous_poisson",
    "e_total",
    "e_ionic",
    "e_electronic",
    "n",
    "e_ij_max",
    "weighted_surface_energy_EV_PER_ANG2",
    "weighted_surface_energy",
    "weighted_work_function",
    "surface_anisotropy",
    "shape_factor",
    "has_reconstructed",
    "possible_species",
    "has_props",
    "theoretical",
    "database_IDs"
  ]
}
