{
  "builder_meta": null,
  "nsites": null,
  "elements": null,
  "nelements": null,
  "composition": null,
  "composition_reduced": null,
  "formula_pretty": "Ac3Tl",
  "formula_anonymous": "AB3",
  "chemsys": null,
  "volume": 309.2251888955367,
  "density": 9.509015509482957,
  "density_atomic": 38.653148611942086,
  "symmetry": null,
  "property_name": null,
  "material_id": "mp-985506",
  "deprecated": null,
  "deprecation_reasons": null,
  "last_updated": null,
  "origins": null,
  "warnings": null,
  "structure": {
    "@module": "pymatgen.core.structure",
    "@class": "Structure",
    "charge": 0,
    "lattice": {
      "matrix": [
        [7.76482371, -8.64e-6, 0.0],
        [-3.88241941, 6.72454584, -0.0],
        [0.0, 0.0, 5.9221661]
      ],
      "pbc": [true, true, true],
      "a": 7.764823710004807,
      "b": 7.764837231353021,
      "c": 5.9221661,
      "alpha": 90.0,
      "beta": 90.0,
      "gamma": 120.00007052155783,
      "volume": 309.2251888955367
    },
    "properties": {},
    "sites": [
      {
        "species": [{ "element": "Ac", "occu": 1 }],
        "abc": [0.17724962, 0.35449923, 0.250001],
        "properties": { "magmom": -0.0 },
        "label": "Ac",
        "xyz": [-2.6394175640653827e-6, 2.383844790942986, 1.4805474471660998]
      },
      {
        "species": [{ "element": "Ac", "occu": 1 }],
        "abc": [0.64550377, 0.8227523800000001, 0.250001],
        "properties": { "magmom": -0.0 },
        "label": "Ac",
        "xyz": [1.8179531684546908, 5.5326305171265275, 1.4805474471660998]
      },
      {
        "species": [{ "element": "Ac", "occu": 1 }],
        "abc": [0.17725062, 0.8227523800000001, 0.250001],
        "properties": { "magmom": -0.0 },
        "label": "Ac",
        "xyz": [-1.8179499929474958, 5.532634562833743, 1.4805474471660998]
      },
      {
        "species": [{ "element": "Ac", "occu": 1 }],
        "abc": [0.82275038, 0.64550177, 0.750000999999999],
        "properties": { "magmom": -0.0 },
        "label": "Ac",
        "xyz": [3.8824030569981542, 4.340699133602854, 4.441630497166094]
      },
      {
        "species": [{ "element": "Ac", "occu": 1 }],
        "abc": [0.35449623, 0.17724762, 0.750000999999999],
        "properties": { "magmom": -0.0 },
        "label": "Ac",
        "xyz": [2.0644511315453093, 1.1919066828734735, 4.441630497166094]
      },
      {
        "species": [{ "element": "Ac", "occu": 1 }],
        "abc": [0.82275038, 0.17724762, 0.750000999999999],
        "properties": { "magmom": -0.0 },
        "label": "Ac",
        "xyz": [5.700362057771206, 1.1919026371576176, 4.441630497166094]
      },
      {
        "species": [{ "element": "Tl", "occu": 1 }],
        "abc": [0.333333999999999, 0.666667999999999, 0.750000999999999],
        "properties": { "magmom": 0.0 },
        "label": "Tl",
        "xyz": [-5.036676743674917e-6, 4.4830366460553535, 4.441630497166094]
      },
      {
        "species": [{ "element": "Tl", "occu": 1 }],
        "abc": [0.666667, 0.333333, 0.250001],
        "properties": { "magmom": 0.0 },
        "label": "Tl",
        "xyz": [3.8824132190810405, 2.24150727848184, 1.4805474471660998]
      }
    ]
  },
  "task_ids": null,
  "uncorrected_energy_per_atom": null,
  "energy_per_atom": -64.9367496725,
  "formation_energy_per_atom": -0.16381396812499802,
  "energy_above_hull": 0.0,
  "is_stable": true,
  "equilibrium_reaction_energy_per_atom": null,
  "decomposes_to": null,
  "xas": null,
  "grain_boundaries": null,
  "band_gap": 0.0,
  "cbm": null,
  "vbm": null,
  "efermi": 6.53301628,
  "is_gap_direct": null,
  "is_metal": null,
  "es_source_calc_id": null,
  "bandstructure": null,
  "dos": null,
  "dos_energy_up": null,
  "dos_energy_down": null,
  "is_magnetic": null,
  "ordering": null,
  "total_magnetization": 0.0031991,
  "total_magnetization_normalized_vol": null,
  "total_magnetization_normalized_formula_units": null,
  "num_magnetic_sites": null,
  "num_unique_magnetic_sites": null,
  "types_of_magnetic_species": null,
  "bulk_modulus": null,
  "shear_modulus": null,
  "universal_anisotropy": null,
  "homogeneous_poisson": null,
  "e_total": null,
  "e_ionic": null,
  "e_electronic": null,
  "n": null,
  "e_ij_max": null,
  "weighted_surface_energy_EV_PER_ANG2": null,
  "weighted_surface_energy": null,
  "weighted_work_function": null,
  "surface_anisotropy": null,
  "shape_factor": null,
  "has_reconstructed": null,
  "possible_species": null,
  "has_props": null,
  "theoretical": null,
  "database_IDs": null,
  "fields_not_requested": [
    "builder_meta",
    "nsites",
    "elements",
    "nelements",
    "composition",
    "composition_reduced",
    "chemsys",
    "symmetry",
    "property_name",
    "deprecated",
    "deprecation_reasons",
    "last_updated",
    "origins",
    "warnings",
    "task_ids",
    "uncorrected_energy_per_atom",
    "equilibrium_reaction_energy_per_atom",
    "decomposes_to",
    "xas",
    "grain_boundaries",
    "cbm",
    "vbm",
    "is_gap_direct",
    "is_metal",
    "es_source_calc_id",
    "bandstructure",
    "dos",
    "dos_energy_up",
    "dos_energy_down",
    "is_magnetic",
    "ordering",
    "total_magnetization_normalized_vol",
    "total_magnetization_normalized_formula_units",
    "num_magnetic_sites",
    "num_unique_magnetic_sites",
    "types_of_magnetic_species",
    "bulk_modulus",
    "shear_modulus",
    "universal_anisotropy",
    "homogeneous_poisson",
    "e_total",
    "e_ionic",
    "e_electronic",
    "n",
    "e_ij_max",
    "weighted_surface_energy_EV_PER_ANG2",
    "weighted_surface_energy",
    "weighted_work_function",
    "surface_anisotropy",
    "shape_factor",
    "has_reconstructed",
    "possible_species",
    "has_props",
    "theoretical",
    "database_IDs"
  ]
}
