{"builder_meta": null, "nsites": null, "elements": null, "nelements": null, "composition": null, "composition_reduced": null, "formula_pretty": "Ac3Th", "formula_anonymous": "AB3", "chemsys": null, "volume": 331.3679485883958, "density": 9.150766538413295, "density_atomic": 41.420993573549474, "symmetry": null, "property_name": null, "material_id": "mp-985303", "deprecated": null, "deprecation_reasons": null, "last_updated": null, "origins": null, "warnings": null, "structure": {"@module": "pymatgen.core.structure", "@class": "Structure", "charge": 0, "lattice": {"matrix": [[3.889748, -6.737241, 0.0], [3.889748, 6.737241, 0.0], [0.0, 0.0, 6.322327]], "pbc": [true, true, true], "a": 7.779495857418075, "b": 7.779495857418075, "c": 6.322327, "alpha": 90.0, "beta": 90.0, "gamma": 119.99999878743505, "volume": 331.3679485883958}, "properties": {}, "sites": [{"species": [{"element": "Ac", "occu": 1}], "abc": [0.170660999999999, 0.341323, 0.25], "properties": {"magmom": -0.005}, "label": "Ac", "xyz": [1.991488740031996, 1.1497910235420068, 1.58058175]}, {"species": [{"element": "Ac", "occu": 1}], "abc": [0.658677, 0.829338999999999, 0.25], "properties": {"magmom": -0.005}, "label": "Ac", "xyz": [5.788007259967996, 1.1497910235419937, 1.58058175]}, {"species": [{"element": "Ac", "occu": 1}], "abc": [0.170660999999999, 0.829338999999999, 0.25], "properties": {"magmom": -0.005}, "label": "Ac", "xyz": [3.8897479999999924, 4.437672427398001, 1.58058175]}, {"species": [{"element": "Ac", "occu": 1}], "abc": [0.829338999999999, 0.658677, 0.75], "properties": {"magmom": -0.005}, "label": "Ac", "xyz": [5.788007259967996, -1.1497910235419937, 4.741745249999999]}, {"species": [{"element": "Ac", "occu": 1}], "abc": [0.341323, 0.170660999999999, 0.75], "properties": {"magmom": -0.005}, "label": "Ac", "xyz": [1.991488740031996, -1.1497910235420068, 4.741745249999999]}, {"species": [{"element": "Ac", "occu": 1}], "abc": [0.829338999999999, 0.170660999999999, 0.75], "properties": {"magmom": -0.005}, "label": "Ac", "xyz": [3.8897479999999924, -4.437672427398001, 4.741745249999999]}, {"species": [{"element": "Th", "occu": 1}], "abc": [0.333333, 0.666667, 0.75], "properties": {"magmom": -0.014}, "label": "Th", "xyz": [3.889748, 2.2457514914940004, 4.741745249999999]}, {"species": [{"element": "Th", "occu": 1}], "abc": [0.666667, 0.333333, 0.25], "properties": {"magmom": -0.014}, "label": "Th", "xyz": [3.889748, -2.2457514914940004, 1.58058175]}]}, "task_ids": null, "uncorrected_energy_per_atom": null, "energy_per_atom": -69.71722221875, "formation_energy_per_atom": 0.129702878125002, "energy_above_hull": 0.129702878125002, "is_stable": false, "equilibrium_reaction_energy_per_atom": null, "decomposes_to": null, "xas": null, "grain_boundaries": null, "band_gap": 0.0, "cbm": null, "vbm": null, "efermi": 6.36284147, "is_gap_direct": null, "is_metal": null, "es_source_calc_id": null, "bandstructure": null, "dos": null, "dos_energy_up": null, "dos_energy_down": null, "is_magnetic": null, "ordering": null, "total_magnetization": 0.1694944, "total_magnetization_normalized_vol": null, "total_magnetization_normalized_formula_units": null, "num_magnetic_sites": null, "num_unique_magnetic_sites": null, "types_of_magnetic_species": null, "bulk_modulus": null, "shear_modulus": null, "universal_anisotropy": null, "homogeneous_poisson": null, "e_total": null, "e_ionic": null, "e_electronic": null, "n": null, "e_ij_max": null, "weighted_surface_energy_EV_PER_ANG2": null, "weighted_surface_energy": null, "weighted_work_function": null, "surface_anisotropy": null, "shape_factor": null, "has_reconstructed": null, "possible_species": null, "has_props": null, "theoretical": null, "database_IDs": null, "fields_not_requested": ["builder_meta", "nsites", "elements", "nelements", "composition", "composition_reduced", "chemsys", "symmetry", "property_name", "deprecated", "deprecation_reasons", "last_updated", "origins", "warnings", "task_ids", "uncorrected_energy_per_atom", "equilibrium_reaction_energy_per_atom", "decomposes_to", "xas", "grain_boundaries", "cbm", "vbm", "is_gap_direct", "is_metal", "es_source_calc_id", "bandstructure", "dos", "dos_energy_up", "dos_energy_down", "is_magnetic", "ordering", "total_magnetization_normalized_vol", "total_magnetization_normalized_formula_units", "num_magnetic_sites", "num_unique_magnetic_sites", "types_of_magnetic_species", "bulk_modulus", "shear_modulus", "universal_anisotropy", "homogeneous_poisson", "e_total", "e_ionic", "e_electronic", "n", "e_ij_max", "weighted_surface_energy_EV_PER_ANG2", "weighted_surface_energy", "weighted_work_function", "surface_anisotropy", "shape_factor", "has_reconstructed", "possible_species", "has_props", "theoretical", "database_IDs"]}