{
  "builder_meta": null,
  "nsites": null,
  "elements": null,
  "nelements": null,
  "composition": null,
  "composition_reduced": null,
  "formula_pretty": "Ac3Yb",
  "formula_anonymous": "AB3",
  "chemsys": null,
  "volume": 335.1499383496455,
  "density": 8.462879578152032,
  "density_atomic": 41.893742293705685,
  "symmetry": null,
  "property_name": null,
  "material_id": "mp-972002",
  "deprecated": null,
  "deprecation_reasons": null,
  "last_updated": null,
  "origins": null,
  "warnings": null,
  "structure": {
    "@module": "pymatgen.core.structure",
    "@class": "Structure",
    "charge": 0.0,
    "lattice": {
      "matrix": [
        [3.940868324967749, -6.825783449159332, -0.0],
        [3.940868324967749, 6.825783449159332, 0.0],
        [-0.0, 0.0, 6.229665357383495]
      ],
      "pbc": [true, true, true],
      "a": 7.881736030187232,
      "b": 7.881736030187232,
      "c": 6.229665357383495,
      "alpha": 90.0,
      "beta": 90.0,
      "gamma": 119.99999479781921,
      "volume": 335.1499383496454
    },
    "properties": {},
    "sites": [
      {
        "species": [{ "element": "Ac", "occu": 1 }],
        "abc": [0.17066353606221402, 0.341326072124289, 0.25],
        "properties": { "magmom": -0.019 },
        "label": "Ac",
        "xyz": [2.0176836296148384, 1.1649055140440692, 1.5574163393458738]
      },
      {
        "species": [{ "element": "Ac", "occu": 1 }],
        "abc": [0.65867392787571, 0.829336463937785, 0.25],
        "properties": { "magmom": -0.019 },
        "label": "Ac",
        "xyz": [5.864053020320652, 1.1649055140440696, 1.5574163393458738]
      },
      {
        "species": [{ "element": "Ac", "occu": 1 }],
        "abc": [0.170663536062079, 0.82933646393792, 0.25],
        "properties": { "magmom": -0.019 },
        "label": "Ac",
        "xyz": [3.9408683249677456, 4.4959587695042345, 1.5574163393458738]
      },
      {
        "species": [{ "element": "Ac", "occu": 1 }],
        "abc": [0.829336463937785, 0.65867392787571, 0.75],
        "properties": { "magmom": -0.019 },
        "label": "Ac",
        "xyz": [5.864053020320652, -1.1649055140440696, 4.672249018037621]
      },
      {
        "species": [{ "element": "Ac", "occu": 1 }],
        "abc": [0.341326072124289, 0.17066353606221402, 0.75],
        "properties": { "magmom": -0.019 },
        "label": "Ac",
        "xyz": [2.0176836296148384, -1.1649055140440692, 4.672249018037621]
      },
      {
        "species": [{ "element": "Ac", "occu": 1 }],
        "abc": [0.82933646393792, 0.170663536062079, 0.75],
        "properties": { "magmom": -0.019 },
        "label": "Ac",
        "xyz": [3.9408683249677456, -4.4959587695042345, 4.672249018037621]
      },
      {
        "species": [{ "element": "Yb", "occu": 1 }],
        "abc": [0.33333300000000304, 0.666666999999996, 0.75],
        "properties": { "magmom": -0.079 },
        "label": "Yb",
        "xyz": [3.9408683249677456, 2.275265700242029, 4.672249018037621]
      },
      {
        "species": [{ "element": "Yb", "occu": 1 }],
        "abc": [0.666666999999996, 0.33333300000000304, 0.25],
        "properties": { "magmom": -0.079 },
        "label": "Yb",
        "xyz": [3.9408683249677456, -2.275265700242029, 1.5574163393458738]
      }
    ]
  },
  "task_ids": null,
  "uncorrected_energy_per_atom": null,
  "energy_per_atom": -60.55956961875,
  "formation_energy_per_atom": 0.050884636875004004,
  "energy_above_hull": 0.050884636875004004,
  "is_stable": false,
  "equilibrium_reaction_energy_per_atom": null,
  "decomposes_to": null,
  "xas": null,
  "grain_boundaries": null,
  "band_gap": 0.0,
  "cbm": null,
  "vbm": null,
  "efermi": 4.9764753200000005,
  "is_gap_direct": null,
  "is_metal": null,
  "es_source_calc_id": null,
  "bandstructure": null,
  "dos": null,
  "dos_energy_up": null,
  "dos_energy_down": null,
  "is_magnetic": null,
  "ordering": null,
  "total_magnetization": 0.4283743,
  "total_magnetization_normalized_vol": null,
  "total_magnetization_normalized_formula_units": null,
  "num_magnetic_sites": null,
  "num_unique_magnetic_sites": null,
  "types_of_magnetic_species": null,
  "bulk_modulus": null,
  "shear_modulus": null,
  "universal_anisotropy": null,
  "homogeneous_poisson": null,
  "e_total": null,
  "e_ionic": null,
  "e_electronic": null,
  "n": null,
  "e_ij_max": null,
  "weighted_surface_energy_EV_PER_ANG2": null,
  "weighted_surface_energy": null,
  "weighted_work_function": null,
  "surface_anisotropy": null,
  "shape_factor": null,
  "has_reconstructed": null,
  "possible_species": null,
  "has_props": null,
  "theoretical": null,
  "database_IDs": null,
  "fields_not_requested": [
    "builder_meta",
    "nsites",
    "elements",
    "nelements",
    "composition",
    "composition_reduced",
    "chemsys",
    "symmetry",
    "property_name",
    "deprecated",
    "deprecation_reasons",
    "last_updated",
    "origins",
    "warnings",
    "task_ids",
    "uncorrected_energy_per_atom",
    "equilibrium_reaction_energy_per_atom",
    "decomposes_to",
    "xas",
    "grain_boundaries",
    "cbm",
    "vbm",
    "is_gap_direct",
    "is_metal",
    "es_source_calc_id",
    "bandstructure",
    "dos",
    "dos_energy_up",
    "dos_energy_down",
    "is_magnetic",
    "ordering",
    "total_magnetization_normalized_vol",
    "total_magnetization_normalized_formula_units",
    "num_magnetic_sites",
    "num_unique_magnetic_sites",
    "types_of_magnetic_species",
    "bulk_modulus",
    "shear_modulus",
    "universal_anisotropy",
    "homogeneous_poisson",
    "e_total",
    "e_ionic",
    "e_electronic",
    "n",
    "e_ij_max",
    "weighted_surface_energy_EV_PER_ANG2",
    "weighted_surface_energy",
    "weighted_work_function",
    "surface_anisotropy",
    "shape_factor",
    "has_reconstructed",
    "possible_species",
    "has_props",
    "theoretical",
    "database_IDs"
  ]
}
