{"builder_meta": null, "nsites": null, "elements": null, "nelements": null, "composition": null, "composition_reduced": null, "formula_pretty": "Ac3Y", "formula_anonymous": "AB3", "chemsys": null, "volume": 342.2871293814086, "density": 7.470095319326484, "density_atomic": 42.785891172676074, "symmetry": null, "property_name": null, "material_id": "mp-1183102", "deprecated": null, "deprecation_reasons": null, "last_updated": null, "origins": null, "warnings": null, "structure": {"@module": "pymatgen.core.structure", "@class": "Structure", "charge": 0, "lattice": {"matrix": [[3.9610916, -6.86081198, 0.0], [3.96109379, 6.86081308, -0.0], [0.0, 0.0, 6.29752667]], "pbc": [true, true, true], "a": 7.922183265268615, "b": 7.922185312896666, "c": 6.29752667, "alpha": 90.0, "beta": 90.0, "gamma": 119.99999080605839, "volume": 342.2871293814086}, "properties": {}, "sites": [{"species": [{"element": "Ac", "occu": 1}], "abc": [0.16942791000000001, 0.33885681, 0.25], "properties": {"magmom": -0.0}, "label": "Ac", "xyz": [2.013363076896766, 1.1624201996207129, 1.5743816675]}, {"species": [{"element": "Ac", "occu": 1}], "abc": [0.66114319, 0.8305710900000001, 0.25], "properties": {"magmom": -0.0}, "label": "Ac", "xyz": [5.908818723058735, 1.1624138796944408, 1.5743816675]}, {"species": [{"element": "Ac", "occu": 1}], "abc": [0.16942791000000001, 0.8305710900000001, 0.25], "properties": {"magmom": -0.0}, "label": "Ac", "xyz": [3.9610894578590874, 4.535979963467495, 1.5743816675]}, {"species": [{"element": "Ac", "occu": 1}], "abc": [0.83057209, 0.66114419, 0.75], "properties": {"magmom": -0.0}, "label": "Ac", "xyz": [5.908826274197024, -1.162412238807633, 4.7231450025]}, {"species": [{"element": "Ac", "occu": 1}], "abc": [0.33885581, 0.16942791000000001, 0.75], "properties": {"magmom": -0.0}, "label": "Ac", "xyz": [2.013358744755875, -1.162412779695541, 4.7231450025]}, {"species": [{"element": "Ac", "occu": 1}], "abc": [0.83057209, 0.16942891000000002, 0.75], "properties": {"magmom": -0.0}, "label": "Ac", "xyz": [3.961095932140913, -4.535978863467495, 4.7231450025]}, {"species": [{"element": "Y", "occu": 1}], "abc": [0.333333, 0.666667, 0.75], "properties": {"magmom": -0.0}, "label": "Y", "xyz": [3.9610930600007297, 2.2869426338750203, 4.7231450025]}, {"species": [{"element": "Y", "occu": 1}], "abc": [0.666667, 0.333333, 0.25], "properties": {"magmom": -0.0}, "label": "Y", "xyz": [3.96109232999927, -2.28694153387502, 1.5743816675]}]}, "task_ids": null, "uncorrected_energy_per_atom": null, "energy_per_atom": -56.50901929, "formation_energy_per_atom": 0.047490509375002, "energy_above_hull": 0.047490509375002, "is_stable": false, "equilibrium_reaction_energy_per_atom": null, "decomposes_to": null, "xas": null, "grain_boundaries": null, "band_gap": 0.0, "cbm": null, "vbm": null, "efermi": 5.43503963, "is_gap_direct": null, "is_metal": null, "es_source_calc_id": null, "bandstructure": null, "dos": null, "dos_energy_up": null, "dos_energy_down": null, "is_magnetic": null, "ordering": null, "total_magnetization": 0.0022800000000000003, "total_magnetization_normalized_vol": null, "total_magnetization_normalized_formula_units": null, "num_magnetic_sites": null, "num_unique_magnetic_sites": null, "types_of_magnetic_species": null, "bulk_modulus": null, "shear_modulus": null, "universal_anisotropy": null, "homogeneous_poisson": null, "e_total": null, "e_ionic": null, "e_electronic": null, "n": null, "e_ij_max": null, "weighted_surface_energy_EV_PER_ANG2": null, "weighted_surface_energy": null, "weighted_work_function": null, "surface_anisotropy": null, "shape_factor": null, "has_reconstructed": null, "possible_species": null, "has_props": null, "theoretical": null, "database_IDs": null, "fields_not_requested": ["builder_meta", "nsites", "elements", "nelements", "composition", "composition_reduced", "chemsys", "symmetry", "property_name", "deprecated", "deprecation_reasons", "last_updated", "origins", "warnings", "task_ids", "uncorrected_energy_per_atom", "equilibrium_reaction_energy_per_atom", "decomposes_to", "xas", "grain_boundaries", "cbm", "vbm", "is_gap_direct", "is_metal", "es_source_calc_id", "bandstructure", "dos", "dos_energy_up", "dos_energy_down", "is_magnetic", "ordering", "total_magnetization_normalized_vol", "total_magnetization_normalized_formula_units", "num_magnetic_sites", "num_unique_magnetic_sites", "types_of_magnetic_species", "bulk_modulus", "shear_modulus", "universal_anisotropy", "homogeneous_poisson", "e_total", "e_ionic", "e_electronic", "n", "e_ij_max", "weighted_surface_energy_EV_PER_ANG2", "weighted_surface_energy", "weighted_work_function", "surface_anisotropy", "shape_factor", "has_reconstructed", "possible_species", "has_props", "theoretical", "database_IDs"]}