{"builder_meta": null, "nsites": null, "elements": null, "nelements": null, "composition": null, "composition_reduced": null, "formula_pretty": "AcAg3", "formula_anonymous": "AB3", "chemsys": null, "volume": 201.17428469991603, "density": 9.089635386684668, "density_atomic": 25.146785587489504, "symmetry": null, "property_name": null, "material_id": "mp-865950", "deprecated": null, "deprecation_reasons": null, "last_updated": null, "origins": null, "warnings": null, "structure": {"@module": "pymatgen.core.structure", "@class": "Structure", "charge": 0, "lattice": {"matrix": [[7.0117697, -0.03169653, 1e-06], [-3.53333448, 6.05700301, -9.9e-07], [1.04e-06, -1.029999999999998e-06, 4.7493457]], "pbc": [true, true, true], "a": 7.0118413413206335, "b": 7.012256271037654, "c": 4.749345700000226, "alpha": 90.00002514414194, "beta": 89.999979226181, "gamma": 120.51602338927344, "volume": 201.17428469991603}, "properties": {}, "sites": [{"species": [{"element": "Ac", "occu": 1}], "abc": [0.33184162, 0.6681566800000001, 0.749999], "properties": {"magmom": -0.0}, "label": "Ac", "xyz": [-0.034023239172452514, 4.036508021549058, 3.5620041960208066]}, {"species": [{"element": "Ac", "occu": 1}], "abc": [0.66815838, 0.33184232, 0.249999], "properties": {"magmom": -0.0}, "label": "Ac", "xyz": [3.512463032504853, 1.988791371449992, 1.1873320152887832]}, {"species": [{"element": "Ag", "occu": 1}], "abc": [0.14028813, 0.27727504000000003, 0.25], "properties": {"magmom": -0.0}, "label": "Ag", "xyz": [0.0039628599282817405, 1.6750088474566818, 1.1873362907858405]}, {"species": [{"element": "Ag", "occu": 1}], "abc": [0.72270623, 0.8597220600000001, 0.25], "properties": {"magmom": 0.0}, "label": "Ag", "xyz": [2.0297643077006025, 5.184431567983019, 1.1873362965813907]}, {"species": [{"element": "Ag", "occu": 1}], "abc": [0.13762574, 0.86240333, 0.25], "properties": {"magmom": -0.0}, "label": "Ag", "xyz": [-2.08215916788374, 5.219217049747341, 1.1873357088464433]}, {"species": [{"element": "Ag", "occu": 1}], "abc": [0.85971087, 0.72272496, 0.750000999999999], "properties": {"magmom": -0.0}, "label": "Ag", "xyz": [3.4744663883030587, 4.350296634238818, 3.5620141685588553]}, {"species": [{"element": "Ag", "occu": 1}], "abc": [0.27729377, 0.14027894, 0.750000999999999], "properties": {"magmom": 0.0}, "label": "Ag", "xyz": [1.4486684189659578, 0.8408799390189612, 3.5620141627633153]}, {"species": [{"element": "Ag", "occu": 1}], "abc": [0.86237526, 0.13759667, 0.750000999999999], "properties": {"magmom": -0.0}, "label": "Ag", "xyz": [5.56060243965448, 0.8060883685550989, 3.562014750500252]}]}, "task_ids": null, "uncorrected_energy_per_atom": null, "energy_per_atom": -33.37665415375, "formation_energy_per_atom": -0.200376441875, "energy_above_hull": 0.0, "is_stable": true, "equilibrium_reaction_energy_per_atom": null, "decomposes_to": null, "xas": null, "grain_boundaries": null, "band_gap": 0.0, "cbm": null, "vbm": null, "efermi": 4.26833288, "is_gap_direct": null, "is_metal": null, "es_source_calc_id": null, "bandstructure": null, "dos": null, "dos_energy_up": null, "dos_energy_down": null, "is_magnetic": null, "ordering": null, "total_magnetization": 0.0, "total_magnetization_normalized_vol": null, "total_magnetization_normalized_formula_units": null, "num_magnetic_sites": null, "num_unique_magnetic_sites": null, "types_of_magnetic_species": null, "bulk_modulus": null, "shear_modulus": null, "universal_anisotropy": null, "homogeneous_poisson": null, "e_total": null, "e_ionic": null, "e_electronic": null, "n": null, "e_ij_max": null, "weighted_surface_energy_EV_PER_ANG2": null, "weighted_surface_energy": null, "weighted_work_function": null, "surface_anisotropy": null, "shape_factor": null, "has_reconstructed": null, "possible_species": null, "has_props": null, "theoretical": null, "database_IDs": null, "fields_not_requested": ["builder_meta", "nsites", "elements", "nelements", "composition", "composition_reduced", "chemsys", "symmetry", "property_name", "deprecated", "deprecation_reasons", "last_updated", "origins", "warnings", "task_ids", "uncorrected_energy_per_atom", "equilibrium_reaction_energy_per_atom", "decomposes_to", "xas", "grain_boundaries", "cbm", "vbm", "is_gap_direct", "is_metal", "es_source_calc_id", "bandstructure", "dos", "dos_energy_up", "dos_energy_down", "is_magnetic", "ordering", "total_magnetization_normalized_vol", "total_magnetization_normalized_formula_units", "num_magnetic_sites", "num_unique_magnetic_sites", "types_of_magnetic_species", "bulk_modulus", "shear_modulus", "universal_anisotropy", "homogeneous_poisson", "e_total", "e_ionic", "e_electronic", "n", "e_ij_max", "weighted_surface_energy_EV_PER_ANG2", "weighted_surface_energy", "weighted_work_function", "surface_anisotropy", "shape_factor", "has_reconstructed", "possible_species", "has_props", "theoretical", "database_IDs"]}