{
  "builder_meta": null,
  "nsites": null,
  "elements": null,
  "nelements": null,
  "composition": null,
  "composition_reduced": null,
  "formula_pretty": "AcAl3",
  "formula_anonymous": "AB3",
  "chemsys": null,
  "volume": 196.3033251535521,
  "density": 5.209835997276531,
  "density_atomic": 24.537915644194012,
  "symmetry": null,
  "property_name": null,
  "material_id": "mp-862617",
  "deprecated": null,
  "deprecation_reasons": null,
  "last_updated": null,
  "origins": null,
  "warnings": null,
  "structure": {
    "@module": "pymatgen.core.structure",
    "@class": "Structure",
    "charge": 0,
    "lattice": {
      "matrix": [
        [6.98068341, -4.23e-6, -0.0],
        [-3.49034592, 6.04545559, 0.0],
        [0.0, 0.0, 4.6515836]
      ],
      "pbc": [true, true, true],
      "a": 6.980683410001282,
      "b": 6.980691078390656,
      "c": 4.6515836,
      "alpha": 90.0,
      "beta": 90.0,
      "gamma": 120.00003832790269,
      "volume": 196.3033251535521
    },
    "properties": {},
    "sites": [
      {
        "species": [{ "element": "Ac", "occu": 1 }],
        "abc": [0.333333999999999, 0.666666, 0.750000999999999],
        "properties": { "magmom": 0.0 },
        "label": "Ac",
        "xyz": [4.1706862132784295e-6, 4.03029828636012, 3.488692351583596]
      },
      {
        "species": [{ "element": "Ac", "occu": 1 }],
        "abc": [0.666667, 0.333333, 0.25],
        "properties": { "magmom": 0.0 },
        "label": "Ac",
        "xyz": [3.4903437903431103, 2.01514702818006, 1.1628959]
      },
      {
        "species": [{ "element": "Al", "occu": 1 }],
        "abc": [0.12916554, 0.25833007, 0.25],
        "properties": { "magmom": 0.0 },
        "label": "Al",
        "xyz": [2.436383876869286e-6, 1.5617224193763575, 1.1628959]
      },
      {
        "species": [{ "element": "Al", "occu": 1 }],
        "abc": [0.74166893, 0.8708334600000001, 0.25],
        "properties": { "magmom": 0.0 },
        "label": "Al",
        "xyz": [2.137845981252968, 5.2645818714564685, 1.1628959]
      },
      {
        "species": [{ "element": "Al", "occu": 1 }],
        "abc": [0.12916554, 0.8708334600000001, 0.25],
        "properties": { "magmom": 0.0 },
        "label": "Al",
        "xyz": [-2.137846271888792, 5.264584462345808, 1.1628959]
      },
      {
        "species": [{ "element": "Al", "occu": 1 }],
        "abc": [0.87083446, 0.74166793, 0.750000999999999],
        "properties": { "magmom": 0.0 },
        "label": "Al",
        "xyz": [3.490342034307963, 4.483716849712463, 3.488692351583596]
      },
      {
        "species": [{ "element": "Al", "occu": 1 }],
        "abc": [0.25833107, 0.12916454, 0.750000999999999],
        "properties": { "magmom": 0.0 },
        "label": "Al",
        "xyz": [1.3524984894388719, 0.7808573976323525, 3.488692351583596]
      },
      {
        "species": [{ "element": "Al", "occu": 1 }],
        "abc": [0.87083446, 0.12916454, 0.750000999999999],
        "properties": { "magmom": 0.0 },
        "label": "Al",
        "xyz": [5.628190742580632, 0.7808548067430129, 3.488692351583596]
      }
    ]
  },
  "task_ids": null,
  "uncorrected_energy_per_atom": null,
  "energy_per_atom": -22.61735934875,
  "formation_energy_per_atom": -0.40891574812500003,
  "energy_above_hull": 0.0,
  "is_stable": true,
  "equilibrium_reaction_energy_per_atom": null,
  "decomposes_to": null,
  "xas": null,
  "grain_boundaries": null,
  "band_gap": 0.0,
  "cbm": null,
  "vbm": null,
  "efermi": 6.1581368,
  "is_gap_direct": null,
  "is_metal": null,
  "es_source_calc_id": null,
  "bandstructure": null,
  "dos": null,
  "dos_energy_up": null,
  "dos_energy_down": null,
  "is_magnetic": null,
  "ordering": null,
  "total_magnetization": 1e-7,
  "total_magnetization_normalized_vol": null,
  "total_magnetization_normalized_formula_units": null,
  "num_magnetic_sites": null,
  "num_unique_magnetic_sites": null,
  "types_of_magnetic_species": null,
  "bulk_modulus": null,
  "shear_modulus": null,
  "universal_anisotropy": null,
  "homogeneous_poisson": null,
  "e_total": null,
  "e_ionic": null,
  "e_electronic": null,
  "n": null,
  "e_ij_max": null,
  "weighted_surface_energy_EV_PER_ANG2": null,
  "weighted_surface_energy": null,
  "weighted_work_function": null,
  "surface_anisotropy": null,
  "shape_factor": null,
  "has_reconstructed": null,
  "possible_species": null,
  "has_props": null,
  "theoretical": null,
  "database_IDs": null,
  "fields_not_requested": [
    "builder_meta",
    "nsites",
    "elements",
    "nelements",
    "composition",
    "composition_reduced",
    "chemsys",
    "symmetry",
    "property_name",
    "deprecated",
    "deprecation_reasons",
    "last_updated",
    "origins",
    "warnings",
    "task_ids",
    "uncorrected_energy_per_atom",
    "equilibrium_reaction_energy_per_atom",
    "decomposes_to",
    "xas",
    "grain_boundaries",
    "cbm",
    "vbm",
    "is_gap_direct",
    "is_metal",
    "es_source_calc_id",
    "bandstructure",
    "dos",
    "dos_energy_up",
    "dos_energy_down",
    "is_magnetic",
    "ordering",
    "total_magnetization_normalized_vol",
    "total_magnetization_normalized_formula_units",
    "num_magnetic_sites",
    "num_unique_magnetic_sites",
    "types_of_magnetic_species",
    "bulk_modulus",
    "shear_modulus",
    "universal_anisotropy",
    "homogeneous_poisson",
    "e_total",
    "e_ionic",
    "e_electronic",
    "n",
    "e_ij_max",
    "weighted_surface_energy_EV_PER_ANG2",
    "weighted_surface_energy",
    "weighted_work_function",
    "surface_anisotropy",
    "shape_factor",
    "has_reconstructed",
    "possible_species",
    "has_props",
    "theoretical",
    "database_IDs"
  ]
}
