{
  "builder_meta": null,
  "nsites": null,
  "elements": null,
  "nelements": null,
  "composition": null,
  "composition_reduced": null,
  "formula_pretty": "AcAu3",
  "formula_anonymous": "AB3",
  "chemsys": null,
  "volume": 194.64840754326895,
  "density": 13.954950191229132,
  "density_atomic": 24.331050942908618,
  "symmetry": null,
  "property_name": null,
  "material_id": "mp-867838",
  "deprecated": null,
  "deprecation_reasons": null,
  "last_updated": null,
  "origins": null,
  "warnings": null,
  "structure": {
    "@module": "pymatgen.core.structure",
    "@class": "Structure",
    "charge": 0,
    "lattice": {
      "matrix": [
        [6.9228666400000005, -1.33e-6, -8.7e-6],
        [-3.46143435, 5.99537865, 8.06e-6],
        [-6.22e-6, 3.83e-6, 4.68973519]
      ],
      "pbc": [true, true, true],
      "a": 6.922866640005595,
      "b": 6.922867391211586,
      "c": 4.689735190005689,
      "alpha": 89.9998547740362,
      "beta": 90.00014799533619,
      "gamma": 120.00001726138191,
      "volume": 194.64840754326895
    },
    "properties": {},
    "sites": [
      {
        "species": [{ "element": "Ac", "occu": 1 }],
        "abc": [0.33333374, 0.6666665900000001, 0.75000141],
        "properties": { "magmom": 0.0 },
        "label": "Ac",
        "xyz": [-2.2709997036580305e-6, 3.99692106952583, 3.5173104783557956]
      },
      {
        "species": [{ "element": "Ac", "occu": 1 }],
        "abc": [0.6666661700000001, 0.33333382, 0.24999945],
        "properties": { "magmom": -0.0 },
        "label": "Ac",
        "xyz": [3.461426298748273, 1.9984625385828303, 1.1724281048205558]
      },
      {
        "species": [{ "element": "Au", "occu": 1 }],
        "abc": [0.14575941, 0.29151811, 0.24999978],
        "properties": { "magmom": -0.0 },
        "label": "Au",
        "xyz": [6.023553722843931e-7, 1.7477622164214934, 1.1724338472873579]
      },
      {
        "species": [{ "element": "Au", "occu": 1 }],
        "abc": [0.708482, 0.85424067, 0.24999977],
        "properties": { "magmom": -0.0 },
        "label": "Au",
        "xyz": [1.947826849536896, 5.121496290097754, 1.1724334402473067]
      },
      {
        "species": [{ "element": "Au", "occu": 1 }],
        "abc": [0.14575943, 0.8542407200000001, 0.24999831],
        "properties": { "magmom": -0.0 },
        "label": "Au",
        "xyz": [-1.9478266309538057, 5.121497338282114, 1.1724314889206913]
      },
      {
        "species": [{ "element": "Au", "occu": 1 }],
        "abc": [0.85424087, 0.70848146, 0.75000294],
        "properties": { "magmom": 0.0 },
        "label": "Au",
        "xyz": [3.461428894447139, 4.247616355575732, 3.517313458786458]
      },
      {
        "species": [{ "element": "Au", "occu": 1 }],
        "abc": [0.29151864, 0.14575928, 0.75000296],
        "properties": { "magmom": -0.0 },
        "label": "Au",
        "xyz": [1.5136038241524905, 0.8738845601429176, 3.5173139127237913]
      },
      {
        "species": [{ "element": "Au", "occu": 1 }],
        "abc": [0.85424075, 0.14575935, 0.74999938],
        "properties": { "magmom": 0.0 },
        "label": "Au",
        "xyz": [5.409253704783763, 0.8738842313853056, 3.5172922277900183]
      }
    ]
  },
  "task_ids": null,
  "uncorrected_energy_per_atom": null,
  "energy_per_atom": -55.86938191125,
  "formation_energy_per_atom": -0.771291945625002,
  "energy_above_hull": 0.0,
  "is_stable": true,
  "equilibrium_reaction_energy_per_atom": null,
  "decomposes_to": null,
  "xas": null,
  "grain_boundaries": null,
  "band_gap": 0.0,
  "cbm": null,
  "vbm": null,
  "efermi": 5.4336008,
  "is_gap_direct": null,
  "is_metal": null,
  "es_source_calc_id": null,
  "bandstructure": null,
  "dos": null,
  "dos_energy_up": null,
  "dos_energy_down": null,
  "is_magnetic": null,
  "ordering": null,
  "total_magnetization": 0.0,
  "total_magnetization_normalized_vol": null,
  "total_magnetization_normalized_formula_units": null,
  "num_magnetic_sites": null,
  "num_unique_magnetic_sites": null,
  "types_of_magnetic_species": null,
  "bulk_modulus": null,
  "shear_modulus": null,
  "universal_anisotropy": null,
  "homogeneous_poisson": null,
  "e_total": null,
  "e_ionic": null,
  "e_electronic": null,
  "n": null,
  "e_ij_max": null,
  "weighted_surface_energy_EV_PER_ANG2": null,
  "weighted_surface_energy": null,
  "weighted_work_function": null,
  "surface_anisotropy": null,
  "shape_factor": null,
  "has_reconstructed": null,
  "possible_species": null,
  "has_props": null,
  "theoretical": null,
  "database_IDs": null,
  "fields_not_requested": [
    "builder_meta",
    "nsites",
    "elements",
    "nelements",
    "composition",
    "composition_reduced",
    "chemsys",
    "symmetry",
    "property_name",
    "deprecated",
    "deprecation_reasons",
    "last_updated",
    "origins",
    "warnings",
    "task_ids",
    "uncorrected_energy_per_atom",
    "equilibrium_reaction_energy_per_atom",
    "decomposes_to",
    "xas",
    "grain_boundaries",
    "cbm",
    "vbm",
    "is_gap_direct",
    "is_metal",
    "es_source_calc_id",
    "bandstructure",
    "dos",
    "dos_energy_up",
    "dos_energy_down",
    "is_magnetic",
    "ordering",
    "total_magnetization_normalized_vol",
    "total_magnetization_normalized_formula_units",
    "num_magnetic_sites",
    "num_unique_magnetic_sites",
    "types_of_magnetic_species",
    "bulk_modulus",
    "shear_modulus",
    "universal_anisotropy",
    "homogeneous_poisson",
    "e_total",
    "e_ionic",
    "e_electronic",
    "n",
    "e_ij_max",
    "weighted_surface_energy_EV_PER_ANG2",
    "weighted_surface_energy",
    "weighted_work_function",
    "surface_anisotropy",
    "shape_factor",
    "has_reconstructed",
    "possible_species",
    "has_props",
    "theoretical",
    "database_IDs"
  ]
}
