{"builder_meta": null, "nsites": null, "elements": null, "nelements": null, "composition": null, "composition_reduced": null, "formula_pretty": "AcCd3", "formula_anonymous": "AB3", "chemsys": null, "volume": 225.42616597511662, "density": 8.312530491853725, "density_atomic": 28.178270746889577, "symmetry": null, "property_name": null, "material_id": "mp-867890", "deprecated": null, "deprecation_reasons": null, "last_updated": null, "origins": null, "warnings": null, "structure": {"@module": "pymatgen.core.structure", "@class": "Structure", "charge": 0, "lattice": {"matrix": [[7.25247067, 0.018271, -0.00012127], [-3.6106075300000002, 6.23409319, 0.00014638], [-6.988e-05, -2.85e-05, 4.97865278]], "pbc": [true, true, true], "a": 7.252493685854381, "b": 7.204193546728474, "c": 4.978652780571989, "alpha": 89.99871659370845, "beta": 90.00176307408142, "gamma": 119.93384531748494, "volume": 225.42616597511662}, "properties": {}, "sites": [{"species": [{"element": "Ac", "occu": 1}], "abc": [0.33606728, 0.66871371, 0.75000059], "properties": {"magmom": -0.0}, "label": "Ac", "xyz": [0.02280292456521187, 4.1749424958267, 3.7340496538389645]}, {"species": [{"element": "Ac", "occu": 1}], "abc": [0.66393072, 0.33128329, 0.24999941], "properties": {"magmom": -0.0}, "label": "Ac", "xyz": [3.6189866623160376, 2.0773744553517304, 1.2446282359644356]}, {"species": [{"element": "Cd", "occu": 1}], "abc": [0.14504522, 0.29280339, 0.25000387], "properties": {"magmom": 0.0}, "label": "Cd", "xyz": [-0.005279391140264839, 1.828006615712239, 1.2447077333126575]}, {"species": [{"element": "Cd", "occu": 1}], "abc": [0.70978376, 0.85409866, 0.25001577], "properties": {"magmom": 0.0}, "label": "Cd", "xyz": [2.063853377181401, 5.33749197352364, 1.2447806558396164]}, {"species": [{"element": "Cd", "occu": 1}], "abc": [0.14410821000000001, 0.85208069, 0.24998442], "properties": {"magmom": 0.0}, "label": "Cd", "xyz": [-2.0314058580616647, 5.314576303408441, 1.244692879158463]}, {"species": [{"element": "Cd", "occu": 1}], "abc": [0.85495678, 0.70719761, 0.7499951300000001], "properties": {"magmom": 0.0}, "label": "Cd", "xyz": [3.6470835455439548, 4.424335344951452, 3.733965177938403]}, {"species": [{"element": "Cd", "occu": 1}], "abc": [0.29021624, 0.14590034, 0.74998323], "properties": {"magmom": 0.0}, "label": "Cd", "xyz": [1.5779434934960084, 0.9148374824116696, 3.7338922553612237]}, {"species": [{"element": "Cd", "occu": 1}], "abc": [0.85589079, 0.14791731, 0.7500135800000001], "properties": {"magmom": 0.0}, "label": "Cd", "xyz": [5.673199086945815, 0.937746900191179, 3.733975053364487]}]}, "task_ids": null, "uncorrected_energy_per_atom": null, "energy_per_atom": -32.5396770125, "formation_energy_per_atom": -0.301566391874999, "energy_above_hull": 0.0, "is_stable": true, "equilibrium_reaction_energy_per_atom": null, "decomposes_to": null, "xas": null, "grain_boundaries": null, "band_gap": 0.0, "cbm": null, "vbm": null, "efermi": 3.55186891, "is_gap_direct": null, "is_metal": null, "es_source_calc_id": null, "bandstructure": null, "dos": null, "dos_energy_up": null, "dos_energy_down": null, "is_magnetic": null, "ordering": null, "total_magnetization": 0.0, "total_magnetization_normalized_vol": null, "total_magnetization_normalized_formula_units": null, "num_magnetic_sites": null, "num_unique_magnetic_sites": null, "types_of_magnetic_species": null, "bulk_modulus": null, "shear_modulus": null, "universal_anisotropy": null, "homogeneous_poisson": null, "e_total": null, "e_ionic": null, "e_electronic": null, "n": null, "e_ij_max": null, "weighted_surface_energy_EV_PER_ANG2": null, "weighted_surface_energy": null, "weighted_work_function": null, "surface_anisotropy": null, "shape_factor": null, "has_reconstructed": null, "possible_species": null, "has_props": null, "theoretical": null, "database_IDs": null, "fields_not_requested": ["builder_meta", "nsites", "elements", "nelements", "composition", "composition_reduced", "chemsys", "symmetry", "property_name", "deprecated", "deprecation_reasons", "last_updated", "origins", "warnings", "task_ids", "uncorrected_energy_per_atom", "equilibrium_reaction_energy_per_atom", "decomposes_to", "xas", "grain_boundaries", "cbm", "vbm", "is_gap_direct", "is_metal", "es_source_calc_id", "bandstructure", "dos", "dos_energy_up", "dos_energy_down", "is_magnetic", "ordering", "total_magnetization_normalized_vol", "total_magnetization_normalized_formula_units", "num_magnetic_sites", "num_unique_magnetic_sites", "types_of_magnetic_species", "bulk_modulus", "shear_modulus", "universal_anisotropy", "homogeneous_poisson", "e_total", "e_ionic", "e_electronic", "n", "e_ij_max", "weighted_surface_energy_EV_PER_ANG2", "weighted_surface_energy", "weighted_work_function", "surface_anisotropy", "shape_factor", "has_reconstructed", "possible_species", "has_props", "theoretical", "database_IDs"]}