{"builder_meta": null, "nsites": null, "elements": null, "nelements": null, "composition": null, "composition_reduced": null, "formula_pretty": "AcCl3", "formula_anonymous": "AB3", "chemsys": null, "volume": 234.33710784557522, "density": 4.724438632804964, "density_atomic": 29.292138480696902, "symmetry": null, "property_name": null, "material_id": "mp-27971", "deprecated": null, "deprecation_reasons": null, "last_updated": null, "origins": null, "warnings": null, "structure": {"@module": "pymatgen.core.structure", "@class": "Structure", "charge": 0, "lattice": {"matrix": [[7.69563581, 7.493000000000003e-05, 0.0], [-3.84788219, 6.66457832, -0.0], [0.0, 0.0, 4.5690029800000005]], "pbc": [true, true, true], "a": 7.695635810364784, "b": 7.6956352259922784, "c": 4.5690029800000005, "alpha": 90.0, "beta": 90.0, "gamma": 119.99999729972943, "volume": 234.33710784557528}, "properties": {}, "sites": [{"species": [{"element": "Ac", "occu": 1}], "abc": [0.666667, 0.333333, 0.75], "properties": {"magmom": -0.0}, "label": "Ac", "xyz": [3.847800324506, 2.2215738384988697, 3.4267522350000004]}, {"species": [{"element": "Ac", "occu": 1}], "abc": [0.333333, 0.666667, 0.25], "properties": {"magmom": -0.0}, "label": "Ac", "xyz": [-4.670450599997267e-05, 4.44307941150113, 1.1422507450000001]}, {"species": [{"element": "Cl", "occu": 1}], "abc": [0.61040487, 0.69620707, 0.75], "properties": {"magmom": 0.0}, "label": "Cl", "xyz": [2.0185307909653107, 4.639972282589632, 3.4267522350000004]}, {"species": [{"element": "Cl", "occu": 1}], "abc": [0.9141978, 0.61040487, 0.25], "properties": {"magmom": 0.0}, "label": "Cl", "xyz": [4.686567299140952, 4.0681595638655725, 1.1422507450000001]}, {"species": [{"element": "Cl", "occu": 1}], "abc": [0.38959513, 0.30379293, 0.25], "properties": {"magmom": 0.0}, "label": "Cl", "xyz": [1.8292228290346886, 2.0246809674103687, 1.1422507450000001]}, {"species": [{"element": "Cl", "occu": 1}], "abc": [0.0858022, 0.38959513, 0.75], "properties": {"magmom": 0.0}, "label": "Cl", "xyz": [-0.8388136791409527, 2.596493686134428, 3.4267522350000004]}, {"species": [{"element": "Cl", "occu": 1}], "abc": [0.30379293, 0.9141978, 0.75], "properties": {"magmom": 0.0}, "label": "Cl", "xyz": [-1.1798456818243581, 6.092765601275941, 3.4267522350000004]}, {"species": [{"element": "Cl", "occu": 1}], "abc": [0.69620707, 0.0858022, 0.25], "properties": {"magmom": 0.0}, "label": "Cl", "xyz": [5.027599301824359, 0.5718876487240592, 1.1422507450000001]}]}, "task_ids": null, "uncorrected_energy_per_atom": null, "energy_per_atom": -24.56179332375, "formation_energy_per_atom": -2.788094297499999, "energy_above_hull": 0.0, "is_stable": true, "equilibrium_reaction_energy_per_atom": null, "decomposes_to": null, "xas": null, "grain_boundaries": null, "band_gap": 5.0865, "cbm": null, "vbm": null, "efermi": 1.14865298, "is_gap_direct": null, "is_metal": null, "es_source_calc_id": null, "bandstructure": null, "dos": null, "dos_energy_up": null, "dos_energy_down": null, "is_magnetic": null, "ordering": null, "total_magnetization": 0.0, "total_magnetization_normalized_vol": null, "total_magnetization_normalized_formula_units": null, "num_magnetic_sites": null, "num_unique_magnetic_sites": null, "types_of_magnetic_species": null, "bulk_modulus": null, "shear_modulus": null, "universal_anisotropy": null, "homogeneous_poisson": null, "e_total": null, "e_ionic": null, "e_electronic": null, "n": null, "e_ij_max": null, "weighted_surface_energy_EV_PER_ANG2": null, "weighted_surface_energy": null, "weighted_work_function": null, "surface_anisotropy": null, "shape_factor": null, "has_reconstructed": null, "possible_species": null, "has_props": null, "theoretical": null, "database_IDs": null, "fields_not_requested": ["builder_meta", "nsites", "elements", "nelements", "composition", "composition_reduced", "chemsys", "symmetry", "property_name", "deprecated", "deprecation_reasons", "last_updated", "origins", "warnings", "task_ids", "uncorrected_energy_per_atom", "equilibrium_reaction_energy_per_atom", "decomposes_to", "xas", "grain_boundaries", "cbm", "vbm", "is_gap_direct", "is_metal", "es_source_calc_id", "bandstructure", "dos", "dos_energy_up", "dos_energy_down", "is_magnetic", "ordering", "total_magnetization_normalized_vol", "total_magnetization_normalized_formula_units", "num_magnetic_sites", "num_unique_magnetic_sites", "types_of_magnetic_species", "bulk_modulus", "shear_modulus", "universal_anisotropy", "homogeneous_poisson", "e_total", "e_ionic", "e_electronic", "n", "e_ij_max", "weighted_surface_energy_EV_PER_ANG2", "weighted_surface_energy", "weighted_work_function", "surface_anisotropy", "shape_factor", "has_reconstructed", "possible_species", "has_props", "theoretical", "database_IDs"]}