{"builder_meta": null, "nsites": null, "elements": null, "nelements": null, "composition": null, "composition_reduced": null, "formula_pretty": "AcCu3", "formula_anonymous": "AB3", "chemsys": null, "volume": 161.80298663994378, "density": 8.572205360336502, "density_atomic": 20.225373329992973, "symmetry": null, "property_name": null, "material_id": "mp-1183114", "deprecated": null, "deprecation_reasons": null, "last_updated": null, "origins": null, "warnings": null, "structure": {"@module": "pymatgen.core.structure", "@class": "Structure", "charge": 0, "lattice": {"matrix": [[6.6327352699999995, -1e-08, -0.0], [-3.31636815, 5.74411704, 0.0], [0.0, -0.0, 4.24688587]], "pbc": [true, true, true], "a": 6.6327352699999995, "b": 6.632735353951096, "c": 4.24688587, "alpha": 90.0, "beta": 90.0, "gamma": 120.0000048046549, "volume": 161.80298663994375}, "properties": {}, "sites": [{"species": [{"element": "Ac", "occu": 1}], "abc": [0.333333999999999, 0.666667, 0.750000999999999], "properties": {"magmom": 0.0}, "label": "Ac", "xyz": [2.9730341233324964e-06, 3.8294132713723403, 3.185168649385866]}, {"species": [{"element": "Ac", "occu": 1}], "abc": [0.666666, 0.333333999999999, 0.250002], "properties": {"magmom": 0.0}, "label": "Ac", "xyz": [3.3163608305977226, 1.9147095027446945, 1.06172996127174]}, {"species": [{"element": "Cu", "occu": 1}], "abc": [0.12331548, 0.24663395000000002, 0.250002], "properties": {"magmom": 0.0}, "label": "Cu", "xyz": [-1.0042955712941115e-05, 1.4166942736043533, 1.06172996127174]}, {"species": [{"element": "Cu", "occu": 1}], "abc": [0.75336505, 0.87668352, 0.250002], "properties": {"magmom": 0.0}, "label": "Cu", "xyz": [2.089465634962425, 5.035772738385531, 1.06172996127174]}, {"species": [{"element": "Cu", "occu": 1}], "abc": [0.12331748000000001, 0.87668352, 0.250002], "properties": {"magmom": 0.0}, "label": "Cu", "xyz": [-2.0894731043543686, 5.035772744686007, 1.06172996127174]}, {"species": [{"element": "Cu", "occu": 1}], "abc": [0.87668252, 0.75336505, 0.750000999999999], "properties": {"magmom": 0.0}, "label": "Cu", "xyz": [3.3163672138533227, 4.327417012278627, 3.185168649385866]}, {"species": [{"element": "Cu", "occu": 1}], "abc": [0.24663495, 0.12331648, 0.750000999999999], "properties": {"magmom": 0.0}, "label": "Cu", "xyz": [1.2269014850375743, 0.7083442916144698, 3.185168649385866]}, {"species": [{"element": "Cu", "occu": 1}], "abc": [0.87668352, 0.12331648, 0.750000999999999], "properties": {"magmom": 0.0}, "label": "Cu", "xyz": [5.405846857089639, 0.7083442853139841, 3.185168649385866]}]}, "task_ids": null, "uncorrected_energy_per_atom": null, "energy_per_atom": -25.3540225475, "formation_energy_per_atom": -0.059555694374999, "energy_above_hull": 0.0, "is_stable": true, "equilibrium_reaction_energy_per_atom": null, "decomposes_to": null, "xas": null, "grain_boundaries": null, "band_gap": 0.0, "cbm": null, "vbm": null, "efermi": 6.260029, "is_gap_direct": null, "is_metal": null, "es_source_calc_id": null, "bandstructure": null, "dos": null, "dos_energy_up": null, "dos_energy_down": null, "is_magnetic": null, "ordering": null, "total_magnetization": 0.0, "total_magnetization_normalized_vol": null, "total_magnetization_normalized_formula_units": null, "num_magnetic_sites": null, "num_unique_magnetic_sites": null, "types_of_magnetic_species": null, "bulk_modulus": null, "shear_modulus": null, "universal_anisotropy": null, "homogeneous_poisson": null, "e_total": null, "e_ionic": null, "e_electronic": null, "n": null, "e_ij_max": null, "weighted_surface_energy_EV_PER_ANG2": null, "weighted_surface_energy": null, "weighted_work_function": null, "surface_anisotropy": null, "shape_factor": null, "has_reconstructed": null, "possible_species": null, "has_props": null, "theoretical": null, "database_IDs": null, "fields_not_requested": ["builder_meta", "nsites", "elements", "nelements", "composition", "composition_reduced", "chemsys", "symmetry", "property_name", "deprecated", "deprecation_reasons", "last_updated", "origins", "warnings", "task_ids", "uncorrected_energy_per_atom", "equilibrium_reaction_energy_per_atom", "decomposes_to", "xas", "grain_boundaries", "cbm", "vbm", "is_gap_direct", "is_metal", "es_source_calc_id", "bandstructure", "dos", "dos_energy_up", "dos_energy_down", "is_magnetic", "ordering", "total_magnetization_normalized_vol", "total_magnetization_normalized_formula_units", "num_magnetic_sites", "num_unique_magnetic_sites", "types_of_magnetic_species", "bulk_modulus", "shear_modulus", "universal_anisotropy", "homogeneous_poisson", "e_total", "e_ionic", "e_electronic", "n", "e_ij_max", "weighted_surface_energy_EV_PER_ANG2", "weighted_surface_energy", "weighted_work_function", "surface_anisotropy", "shape_factor", "has_reconstructed", "possible_species", "has_props", "theoretical", "database_IDs"]}