{"builder_meta": null, "nsites": null, "elements": null, "nelements": null, "composition": null, "composition_reduced": null, "formula_pretty": "AcF3", "formula_anonymous": "AB3", "chemsys": null, "volume": 53.6272171786424, "density": 8.793764902943147, "density_atomic": 13.4068042946606, "symmetry": null, "property_name": null, "material_id": "mp-985278", "deprecated": null, "deprecation_reasons": null, "last_updated": null, "origins": null, "warnings": null, "structure": {"@module": "pymatgen.core.structure", "@class": "Structure", "charge": 0, "lattice": {"matrix": [[-1.99200486, 1.99200486, 3.37865994], [1.99200486, -1.99200486, 3.37865994], [1.99200486, 1.99200486, -3.37865994]], "pbc": [true, true, true], "a": 4.399035089049421, "b": 4.399035089049421, "c": 4.399035089049421, "alpha": 126.14949938211596, "beta": 126.14949938211596, "gamma": 79.64256716720028, "volume": 53.6272171786424}, "properties": {}, "sites": [{"species": [{"element": "Ac", "occu": 1}], "abc": [-0.0, 0.0, -0.0], "properties": {"magmom": 0.001}, "label": "Ac", "xyz": [0.0, 0.0, 0.0]}, {"species": [{"element": "F", "occu": 1}], "abc": [0.75, 0.25, 0.5], "properties": {"magmom": -0.005}, "label": "F", "xyz": [-1.1102230246251565e-16, 1.9920048600000002, 1.68932997]}, {"species": [{"element": "F", "occu": 1}], "abc": [0.25, 0.75, 0.5], "properties": {"magmom": -0.005}, "label": "F", "xyz": [1.9920048600000002, -1.1102230246251565e-16, 1.68932997]}, {"species": [{"element": "F", "occu": 1}], "abc": [0.5, 0.5, -0.0], "properties": {"magmom": -0.033}, "label": "F", "xyz": [0.0, 0.0, 3.37865994]}]}, "task_ids": null, "uncorrected_energy_per_atom": null, "energy_per_atom": -23.971878285, "formation_energy_per_atom": -4.467987469375, "energy_above_hull": 0.0, "is_stable": true, "equilibrium_reaction_energy_per_atom": null, "decomposes_to": null, "xas": null, "grain_boundaries": null, "band_gap": 6.0693, "cbm": null, "vbm": null, "efermi": 3.0310091, "is_gap_direct": null, "is_metal": null, "es_source_calc_id": null, "bandstructure": null, "dos": null, "dos_energy_up": null, "dos_energy_down": null, "is_magnetic": null, "ordering": null, "total_magnetization": 0.045430899999999004, "total_magnetization_normalized_vol": null, "total_magnetization_normalized_formula_units": null, "num_magnetic_sites": null, "num_unique_magnetic_sites": null, "types_of_magnetic_species": null, "bulk_modulus": null, "shear_modulus": null, "universal_anisotropy": null, "homogeneous_poisson": null, "e_total": null, "e_ionic": null, "e_electronic": null, "n": null, "e_ij_max": null, "weighted_surface_energy_EV_PER_ANG2": null, "weighted_surface_energy": null, "weighted_work_function": null, "surface_anisotropy": null, "shape_factor": null, "has_reconstructed": null, "possible_species": null, "has_props": null, "theoretical": null, "database_IDs": null, "fields_not_requested": ["builder_meta", "nsites", "elements", "nelements", "composition", "composition_reduced", "chemsys", "symmetry", "property_name", "deprecated", "deprecation_reasons", "last_updated", "origins", "warnings", "task_ids", "uncorrected_energy_per_atom", "equilibrium_reaction_energy_per_atom", "decomposes_to", "xas", "grain_boundaries", "cbm", "vbm", "is_gap_direct", "is_metal", "es_source_calc_id", "bandstructure", "dos", "dos_energy_up", "dos_energy_down", "is_magnetic", "ordering", "total_magnetization_normalized_vol", "total_magnetization_normalized_formula_units", "num_magnetic_sites", "num_unique_magnetic_sites", "types_of_magnetic_species", "bulk_modulus", "shear_modulus", "universal_anisotropy", "homogeneous_poisson", "e_total", "e_ionic", "e_electronic", "n", "e_ij_max", "weighted_surface_energy_EV_PER_ANG2", "weighted_surface_energy", "weighted_work_function", "surface_anisotropy", "shape_factor", "has_reconstructed", "possible_species", "has_props", "theoretical", "database_IDs"]}