{
  "builder_meta": null,
  "nsites": null,
  "elements": null,
  "nelements": null,
  "composition": null,
  "composition_reduced": null,
  "formula_pretty": "AcGa3",
  "formula_anonymous": "AB3",
  "chemsys": null,
  "volume": 187.85316029096617,
  "density": 7.711083092964986,
  "density_atomic": 23.48164503637077,
  "symmetry": null,
  "property_name": null,
  "material_id": "mp-867815",
  "deprecated": null,
  "deprecation_reasons": null,
  "last_updated": null,
  "origins": null,
  "warnings": null,
  "structure": {
    "@module": "pymatgen.core.structure",
    "@class": "Structure",
    "charge": 0,
    "lattice": {
      "matrix": [
        [6.86337082, 2e-8, -0.0],
        [-3.43168438, 5.94385381, 0.0],
        [-0.0, 0.0, 4.60482279]
      ],
      "pbc": [true, true, true],
      "a": 6.86337082,
      "b": 6.863370585841006,
      "c": 4.60482279,
      "alpha": 90.0,
      "beta": 90.0,
      "gamma": 119.99999103294125,
      "volume": 187.85316029096617
    },
    "properties": {},
    "sites": [
      {
        "species": [{ "element": "Ac", "occu": 1 }],
        "abc": [0.333333, 0.666666, 0.75],
        "properties": { "magmom": 0.0 },
        "label": "Ac",
        "xyz": [6.866659796322949e-7, 3.9625652507641203, 3.4536170925]
      },
      {
        "species": [{ "element": "Ac", "occu": 1 }],
        "abc": [0.666666, 0.333331999999999, 0.250001],
        "properties": { "magmom": 0.0 },
        "label": "Ac",
        "xyz": [3.431685753331963, 1.9812766915282343, 1.15121030232279]
      },
      {
        "species": [{ "element": "Ga", "occu": 1 }],
        "abc": [0.131477999999999, 0.26295699, 0.250001],
        "properties": { "magmom": 0.0 },
        "label": "Ga",
        "xyz": [-3.1265228629395736e-6, 1.5629779095071918, 1.15121030232279]
      },
      {
        "species": [{ "element": "Ga", "occu": 1 }],
        "abc": [0.73704501, 0.868521999999999, 0.250001],
        "properties": { "magmom": 0.0 },
        "label": "Ga",
        "xyz": [2.078119833574252, 5.162367813509714, 1.15121030232279]
      },
      {
        "species": [{ "element": "Ga", "occu": 1 }],
        "abc": [0.131476999999999, 0.868521999999999, 0.250001],
        "properties": { "magmom": 0.0 },
        "label": "Ga",
        "xyz": [-2.0781179757852235, 5.1623678013983545, 1.15121030232279]
      },
      {
        "species": [{ "element": "Ga", "occu": 1 }],
        "abc": [0.868521999999999, 0.73704401, 0.75],
        "properties": { "magmom": 0.0 },
        "label": "Ga",
        "xyz": [3.4316861348384697, 4.380881864346618, 3.4536170925]
      },
      {
        "species": [{ "element": "Ga", "occu": 1 }],
        "abc": [0.26295499, 0.131476999999999, 0.75],
        "properties": { "magmom": 0.0 },
        "label": "Ga",
        "xyz": [1.3535700381101352, 0.781480072636464, 3.4536170925]
      },
      {
        "species": [{ "element": "Ga", "occu": 1 }],
        "abc": [0.868521999999999, 0.131476999999999, 0.75],
        "properties": { "magmom": 0.0 },
        "label": "Ga",
        "xyz": [5.509800984098777, 0.7814800847478042, 3.4536170925]
      }
    ]
  },
  "task_ids": null,
  "uncorrected_energy_per_atom": null,
  "energy_per_atom": -26.3373816825,
  "formation_energy_per_atom": -0.595929866874999,
  "energy_above_hull": 0.0,
  "is_stable": true,
  "equilibrium_reaction_energy_per_atom": null,
  "decomposes_to": null,
  "xas": null,
  "grain_boundaries": null,
  "band_gap": 0.0,
  "cbm": null,
  "vbm": null,
  "efermi": 4.70422849,
  "is_gap_direct": null,
  "is_metal": null,
  "es_source_calc_id": null,
  "bandstructure": null,
  "dos": null,
  "dos_energy_up": null,
  "dos_energy_down": null,
  "is_magnetic": null,
  "ordering": null,
  "total_magnetization": 0.0,
  "total_magnetization_normalized_vol": null,
  "total_magnetization_normalized_formula_units": null,
  "num_magnetic_sites": null,
  "num_unique_magnetic_sites": null,
  "types_of_magnetic_species": null,
  "bulk_modulus": null,
  "shear_modulus": null,
  "universal_anisotropy": null,
  "homogeneous_poisson": null,
  "e_total": null,
  "e_ionic": null,
  "e_electronic": null,
  "n": null,
  "e_ij_max": null,
  "weighted_surface_energy_EV_PER_ANG2": null,
  "weighted_surface_energy": null,
  "weighted_work_function": null,
  "surface_anisotropy": null,
  "shape_factor": null,
  "has_reconstructed": null,
  "possible_species": null,
  "has_props": null,
  "theoretical": null,
  "database_IDs": null,
  "fields_not_requested": [
    "builder_meta",
    "nsites",
    "elements",
    "nelements",
    "composition",
    "composition_reduced",
    "chemsys",
    "symmetry",
    "property_name",
    "deprecated",
    "deprecation_reasons",
    "last_updated",
    "origins",
    "warnings",
    "task_ids",
    "uncorrected_energy_per_atom",
    "equilibrium_reaction_energy_per_atom",
    "decomposes_to",
    "xas",
    "grain_boundaries",
    "cbm",
    "vbm",
    "is_gap_direct",
    "is_metal",
    "es_source_calc_id",
    "bandstructure",
    "dos",
    "dos_energy_up",
    "dos_energy_down",
    "is_magnetic",
    "ordering",
    "total_magnetization_normalized_vol",
    "total_magnetization_normalized_formula_units",
    "num_magnetic_sites",
    "num_unique_magnetic_sites",
    "types_of_magnetic_species",
    "bulk_modulus",
    "shear_modulus",
    "universal_anisotropy",
    "homogeneous_poisson",
    "e_total",
    "e_ionic",
    "e_electronic",
    "n",
    "e_ij_max",
    "weighted_surface_energy_EV_PER_ANG2",
    "weighted_surface_energy",
    "weighted_work_function",
    "surface_anisotropy",
    "shape_factor",
    "has_reconstructed",
    "possible_species",
    "has_props",
    "theoretical",
    "database_IDs"
  ]
}
