{
  "builder_meta": null,
  "nsites": null,
  "elements": null,
  "nelements": null,
  "composition": null,
  "composition_reduced": null,
  "formula_pretty": "AcGe3",
  "formula_anonymous": "AB3",
  "chemsys": null,
  "volume": 188.02566311980837,
  "density": 7.858576635263988,
  "density_atomic": 23.503207889976046,
  "symmetry": null,
  "property_name": null,
  "material_id": "mp-862665",
  "deprecated": null,
  "deprecation_reasons": null,
  "last_updated": null,
  "origins": null,
  "warnings": null,
  "structure": {
    "@module": "pymatgen.core.structure",
    "@class": "Structure",
    "charge": 0,
    "lattice": {
      "matrix": [
        [6.64849103, 0.00023394, -9.586000000000001e-5],
        [-3.324044439999999, 5.7577538, 8.326000000000001e-5],
        [2.1920000000000004e-5, -8.31e-6, 4.91170335]
      ],
      "pbc": [true, true, true],
      "a": 6.648491034806884,
      "b": 6.648383282230468,
      "c": 4.911703350055942,
      "alpha": 89.99949426112019,
      "beta": 90.00057041148926,
      "gamma": 119.99651912722234,
      "volume": 188.02566311980834
    },
    "properties": {},
    "sites": [
      {
        "species": [{ "element": "Ac", "occu": 1 }],
        "abc": [0.33337934, 0.66666896, 0.7499687700000001],
        "properties": { "magmom": 0.0 },
        "label": "Ac",
        "xyz": [0.00044874108417727415, 3.8385874963043682, 3.6836476691184568]
      },
      {
        "species": [{ "element": "Ac", "occu": 1 }],
        "abc": [0.666619899999999, 0.33333645, 0.2500197],
        "properties": { "magmom": 0.0 },
        "label": "Ac",
        "xyz": [3.3239967327294773, 1.919423083061709, 1.227986449465208]
      },
      {
        "species": [{ "element": "Ge", "occu": 1 }],
        "abc": [0.13481191, 0.26967871, 0.24999237],
        "properties": { "magmom": -0.0 },
        "label": "Ge",
        "xyz": [-0.00012276235695435255, 1.5527730777432285, 1.2278978915831416]
      },
      {
        "species": [{ "element": "Ge", "occu": 1 }],
        "abc": [0.73032937, 0.86517652, 0.24999168],
        "properties": { "magmom": 0.0 },
        "label": "Ge",
        "xyz": [1.9797085442836282, 4.981642171522732, 1.227886997351775]
      },
      {
        "species": [{ "element": "Ge", "occu": 1 }],
        "abc": [0.13482328, 0.86516686, 0.250016199999999],
        "properties": { "magmom": -0.0 },
        "label": "Ge",
        "xyz": [-1.979476242584975, 4.981447238722569, 1.228064516727408]
      },
      {
        "species": [{ "element": "Ge", "occu": 1 }],
        "abc": [0.86518573, 0.73031811, 0.75001058],
        "properties": { "magmom": -0.0 },
        "label": "Ge",
        "xyz": [3.324586152444107, 4.2051880420230745, 3.6838073479032034]
      },
      {
        "species": [{ "element": "Ge", "occu": 1 }],
        "abc": [0.26967208, 0.13482204, 0.7500144],
        "properties": { "magmom": 0.0 },
        "label": "Ge",
        "xyz": [1.3447743927856326, 0.7763289676004832, 3.6838336155457014]
      },
      {
        "species": [{ "element": "Ge", "occu": 1 }],
        "abc": [0.8651804, 0.13483235, 0.74999132],
        "properties": { "magmom": -0.0 },
        "label": "Ge",
        "xyz": [5.303971845191912, 0.7765276434503366, 3.683663168863239]
      }
    ]
  },
  "task_ids": null,
  "uncorrected_energy_per_atom": null,
  "energy_per_atom": -28.007683375,
  "formation_energy_per_atom": -0.444330336874998,
  "energy_above_hull": 0.0,
  "is_stable": true,
  "equilibrium_reaction_energy_per_atom": null,
  "decomposes_to": null,
  "xas": null,
  "grain_boundaries": null,
  "band_gap": 0.0,
  "cbm": null,
  "vbm": null,
  "efermi": 5.46716119,
  "is_gap_direct": null,
  "is_metal": null,
  "es_source_calc_id": null,
  "bandstructure": null,
  "dos": null,
  "dos_energy_up": null,
  "dos_energy_down": null,
  "is_magnetic": null,
  "ordering": null,
  "total_magnetization": 0.0,
  "total_magnetization_normalized_vol": null,
  "total_magnetization_normalized_formula_units": null,
  "num_magnetic_sites": null,
  "num_unique_magnetic_sites": null,
  "types_of_magnetic_species": null,
  "bulk_modulus": null,
  "shear_modulus": null,
  "universal_anisotropy": null,
  "homogeneous_poisson": null,
  "e_total": null,
  "e_ionic": null,
  "e_electronic": null,
  "n": null,
  "e_ij_max": null,
  "weighted_surface_energy_EV_PER_ANG2": null,
  "weighted_surface_energy": null,
  "weighted_work_function": null,
  "surface_anisotropy": null,
  "shape_factor": null,
  "has_reconstructed": null,
  "possible_species": null,
  "has_props": null,
  "theoretical": null,
  "database_IDs": null,
  "fields_not_requested": [
    "builder_meta",
    "nsites",
    "elements",
    "nelements",
    "composition",
    "composition_reduced",
    "chemsys",
    "symmetry",
    "property_name",
    "deprecated",
    "deprecation_reasons",
    "last_updated",
    "origins",
    "warnings",
    "task_ids",
    "uncorrected_energy_per_atom",
    "equilibrium_reaction_energy_per_atom",
    "decomposes_to",
    "xas",
    "grain_boundaries",
    "cbm",
    "vbm",
    "is_gap_direct",
    "is_metal",
    "es_source_calc_id",
    "bandstructure",
    "dos",
    "dos_energy_up",
    "dos_energy_down",
    "is_magnetic",
    "ordering",
    "total_magnetization_normalized_vol",
    "total_magnetization_normalized_formula_units",
    "num_magnetic_sites",
    "num_unique_magnetic_sites",
    "types_of_magnetic_species",
    "bulk_modulus",
    "shear_modulus",
    "universal_anisotropy",
    "homogeneous_poisson",
    "e_total",
    "e_ionic",
    "e_electronic",
    "n",
    "e_ij_max",
    "weighted_surface_energy_EV_PER_ANG2",
    "weighted_surface_energy",
    "weighted_work_function",
    "surface_anisotropy",
    "shape_factor",
    "has_reconstructed",
    "possible_species",
    "has_props",
    "theoretical",
    "database_IDs"
  ]
}
