{"builder_meta": null, "nsites": null, "elements": null, "nelements": null, "composition": null, "composition_reduced": null, "formula_pretty": "AcH3", "formula_anonymous": "AB3", "chemsys": null, "volume": 49.065716066750646, "density": 7.784733821859042, "density_atomic": 12.266429016687662, "symmetry": null, "property_name": null, "material_id": "mp-861605", "deprecated": null, "deprecation_reasons": null, "last_updated": null, "origins": null, "warnings": null, "structure": {"@module": "pymatgen.core.structure", "@class": "Structure", "charge": 0, "lattice": {"matrix": [[0.0, 2.90569069, 2.90569069], [2.90569069, 0.0, 2.90569069], [2.90569069, 2.90569069, 0.0]], "pbc": [true, true, true], "a": 4.109267181859237, "b": 4.109267181859237, "c": 4.109267181859237, "alpha": 59.99999999999999, "beta": 59.99999999999999, "gamma": 59.99999999999999, "volume": 49.065716066750646}, "properties": {}, "sites": [{"species": [{"element": "Ac", "occu": 1}], "abc": [0.75, 0.75, 0.75], "properties": {"magmom": -0.0}, "label": "Ac", "xyz": [4.358536035, 4.358536035, 4.358536035]}, {"species": [{"element": "H", "occu": 1}], "abc": [0.0, -0.0, -0.0], "properties": {"magmom": 0.0}, "label": "H", "xyz": [0.0, 0.0, 0.0]}, {"species": [{"element": "H", "occu": 1}], "abc": [0.5, 0.5, 0.5], "properties": {"magmom": 0.0}, "label": "H", "xyz": [2.90569069, 2.90569069, 2.90569069]}, {"species": [{"element": "H", "occu": 1}], "abc": [0.250001, 0.250001, 0.250001], "properties": {"magmom": 0.0}, "label": "H", "xyz": [1.45285115638138, 1.45285115638138, 1.45285115638138]}]}, "task_ids": null, "uncorrected_energy_per_atom": null, "energy_per_atom": -20.422506185, "formation_energy_per_atom": -0.671802030937499, "energy_above_hull": 0.0, "is_stable": true, "equilibrium_reaction_energy_per_atom": null, "decomposes_to": null, "xas": null, "grain_boundaries": null, "band_gap": 0.640699999999999, "cbm": null, "vbm": null, "efermi": 6.59472466, "is_gap_direct": null, "is_metal": null, "es_source_calc_id": null, "bandstructure": null, "dos": null, "dos_energy_up": null, "dos_energy_down": null, "is_magnetic": null, "ordering": null, "total_magnetization": 0.0, "total_magnetization_normalized_vol": null, "total_magnetization_normalized_formula_units": null, "num_magnetic_sites": null, "num_unique_magnetic_sites": null, "types_of_magnetic_species": null, "bulk_modulus": null, "shear_modulus": null, "universal_anisotropy": null, "homogeneous_poisson": null, "e_total": null, "e_ionic": null, "e_electronic": null, "n": null, "e_ij_max": null, "weighted_surface_energy_EV_PER_ANG2": null, "weighted_surface_energy": null, "weighted_work_function": null, "surface_anisotropy": null, "shape_factor": null, "has_reconstructed": null, "possible_species": null, "has_props": null, "theoretical": null, "database_IDs": null, "fields_not_requested": ["builder_meta", "nsites", "elements", "nelements", "composition", "composition_reduced", "chemsys", "symmetry", "property_name", "deprecated", "deprecation_reasons", "last_updated", "origins", "warnings", "task_ids", "uncorrected_energy_per_atom", "equilibrium_reaction_energy_per_atom", "decomposes_to", "xas", "grain_boundaries", "cbm", "vbm", "is_gap_direct", "is_metal", "es_source_calc_id", "bandstructure", "dos", "dos_energy_up", "dos_energy_down", "is_magnetic", "ordering", "total_magnetization_normalized_vol", "total_magnetization_normalized_formula_units", "num_magnetic_sites", "num_unique_magnetic_sites", "types_of_magnetic_species", "bulk_modulus", "shear_modulus", "universal_anisotropy", "homogeneous_poisson", "e_total", "e_ionic", "e_electronic", "n", "e_ij_max", "weighted_surface_energy_EV_PER_ANG2", "weighted_surface_energy", "weighted_work_function", "surface_anisotropy", "shape_factor", "has_reconstructed", "possible_species", "has_props", "theoretical", "database_IDs"]}