{"builder_meta": null, "nsites": null, "elements": null, "nelements": null, "composition": null, "composition_reduced": null, "formula_pretty": "AcHg3", "formula_anonymous": "AB3", "chemsys": null, "volume": 223.93118684814755, "density": 12.291320218467966, "density_atomic": 27.991398356018443, "symmetry": null, "property_name": null, "material_id": "mp-862289", "deprecated": null, "deprecation_reasons": null, "last_updated": null, "origins": null, "warnings": null, "structure": {"@module": "pymatgen.core.structure", "@class": "Structure", "charge": 0, "lattice": {"matrix": [[7.12952669, -0.00017661, 0.0], [-3.56491577, 6.17426237, -0.0], [0.0, 0.0, 5.08715551]], "pbc": [true, true, true], "a": 7.129526692187459, "b": 7.129525949233421, "c": 5.08715551, "alpha": 90.0, "beta": 90.0, "gamma": 120.00283720686556, "volume": 223.93118684814755}, "properties": {}, "sites": [{"species": [{"element": "Ac", "occu": 1}], "abc": [0.33330064, 0.66669936, 0.75], "properties": {"magmom": 0.0}, "label": "Ac", "xyz": [-0.0004512536388259214, 4.116317906325053, 3.8153666325]}, {"species": [{"element": "Ac", "occu": 1}], "abc": [0.66670036, 0.33329964, 0.25], "properties": {"magmom": 0.0}, "label": "Ac", "xyz": [3.5650728680812858, 2.0577616792359676, 1.2717888775]}, {"species": [{"element": "Hg", "occu": 1}], "abc": [0.15394504, 0.30781007, 0.25], "properties": {"magmom": 0.0}, "label": "Hg", "xyz": [0.00023829876531378247, 1.9004729440745516, 1.2717888775]}, {"species": [{"element": "Hg", "occu": 1}], "abc": [0.6921899300000001, 0.84605496, 0.25], "properties": {"magmom": 0.0}, "label": "Hg", "xyz": [1.9188719112935124, 5.223643054816319, 1.2717888775]}, {"species": [{"element": "Hg", "occu": 1}], "abc": [0.15381958, 0.84617942, 0.25], "properties": {"magmom": 0.0}, "label": "Hg", "xyz": [-1.9198975575528632, 5.2245065850984025, 1.2717888775]}, {"species": [{"element": "Hg", "occu": 1}], "abc": [0.84605496, 0.6921899300000001, 0.75], "properties": {"magmom": 0.0}, "label": "Hg", "xyz": [3.564372621234686, 4.273612815925449, 3.8153666325]}, {"species": [{"element": "Hg", "occu": 1}], "abc": [0.30780907, 0.15394404, 0.75], "properties": {"magmom": 0.0}, "label": "Hg", "xyz": [1.6457354440955676, 0.9504365310979221, 3.8153666325]}, {"species": [{"element": "Hg", "occu": 1}], "abc": [0.8461814200000001, 0.15381958, 0.75], "properties": {"magmom": 0.0}, "label": "Hg", "xyz": [5.4845191719953235, 0.9495730004626185, 3.8153666325]}]}, "task_ids": null, "uncorrected_energy_per_atom": null, "energy_per_atom": -54.66246388875, "formation_energy_per_atom": -0.47723914374999704, "energy_above_hull": 0.0, "is_stable": true, "equilibrium_reaction_energy_per_atom": null, "decomposes_to": null, "xas": null, "grain_boundaries": null, "band_gap": 0.0, "cbm": null, "vbm": null, "efermi": 4.23325819, "is_gap_direct": null, "is_metal": null, "es_source_calc_id": null, "bandstructure": null, "dos": null, "dos_energy_up": null, "dos_energy_down": null, "is_magnetic": null, "ordering": null, "total_magnetization": 2e-07, "total_magnetization_normalized_vol": null, "total_magnetization_normalized_formula_units": null, "num_magnetic_sites": null, "num_unique_magnetic_sites": null, "types_of_magnetic_species": null, "bulk_modulus": null, "shear_modulus": null, "universal_anisotropy": null, "homogeneous_poisson": null, "e_total": null, "e_ionic": null, "e_electronic": null, "n": null, "e_ij_max": null, "weighted_surface_energy_EV_PER_ANG2": null, "weighted_surface_energy": null, "weighted_work_function": null, "surface_anisotropy": null, "shape_factor": null, "has_reconstructed": null, "possible_species": null, "has_props": null, "theoretical": null, "database_IDs": null, "fields_not_requested": ["builder_meta", "nsites", "elements", "nelements", "composition", "composition_reduced", "chemsys", "symmetry", "property_name", "deprecated", "deprecation_reasons", "last_updated", "origins", "warnings", "task_ids", "uncorrected_energy_per_atom", "equilibrium_reaction_energy_per_atom", "decomposes_to", "xas", "grain_boundaries", "cbm", "vbm", "is_gap_direct", "is_metal", "es_source_calc_id", "bandstructure", "dos", "dos_energy_up", "dos_energy_down", "is_magnetic", "ordering", "total_magnetization_normalized_vol", "total_magnetization_normalized_formula_units", "num_magnetic_sites", "num_unique_magnetic_sites", "types_of_magnetic_species", "bulk_modulus", "shear_modulus", "universal_anisotropy", "homogeneous_poisson", "e_total", "e_ionic", "e_electronic", "n", "e_ij_max", "weighted_surface_energy_EV_PER_ANG2", "weighted_surface_energy", "weighted_work_function", "surface_anisotropy", "shape_factor", "has_reconstructed", "possible_species", "has_props", "theoretical", "database_IDs"]}