{
  "builder_meta": null,
  "nsites": null,
  "elements": null,
  "nelements": null,
  "composition": null,
  "composition_reduced": null,
  "formula_pretty": "AcI3",
  "formula_anonymous": "AB3",
  "chemsys": null,
  "volume": 465.6364161794002,
  "density": 4.3344198328891235,
  "density_atomic": 58.20455202242503,
  "symmetry": null,
  "property_name": null,
  "material_id": "mp-861867",
  "deprecated": null,
  "deprecation_reasons": null,
  "last_updated": null,
  "origins": null,
  "warnings": null,
  "structure": {
    "@module": "pymatgen.core.structure",
    "@class": "Structure",
    "charge": 0,
    "lattice": {
      "matrix": [
        [11.0362211, 1e-8, 0.0],
        [-5.51810953, 9.55764569, 0.0],
        [0.0, 0.0, 4.41444]
      ],
      "pbc": [true, true, true],
      "a": 11.0362211,
      "b": 11.03621873291085,
      "c": 4.41444,
      "alpha": 90.0,
      "beta": 90.0,
      "gamma": 120.00000092849416,
      "volume": 465.6364161794002
    },
    "properties": {},
    "sites": [
      {
        "species": [{ "element": "Ac", "occu": 1 }],
        "abc": [0.333333, 0.666667, 0.750000999999999],
        "properties": { "magmom": 0.0 },
        "label": "Ac",
        "xyz": [-4.8381102102368345e-6, 6.37176698254856, 3.3108344144399955]
      },
      {
        "species": [{ "element": "Ac", "occu": 1 }],
        "abc": [0.666667, 0.333333, 0.249999],
        "properties": { "magmom": 0.0 },
        "label": "Ac",
        "xyz": [5.5181164081102105, 3.1858787174514394, 1.10360558556]
      },
      {
        "species": [{ "element": "I", "occu": 1 }],
        "abc": [0.20505424, 0.41010847, 0.249999],
        "properties": { "magmom": 0.0 },
        "label": "I",
        "xyz": [4.734917449233933e-7, 3.9196714527785366, 1.10360558556]
      },
      {
        "species": [{ "element": "I", "occu": 1 }],
        "abc": [0.58989053, 0.7949457600000001, 0.249999],
        "properties": { "magmom": 0.0 },
        "label": "I",
        "xyz": [2.1235645397870906, 7.59780992274668, 1.10360558556]
      },
      {
        "species": [{ "element": "I", "occu": 1 }],
        "abc": [0.20505424, 0.7949457600000001, 0.249999],
        "properties": { "magmom": 0.0 },
        "label": "I",
        "xyz": [-2.1235738439566294, 7.597809918898316, 1.10360558556]
      },
      {
        "species": [{ "element": "I", "occu": 1 }],
        "abc": [0.79494476, 0.58989053, 0.750000999999999],
        "properties": { "magmom": 0.0 },
        "label": "I",
        "xyz": [5.5181055783966855, 5.637964689575763, 3.3108344144399955]
      },
      {
        "species": [{ "element": "I", "occu": 1 }],
        "abc": [0.41010847, 0.20505424, 0.750000999999999],
        "properties": { "magmom": 0.0 },
        "label": "I",
        "xyz": [3.3945359939918096, 1.9598357772533102, 3.3108344144399955]
      },
      {
        "species": [{ "element": "I", "occu": 1 }],
        "abc": [0.7949457600000001, 0.20505424, 0.750000999999999],
        "properties": { "magmom": 0.0 },
        "label": "I",
        "xyz": [7.64168541395663, 1.9598357811016829, 3.3108344144399955]
      }
    ]
  },
  "task_ids": null,
  "uncorrected_energy_per_atom": null,
  "energy_per_atom": -3.974306416250002,
  "formation_energy_per_atom": -1.801003203125001,
  "energy_above_hull": 0.0,
  "is_stable": true,
  "equilibrium_reaction_energy_per_atom": null,
  "decomposes_to": null,
  "xas": null,
  "grain_boundaries": null,
  "band_gap": 2.5892,
  "cbm": null,
  "vbm": null,
  "efermi": -0.21485256,
  "is_gap_direct": null,
  "is_metal": null,
  "es_source_calc_id": null,
  "bandstructure": null,
  "dos": null,
  "dos_energy_up": null,
  "dos_energy_down": null,
  "is_magnetic": null,
  "ordering": null,
  "total_magnetization": 0.0,
  "total_magnetization_normalized_vol": null,
  "total_magnetization_normalized_formula_units": null,
  "num_magnetic_sites": null,
  "num_unique_magnetic_sites": null,
  "types_of_magnetic_species": null,
  "bulk_modulus": null,
  "shear_modulus": null,
  "universal_anisotropy": null,
  "homogeneous_poisson": null,
  "e_total": null,
  "e_ionic": null,
  "e_electronic": null,
  "n": null,
  "e_ij_max": null,
  "weighted_surface_energy_EV_PER_ANG2": null,
  "weighted_surface_energy": null,
  "weighted_work_function": null,
  "surface_anisotropy": null,
  "shape_factor": null,
  "has_reconstructed": null,
  "possible_species": null,
  "has_props": null,
  "theoretical": null,
  "database_IDs": null,
  "fields_not_requested": [
    "builder_meta",
    "nsites",
    "elements",
    "nelements",
    "composition",
    "composition_reduced",
    "chemsys",
    "symmetry",
    "property_name",
    "deprecated",
    "deprecation_reasons",
    "last_updated",
    "origins",
    "warnings",
    "task_ids",
    "uncorrected_energy_per_atom",
    "equilibrium_reaction_energy_per_atom",
    "decomposes_to",
    "xas",
    "grain_boundaries",
    "cbm",
    "vbm",
    "is_gap_direct",
    "is_metal",
    "es_source_calc_id",
    "bandstructure",
    "dos",
    "dos_energy_up",
    "dos_energy_down",
    "is_magnetic",
    "ordering",
    "total_magnetization_normalized_vol",
    "total_magnetization_normalized_formula_units",
    "num_magnetic_sites",
    "num_unique_magnetic_sites",
    "types_of_magnetic_species",
    "bulk_modulus",
    "shear_modulus",
    "universal_anisotropy",
    "homogeneous_poisson",
    "e_total",
    "e_ionic",
    "e_electronic",
    "n",
    "e_ij_max",
    "weighted_surface_energy_EV_PER_ANG2",
    "weighted_surface_energy",
    "weighted_work_function",
    "surface_anisotropy",
    "shape_factor",
    "has_reconstructed",
    "possible_species",
    "has_props",
    "theoretical",
    "database_IDs"
  ]
}
