{
  "builder_meta": null,
  "nsites": null,
  "elements": null,
  "nelements": null,
  "composition": null,
  "composition_reduced": null,
  "formula_pretty": "AcIn3",
  "formula_anonymous": "AB3",
  "chemsys": null,
  "volume": 233.8478932484816,
  "density": 8.115717260334973,
  "density_atomic": 29.2309866560602,
  "symmetry": null,
  "property_name": null,
  "material_id": "mp-867297",
  "deprecated": null,
  "deprecation_reasons": null,
  "last_updated": null,
  "origins": null,
  "warnings": null,
  "structure": {
    "@module": "pymatgen.core.structure",
    "@class": "Structure",
    "charge": 0,
    "lattice": {
      "matrix": [
        [7.2353485, 0.0, 0.0],
        [-3.61767425, 6.26599617, -0.0],
        [-0.0, 0.0, 5.15803022]
      ],
      "pbc": [true, true, true],
      "a": 7.2353485,
      "b": 7.235348988236002,
      "c": 5.15803022,
      "alpha": 90.0,
      "beta": 90.0,
      "gamma": 119.99999776780405,
      "volume": 233.8478932484816
    },
    "properties": {},
    "sites": [
      {
        "species": [{ "element": "Ac", "occu": 1 }],
        "abc": [0.333333999999999, 0.666667, 0.750000999999999],
        "properties": { "magmom": -0.0 },
        "label": "Ac",
        "xyz": [3.6176742428395414e-6, 4.17733286866539, 3.868527823030215]
      },
      {
        "species": [{ "element": "Ac", "occu": 1 }],
        "abc": [0.666667999999999, 0.333333999999999, 0.25],
        "properties": { "magmom": -0.0 },
        "label": "Ac",
        "xyz": [3.6176814853484967, 2.088669567330774, 1.289507555]
      },
      {
        "species": [{ "element": "In", "occu": 1 }],
        "abc": [0.14544256, 0.29088713, 0.25],
        "properties": { "magmom": -0.0 },
        "label": "In",
        "xyz": [-7.2715252423805055e-6, 1.822697642482292, 1.289507555]
      },
      {
        "species": [{ "element": "In", "occu": 1 }],
        "abc": [0.70911387, 0.85455844, 0.25],
        "properties": { "magmom": -0.0 },
        "label": "In",
        "xyz": [2.0391719121255254, 5.354659912081175, 1.289507555]
      },
      {
        "species": [{ "element": "In", "occu": 1 }],
        "abc": [0.14544256, 0.85455844, 0.25],
        "properties": { "magmom": -0.0 },
        "label": "In",
        "xyz": [-2.0391864551760097, 5.354659912081175, 1.289507555]
      },
      {
        "species": [{ "element": "In", "occu": 1 }],
        "abc": [0.85455844, 0.70911387, 0.750000999999999],
        "properties": { "magmom": -0.0 },
        "label": "In",
        "xyz": [3.617685139199492, 4.443304793513878, 3.868527823030215]
      },
      {
        "species": [{ "element": "In", "occu": 1 }],
        "abc": [0.29088613, 0.14544256, 0.750000999999999],
        "properties": { "magmom": -0.0 },
        "label": "In",
        "xyz": [1.578498720200225, 0.9113425239149953, 3.868527823030215]
      },
      {
        "species": [{ "element": "In", "occu": 1 }],
        "abc": [0.8545594400000001, 0.14544256, 0.750000999999999],
        "properties": { "magmom": -0.0 },
        "label": "In",
        "xyz": [5.656871558198761, 0.9113425239149953, 3.868527823030215]
      }
    ]
  },
  "task_ids": null,
  "uncorrected_energy_per_atom": null,
  "energy_per_atom": -34.64402154375,
  "formation_energy_per_atom": -0.5507089056250011,
  "energy_above_hull": 0.0,
  "is_stable": true,
  "equilibrium_reaction_energy_per_atom": null,
  "decomposes_to": null,
  "xas": null,
  "grain_boundaries": null,
  "band_gap": 0.0,
  "cbm": null,
  "vbm": null,
  "efermi": 7.29790752,
  "is_gap_direct": null,
  "is_metal": null,
  "es_source_calc_id": null,
  "bandstructure": null,
  "dos": null,
  "dos_energy_up": null,
  "dos_energy_down": null,
  "is_magnetic": null,
  "ordering": null,
  "total_magnetization": 7e-7,
  "total_magnetization_normalized_vol": null,
  "total_magnetization_normalized_formula_units": null,
  "num_magnetic_sites": null,
  "num_unique_magnetic_sites": null,
  "types_of_magnetic_species": null,
  "bulk_modulus": null,
  "shear_modulus": null,
  "universal_anisotropy": null,
  "homogeneous_poisson": null,
  "e_total": null,
  "e_ionic": null,
  "e_electronic": null,
  "n": null,
  "e_ij_max": null,
  "weighted_surface_energy_EV_PER_ANG2": null,
  "weighted_surface_energy": null,
  "weighted_work_function": null,
  "surface_anisotropy": null,
  "shape_factor": null,
  "has_reconstructed": null,
  "possible_species": null,
  "has_props": null,
  "theoretical": null,
  "database_IDs": null,
  "fields_not_requested": [
    "builder_meta",
    "nsites",
    "elements",
    "nelements",
    "composition",
    "composition_reduced",
    "chemsys",
    "symmetry",
    "property_name",
    "deprecated",
    "deprecation_reasons",
    "last_updated",
    "origins",
    "warnings",
    "task_ids",
    "uncorrected_energy_per_atom",
    "equilibrium_reaction_energy_per_atom",
    "decomposes_to",
    "xas",
    "grain_boundaries",
    "cbm",
    "vbm",
    "is_gap_direct",
    "is_metal",
    "es_source_calc_id",
    "bandstructure",
    "dos",
    "dos_energy_up",
    "dos_energy_down",
    "is_magnetic",
    "ordering",
    "total_magnetization_normalized_vol",
    "total_magnetization_normalized_formula_units",
    "num_magnetic_sites",
    "num_unique_magnetic_sites",
    "types_of_magnetic_species",
    "bulk_modulus",
    "shear_modulus",
    "universal_anisotropy",
    "homogeneous_poisson",
    "e_total",
    "e_ionic",
    "e_electronic",
    "n",
    "e_ij_max",
    "weighted_surface_energy_EV_PER_ANG2",
    "weighted_surface_energy",
    "weighted_work_function",
    "surface_anisotropy",
    "shape_factor",
    "has_reconstructed",
    "possible_species",
    "has_props",
    "theoretical",
    "database_IDs"
  ]
}
