{"builder_meta": null, "nsites": null, "elements": null, "nelements": null, "composition": null, "composition_reduced": null, "formula_pretty": "AcLa3", "formula_anonymous": "AB3", "chemsys": null, "volume": 157.34157769158733, "density": 6.793603205833718, "density_atomic": 39.33539442289683, "symmetry": null, "property_name": null, "material_id": "mp-985059", "deprecated": null, "deprecation_reasons": null, "last_updated": null, "origins": null, "warnings": null, "structure": {"@module": "pymatgen.core.structure", "@class": "Structure", "charge": 0, "lattice": {"matrix": [[-2.71282539, 2.71282539, 5.34490298], [2.71282539, -2.71282539, 5.34490298], [2.71282539, 2.71282539, -5.34490298]], "pbc": [true, true, true], "a": 6.579272836634013, "b": 6.579272836634013, "c": 6.579272836634013, "alpha": 131.29754605192798, "beta": 131.29754605192798, "gamma": 71.34076517069458, "volume": 157.34157769158733}, "properties": {}, "sites": [{"species": [{"element": "Ac", "occu": 1}], "abc": [0.0, 0.0, 0.0], "properties": {"magmom": -0.0}, "label": "Ac", "xyz": [0.0, 0.0, 0.0]}, {"species": [{"element": "La", "occu": 1}], "abc": [0.749999, 0.25, 0.499998999999999], "properties": {"magmom": -0.0}, "label": "La", "xyz": [-2.6645352591003757e-15, 2.7128199643492175, 2.672451490000005]}, {"species": [{"element": "La", "occu": 1}], "abc": [0.25, 0.749999, 0.499998999999999], "properties": {"magmom": -0.0}, "label": "La", "xyz": [2.7128199643492175, -2.6645352591003757e-15, 2.672451490000005]}, {"species": [{"element": "La", "occu": 1}], "abc": [0.5, 0.5, 0.0], "properties": {"magmom": -0.0}, "label": "La", "xyz": [0.0, 0.0, 5.34490298]}]}, "task_ids": null, "uncorrected_energy_per_atom": null, "energy_per_atom": -39.442378565, "formation_energy_per_atom": 0.025576441875003002, "energy_above_hull": 0.025576441875003002, "is_stable": false, "equilibrium_reaction_energy_per_atom": null, "decomposes_to": null, "xas": null, "grain_boundaries": null, "band_gap": 0.0, "cbm": null, "vbm": null, "efermi": 7.46277015, "is_gap_direct": null, "is_metal": null, "es_source_calc_id": null, "bandstructure": null, "dos": null, "dos_energy_up": null, "dos_energy_down": null, "is_magnetic": null, "ordering": null, "total_magnetization": 1.5e-06, "total_magnetization_normalized_vol": null, "total_magnetization_normalized_formula_units": null, "num_magnetic_sites": null, "num_unique_magnetic_sites": null, "types_of_magnetic_species": null, "bulk_modulus": null, "shear_modulus": null, "universal_anisotropy": null, "homogeneous_poisson": null, "e_total": null, "e_ionic": null, "e_electronic": null, "n": null, "e_ij_max": null, "weighted_surface_energy_EV_PER_ANG2": null, "weighted_surface_energy": null, "weighted_work_function": null, "surface_anisotropy": null, "shape_factor": null, "has_reconstructed": null, "possible_species": null, "has_props": null, "theoretical": null, "database_IDs": null, "fields_not_requested": ["builder_meta", "nsites", "elements", "nelements", "composition", "composition_reduced", "chemsys", "symmetry", "property_name", "deprecated", "deprecation_reasons", "last_updated", "origins", "warnings", "task_ids", "uncorrected_energy_per_atom", "equilibrium_reaction_energy_per_atom", "decomposes_to", "xas", "grain_boundaries", "cbm", "vbm", "is_gap_direct", "is_metal", "es_source_calc_id", "bandstructure", "dos", "dos_energy_up", "dos_energy_down", "is_magnetic", "ordering", "total_magnetization_normalized_vol", "total_magnetization_normalized_formula_units", "num_magnetic_sites", "num_unique_magnetic_sites", "types_of_magnetic_species", "bulk_modulus", "shear_modulus", "universal_anisotropy", "homogeneous_poisson", "e_total", "e_ionic", "e_electronic", "n", "e_ij_max", "weighted_surface_energy_EV_PER_ANG2", "weighted_surface_energy", "weighted_work_function", "surface_anisotropy", "shape_factor", "has_reconstructed", "possible_species", "has_props", "theoretical", "database_IDs"]}