{"builder_meta": null, "nsites": null, "elements": null, "nelements": null, "composition": null, "composition_reduced": null, "formula_pretty": "AcN", "formula_anonymous": "AB", "chemsys": null, "volume": 99.88023485516378, "density": 8.01361833485228, "density_atomic": 24.970058713790944, "symmetry": null, "property_name": null, "material_id": "mp-866056", "deprecated": null, "deprecation_reasons": null, "last_updated": null, "origins": null, "warnings": null, "structure": {"@module": "pymatgen.core.structure", "@class": "Structure", "charge": 0, "lattice": {"matrix": [[2.14013744, -3.70683034, -1.02e-06], [2.140138819999999, 3.70682986, 2.2e-06], [6.499999999999999e-07, 1.46e-06, 6.29513537]], "pbc": [true, true, true], "a": 4.280277961959399, "b": 4.280278236267293, "c": 6.295135370000202, "alpha": 89.99995608476236, "beta": 90.0000222037327, "gamma": 120.00002842683021, "volume": 99.88023485516374}, "properties": {}, "sites": [{"species": [{"element": "Ac", "occu": 1}], "abc": [9.3e-07, -1.5e-07, 0.9848949300000001], "properties": {"magmom": 0.0}, "label": "Ac", "xyz": [2.3094887007000005e-06, -2.5654300973999997e-06, 6.200046909575395]}, {"species": [{"element": "Ac", "occu": 1}], "abc": [0.33333083, 0.66666367, 0.48489334], "properties": {"magmom": -0.0}, "label": "Ac", "xyz": [2.1401269044206153, 1.2356086725760806, 3.052470341974063]}, {"species": [{"element": "N", "occu": 1}], "abc": [0.99999964, 0.99999728, 0.39009851], "properties": {"magmom": 0.0}, "label": "N", "xyz": [4.280269921936961, -8.658574472022511e-06, 2.4557241080796817]}, {"species": [{"element": "N", "occu": 1}], "abc": [0.3333336, 0.6666672, 0.89011322], "properties": {"magmom": -0.0}, "label": "N", "xyz": [2.1401406506842804, 1.235612081386469, 5.603384341194159]}]}, "task_ids": null, "uncorrected_energy_per_atom": null, "energy_per_atom": -40.20567818, "formation_energy_per_atom": -1.322563138124998, "energy_above_hull": 0.0, "is_stable": true, "equilibrium_reaction_energy_per_atom": null, "decomposes_to": null, "xas": null, "grain_boundaries": null, "band_gap": 0.0517, "cbm": null, "vbm": null, "efermi": 5.27613211, "is_gap_direct": null, "is_metal": null, "es_source_calc_id": null, "bandstructure": null, "dos": null, "dos_energy_up": null, "dos_energy_down": null, "is_magnetic": null, "ordering": null, "total_magnetization": 0.0, "total_magnetization_normalized_vol": null, "total_magnetization_normalized_formula_units": null, "num_magnetic_sites": null, "num_unique_magnetic_sites": null, "types_of_magnetic_species": null, "bulk_modulus": null, "shear_modulus": null, "universal_anisotropy": null, "homogeneous_poisson": null, "e_total": null, "e_ionic": null, "e_electronic": null, "n": null, "e_ij_max": null, "weighted_surface_energy_EV_PER_ANG2": null, "weighted_surface_energy": null, "weighted_work_function": null, "surface_anisotropy": null, "shape_factor": null, "has_reconstructed": null, "possible_species": null, "has_props": null, "theoretical": null, "database_IDs": null, "fields_not_requested": ["builder_meta", "nsites", "elements", "nelements", "composition", "composition_reduced", "chemsys", "symmetry", "property_name", "deprecated", "deprecation_reasons", "last_updated", "origins", "warnings", "task_ids", "uncorrected_energy_per_atom", "equilibrium_reaction_energy_per_atom", "decomposes_to", "xas", "grain_boundaries", "cbm", "vbm", "is_gap_direct", "is_metal", "es_source_calc_id", "bandstructure", "dos", "dos_energy_up", "dos_energy_down", "is_magnetic", "ordering", "total_magnetization_normalized_vol", "total_magnetization_normalized_formula_units", "num_magnetic_sites", "num_unique_magnetic_sites", "types_of_magnetic_species", "bulk_modulus", "shear_modulus", "universal_anisotropy", "homogeneous_poisson", "e_total", "e_ionic", "e_electronic", "n", "e_ij_max", "weighted_surface_energy_EV_PER_ANG2", "weighted_surface_energy", "weighted_work_function", "surface_anisotropy", "shape_factor", "has_reconstructed", "possible_species", "has_props", "theoretical", "database_IDs"]}