{"builder_meta": null, "nsites": null, "elements": null, "nelements": null, "composition": null, "composition_reduced": null, "formula_pretty": "AcNd3", "formula_anonymous": "AB3", "chemsys": null, "volume": 306.837126825906, "density": 7.140601318909621, "density_atomic": 38.35464085323825, "symmetry": null, "property_name": null, "material_id": "mp-1183259", "deprecated": null, "deprecation_reasons": null, "last_updated": null, "origins": null, "warnings": null, "structure": {"@module": "pymatgen.core.structure", "@class": "Structure", "charge": 0, "lattice": {"matrix": [[3.83612953, -6.64437, 0.0], [3.83612603, 6.64436902, 0.0], [0.0, 0.0, 6.01909323]], "pbc": [true, true, true], "a": 7.672257977143237, "b": 7.672255378438554, "c": 6.01909323, "alpha": 90.0, "beta": 90.0, "gamma": 120.0000096389458, "volume": 306.837126825906}, "properties": {}, "sites": [{"species": [{"element": "Ac", "occu": 1}], "abc": [0.33333806, 0.66667599, 0.75], "properties": {"magmom": -0.0}, "label": "Ac", "xyz": [3.8361810942539316, 2.2148198886116295, 4.5143199225]}, {"species": [{"element": "Ac", "occu": 1}], "abc": [0.66667339, 0.33334184, 0.25], "properties": {"magmom": -0.0}, "label": "Ac", "xyz": [3.836186787556302, -2.2147784775485038, 1.5047733075]}, {"species": [{"element": "Nd", "occu": 1}], "abc": [0.16364597, 0.32729766, 0.25], "properties": {"magmom": -0.0}, "label": "Nd", "xyz": [1.8833222110665837, 1.0873620587335933, 1.5047733075]}, {"species": [{"element": "Nd", "occu": 1}], "abc": [0.672702799999999, 0.83634886, 0.25], "properties": {"magmom": -0.0}, "label": "Nd", "xyz": [5.788914708000506, 1.0873241520603232, 1.5047733075]}, {"species": [{"element": "Nd", "occu": 1}], "abc": [0.16364473000000002, 0.83634455, 0.25], "properties": {"magmom": -0.0}, "label": "Nd", "xyz": [3.8360854794855133, 4.469665683395741, 1.5047733075]}, {"species": [{"element": "Nd", "occu": 1}], "abc": [0.8363479500000001, 0.67270017, 0.75], "properties": {"magmom": -0.0}, "label": "Nd", "xyz": [5.788901700872389, -1.087337059244767, 4.5143199225]}, {"species": [{"element": "Nd", "occu": 1}], "abc": [0.3273009, 0.16364778, 0.75], "properties": {"magmom": -0.0}, "label": "Nd", "xyz": [1.8833421562952903, -1.0873720413092247, 4.5143199225]}, {"species": [{"element": "Nd", "occu": 1}], "abc": [0.83634621, 0.16364415000000002, 0.75], "properties": {"magmom": -0.0}, "label": "Nd", "xyz": [3.836091976956806, -4.469681546773467, 4.5143199225]}]}, "task_ids": null, "uncorrected_energy_per_atom": null, "energy_per_atom": -39.18583362625, "formation_energy_per_atom": 0.037042963749996, "energy_above_hull": 0.037042963749996, "is_stable": false, "equilibrium_reaction_energy_per_atom": null, "decomposes_to": null, "xas": null, "grain_boundaries": null, "band_gap": 0.0, "cbm": null, "vbm": null, "efermi": 4.17468388, "is_gap_direct": null, "is_metal": null, "es_source_calc_id": null, "bandstructure": null, "dos": null, "dos_energy_up": null, "dos_energy_down": null, "is_magnetic": null, "ordering": null, "total_magnetization": 8.87e-05, "total_magnetization_normalized_vol": null, "total_magnetization_normalized_formula_units": null, "num_magnetic_sites": null, "num_unique_magnetic_sites": null, "types_of_magnetic_species": null, "bulk_modulus": null, "shear_modulus": null, "universal_anisotropy": null, "homogeneous_poisson": null, "e_total": null, "e_ionic": null, "e_electronic": null, "n": null, "e_ij_max": null, "weighted_surface_energy_EV_PER_ANG2": null, "weighted_surface_energy": null, "weighted_work_function": null, "surface_anisotropy": null, "shape_factor": null, "has_reconstructed": null, "possible_species": null, "has_props": null, "theoretical": null, "database_IDs": null, "fields_not_requested": ["builder_meta", "nsites", "elements", "nelements", "composition", "composition_reduced", "chemsys", "symmetry", "property_name", "deprecated", "deprecation_reasons", "last_updated", "origins", "warnings", "task_ids", "uncorrected_energy_per_atom", "equilibrium_reaction_energy_per_atom", "decomposes_to", "xas", "grain_boundaries", "cbm", "vbm", "is_gap_direct", "is_metal", "es_source_calc_id", "bandstructure", "dos", "dos_energy_up", "dos_energy_down", "is_magnetic", "ordering", "total_magnetization_normalized_vol", "total_magnetization_normalized_formula_units", "num_magnetic_sites", "num_unique_magnetic_sites", "types_of_magnetic_species", "bulk_modulus", "shear_modulus", "universal_anisotropy", "homogeneous_poisson", "e_total", "e_ionic", "e_electronic", "n", "e_ij_max", "weighted_surface_energy_EV_PER_ANG2", "weighted_surface_energy", "weighted_work_function", "surface_anisotropy", "shape_factor", "has_reconstructed", "possible_species", "has_props", "theoretical", "database_IDs"]}