{
  "builder_meta": null,
  "nsites": null,
  "elements": null,
  "nelements": null,
  "composition": null,
  "composition_reduced": null,
  "formula_pretty": "AcPm3",
  "formula_anonymous": "AB3",
  "chemsys": null,
  "volume": 300.4750415990404,
  "density": 7.316926266082997,
  "density_atomic": 37.55938019988005,
  "symmetry": null,
  "property_name": null,
  "material_id": "mp-1183264",
  "deprecated": null,
  "deprecation_reasons": null,
  "last_updated": null,
  "origins": null,
  "warnings": null,
  "structure": {
    "@module": "pymatgen.core.structure",
    "@class": "Structure",
    "charge": 0,
    "lattice": {
      "matrix": [
        [3.81013826, -6.59935672, 2e-8],
        [3.8101386, 6.59935691, -1.3e-7],
        [-9e-8, -7e-8, 5.97497432]
      ],
      "pbc": [true, true, true],
      "a": 7.62027969815577,
      "b": 7.620280032700552,
      "c": 5.974974320000002,
      "alpha": 90.00000199028923,
      "beta": 89.99999969982083,
      "gamma": 120.00002609320356,
      "volume": 300.4750415990404
    },
    "properties": {},
    "sites": [
      {
        "species": [{ "element": "Ac", "occu": 1 }],
        "abc": [0.33333463, 0.66667499, 0.75000001],
        "properties": { "magmom": -0.0 },
        "label": "Ac",
        "xyz": [3.810175072699557, 2.199832018981466, 4.481230719748687]
      },
      {
        "species": [{ "element": "Ac", "occu": 1 }],
        "abc": [0.66666799, 0.33334066, 0.24999999],
        "properties": { "magmom": -0.0 },
        "label": "Ac",
        "xyz": [3.8101713085317743, -2.1997459093604315, 1.493743490249331]
      },
      {
        "species": [{ "element": "Pm", "occu": 1 }],
        "abc": [0.16334343, 0.32668151, 0.25000003],
        "properties": { "magmom": -0.0 },
        "label": "Pm",
        "xyz": [1.8670628608199151, 1.0779263004493824, 1.4937437200475019]
      },
      {
        "species": [{ "element": "Pm", "occu": 1 }],
        "abc": [0.67332185, 0.83665413, 0.24999997000000002],
        "properties": { "magmom": -0.0 },
        "label": "Pm",
        "xyz": [5.753217515041402, 1.0778881210752083, 1.4937433054521707]
      },
      {
        "species": [{ "element": "Pm", "occu": 1 }],
        "abc": [0.16333367000000001, 0.836656899999999, 0.24999997000000002],
        "properties": { "magmom": -0.0 },
        "label": "Pm",
        "xyz": [3.810102592359553, 4.443500324097412, 1.493743295252047]
      },
      {
        "species": [{ "element": "Pm", "occu": 1 }],
        "abc": [0.8366646600000001, 0.673326099999999, 0.75000004],
        "properties": { "magmom": -0.0 },
        "label": "Pm",
        "xyz": [5.753273728353344, -1.0779293481391738, 4.481230908199873]
      },
      {
        "species": [{ "element": "Pm", "occu": 1 }],
        "abc": [0.32667703, 0.16333216, 0.7499999900000001],
        "properties": { "magmom": -0.0 },
        "label": "Pm",
        "xyz": [1.8670027506035447, -1.0779710869789152, 4.481230665550616]
      },
      {
        "species": [{ "element": "Pm", "occu": 1 }],
        "abc": [0.8366567500000001, 0.16333455, 0.75],
        "properties": { "magmom": -0.0 },
        "label": "Pm",
        "xyz": [3.8101050998308854, -4.44349340676162, 4.4812307354996435]
      }
    ]
  },
  "task_ids": null,
  "uncorrected_energy_per_atom": null,
  "energy_per_atom": -39.27649604125,
  "formation_energy_per_atom": 0.038333158749999,
  "energy_above_hull": 0.038333158749999,
  "is_stable": false,
  "equilibrium_reaction_energy_per_atom": null,
  "decomposes_to": null,
  "xas": null,
  "grain_boundaries": null,
  "band_gap": 0.0,
  "cbm": null,
  "vbm": null,
  "efermi": 4.0782772,
  "is_gap_direct": null,
  "is_metal": null,
  "es_source_calc_id": null,
  "bandstructure": null,
  "dos": null,
  "dos_energy_up": null,
  "dos_energy_down": null,
  "is_magnetic": null,
  "ordering": null,
  "total_magnetization": 0.00018089999999900002,
  "total_magnetization_normalized_vol": null,
  "total_magnetization_normalized_formula_units": null,
  "num_magnetic_sites": null,
  "num_unique_magnetic_sites": null,
  "types_of_magnetic_species": null,
  "bulk_modulus": null,
  "shear_modulus": null,
  "universal_anisotropy": null,
  "homogeneous_poisson": null,
  "e_total": null,
  "e_ionic": null,
  "e_electronic": null,
  "n": null,
  "e_ij_max": null,
  "weighted_surface_energy_EV_PER_ANG2": null,
  "weighted_surface_energy": null,
  "weighted_work_function": null,
  "surface_anisotropy": null,
  "shape_factor": null,
  "has_reconstructed": null,
  "possible_species": null,
  "has_props": null,
  "theoretical": null,
  "database_IDs": null,
  "fields_not_requested": [
    "builder_meta",
    "nsites",
    "elements",
    "nelements",
    "composition",
    "composition_reduced",
    "chemsys",
    "symmetry",
    "property_name",
    "deprecated",
    "deprecation_reasons",
    "last_updated",
    "origins",
    "warnings",
    "task_ids",
    "uncorrected_energy_per_atom",
    "equilibrium_reaction_energy_per_atom",
    "decomposes_to",
    "xas",
    "grain_boundaries",
    "cbm",
    "vbm",
    "is_gap_direct",
    "is_metal",
    "es_source_calc_id",
    "bandstructure",
    "dos",
    "dos_energy_up",
    "dos_energy_down",
    "is_magnetic",
    "ordering",
    "total_magnetization_normalized_vol",
    "total_magnetization_normalized_formula_units",
    "num_magnetic_sites",
    "num_unique_magnetic_sites",
    "types_of_magnetic_species",
    "bulk_modulus",
    "shear_modulus",
    "universal_anisotropy",
    "homogeneous_poisson",
    "e_total",
    "e_ionic",
    "e_electronic",
    "n",
    "e_ij_max",
    "weighted_surface_energy_EV_PER_ANG2",
    "weighted_surface_energy",
    "weighted_work_function",
    "surface_anisotropy",
    "shape_factor",
    "has_reconstructed",
    "possible_species",
    "has_props",
    "theoretical",
    "database_IDs"
  ]
}
