{
  "builder_meta": null,
  "nsites": null,
  "elements": null,
  "nelements": null,
  "composition": null,
  "composition_reduced": null,
  "formula_pretty": "AcSc3",
  "formula_anonymous": "AB3",
  "chemsys": null,
  "volume": 234.52152547625482,
  "density": 5.124438034844145,
  "density_atomic": 29.315190684531853,
  "symmetry": null,
  "property_name": null,
  "material_id": "mp-1183247",
  "deprecated": null,
  "deprecation_reasons": null,
  "last_updated": null,
  "origins": null,
  "warnings": null,
  "structure": {
    "@module": "pymatgen.core.structure",
    "@class": "Structure",
    "charge": 0,
    "lattice": {
      "matrix": [
        [3.484861, -6.035956, 0.0],
        [3.484861, 6.035956, 0.0],
        [0.0, 0.0, 5.574696]
      ],
      "pbc": [true, true, true],
      "a": 6.969721732125107,
      "b": 6.969721732125107,
      "c": 5.574696,
      "alpha": 90.0,
      "beta": 90.0,
      "gamma": 119.99999745722126,
      "volume": 234.52152547625482
    },
    "properties": {},
    "sites": [
      {
        "species": [{ "element": "Ac", "occu": 1 }],
        "abc": [0.333333, 0.666667, 0.75],
        "properties": { "magmom": 0.014 },
        "label": "Ac",
        "xyz": [3.4848610000000004, 2.0119893573040004, 4.1810220000000005]
      },
      {
        "species": [{ "element": "Ac", "occu": 1 }],
        "abc": [0.666667, 0.333333, 0.25],
        "properties": { "magmom": 0.014 },
        "label": "Ac",
        "xyz": [3.4848610000000004, -2.0119893573040004, 1.393674]
      },
      {
        "species": [{ "element": "Sc", "occu": 1 }],
        "abc": [0.159061999999999, 0.318123999999999, 0.25],
        "properties": { "magmom": 0.055 },
        "label": "Sc",
        "xyz": [1.6629268811459932, 0.960091233272, 1.393674]
      },
      {
        "species": [{ "element": "Sc", "occu": 1 }],
        "abc": [0.681875999999999, 0.840938, 0.25],
        "properties": { "magmom": 0.055 },
        "label": "Sc",
        "xyz": [5.306795118853996, 0.9600912332720055, 1.393674]
      },
      {
        "species": [{ "element": "Sc", "occu": 1 }],
        "abc": [0.159061999999999, 0.840938, 0.25],
        "properties": { "magmom": 0.055 },
        "label": "Sc",
        "xyz": [3.4848609999999964, 4.1157735334560055, 1.393674]
      },
      {
        "species": [{ "element": "Sc", "occu": 1 }],
        "abc": [0.840938, 0.681875999999999, 0.75],
        "properties": { "magmom": 0.055 },
        "label": "Sc",
        "xyz": [5.306795118853996, -0.9600912332720055, 4.1810220000000005]
      },
      {
        "species": [{ "element": "Sc", "occu": 1 }],
        "abc": [0.318123999999999, 0.159061999999999, 0.75],
        "properties": { "magmom": 0.055 },
        "label": "Sc",
        "xyz": [1.6629268811459932, -0.960091233272, 4.1810220000000005]
      },
      {
        "species": [{ "element": "Sc", "occu": 1 }],
        "abc": [0.840938, 0.159061999999999, 0.75],
        "properties": { "magmom": 0.055 },
        "label": "Sc",
        "xyz": [3.4848609999999964, -4.1157735334560055, 4.1810220000000005]
      }
    ]
  },
  "task_ids": null,
  "uncorrected_energy_per_atom": null,
  "energy_per_atom": -25.58493594875,
  "formation_energy_per_atom": 0.123299420624999,
  "energy_above_hull": 0.123299420624999,
  "is_stable": false,
  "equilibrium_reaction_energy_per_atom": null,
  "decomposes_to": null,
  "xas": null,
  "grain_boundaries": null,
  "band_gap": 0.0,
  "cbm": null,
  "vbm": null,
  "efermi": 4.69019545,
  "is_gap_direct": null,
  "is_metal": null,
  "es_source_calc_id": null,
  "bandstructure": null,
  "dos": null,
  "dos_energy_up": null,
  "dos_energy_down": null,
  "is_magnetic": null,
  "ordering": null,
  "total_magnetization": 0.639501299999999,
  "total_magnetization_normalized_vol": null,
  "total_magnetization_normalized_formula_units": null,
  "num_magnetic_sites": null,
  "num_unique_magnetic_sites": null,
  "types_of_magnetic_species": null,
  "bulk_modulus": null,
  "shear_modulus": null,
  "universal_anisotropy": null,
  "homogeneous_poisson": null,
  "e_total": null,
  "e_ionic": null,
  "e_electronic": null,
  "n": null,
  "e_ij_max": null,
  "weighted_surface_energy_EV_PER_ANG2": null,
  "weighted_surface_energy": null,
  "weighted_work_function": null,
  "surface_anisotropy": null,
  "shape_factor": null,
  "has_reconstructed": null,
  "possible_species": null,
  "has_props": null,
  "theoretical": null,
  "database_IDs": null,
  "fields_not_requested": [
    "builder_meta",
    "nsites",
    "elements",
    "nelements",
    "composition",
    "composition_reduced",
    "chemsys",
    "symmetry",
    "property_name",
    "deprecated",
    "deprecation_reasons",
    "last_updated",
    "origins",
    "warnings",
    "task_ids",
    "uncorrected_energy_per_atom",
    "equilibrium_reaction_energy_per_atom",
    "decomposes_to",
    "xas",
    "grain_boundaries",
    "cbm",
    "vbm",
    "is_gap_direct",
    "is_metal",
    "es_source_calc_id",
    "bandstructure",
    "dos",
    "dos_energy_up",
    "dos_energy_down",
    "is_magnetic",
    "ordering",
    "total_magnetization_normalized_vol",
    "total_magnetization_normalized_formula_units",
    "num_magnetic_sites",
    "num_unique_magnetic_sites",
    "types_of_magnetic_species",
    "bulk_modulus",
    "shear_modulus",
    "universal_anisotropy",
    "homogeneous_poisson",
    "e_total",
    "e_ionic",
    "e_electronic",
    "n",
    "e_ij_max",
    "weighted_surface_energy_EV_PER_ANG2",
    "weighted_surface_energy",
    "weighted_work_function",
    "surface_anisotropy",
    "shape_factor",
    "has_reconstructed",
    "possible_species",
    "has_props",
    "theoretical",
    "database_IDs"
  ]
}
