{
  "builder_meta": null,
  "nsites": null,
  "elements": null,
  "nelements": null,
  "composition": null,
  "composition_reduced": null,
  "formula_pretty": "AcSe3",
  "formula_anonymous": "AB3",
  "chemsys": null,
  "volume": 208.29576001271505,
  "density": 7.396126182956262,
  "density_atomic": 26.03697000158938,
  "symmetry": null,
  "property_name": null,
  "material_id": "mp-867800",
  "deprecated": null,
  "deprecation_reasons": null,
  "last_updated": null,
  "origins": null,
  "warnings": null,
  "structure": {
    "@module": "pymatgen.core.structure",
    "@class": "Structure",
    "charge": 0,
    "lattice": {
      "matrix": [
        [6.24133844, -2.93e-6, 1e-7],
        [-3.12067138, 5.40515358, -1e-8],
        [9e-8, 4e-8, 6.17440021]
      ],
      "pbc": [true, true, true],
      "a": 6.241338440000688,
      "b": 6.241336001637624,
      "c": 6.174400210000001,
      "alpha": 90.00000018792798,
      "beta": 89.99999824683418,
      "gamma": 120.00006271757142,
      "volume": 208.29576001271505
    },
    "properties": {},
    "sites": [
      {
        "species": [{ "element": "Ac", "occu": 1 }],
        "abc": [0.333333899999999, 0.66666845, 0.75000038],
        "properties": { "magmom": 0.0 },
        "label": "Ac",
        "xyz": [-3.400938817039597e-6, 3.603444412522239, 4.630802530438785]
      },
      {
        "species": [{ "element": "Ac", "occu": 1 }],
        "abc": [0.666667, 0.33333211, 0.2500004],
        "properties": { "magmom": -0.0 },
        "label": "Ac",
        "xyz": [3.120674420567504, 1.8017093043611598, 1.543602585593463]
      },
      {
        "species": [{ "element": "Se", "occu": 1 }],
        "abc": [0.17393695, 0.34787127, 0.2500012],
        "properties": { "magmom": 0.0 },
        "label": "Se",
        "xyz": [7.4784582133623704e-6, 1.880297140784431, 1.543607475695234]
      },
      {
        "species": [{ "element": "Se", "occu": 1 }],
        "abc": [0.65212302, 0.82605818, 0.25000121000000003],
        "properties": { "magmom": 0.0 },
        "label": "Se",
        "xyz": [1.492264374294109, 4.464969428194885, 1.5436075804759746]
      },
      {
        "species": [{ "element": "Se", "occu": 1 }],
        "abc": [0.1739413, 0.8260573, 0.2500012],
        "properties": { "magmom": 0.0 },
        "label": "Se",
        "xyz": [-1.4922268298563943, 4.464966072732173, 1.5436074709138088]
      },
      {
        "species": [{ "element": "Se", "occu": 1 }],
        "abc": [0.8260621100000001, 0.6521239600000001, 0.75000121],
        "properties": { "magmom": 0.0 },
        "label": "Se",
        "xyz": [3.1206686902863523, 3.524827766635843, 4.630807704609225]
      },
      {
        "species": [{ "element": "Se", "occu": 1 }],
        "abc": [0.34787464, 0.1739406, 0.75000119],
        "properties": { "magmom": -0.0 },
        "label": "Se",
        "xyz": [1.6283919781932406, 0.9401746675247004, 4.630807538084308]
      },
      {
        "species": [{ "element": "Se", "occu": 1 }],
        "abc": [0.82606008, 0.17394412, 0.750001199999999],
        "properties": { "magmom": 0.0 },
        "label": "Se",
        "xyz": [4.612898161550297, 0.9401922925819634, 4.6308076476468125]
      }
    ]
  },
  "task_ids": null,
  "uncorrected_energy_per_atom": null,
  "energy_per_atom": -29.09995579,
  "formation_energy_per_atom": -1.206915763671876,
  "energy_above_hull": 0.0,
  "is_stable": true,
  "equilibrium_reaction_energy_per_atom": null,
  "decomposes_to": null,
  "xas": null,
  "grain_boundaries": null,
  "band_gap": 0.0,
  "cbm": null,
  "vbm": null,
  "efermi": 5.22535742,
  "is_gap_direct": null,
  "is_metal": null,
  "es_source_calc_id": null,
  "bandstructure": null,
  "dos": null,
  "dos_energy_up": null,
  "dos_energy_down": null,
  "is_magnetic": null,
  "ordering": null,
  "total_magnetization": 1e-7,
  "total_magnetization_normalized_vol": null,
  "total_magnetization_normalized_formula_units": null,
  "num_magnetic_sites": null,
  "num_unique_magnetic_sites": null,
  "types_of_magnetic_species": null,
  "bulk_modulus": null,
  "shear_modulus": null,
  "universal_anisotropy": null,
  "homogeneous_poisson": null,
  "e_total": null,
  "e_ionic": null,
  "e_electronic": null,
  "n": null,
  "e_ij_max": null,
  "weighted_surface_energy_EV_PER_ANG2": null,
  "weighted_surface_energy": null,
  "weighted_work_function": null,
  "surface_anisotropy": null,
  "shape_factor": null,
  "has_reconstructed": null,
  "possible_species": null,
  "has_props": null,
  "theoretical": null,
  "database_IDs": null,
  "fields_not_requested": [
    "builder_meta",
    "nsites",
    "elements",
    "nelements",
    "composition",
    "composition_reduced",
    "chemsys",
    "symmetry",
    "property_name",
    "deprecated",
    "deprecation_reasons",
    "last_updated",
    "origins",
    "warnings",
    "task_ids",
    "uncorrected_energy_per_atom",
    "equilibrium_reaction_energy_per_atom",
    "decomposes_to",
    "xas",
    "grain_boundaries",
    "cbm",
    "vbm",
    "is_gap_direct",
    "is_metal",
    "es_source_calc_id",
    "bandstructure",
    "dos",
    "dos_energy_up",
    "dos_energy_down",
    "is_magnetic",
    "ordering",
    "total_magnetization_normalized_vol",
    "total_magnetization_normalized_formula_units",
    "num_magnetic_sites",
    "num_unique_magnetic_sites",
    "types_of_magnetic_species",
    "bulk_modulus",
    "shear_modulus",
    "universal_anisotropy",
    "homogeneous_poisson",
    "e_total",
    "e_ionic",
    "e_electronic",
    "n",
    "e_ij_max",
    "weighted_surface_energy_EV_PER_ANG2",
    "weighted_surface_energy",
    "weighted_work_function",
    "surface_anisotropy",
    "shape_factor",
    "has_reconstructed",
    "possible_species",
    "has_props",
    "theoretical",
    "database_IDs"
  ]
}
