{"builder_meta": null, "nsites": null, "elements": null, "nelements": null, "composition": null, "composition_reduced": null, "formula_pretty": "AcSi3", "formula_anonymous": "AB3", "chemsys": null, "volume": 172.1805640226397, "density": 6.003622777251709, "density_atomic": 21.52257050282996, "symmetry": null, "property_name": null, "material_id": "mp-866222", "deprecated": null, "deprecation_reasons": null, "last_updated": null, "origins": null, "warnings": null, "structure": {"@module": "pymatgen.core.structure", "@class": "Structure", "charge": 0, "lattice": {"matrix": [[6.51585849, 0.0, 0.0], [-3.25792873, 5.6428994, -0.0], [0.0, -0.0, 4.68284922]], "pbc": [true, true, true], "a": 6.51585849, "b": 6.515858596399999, "c": 4.68284922, "alpha": 90.0, "beta": 90.0, "gamma": 119.99999423072067, "volume": 172.1805640226397}, "properties": {}, "sites": [{"species": [{"element": "Ac", "occu": 1}], "abc": [0.333333, 0.666666, 0.75], "properties": {"magmom": -0.0}, "label": "Ac", "xyz": [3.4333299003819207e-07, 3.7619291714004, 3.5121369149999997]}, {"species": [{"element": "Ac", "occu": 1}], "abc": [0.666667, 0.333333999999999, 0.250001], "properties": {"magmom": -0.0}, "label": "Ac", "xyz": [3.2579294166670127, 1.8809702285995946, 1.1707169878492198]}, {"species": [{"element": "Si", "occu": 1}], "abc": [0.12588054, 0.25176209, 0.250001], "properties": {"magmom": 0.0}, "label": "Si", "xyz": [-3.1608510610015017e-06, 1.420668146603746, 1.1707169878492198]}, {"species": [{"element": "Si", "occu": 1}], "abc": [0.74823591, 0.87412046, 0.250001], "properties": {"magmom": 0.0}, "label": "Si", "xyz": [2.0275771465815606, 4.932573819261724, 1.1707169878492198]}, {"species": [{"element": "Si", "occu": 1}], "abc": [0.12588254000000001, 0.87412046, 0.250001], "properties": {"magmom": 0.0}, "label": "Si", "xyz": [-2.027589343113051, 4.932573819261724, 1.1707169878492198]}, {"species": [{"element": "Si", "occu": 1}], "abc": [0.8741194600000001, 0.74823691, 0.75], "properties": {"magmom": 0.0}, "label": "Si", "xyz": [3.2579361787797914, 4.222225610496854, 3.5121369149999997]}, {"species": [{"element": "Si", "occu": 1}], "abc": [0.25176509, 0.12588154000000001, 0.75], "properties": {"magmom": 0.0}, "label": "Si", "xyz": [1.23035261341947, 0.7103368665370761, 3.5121369149999997]}, {"species": [{"element": "Si", "occu": 1}], "abc": [0.87411846, 0.12588154000000001, 0.75], "properties": {"magmom": 0.0}, "label": "Si", "xyz": [5.285519103114082, 0.7103368665370761, 3.5121369149999997]}]}, "task_ids": null, "uncorrected_energy_per_atom": null, "energy_per_atom": -24.0611618175, "formation_energy_per_atom": -0.32146851812500105, "energy_above_hull": 0.0, "is_stable": true, "equilibrium_reaction_energy_per_atom": null, "decomposes_to": null, "xas": null, "grain_boundaries": null, "band_gap": 0.0, "cbm": null, "vbm": null, "efermi": 8.43302594, "is_gap_direct": null, "is_metal": null, "es_source_calc_id": null, "bandstructure": null, "dos": null, "dos_energy_up": null, "dos_energy_down": null, "is_magnetic": null, "ordering": null, "total_magnetization": 0.0, "total_magnetization_normalized_vol": null, "total_magnetization_normalized_formula_units": null, "num_magnetic_sites": null, "num_unique_magnetic_sites": null, "types_of_magnetic_species": null, "bulk_modulus": null, "shear_modulus": null, "universal_anisotropy": null, "homogeneous_poisson": null, "e_total": null, "e_ionic": null, "e_electronic": null, "n": null, "e_ij_max": null, "weighted_surface_energy_EV_PER_ANG2": null, "weighted_surface_energy": null, "weighted_work_function": null, "surface_anisotropy": null, "shape_factor": null, "has_reconstructed": null, "possible_species": null, "has_props": null, "theoretical": null, "database_IDs": null, "fields_not_requested": ["builder_meta", "nsites", "elements", "nelements", "composition", "composition_reduced", "chemsys", "symmetry", "property_name", "deprecated", "deprecation_reasons", "last_updated", "origins", "warnings", "task_ids", "uncorrected_energy_per_atom", "equilibrium_reaction_energy_per_atom", "decomposes_to", "xas", "grain_boundaries", "cbm", "vbm", "is_gap_direct", "is_metal", "es_source_calc_id", "bandstructure", "dos", "dos_energy_up", "dos_energy_down", "is_magnetic", "ordering", "total_magnetization_normalized_vol", "total_magnetization_normalized_formula_units", "num_magnetic_sites", "num_unique_magnetic_sites", "types_of_magnetic_species", "bulk_modulus", "shear_modulus", "universal_anisotropy", "homogeneous_poisson", "e_total", "e_ionic", "e_electronic", "n", "e_ij_max", "weighted_surface_energy_EV_PER_ANG2", "weighted_surface_energy", "weighted_work_function", "surface_anisotropy", "shape_factor", "has_reconstructed", "possible_species", "has_props", "theoretical", "database_IDs"]}