{
  "builder_meta": null,
  "nsites": null,
  "elements": null,
  "nelements": null,
  "composition": null,
  "composition_reduced": null,
  "formula_pretty": "AcSm3",
  "formula_anonymous": "AB3",
  "chemsys": null,
  "volume": 296.3936516743617,
  "density": 7.597857267990373,
  "density_atomic": 37.04920645929521,
  "symmetry": null,
  "property_name": null,
  "material_id": "mp-1183260",
  "deprecated": null,
  "deprecation_reasons": null,
  "last_updated": null,
  "origins": null,
  "warnings": null,
  "structure": {
    "@module": "pymatgen.core.structure",
    "@class": "Structure",
    "charge": 0,
    "lattice": {
      "matrix": [
        [3.79756982, -6.5775839, 0.0],
        [3.79756875, 6.57758388, 0.0],
        [0.0, -0.0, 5.93289688]
      ],
      "pbc": [true, true, true],
      "a": 7.595139662923523,
      "b": 7.595139110603071,
      "c": 5.93289688,
      "alpha": 90.0,
      "beta": 90.0,
      "gamma": 120.00000711463241,
      "volume": 296.3936516743617
    },
    "properties": {},
    "sites": [
      {
        "species": [{ "element": "Ac", "occu": 1 }],
        "abc": [0.333333, 0.666667, 0.75],
        "properties": { "magmom": 0.001 },
        "label": "Ac",
        "xyz": [3.7975691066663098, 2.1925323383892605, 4.44967266]
      },
      {
        "species": [{ "element": "Ac", "occu": 1 }],
        "abc": [0.666667, 0.333333, 0.25],
        "properties": { "magmom": 0.001 },
        "label": "Ac",
        "xyz": [3.79756946333369, -2.19253235838926, 1.48322422]
      },
      {
        "species": [{ "element": "Sm", "occu": 1 }],
        "abc": [0.16321255, 0.32642609, 0.25],
        "properties": { "magmom": 0.002 },
        "label": "Sm",
        "xyz": [1.8594365726939286, 1.073550746437484, 1.48322422]
      },
      {
        "species": [{ "element": "Sm", "occu": 1 }],
        "abc": [0.67357391, 0.83678745, 0.25],
        "properties": { "magmom": 0.002 },
        "label": "Sm",
        "xyz": [5.7357018226675835, 1.0735507362302572, 1.48322422]
      },
      {
        "species": [{ "element": "Sm", "occu": 1 }],
        "abc": [0.16321255, 0.8367864500000001, 0.25],
        "properties": { "magmom": 0.002 },
        "label": "Sm",
        "xyz": [3.7975651270686788, 4.430488823364481, 1.48322422]
      },
      {
        "species": [{ "element": "Sm", "occu": 1 }],
        "abc": [0.83678745, 0.67357391, 0.75],
        "properties": { "magmom": 0.002 },
        "label": "Sm",
        "xyz": [5.735701997306071, -1.0735507664374841, 4.44967266]
      },
      {
        "species": [{ "element": "Sm", "occu": 1 }],
        "abc": [0.32642609, 0.16321255, 0.75],
        "properties": { "magmom": 0.002 },
        "label": "Sm",
        "xyz": [1.8594367473324165, -1.0735507562302566, 4.44967266]
      },
      {
        "species": [{ "element": "Sm", "occu": 1 }],
        "abc": [0.83678745, 0.16321355, 0.75],
        "properties": { "magmom": 0.002 },
        "label": "Sm",
        "xyz": [3.7975734429313217, -4.43048884336448, 4.44967266]
      }
    ]
  },
  "task_ids": null,
  "uncorrected_energy_per_atom": null,
  "energy_per_atom": -39.419648835,
  "formation_energy_per_atom": 0.039414258124999005,
  "energy_above_hull": 0.039414258124999005,
  "is_stable": false,
  "equilibrium_reaction_energy_per_atom": null,
  "decomposes_to": null,
  "xas": null,
  "grain_boundaries": null,
  "band_gap": 0.0,
  "cbm": null,
  "vbm": null,
  "efermi": 4.00901916,
  "is_gap_direct": null,
  "is_metal": null,
  "es_source_calc_id": null,
  "bandstructure": null,
  "dos": null,
  "dos_energy_up": null,
  "dos_energy_down": null,
  "is_magnetic": null,
  "ordering": null,
  "total_magnetization": 0.0302728,
  "total_magnetization_normalized_vol": null,
  "total_magnetization_normalized_formula_units": null,
  "num_magnetic_sites": null,
  "num_unique_magnetic_sites": null,
  "types_of_magnetic_species": null,
  "bulk_modulus": null,
  "shear_modulus": null,
  "universal_anisotropy": null,
  "homogeneous_poisson": null,
  "e_total": null,
  "e_ionic": null,
  "e_electronic": null,
  "n": null,
  "e_ij_max": null,
  "weighted_surface_energy_EV_PER_ANG2": null,
  "weighted_surface_energy": null,
  "weighted_work_function": null,
  "surface_anisotropy": null,
  "shape_factor": null,
  "has_reconstructed": null,
  "possible_species": null,
  "has_props": null,
  "theoretical": null,
  "database_IDs": null,
  "fields_not_requested": [
    "builder_meta",
    "nsites",
    "elements",
    "nelements",
    "composition",
    "composition_reduced",
    "chemsys",
    "symmetry",
    "property_name",
    "deprecated",
    "deprecation_reasons",
    "last_updated",
    "origins",
    "warnings",
    "task_ids",
    "uncorrected_energy_per_atom",
    "equilibrium_reaction_energy_per_atom",
    "decomposes_to",
    "xas",
    "grain_boundaries",
    "cbm",
    "vbm",
    "is_gap_direct",
    "is_metal",
    "es_source_calc_id",
    "bandstructure",
    "dos",
    "dos_energy_up",
    "dos_energy_down",
    "is_magnetic",
    "ordering",
    "total_magnetization_normalized_vol",
    "total_magnetization_normalized_formula_units",
    "num_magnetic_sites",
    "num_unique_magnetic_sites",
    "types_of_magnetic_species",
    "bulk_modulus",
    "shear_modulus",
    "universal_anisotropy",
    "homogeneous_poisson",
    "e_total",
    "e_ionic",
    "e_electronic",
    "n",
    "e_ij_max",
    "weighted_surface_energy_EV_PER_ANG2",
    "weighted_surface_energy",
    "weighted_work_function",
    "surface_anisotropy",
    "shape_factor",
    "has_reconstructed",
    "possible_species",
    "has_props",
    "theoretical",
    "database_IDs"
  ]
}
