{"builder_meta": null, "nsites": null, "elements": null, "nelements": null, "composition": null, "composition_reduced": null, "formula_pretty": "AcTe3", "formula_anonymous": "AB3", "chemsys": null, "volume": 129.9275216412843, "density": 7.79355066595012, "density_atomic": 32.481880410321075, "symmetry": null, "property_name": null, "material_id": "mp-865558", "deprecated": null, "deprecation_reasons": null, "last_updated": null, "origins": null, "warnings": null, "structure": {"@module": "pymatgen.core.structure", "@class": "Structure", "charge": 0, "lattice": {"matrix": [[-2.3377041800000002, 2.3377041800000002, 5.94377083], [2.3377041800000002, -2.3377041800000002, 5.94377083], [2.3377041800000002, 2.3377041800000002, -5.94377083]], "pbc": [true, true, true], "a": 6.801333203566624, "b": 6.801333203566624, "c": 6.801333203566624, "alpha": 139.79353954492916, "beta": 139.79353954492916, "gamma": 58.16691383172515, "volume": 129.92752164128436}, "properties": {}, "sites": [{"species": [{"element": "Ac", "occu": 1}], "abc": [-0.0, 0.0, -0.0], "properties": {"magmom": -0.0}, "label": "Ac", "xyz": [0.0, 0.0, 0.0]}, {"species": [{"element": "Te", "occu": 1}], "abc": [0.75, 0.25, 0.499998999999999], "properties": {"magmom": 0.0}, "label": "Te", "xyz": [-2.337704182231448e-06, 2.337701842295818, 2.971891358770836]}, {"species": [{"element": "Te", "occu": 1}], "abc": [0.25, 0.75, 0.499998999999999], "properties": {"magmom": 0.0}, "label": "Te", "xyz": [2.337701842295818, -2.337704182231448e-06, 2.971891358770836]}, {"species": [{"element": "Te", "occu": 1}], "abc": [0.5, 0.5, -0.0], "properties": {"magmom": 0.0}, "label": "Te", "xyz": [0.0, 0.0, 5.94377083]}]}, "task_ids": null, "uncorrected_energy_per_atom": null, "energy_per_atom": -37.24066154, "formation_energy_per_atom": -1.018373454375002, "energy_above_hull": 0.0, "is_stable": true, "equilibrium_reaction_energy_per_atom": null, "decomposes_to": null, "xas": null, "grain_boundaries": null, "band_gap": 0.0, "cbm": null, "vbm": null, "efermi": 7.55041062, "is_gap_direct": null, "is_metal": null, "es_source_calc_id": null, "bandstructure": null, "dos": null, "dos_energy_up": null, "dos_energy_down": null, "is_magnetic": null, "ordering": null, "total_magnetization": 1e-07, "total_magnetization_normalized_vol": null, "total_magnetization_normalized_formula_units": null, "num_magnetic_sites": null, "num_unique_magnetic_sites": null, "types_of_magnetic_species": null, "bulk_modulus": null, "shear_modulus": null, "universal_anisotropy": null, "homogeneous_poisson": null, "e_total": null, "e_ionic": null, "e_electronic": null, "n": null, "e_ij_max": null, "weighted_surface_energy_EV_PER_ANG2": null, "weighted_surface_energy": null, "weighted_work_function": null, "surface_anisotropy": null, "shape_factor": null, "has_reconstructed": null, "possible_species": null, "has_props": null, "theoretical": null, "database_IDs": null, "fields_not_requested": ["builder_meta", "nsites", "elements", "nelements", "composition", "composition_reduced", "chemsys", "symmetry", "property_name", "deprecated", "deprecation_reasons", "last_updated", "origins", "warnings", "task_ids", "uncorrected_energy_per_atom", "equilibrium_reaction_energy_per_atom", "decomposes_to", "xas", "grain_boundaries", "cbm", "vbm", "is_gap_direct", "is_metal", "es_source_calc_id", "bandstructure", "dos", "dos_energy_up", "dos_energy_down", "is_magnetic", "ordering", "total_magnetization_normalized_vol", "total_magnetization_normalized_formula_units", "num_magnetic_sites", "num_unique_magnetic_sites", "types_of_magnetic_species", "bulk_modulus", "shear_modulus", "universal_anisotropy", "homogeneous_poisson", "e_total", "e_ionic", "e_electronic", "n", "e_ij_max", "weighted_surface_energy_EV_PER_ANG2", "weighted_surface_energy", "weighted_work_function", "surface_anisotropy", "shape_factor", "has_reconstructed", "possible_species", "has_props", "theoretical", "database_IDs"]}