{"builder_meta": null, "nsites": null, "elements": null, "nelements": null, "composition": null, "composition_reduced": null, "formula_pretty": "AcTh", "formula_anonymous": "AB", "chemsys": null, "volume": 75.06833499587438, "density": 10.154090026482757, "density_atomic": 37.53416749793719, "symmetry": null, "property_name": null, "material_id": "mp-1183157", "deprecated": null, "deprecation_reasons": null, "last_updated": null, "origins": null, "warnings": null, "structure": {"@module": "pymatgen.core.structure", "@class": "Structure", "charge": 0, "lattice": {"matrix": [[3.742236, 0.0, 0.0], [-1.871117, 3.240879, 0.0], [0.0, 0.0, 6.189603]], "pbc": [true, true, true], "a": 3.742236, "b": 3.74224204459439, "c": 6.189603, "alpha": 90.0, "beta": 90.0, "gamma": 119.99992888943531, "volume": 75.06833499587438}, "properties": {}, "sites": [{"species": [{"element": "Ac", "occu": 1}], "abc": [0.666665, 0.333333999999999, 0.75], "properties": {"magmom": 0.001}, "label": "Ac", "xyz": [1.8711108488620019, 1.080295160585997, 4.64220225]}, {"species": [{"element": "Th", "occu": 1}], "abc": [0.333333, 0.666667, 0.250001], "properties": {"magmom": 0.002}, "label": "Th", "xyz": [-1.2044509998254682e-06, 2.1605870802930003, 1.547406939603]}]}, "task_ids": null, "uncorrected_energy_per_atom": null, "energy_per_atom": -70.8884949175, "formation_energy_per_atom": 0.16787586374999802, "energy_above_hull": 0.16787586374999802, "is_stable": false, "equilibrium_reaction_energy_per_atom": null, "decomposes_to": null, "xas": null, "grain_boundaries": null, "band_gap": 0.0, "cbm": null, "vbm": null, "efermi": 6.93768525, "is_gap_direct": null, "is_metal": null, "es_source_calc_id": null, "bandstructure": null, "dos": null, "dos_energy_up": null, "dos_energy_down": null, "is_magnetic": null, "ordering": null, "total_magnetization": 0.007285499999999, "total_magnetization_normalized_vol": null, "total_magnetization_normalized_formula_units": null, "num_magnetic_sites": null, "num_unique_magnetic_sites": null, "types_of_magnetic_species": null, "bulk_modulus": null, "shear_modulus": null, "universal_anisotropy": null, "homogeneous_poisson": null, "e_total": null, "e_ionic": null, "e_electronic": null, "n": null, "e_ij_max": null, "weighted_surface_energy_EV_PER_ANG2": null, "weighted_surface_energy": null, "weighted_work_function": null, "surface_anisotropy": null, "shape_factor": null, "has_reconstructed": null, "possible_species": null, "has_props": null, "theoretical": null, "database_IDs": null, "fields_not_requested": ["builder_meta", "nsites", "elements", "nelements", "composition", "composition_reduced", "chemsys", "symmetry", "property_name", "deprecated", "deprecation_reasons", "last_updated", "origins", "warnings", "task_ids", "uncorrected_energy_per_atom", "equilibrium_reaction_energy_per_atom", "decomposes_to", "xas", "grain_boundaries", "cbm", "vbm", "is_gap_direct", "is_metal", "es_source_calc_id", "bandstructure", "dos", "dos_energy_up", "dos_energy_down", "is_magnetic", "ordering", "total_magnetization_normalized_vol", "total_magnetization_normalized_formula_units", "num_magnetic_sites", "num_unique_magnetic_sites", "types_of_magnetic_species", "bulk_modulus", "shear_modulus", "universal_anisotropy", "homogeneous_poisson", "e_total", "e_ionic", "e_electronic", "n", "e_ij_max", "weighted_surface_energy_EV_PER_ANG2", "weighted_surface_energy", "weighted_work_function", "surface_anisotropy", "shape_factor", "has_reconstructed", "possible_species", "has_props", "theoretical", "database_IDs"]}