{"builder_meta": null, "nsites": null, "elements": null, "nelements": null, "composition": null, "composition_reduced": null, "formula_pretty": "AcTh3", "formula_anonymous": "AB3", "chemsys": null, "volume": 278.9947893330983, "density": 10.988500269030464, "density_atomic": 34.87434866663729, "symmetry": null, "property_name": null, "material_id": "mp-1183258", "deprecated": null, "deprecation_reasons": null, "last_updated": null, "origins": null, "warnings": null, "structure": {"@module": "pymatgen.core.structure", "@class": "Structure", "charge": 0, "lattice": {"matrix": [[3.660249, -6.339737, 0.0], [3.660249, 6.339737, 0.0], [0.0, 0.0, 6.011519]], "pbc": [true, true, true], "a": 7.320497795312146, "b": 7.320497795312146, "c": 6.011519, "alpha": 90.0, "beta": 90.0, "gamma": 119.99999815012043, "volume": 278.9947893330983}, "properties": {}, "sites": [{"species": [{"element": "Ac", "occu": 1}], "abc": [0.333333, 0.666667, 0.75], "properties": {"magmom": 0.0}, "label": "Ac", "xyz": [3.660249, 2.113249893158, 4.50863925]}, {"species": [{"element": "Ac", "occu": 1}], "abc": [0.666667, 0.333333, 0.25], "properties": {"magmom": 0.0}, "label": "Ac", "xyz": [3.660249, -2.113249893158, 1.50287975]}, {"species": [{"element": "Th", "occu": 1}], "abc": [0.16100899999999901, 0.322017999999999, 0.25], "properties": {"magmom": -0.0}, "label": "Th", "xyz": [1.7679990937229928, 1.020754714633, 1.50287975]}, {"species": [{"element": "Th", "occu": 1}], "abc": [0.677982, 0.838990999999999, 0.25], "properties": {"magmom": -0.0}, "label": "Th", "xyz": [5.5524989062769965, 1.0207547146329938, 1.50287975]}, {"species": [{"element": "Th", "occu": 1}], "abc": [0.16100899999999901, 0.838990999999999, 0.25], "properties": {"magmom": -0.0}, "label": "Th", "xyz": [3.6602489999999928, 4.298227570734, 1.50287975]}, {"species": [{"element": "Th", "occu": 1}], "abc": [0.838990999999999, 0.677982, 0.75], "properties": {"magmom": 0.0}, "label": "Th", "xyz": [5.5524989062769965, -1.0207547146329938, 4.50863925]}, {"species": [{"element": "Th", "occu": 1}], "abc": [0.322017999999999, 0.16100899999999901, 0.75], "properties": {"magmom": -0.0}, "label": "Th", "xyz": [1.7679990937229928, -1.020754714633, 4.50863925]}, {"species": [{"element": "Th", "occu": 1}], "abc": [0.838990999999999, 0.16100899999999901, 0.75], "properties": {"magmom": 0.0}, "label": "Th", "xyz": [3.6602489999999928, -4.298227570734, 4.50863925]}]}, "task_ids": null, "uncorrected_energy_per_atom": null, "energy_per_atom": -72.13293971, "formation_energy_per_atom": 0.132876755625005, "energy_above_hull": 0.132876755625005, "is_stable": false, "equilibrium_reaction_energy_per_atom": null, "decomposes_to": null, "xas": null, "grain_boundaries": null, "band_gap": 0.0, "cbm": null, "vbm": null, "efermi": 7.30650104, "is_gap_direct": null, "is_metal": null, "es_source_calc_id": null, "bandstructure": null, "dos": null, "dos_energy_up": null, "dos_energy_down": null, "is_magnetic": null, "ordering": null, "total_magnetization": 0.0015907, "total_magnetization_normalized_vol": null, "total_magnetization_normalized_formula_units": null, "num_magnetic_sites": null, "num_unique_magnetic_sites": null, "types_of_magnetic_species": null, "bulk_modulus": null, "shear_modulus": null, "universal_anisotropy": null, "homogeneous_poisson": null, "e_total": null, "e_ionic": null, "e_electronic": null, "n": null, "e_ij_max": null, "weighted_surface_energy_EV_PER_ANG2": null, "weighted_surface_energy": null, "weighted_work_function": null, "surface_anisotropy": null, "shape_factor": null, "has_reconstructed": null, "possible_species": null, "has_props": null, "theoretical": null, "database_IDs": null, "fields_not_requested": ["builder_meta", "nsites", "elements", "nelements", "composition", "composition_reduced", "chemsys", "symmetry", "property_name", "deprecated", "deprecation_reasons", "last_updated", "origins", "warnings", "task_ids", "uncorrected_energy_per_atom", "equilibrium_reaction_energy_per_atom", "decomposes_to", "xas", "grain_boundaries", "cbm", "vbm", "is_gap_direct", "is_metal", "es_source_calc_id", "bandstructure", "dos", "dos_energy_up", "dos_energy_down", "is_magnetic", "ordering", "total_magnetization_normalized_vol", "total_magnetization_normalized_formula_units", "num_magnetic_sites", "num_unique_magnetic_sites", "types_of_magnetic_species", "bulk_modulus", "shear_modulus", "universal_anisotropy", "homogeneous_poisson", "e_total", "e_ionic", "e_electronic", "n", "e_ij_max", "weighted_surface_energy_EV_PER_ANG2", "weighted_surface_energy", "weighted_work_function", "surface_anisotropy", "shape_factor", "has_reconstructed", "possible_species", "has_props", "theoretical", "database_IDs"]}