{
  "builder_meta": null,
  "nsites": null,
  "elements": null,
  "nelements": null,
  "composition": null,
  "composition_reduced": null,
  "formula_pretty": "AcZn3",
  "formula_anonymous": "AB3",
  "chemsys": null,
  "volume": 183.91933783251287,
  "density": 7.642317287809214,
  "density_atomic": 22.98991722906411,
  "symmetry": null,
  "property_name": null,
  "material_id": "mp-864809",
  "deprecated": null,
  "deprecation_reasons": null,
  "last_updated": null,
  "origins": null,
  "warnings": null,
  "structure": {
    "@module": "pymatgen.core.structure",
    "@class": "Structure",
    "charge": 0,
    "lattice": {
      "matrix": [
        [7.05949815, -1.5700000000000002e-5, -0.0],
        [-3.52976167, 6.11368283, -0.0],
        [0.0, -0.0, 4.26138938]
      ],
      "pbc": [true, true, true],
      "a": 7.059498150017458,
      "b": 7.0594854764945865,
      "c": 4.26138938,
      "alpha": 90.0,
      "beta": 90.0,
      "gamma": 120.00030484628482,
      "volume": 183.91933783251287
    },
    "properties": {},
    "sites": [
      {
        "species": [{ "element": "Ac", "occu": 1 }],
        "abc": [0.333333999999999, 0.666667, 0.749999],
        "properties": { "magmom": 0.0 },
        "label": "Ac",
        "xyz": [-4.866921797130885e-6, 4.07578535788381, 3.1960377736106196]
      },
      {
        "species": [{ "element": "Ac", "occu": 1 }],
        "abc": [0.666667, 0.333333, 0.25],
        "properties": { "magmom": 0.0 },
        "label": "Ac",
        "xyz": [3.5297484064199396, 2.0378817721004903, 1.065347345]
      },
      {
        "species": [{ "element": "Zn", "occu": 1 }],
        "abc": [0.12618138, 0.25236277, 0.249999],
        "properties": { "magmom": 0.0 },
        "label": "Zn",
        "xyz": [-3.2138065789721892e-6, 1.5428639528325734, 1.06534308361062]
      },
      {
        "species": [{ "element": "Zn", "occu": 1 }],
        "abc": [0.74763723, 0.8738176200000001, 0.25],
        "properties": { "magmom": 0.0 },
        "label": "Zn",
        "xyz": [2.1935757004094985, 5.342232042040955, 1.065347345]
      },
      {
        "species": [{ "element": "Zn", "occu": 1 }],
        "abc": [0.12618138, 0.8738176200000001, 0.25],
        "properties": { "magmom": 0.0 },
        "label": "Zn",
        "xyz": [-2.193590722972179, 5.342241798897799, 1.065347345]
      },
      {
        "species": [{ "element": "Zn", "occu": 1 }],
        "abc": [0.87381862, 0.74763723, 0.749999],
        "properties": { "magmom": 0.0 },
        "label": "Zn",
        "xyz": [3.5297396938065777, 4.570803177167427, 3.1960377736106196]
      },
      {
        "species": [{ "element": "Zn", "occu": 1 }],
        "abc": [0.25236277, 0.12618238, 0.749999],
        "properties": { "magmom": 0.0 },
        "label": "Zn",
        "xyz": [1.3361607795905008, 0.7714350879590465, 3.1960377736106196]
      },
      {
        "species": [{ "element": "Zn", "occu": 1 }],
        "abc": [0.87381862, 0.12618238, 0.749999],
        "properties": { "magmom": 0.0 },
        "label": "Zn",
        "xyz": [5.723327202972177, 0.7714253311022015, 3.1960377736106196]
      }
    ]
  },
  "task_ids": null,
  "uncorrected_energy_per_atom": null,
  "energy_per_atom": -24.11267385875,
  "formation_energy_per_atom": -0.270352051875001,
  "energy_above_hull": 0.0,
  "is_stable": true,
  "equilibrium_reaction_energy_per_atom": null,
  "decomposes_to": null,
  "xas": null,
  "grain_boundaries": null,
  "band_gap": 0.0,
  "cbm": null,
  "vbm": null,
  "efermi": 3.94216536,
  "is_gap_direct": null,
  "is_metal": null,
  "es_source_calc_id": null,
  "bandstructure": null,
  "dos": null,
  "dos_energy_up": null,
  "dos_energy_down": null,
  "is_magnetic": null,
  "ordering": null,
  "total_magnetization": 2e-7,
  "total_magnetization_normalized_vol": null,
  "total_magnetization_normalized_formula_units": null,
  "num_magnetic_sites": null,
  "num_unique_magnetic_sites": null,
  "types_of_magnetic_species": null,
  "bulk_modulus": null,
  "shear_modulus": null,
  "universal_anisotropy": null,
  "homogeneous_poisson": null,
  "e_total": null,
  "e_ionic": null,
  "e_electronic": null,
  "n": null,
  "e_ij_max": null,
  "weighted_surface_energy_EV_PER_ANG2": null,
  "weighted_surface_energy": null,
  "weighted_work_function": null,
  "surface_anisotropy": null,
  "shape_factor": null,
  "has_reconstructed": null,
  "possible_species": null,
  "has_props": null,
  "theoretical": null,
  "database_IDs": null,
  "fields_not_requested": [
    "builder_meta",
    "nsites",
    "elements",
    "nelements",
    "composition",
    "composition_reduced",
    "chemsys",
    "symmetry",
    "property_name",
    "deprecated",
    "deprecation_reasons",
    "last_updated",
    "origins",
    "warnings",
    "task_ids",
    "uncorrected_energy_per_atom",
    "equilibrium_reaction_energy_per_atom",
    "decomposes_to",
    "xas",
    "grain_boundaries",
    "cbm",
    "vbm",
    "is_gap_direct",
    "is_metal",
    "es_source_calc_id",
    "bandstructure",
    "dos",
    "dos_energy_up",
    "dos_energy_down",
    "is_magnetic",
    "ordering",
    "total_magnetization_normalized_vol",
    "total_magnetization_normalized_formula_units",
    "num_magnetic_sites",
    "num_unique_magnetic_sites",
    "types_of_magnetic_species",
    "bulk_modulus",
    "shear_modulus",
    "universal_anisotropy",
    "homogeneous_poisson",
    "e_total",
    "e_ionic",
    "e_electronic",
    "n",
    "e_ij_max",
    "weighted_surface_energy_EV_PER_ANG2",
    "weighted_surface_energy",
    "weighted_work_function",
    "surface_anisotropy",
    "shape_factor",
    "has_reconstructed",
    "possible_species",
    "has_props",
    "theoretical",
    "database_IDs"
  ]
}
