{"builder_meta": null, "nsites": null, "elements": null, "nelements": null, "composition": null, "composition_reduced": null, "formula_pretty": "Ag2Br3", "formula_anonymous": "A2B3", "chemsys": null, "volume": 264.1799197898534, "density": 5.725566588271111, "density_atomic": 26.417991978985338, "symmetry": null, "property_name": null, "material_id": "mp-862982", "deprecated": null, "deprecation_reasons": null, "last_updated": null, "origins": null, "warnings": null, "structure": {"@module": "pymatgen.core.structure", "@class": "Structure", "charge": 0, "lattice": {"matrix": [[-6.93937954, -0.0007713700000000001, -0.00179616], [3.4690212, -6.01005531, 0.00178362], [-3.46782686, 2.0021621, 6.33273104]], "pbc": [true, true, true], "a": 6.939379815327378, "b": 6.939371448237149, "c": 7.492526852176997, "alpha": 117.55453035290861, "beta": 62.44566344532153, "gamma": 119.98729906633953, "volume": 264.1799197898534}, "properties": {}, "sites": [{"species": [{"element": "Ag", "occu": 1}], "abc": [0.66020037, 0.3398132, 0.01942003], "properties": {"magmom": -0.0}, "label": "Ag", "xyz": [-3.4699070466945954, -2.003923337780636, 0.12240209890193601]}, {"species": [{"element": "Ag", "occu": 1}], "abc": [0.83981362, 0.16019783, 0.48057873], "properties": {"magmom": -0.0}, "label": "Ag", "xyz": [-6.938619611816028, -0.0012491066019038044, 3.0421531330566247]}, {"species": [{"element": "Ag", "occu": 1}], "abc": [0.16018638000000002, 0.83980117, 0.51942127], "properties": {"magmom": -0.0}, "label": "Ag", "xyz": [0.000430942794825917, -4.007409463342786, 3.2905653651597553]}, {"species": [{"element": "Ag", "occu": 1}], "abc": [0.33980063, 0.6601878, 0.98057897], "properties": {"magmom": -0.0}, "label": "Ag", "xyz": [-3.468278155836885, -2.004749255208144, 6.210310068354484]}, {"species": [{"element": "Br", "occu": 1}], "abc": [0.24996646, 0.07223824, 0.25003439], "properties": {"magmom": -0.0}, "label": "Br", "xyz": [-2.351092125765256, 0.06626074482931443, 1.5830804084333008]}, {"species": [{"element": "Br", "occu": 1}], "abc": [0.92764907, 0.42764925000000004, 0.25000525], "properties": {"magmom": -0.0}, "label": "Br", "xyz": [-5.820759583334942, -2.0703601700921186, 1.5823125644396738]}, {"species": [{"element": "Br", "occu": 1}], "abc": [0.57223384, 0.7499716200000001, 0.24997436], "properties": {"magmom": -0.0}, "label": "Br", "xyz": [-2.236148152132599, -4.007323131583708, 1.5833302296229443]}, {"species": [{"element": "Br", "occu": 1}], "abc": [0.42776616, 0.25002838, 0.75002664], "properties": {"magmom": -0.0}, "label": "Br", "xyz": [-4.702040515694261, -0.001339446254193133, 4.749394603108096]}, {"species": [{"element": "Br", "occu": 1}], "abc": [0.07234993, 0.57234975, 0.74999575], "properties": {"magmom": -0.0}, "label": "Br", "xyz": [-1.1174256141335777, -1.9382963969191016, 4.750412268303905]}, {"species": [{"element": "Br", "occu": 1}], "abc": [0.75003354, 0.92776376, 0.74996661], "properties": {"magmom": -0.0}, "label": "Br", "xyz": [-4.587089604019204, -4.074935342777835, 4.749644427864978]}]}, "task_ids": null, "uncorrected_energy_per_atom": null, "energy_per_atom": -2.708587389999999, "formation_energy_per_atom": -0.589244397666665, "energy_above_hull": 0.0, "is_stable": true, "equilibrium_reaction_energy_per_atom": null, "decomposes_to": null, "xas": null, "grain_boundaries": null, "band_gap": 0.0, "cbm": null, "vbm": null, "efermi": 0.51617863, "is_gap_direct": null, "is_metal": null, "es_source_calc_id": null, "bandstructure": null, "dos": null, "dos_energy_up": null, "dos_energy_down": null, "is_magnetic": null, "ordering": null, "total_magnetization": 0.0005265, "total_magnetization_normalized_vol": null, "total_magnetization_normalized_formula_units": null, "num_magnetic_sites": null, "num_unique_magnetic_sites": null, "types_of_magnetic_species": null, "bulk_modulus": null, "shear_modulus": null, "universal_anisotropy": null, "homogeneous_poisson": null, "e_total": null, "e_ionic": null, "e_electronic": null, "n": null, "e_ij_max": null, "weighted_surface_energy_EV_PER_ANG2": null, "weighted_surface_energy": null, "weighted_work_function": null, "surface_anisotropy": null, "shape_factor": null, "has_reconstructed": null, "possible_species": null, "has_props": null, "theoretical": null, "database_IDs": null, "fields_not_requested": ["builder_meta", "nsites", "elements", "nelements", "composition", "composition_reduced", "chemsys", "symmetry", "property_name", "deprecated", "deprecation_reasons", "last_updated", "origins", "warnings", "task_ids", "uncorrected_energy_per_atom", "equilibrium_reaction_energy_per_atom", "decomposes_to", "xas", "grain_boundaries", "cbm", "vbm", "is_gap_direct", "is_metal", "es_source_calc_id", "bandstructure", "dos", "dos_energy_up", "dos_energy_down", "is_magnetic", "ordering", "total_magnetization_normalized_vol", "total_magnetization_normalized_formula_units", "num_magnetic_sites", "num_unique_magnetic_sites", "types_of_magnetic_species", "bulk_modulus", "shear_modulus", "universal_anisotropy", "homogeneous_poisson", "e_total", "e_ionic", "e_electronic", "n", "e_ij_max", "weighted_surface_energy_EV_PER_ANG2", "weighted_surface_energy", "weighted_work_function", "surface_anisotropy", "shape_factor", "has_reconstructed", "possible_species", "has_props", "theoretical", "database_IDs"]}