{"builder_meta": null, "nsites": null, "elements": null, "nelements": null, "composition": null, "composition_reduced": null, "formula_pretty": "Ag2Cl3", "formula_anonymous": "A2B3", "chemsys": null, "volume": 229.46257914848442, "density": 4.6617796841379775, "density_atomic": 22.94625791484844, "symmetry": null, "property_name": null, "material_id": "mp-864635", "deprecated": null, "deprecation_reasons": null, "last_updated": null, "origins": null, "warnings": null, "structure": {"@module": "pymatgen.core.structure", "@class": "Structure", "charge": 0, "lattice": {"matrix": [[-6.61886126, 0.00016801, 0.00016503], [3.30957562, -5.73201666, -0.00016555], [-3.3096293, 1.9108161, 6.04832928]], "pbc": [true, true, true], "a": 6.6188612641897135, "b": 6.618859856683986, "c": 7.15451964500364, "alpha": 117.55635427476166, "beta": 62.44365633029559, "gamma": 120.00291068560837, "volume": 229.46257914848442}, "properties": {}, "sites": [{"species": [{"element": "Ag", "occu": 1}], "abc": [0.65720346, 0.34278072, 0.02838299], "properties": {"magmom": 0.227}, "label": "Ag", "xyz": [-3.30941698273952, -1.9104797067553416, 0.171721380409755]}, {"species": [{"element": "Ag", "occu": 1}], "abc": [0.84278349, 0.15720156, 0.47160939], "properties": {"magmom": 0.227}, "label": "Ag", "xyz": [-6.618848797425757, 0.00021845047934432316, 2.852561942101036]}, {"species": [{"element": "Ag", "occu": 1}], "abc": [0.15721935, 0.84279652, 0.5283819], "properties": {"magmom": 0.227}, "label": "Ag", "xyz": [-6.246765420825362e-05, -3.8212566377384403, 3.1957141377374763]}, {"species": [{"element": "Ag", "occu": 1}], "abc": [0.34279831, 0.65721741, 0.97161222], "properties": {"magmom": 0.227}, "label": "Ag", "xyz": [-3.3095000084269723, -1.9105512768852455, 5.876578408694675]}, {"species": [{"element": "Cl", "occu": 1}], "abc": [0.93172535, 0.43171395, 0.25000449], "properties": {"magmom": 0.162}, "label": "Cl", "xyz": [-5.565593045576599, -1.9967224100140644, 1.5121917693885554]}, {"species": [{"element": "Cl", "occu": 1}], "abc": [0.56834324, 0.75003072, 0.25000969], "properties": {"magmom": 0.163}, "label": "Cl", "xyz": [-2.1069410637637533, -3.821370554396034, 1.5121105544099245]}, {"species": [{"element": "Cl", "occu": 1}], "abc": [0.25000218, 0.06833324, 0.24999953], "properties": {"magmom": 0.163}, "label": "Cl", "xyz": [-2.2559814884521674, 0.08605785967091634, 1.5121094225771219]}, {"species": [{"element": "Cl", "occu": 1}], "abc": [0.74997324, 0.93164729, 0.75000429], "properties": {"magmom": 0.163}, "label": "Cl", "xyz": [-4.36284784015931, -3.9069715121187305, 4.536242441207549]}, {"species": [{"element": "Cl", "occu": 1}], "abc": [0.43165669, 0.24999385000000002, 0.74999422], "properties": {"magmom": 0.163}, "label": "Cl", "xyz": [-4.5119050372935385, 0.00020464002588771457, 4.5362418504784445]}, {"species": [{"element": "Cl", "occu": 1}], "abc": [0.06829569, 0.5682847400000001, 0.74999927], "properties": {"magmom": 0.162}, "label": "Cl", "xyz": [-1.0534779350145413, -1.824295442840645, 4.536159736018639]}]}, "task_ids": null, "uncorrected_energy_per_atom": null, "energy_per_atom": -12.733205022, "formation_energy_per_atom": -0.499390825499999, "energy_above_hull": 0.0, "is_stable": true, "equilibrium_reaction_energy_per_atom": null, "decomposes_to": null, "xas": null, "grain_boundaries": null, "band_gap": 0.0, "cbm": null, "vbm": null, "efermi": 0.66277537, "is_gap_direct": null, "is_metal": null, "es_source_calc_id": null, "bandstructure": null, "dos": null, "dos_energy_up": null, "dos_energy_down": null, "is_magnetic": null, "ordering": null, "total_magnetization": 2.0219307, "total_magnetization_normalized_vol": null, "total_magnetization_normalized_formula_units": null, "num_magnetic_sites": null, "num_unique_magnetic_sites": null, "types_of_magnetic_species": null, "bulk_modulus": null, "shear_modulus": null, "universal_anisotropy": null, "homogeneous_poisson": null, "e_total": null, "e_ionic": null, "e_electronic": null, "n": null, "e_ij_max": null, "weighted_surface_energy_EV_PER_ANG2": null, "weighted_surface_energy": null, "weighted_work_function": null, "surface_anisotropy": null, "shape_factor": null, "has_reconstructed": null, "possible_species": null, "has_props": null, "theoretical": null, "database_IDs": null, "fields_not_requested": ["builder_meta", "nsites", "elements", "nelements", "composition", "composition_reduced", "chemsys", "symmetry", "property_name", "deprecated", "deprecation_reasons", "last_updated", "origins", "warnings", "task_ids", "uncorrected_energy_per_atom", "equilibrium_reaction_energy_per_atom", "decomposes_to", "xas", "grain_boundaries", "cbm", "vbm", "is_gap_direct", "is_metal", "es_source_calc_id", "bandstructure", "dos", "dos_energy_up", "dos_energy_down", "is_magnetic", "ordering", "total_magnetization_normalized_vol", "total_magnetization_normalized_formula_units", "num_magnetic_sites", "num_unique_magnetic_sites", "types_of_magnetic_species", "bulk_modulus", "shear_modulus", "universal_anisotropy", "homogeneous_poisson", "e_total", "e_ionic", "e_electronic", "n", "e_ij_max", "weighted_surface_energy_EV_PER_ANG2", "weighted_surface_energy", "weighted_work_function", "surface_anisotropy", "shape_factor", "has_reconstructed", "possible_species", "has_props", "theoretical", "database_IDs"]}