{"builder_meta": null, "nsites": null, "elements": null, "nelements": null, "composition": null, "composition_reduced": null, "formula_pretty": "Ag2F3", "formula_anonymous": "A2B3", "chemsys": null, "volume": 152.3075375762956, "density": 5.946934730142781, "density_atomic": 15.23075375762956, "symmetry": null, "property_name": null, "material_id": "mp-861945", "deprecated": null, "deprecation_reasons": null, "last_updated": null, "origins": null, "warnings": null, "structure": {"@module": "pymatgen.core.structure", "@class": "Structure", "charge": 0, "lattice": {"matrix": [[-5.74764164, -0.000321799999999, 0.00033485], [2.87354356, -4.97776563, -0.00031766], [-2.87403801, 1.65930738, 5.32354561]], "pbc": [true, true, true], "a": 5.747641658762458, "b": 5.7476432874122105, "c": 6.273239460278676, "alpha": 117.26921473978318, "beta": 62.73045254511634, "gamma": 119.99359138054984, "volume": 152.3075375762956}, "properties": {}, "sites": [{"species": [{"element": "Ag", "occu": 1}], "abc": [0.65251512, 0.34749821000000003, 0.04247654], "properties": {"magmom": 0.326}, "label": "Ag", "xyz": [-2.873951021477855, -1.6594929892912729, 0.2262339064515328]}, {"species": [{"element": "Ag", "occu": 1}], "abc": [0.8474970900000001, 0.15251499000000002, 0.45752464], "properties": {"magmom": 0.326}, "label": "Ag", "xyz": [-5.7477943028164304, -0.000282588161511943, 2.4358886252276934]}, {"species": [{"element": "Ag", "occu": 1}], "abc": [0.15250294, 0.84748512, 0.54247468], "properties": {"magmom": 0.326}, "label": "Ag", "xyz": [-0.0003396891771816346, -3.3184991377313797, 2.8876705547363946]}, {"species": [{"element": "Ag", "occu": 1}], "abc": [0.34748569, 0.65250121, 0.95752349], "properties": {"magmom": 0.326}, "label": "Ag", "xyz": [-2.8741914769882793, -1.6592841240860985, 5.0973290537103075]}, {"species": [{"element": "F", "occu": 1}], "abc": [0.94136248, 0.44136263000000003, 0.25000763], "properties": {"magmom": 0.11800000000000001}, "label": "F", "xyz": [-4.860870876730521, -1.7824631549111607, 1.3311020331263863]}, {"species": [{"element": "F", "occu": 1}], "abc": [0.25000716, 0.05862663, 0.24998249], "properties": {"magmom": 0.11900000000000001}, "label": "F", "xyz": [-1.9869445661275846, 0.12288771440696156, 1.3308582787786092]}, {"species": [{"element": "F", "occu": 1}], "abc": [0.55862597, 0.75002239, 0.25003371], "properties": {"magmom": 0.11900000000000001}, "label": "F", "xyz": [-1.7741662640383997, -3.3187326602578215, 1.3310146630161603]}, {"species": [{"element": "F", "occu": 1}], "abc": [0.44138242, 0.2499816, 0.74996703], "properties": {"magmom": 0.11900000000000001}, "label": "F", "xyz": [-3.9740087100242834, -6.602583948223106e-05, 3.9925520779495196]}, {"species": [{"element": "F", "occu": 1}], "abc": [0.74998867, 0.9413792400000001, 0.75001838], "properties": {"magmom": 0.11900000000000001}, "label": "F", "xyz": [-3.7611531889191485, -3.4416955389518824, 3.992709149445083]}, {"species": [{"element": "F", "occu": 1}], "abc": [0.05863346, 0.5586309700000001, 0.749993399999999], "properties": {"magmom": 0.11800000000000001}, "label": "F", "xyz": [-0.8872632287823525, -1.536283326995699, 3.9924662507991195]}]}, "task_ids": null, "uncorrected_energy_per_atom": null, "energy_per_atom": -11.618386400999999, "formation_energy_per_atom": -1.200418772999999, "energy_above_hull": 0.035600740500001005, "is_stable": false, "equilibrium_reaction_energy_per_atom": null, "decomposes_to": null, "xas": null, "grain_boundaries": null, "band_gap": 0.0, "cbm": null, "vbm": null, "efermi": -1.00019714, "is_gap_direct": null, "is_metal": null, "es_source_calc_id": null, "bandstructure": null, "dos": null, "dos_energy_up": null, "dos_energy_down": null, "is_magnetic": null, "ordering": null, "total_magnetization": 1.9975643, "total_magnetization_normalized_vol": null, "total_magnetization_normalized_formula_units": null, "num_magnetic_sites": null, "num_unique_magnetic_sites": null, "types_of_magnetic_species": null, "bulk_modulus": null, "shear_modulus": null, "universal_anisotropy": null, "homogeneous_poisson": null, "e_total": null, "e_ionic": null, "e_electronic": null, "n": null, "e_ij_max": null, "weighted_surface_energy_EV_PER_ANG2": null, "weighted_surface_energy": null, "weighted_work_function": null, "surface_anisotropy": null, "shape_factor": null, "has_reconstructed": null, "possible_species": null, "has_props": null, "theoretical": null, "database_IDs": null, "fields_not_requested": ["builder_meta", "nsites", "elements", "nelements", "composition", "composition_reduced", "chemsys", "symmetry", "property_name", "deprecated", "deprecation_reasons", "last_updated", "origins", "warnings", "task_ids", "uncorrected_energy_per_atom", "equilibrium_reaction_energy_per_atom", "decomposes_to", "xas", "grain_boundaries", "cbm", "vbm", "is_gap_direct", "is_metal", "es_source_calc_id", "bandstructure", "dos", "dos_energy_up", "dos_energy_down", "is_magnetic", "ordering", "total_magnetization_normalized_vol", "total_magnetization_normalized_formula_units", "num_magnetic_sites", "num_unique_magnetic_sites", "types_of_magnetic_species", "bulk_modulus", "shear_modulus", "universal_anisotropy", "homogeneous_poisson", "e_total", "e_ionic", "e_electronic", "n", "e_ij_max", "weighted_surface_energy_EV_PER_ANG2", "weighted_surface_energy", "weighted_work_function", "surface_anisotropy", "shape_factor", "has_reconstructed", "possible_species", "has_props", "theoretical", "database_IDs"]}