{"builder_meta": null, "nsites": null, "elements": null, "nelements": null, "composition": null, "composition_reduced": null, "formula_pretty": "Ag2F5", "formula_anonymous": "A2B5", "chemsys": null, "volume": 384.93783228333723, "density": 5.361662383872384, "density_atomic": 13.747779724404902, "symmetry": null, "property_name": null, "material_id": "mp-542298", "deprecated": null, "deprecation_reasons": null, "last_updated": null, "origins": null, "warnings": null, "structure": {"@module": "pymatgen.core.structure", "@class": "Structure", "charge": 0, "lattice": {"matrix": [[4.87899419, -0.05059471, 0.00470413], [2.03419354, 7.06987601, -0.03660834], [0.15090784000000002, 0.29284087000000003, 11.12494296]], "pbc": [true, true, true], "a": 4.879258781779544, "b": 7.356794840520483, "c": 11.129819621834372, "alpha": 88.62130900357202, "beta": 89.18356516801951, "gamma": 74.54266855190174, "volume": 384.9378322833372}, "properties": {}, "sites": [{"species": [{"element": "Ag", "occu": 1}], "abc": [0.5, 0.5, -0.0], "properties": {"magmom": -0.419}, "label": "Ag", "xyz": [3.4565938650000003, 3.5096406499999997, -0.015952105]}, {"species": [{"element": "Ag", "occu": 1}], "abc": [0.5, -0.0, 0.5], "properties": {"magmom": -0.423}, "label": "Ag", "xyz": [2.5149510150000003, 0.12112308000000002, 5.564823545]}, {"species": [{"element": "Ag", "occu": 1}], "abc": [0.0453111, 0.27805941, 0.751283599999999], "properties": {"magmom": 0.457}, "label": "Ag", "xyz": [0.9000738345041444, 2.1835595931902048, 8.348021052666809]}, {"species": [{"element": "Ag", "occu": 1}], "abc": [0.9546889, 0.72194059, 0.24871639999999903], "properties": {"magmom": 0.457}, "label": "Ag", "xyz": [6.164021735495855, 5.128562576809795, 2.7450176973331697]}, {"species": [{"element": "Ag", "occu": 1}], "abc": [0.5, -0.0, -0.0], "properties": {"magmom": 0.007}, "label": "Ag", "xyz": [2.439497095, -0.025297355, 0.002352065]}, {"species": [{"element": "Ag", "occu": 1}], "abc": [0.5, 0.5, 0.5], "properties": {"magmom": -0.015}, "label": "Ag", "xyz": [3.5320477850000005, 3.6560610849999997, 5.546519375]}, {"species": [{"element": "Ag", "occu": 1}], "abc": [0.04413273, 0.7876168100000001, 0.76719118], "properties": {"magmom": -0.011}, "label": "Ag", "xyz": [1.9332635239970974, 5.790785240023397, 8.506332379044071]}, {"species": [{"element": "Ag", "occu": 1}], "abc": [0.95586727, 0.21238319, 0.23280882], "properties": {"magmom": -0.011}, "label": "Ag", "xyz": [5.130832046002903, 1.5213369299766035, 2.5867063709559277]}, {"species": [{"element": "F", "occu": 1}], "abc": [0.42556601, 0.27624475, 0.42326713], "properties": {"magmom": -0.052000000000000005}, "label": "F", "xyz": [2.702143704491696, 2.0554346566432433, 4.700711734196311]}, {"species": [{"element": "F", "occu": 1}], "abc": [0.5744339900000001, 0.72375525, 0.5767328700000001], "properties": {"magmom": -0.052000000000000005}, "label": "F", "xyz": [4.3619518655083045, 5.256687513356756, 6.39232701580369]}, {"species": [{"element": "F", "occu": 1}], "abc": [0.6656856600000001, 0.7683493100000001, 0.09203976], "properties": {"magmom": 0.028}, "label": "F", "xyz": [4.8247371917474915, 5.425407184543187, 0.99894055915662]}, {"species": [{"element": "F", "occu": 1}], "abc": [0.33431434, 0.23165069, 0.90796024], "properties": {"magmom": 0.028}, "label": "F", "xyz": [2.2393583782525086, 1.8867149854568142, 10.094098190843381]}, {"species": [{"element": "F", "occu": 1}], "abc": [0.48778136, 0.160028299999999, 0.13624396], "properties": {"magmom": 0.002}, "label": "F", "xyz": [2.725971237224125, 1.1465988824171154, 1.5121425001575164]}, {"species": [{"element": "F", "occu": 1}], "abc": [0.5122186400000001, 0.8399717, 0.8637560400000001], "properties": {"magmom": 0.002}, "label": "F", "xyz": [4.338124332775873, 6.165523287582878, 9.580896249842484]}, {"species": [{"element": "F", "occu": 1}], "abc": [0.93861497, 0.02516987, 0.8530527999999991], "properties": {"magmom": 0.019}, "label": "F", "xyz": [4.759429727687617, 0.3802676319869458, 9.493657681548388]}, {"species": [{"element": "F", "occu": 1}], "abc": [0.06138503, 0.9748301300000001, 0.1469472], "properties": {"magmom": 0.019}, "label": "F", "xyz": [2.304665842312384, 6.931854538013054, 1.5993810684516017]}, {"species": [{"element": "F", "occu": 1}], "abc": [0.60903621, 0.87488893, 0.33914468000000003], "properties": {"magmom": 0.015}, "label": "F", "xyz": [4.8023571308194235, 6.253857670344192, 3.7438019742823245]}, {"species": [{"element": "F", "occu": 1}], "abc": [0.39096379000000003, 0.12511107, 0.66085532], "properties": {"magmom": 0.015}, "label": "F", "xyz": [2.261738439180577, 1.0582644996558082, 7.349236775717677]}, {"species": [{"element": "F", "occu": 1}], "abc": [0.8128687800000001, 0.33051028, 0.58605336], "properties": {"magmom": 0.024}, "label": "F", "xyz": [4.726743978014323, 2.467160215247052, 6.511534609226672]}, {"species": [{"element": "F", "occu": 1}], "abc": [0.18713122000000001, 0.6694897200000001, 0.41394664000000003], "properties": {"magmom": 0.024}, "label": "F", "xyz": [2.337351591985678, 4.844961954752948, 4.581504140773329]}, {"species": [{"element": "F", "occu": 1}], "abc": [0.89194518, 0.35629308, 0.08045505], "properties": {"magmom": -0.05}, "label": "F", "xyz": [5.0887057305138, 2.4973807179409064, 0.8862103699612542]}, {"species": [{"element": "F", "occu": 1}], "abc": [0.10805482, 0.64370692, 0.91954495], "properties": {"magmom": -0.05}, "label": "F", "xyz": [1.9753898394862006, 4.814741452059093, 10.206828380038747]}, {"species": [{"element": "F", "occu": 1}], "abc": [0.70749823, 0.44548456000000003, 0.83902657], "properties": {"magmom": 0.015}, "label": "F", "xyz": [4.484697255108335, 3.3594262065089584, 9.321142446585908]}, {"species": [{"element": "F", "occu": 1}], "abc": [0.29250177, 0.55451544, 0.16097343], "properties": {"magmom": 0.015}, "label": "F", "xyz": [2.579398314891665, 3.9526959634910415, 1.7718963034140933]}, {"species": [{"element": "F", "occu": 1}], "abc": [0.15801043, 0.5497396800000001, 0.68344773], "properties": {"magmom": 0.015}, "label": "F", "xyz": [1.9923464963542723, 4.078738311346977, 7.583935256878626]}, {"species": [{"element": "F", "occu": 1}], "abc": [0.84198957, 0.45026032, 0.31655227], "properties": {"magmom": 0.015}, "label": "F", "xyz": [5.071749073645728, 3.2333838586530232, 3.509103493121375]}, {"species": [{"element": "F", "occu": 1}], "abc": [0.9749931, 0.92964912, 0.61892331], "properties": {"magmom": -0.006}, "label": "F", "xyz": [6.741472284398523, 6.70442055862279, 6.8560401035902405]}, {"species": [{"element": "F", "occu": 1}], "abc": [0.0250069, 0.07035088, 0.38107669], "properties": {"magmom": -0.006}, "label": "F", "xyz": [0.3226232856014758, 0.6077016113772101, 4.23699864640976]}]}, "task_ids": null, "uncorrected_energy_per_atom": null, "energy_per_atom": -9.564483166071428, "formation_energy_per_atom": -1.229926874642856, "energy_above_hull": 0.0, "is_stable": true, "equilibrium_reaction_energy_per_atom": null, "decomposes_to": null, "xas": null, "grain_boundaries": null, "band_gap": 0.0, "cbm": null, "vbm": null, "efermi": -1.89936011, "is_gap_direct": null, "is_metal": null, "es_source_calc_id": null, "bandstructure": null, "dos": null, "dos_energy_up": null, "dos_energy_down": null, "is_magnetic": null, "ordering": null, "total_magnetization": 0.067997099999999, "total_magnetization_normalized_vol": null, "total_magnetization_normalized_formula_units": null, "num_magnetic_sites": null, "num_unique_magnetic_sites": null, "types_of_magnetic_species": null, "bulk_modulus": null, "shear_modulus": null, "universal_anisotropy": null, "homogeneous_poisson": null, "e_total": null, "e_ionic": null, "e_electronic": null, "n": null, "e_ij_max": null, "weighted_surface_energy_EV_PER_ANG2": null, "weighted_surface_energy": null, "weighted_work_function": null, "surface_anisotropy": null, "shape_factor": null, "has_reconstructed": null, "possible_species": null, "has_props": null, "theoretical": null, "database_IDs": null, "fields_not_requested": ["builder_meta", "nsites", "elements", "nelements", "composition", "composition_reduced", "chemsys", "symmetry", "property_name", "deprecated", "deprecation_reasons", "last_updated", "origins", "warnings", "task_ids", "uncorrected_energy_per_atom", "equilibrium_reaction_energy_per_atom", "decomposes_to", "xas", "grain_boundaries", "cbm", "vbm", "is_gap_direct", "is_metal", "es_source_calc_id", "bandstructure", "dos", "dos_energy_up", "dos_energy_down", "is_magnetic", "ordering", "total_magnetization_normalized_vol", "total_magnetization_normalized_formula_units", "num_magnetic_sites", "num_unique_magnetic_sites", "types_of_magnetic_species", "bulk_modulus", "shear_modulus", "universal_anisotropy", "homogeneous_poisson", "e_total", "e_ionic", "e_electronic", "n", "e_ij_max", "weighted_surface_energy_EV_PER_ANG2", "weighted_surface_energy", "weighted_work_function", "surface_anisotropy", "shape_factor", "has_reconstructed", "possible_species", "has_props", "theoretical", "database_IDs"]}