{
  "builder_meta": null,
  "nsites": null,
  "elements": null,
  "nelements": null,
  "composition": null,
  "composition_reduced": null,
  "formula_pretty": "Ag2Hg5",
  "formula_anonymous": "A2B5",
  "chemsys": null,
  "volume": 325.51494431074997,
  "density": 12.433692600006895,
  "density_atomic": 23.251067450767856,
  "symmetry": null,
  "property_name": null,
  "material_id": "mp-759790",
  "deprecated": null,
  "deprecation_reasons": null,
  "last_updated": null,
  "origins": null,
  "warnings": null,
  "structure": {
    "@module": "pymatgen.core.structure",
    "@class": "Structure",
    "charge": 0,
    "lattice": {
      "matrix": [
        [10.263058000000001, 0.0, 0.0],
        [0.0, 10.263058000000001, 0.0],
        [0.0, 0.0, 3.090419]
      ],
      "pbc": [true, true, true],
      "a": 10.263058000000001,
      "b": 10.263058000000001,
      "c": 3.090419,
      "alpha": 90.0,
      "beta": 90.0,
      "gamma": 90.0,
      "volume": 325.5149443107501
    },
    "properties": {},
    "sites": [
      {
        "species": [{ "element": "Ag", "occu": 1 }],
        "abc": [0.680867999999999, 0.180868, 0.5],
        "properties": { "magmom": 0.0 },
        "label": "Ag",
        "xyz": [6.987787774343991, 1.8562587743440002, 1.5452095]
      },
      {
        "species": [{ "element": "Ag", "occu": 1 }],
        "abc": [0.180868, 0.319131999999999, 0.5],
        "properties": { "magmom": 0.0 },
        "label": "Ag",
        "xyz": [1.8562587743440002, 3.2752702256559902, 1.5452095]
      },
      {
        "species": [{ "element": "Ag", "occu": 1 }],
        "abc": [0.819132, 0.680867999999999, 0.5],
        "properties": { "magmom": 0.0 },
        "label": "Ag",
        "xyz": [8.406799225656, 6.987787774343991, 1.5452095]
      },
      {
        "species": [{ "element": "Ag", "occu": 1 }],
        "abc": [0.319131999999999, 0.819132, 0.5],
        "properties": { "magmom": 0.0 },
        "label": "Ag",
        "xyz": [3.2752702256559902, 8.406799225656, 1.5452095]
      },
      {
        "species": [{ "element": "Hg", "occu": 1 }],
        "abc": [0.5, 0.0, 0.0],
        "properties": { "magmom": 0.0 },
        "label": "Hg",
        "xyz": [5.1315290000000005, 0.0, 0.0]
      },
      {
        "species": [{ "element": "Hg", "occu": 1 }],
        "abc": [0.201300999999999, 0.062914, 0.0],
        "properties": { "magmom": 0.0 },
        "label": "Hg",
        "xyz": [2.06596383845799, 0.6456900310120001, 0.0]
      },
      {
        "species": [{ "element": "Hg", "occu": 1 }],
        "abc": [0.937086, 0.201300999999999, 0.0],
        "properties": { "magmom": 0.0 },
        "label": "Hg",
        "xyz": [9.617367968988, 2.06596383845799, 0.0]
      },
      {
        "species": [{ "element": "Hg", "occu": 1 }],
        "abc": [0.437086, 0.298699, 0.0],
        "properties": { "magmom": 0.0 },
        "label": "Hg",
        "xyz": [4.485838968988, 3.065565161542, 0.0]
      },
      {
        "species": [{ "element": "Hg", "occu": 1 }],
        "abc": [0.701301, 0.437086, 0.0],
        "properties": { "magmom": 0.0 },
        "label": "Hg",
        "xyz": [7.197492838458, 4.485838968988, 0.0]
      },
      {
        "species": [{ "element": "Hg", "occu": 1 }],
        "abc": [0.0, 0.5, 0.0],
        "properties": { "magmom": 0.0 },
        "label": "Hg",
        "xyz": [0.0, 5.1315290000000005, 0.0]
      },
      {
        "species": [{ "element": "Hg", "occu": 1 }],
        "abc": [0.298699, 0.562914, 0.0],
        "properties": { "magmom": 0.0 },
        "label": "Hg",
        "xyz": [3.065565161542, 5.777219031012001, 0.0]
      },
      {
        "species": [{ "element": "Hg", "occu": 1 }],
        "abc": [0.562914, 0.701301, 0.0],
        "properties": { "magmom": 0.0 },
        "label": "Hg",
        "xyz": [5.777219031012001, 7.197492838458, 0.0]
      },
      {
        "species": [{ "element": "Hg", "occu": 1 }],
        "abc": [0.062914, 0.798698999999999, 0.0],
        "properties": { "magmom": 0.0 },
        "label": "Hg",
        "xyz": [0.6456900310120001, 8.19709416154199, 0.0]
      },
      {
        "species": [{ "element": "Hg", "occu": 1 }],
        "abc": [0.798698999999999, 0.937086, 0.0],
        "properties": { "magmom": 0.0 },
        "label": "Hg",
        "xyz": [8.19709416154199, 9.617367968988, 0.0]
      }
    ]
  },
  "task_ids": null,
  "uncorrected_energy_per_atom": null,
  "energy_per_atom": -41.284609877976195,
  "formation_energy_per_atom": 0.079788250952373,
  "energy_above_hull": 0.079788250952375,
  "is_stable": false,
  "equilibrium_reaction_energy_per_atom": null,
  "decomposes_to": null,
  "xas": null,
  "grain_boundaries": null,
  "band_gap": 0.0,
  "cbm": null,
  "vbm": null,
  "efermi": 2.6198811600000003,
  "is_gap_direct": null,
  "is_metal": null,
  "es_source_calc_id": null,
  "bandstructure": null,
  "dos": null,
  "dos_energy_up": null,
  "dos_energy_down": null,
  "is_magnetic": null,
  "ordering": null,
  "total_magnetization": 0.0093283,
  "total_magnetization_normalized_vol": null,
  "total_magnetization_normalized_formula_units": null,
  "num_magnetic_sites": null,
  "num_unique_magnetic_sites": null,
  "types_of_magnetic_species": null,
  "bulk_modulus": null,
  "shear_modulus": null,
  "universal_anisotropy": null,
  "homogeneous_poisson": null,
  "e_total": null,
  "e_ionic": null,
  "e_electronic": null,
  "n": null,
  "e_ij_max": null,
  "weighted_surface_energy_EV_PER_ANG2": null,
  "weighted_surface_energy": null,
  "weighted_work_function": null,
  "surface_anisotropy": null,
  "shape_factor": null,
  "has_reconstructed": null,
  "possible_species": null,
  "has_props": null,
  "theoretical": null,
  "database_IDs": null,
  "fields_not_requested": [
    "builder_meta",
    "nsites",
    "elements",
    "nelements",
    "composition",
    "composition_reduced",
    "chemsys",
    "symmetry",
    "property_name",
    "deprecated",
    "deprecation_reasons",
    "last_updated",
    "origins",
    "warnings",
    "task_ids",
    "uncorrected_energy_per_atom",
    "equilibrium_reaction_energy_per_atom",
    "decomposes_to",
    "xas",
    "grain_boundaries",
    "cbm",
    "vbm",
    "is_gap_direct",
    "is_metal",
    "es_source_calc_id",
    "bandstructure",
    "dos",
    "dos_energy_up",
    "dos_energy_down",
    "is_magnetic",
    "ordering",
    "total_magnetization_normalized_vol",
    "total_magnetization_normalized_formula_units",
    "num_magnetic_sites",
    "num_unique_magnetic_sites",
    "types_of_magnetic_species",
    "bulk_modulus",
    "shear_modulus",
    "universal_anisotropy",
    "homogeneous_poisson",
    "e_total",
    "e_ionic",
    "e_electronic",
    "n",
    "e_ij_max",
    "weighted_surface_energy_EV_PER_ANG2",
    "weighted_surface_energy",
    "weighted_work_function",
    "surface_anisotropy",
    "shape_factor",
    "has_reconstructed",
    "possible_species",
    "has_props",
    "theoretical",
    "database_IDs"
  ]
}
