{"builder_meta": null, "nsites": null, "elements": null, "nelements": null, "composition": null, "composition_reduced": null, "formula_pretty": "Ag2O3", "formula_anonymous": "A2B3", "chemsys": null, "volume": 124.7847648799555, "density": 7.019151848151168, "density_atomic": 12.47847648799555, "symmetry": null, "property_name": null, "material_id": "mp-546190", "deprecated": null, "deprecation_reasons": null, "last_updated": null, "origins": null, "warnings": null, "structure": {"@module": "pymatgen.core.structure", "@class": "Structure", "charge": 0, "lattice": {"matrix": [[3.55081791, 0.00085246, 1.01055213], [1.77663658, 5.2455464, 0.50535544], [0.01071358, 9.839000000000001e-05, 6.70309444]], "pbc": [true, true, true], "a": 3.691818544310156, "b": 5.561256934604321, "c": 6.703103002493392, "alpha": 84.75613126034362, "beta": 74.02223011408867, "gamma": 70.58809951396685, "volume": 124.7847648799555}, "properties": {}, "sites": [{"species": [{"element": "Ag", "occu": 1}], "abc": [0.58663677, 0.73510507, 0.09315739], "properties": {"magmom": 0.0}, "label": "Ag", "xyz": [3.3900529562363677, 3.856537003696805, 1.5887591665098126]}, {"species": [{"element": "Ag", "occu": 1}], "abc": [0.5720799400000001, 0.76483187, 0.59310339], "properties": {"magmom": 0.0}, "label": "Ag", "xyz": [3.3965342353125667, 4.012507092991962, 4.940256583941297]}, {"species": [{"element": "Ag", "occu": 1}], "abc": [0.92982622, 0.23502281, 0.40685133], "properties": {"magmom": 0.0}, "label": "Ag", "xyz": [3.7235525508160516, 1.233655724675244, 3.78557081073804]}, {"species": [{"element": "Ag", "occu": 1}], "abc": [0.41508095, 0.26489996, 0.90686765], "properties": {"magmom": 0.0}, "label": "Ag", "xyz": [1.9542236294540383, 1.3899880981528645, 6.632149076517572]}, {"species": [{"element": "O", "occu": 1}], "abc": [0.78316257, 0.03363736, 0.66474743], "properties": {"magmom": 0.0}, "label": "O", "xyz": [2.847750868999357, 0.17717935191756393, 5.264290228150301]}, {"species": [{"element": "O", "occu": 1}], "abc": [0.06664091, 0.46623776, 0.1647854], "properties": {"magmom": -0.0}, "label": "O", "xyz": [1.0667302377256909, 2.4457448254577088, 1.4075320004282288]}, {"species": [{"element": "O", "occu": 1}], "abc": [0.69777256, 0.5336936, 0.83527538], "properties": {"magmom": -0.0}, "label": "O", "xyz": [3.434791665032098, 2.8001915481241757, 6.573770266363624]}, {"species": [{"element": "O", "occu": 1}], "abc": [0.41288142, 0.5001402500000001, 0.49989327], "properties": {"magmom": 0.0}, "label": "O", "xyz": [2.359989850662184, 2.6239100372767292, 4.020818593249304]}, {"species": [{"element": "O", "occu": 1}], "abc": [0.4815412, 0.9662225400000001, 0.33525449], "properties": {"magmom": -0.0}, "label": "O", "xyz": [3.4300832021463794, 5.06880864659648, 3.2221508100864096]}, {"species": [{"element": "O", "occu": 1}], "abc": [0.16277748, 0.00021078, 6.628000000000001e-05], "properties": {"magmom": 0.0}, "label": "O", "xyz": [0.5783683808830815, 0.001244424082082, 0.16504592904915877]}]}, "task_ids": null, "uncorrected_energy_per_atom": null, "energy_per_atom": -4.4611763, "formation_energy_per_atom": -0.355224625666665, "energy_above_hull": 0.019458467666665, "is_stable": false, "equilibrium_reaction_energy_per_atom": null, "decomposes_to": null, "xas": null, "grain_boundaries": null, "band_gap": 0.34700000000000003, "cbm": null, "vbm": null, "efermi": 1.09855056, "is_gap_direct": null, "is_metal": null, "es_source_calc_id": null, "bandstructure": null, "dos": null, "dos_energy_up": null, "dos_energy_down": null, "is_magnetic": null, "ordering": null, "total_magnetization": 1e-07, "total_magnetization_normalized_vol": null, "total_magnetization_normalized_formula_units": null, "num_magnetic_sites": null, "num_unique_magnetic_sites": null, "types_of_magnetic_species": null, "bulk_modulus": null, "shear_modulus": null, "universal_anisotropy": null, "homogeneous_poisson": null, "e_total": null, "e_ionic": null, "e_electronic": null, "n": null, "e_ij_max": null, "weighted_surface_energy_EV_PER_ANG2": null, "weighted_surface_energy": null, "weighted_work_function": null, "surface_anisotropy": null, "shape_factor": null, "has_reconstructed": null, "possible_species": null, "has_props": null, "theoretical": null, "database_IDs": null, "fields_not_requested": ["builder_meta", "nsites", "elements", "nelements", "composition", "composition_reduced", "chemsys", "symmetry", "property_name", "deprecated", "deprecation_reasons", "last_updated", "origins", "warnings", "task_ids", "uncorrected_energy_per_atom", "equilibrium_reaction_energy_per_atom", "decomposes_to", "xas", "grain_boundaries", "cbm", "vbm", "is_gap_direct", "is_metal", "es_source_calc_id", "bandstructure", "dos", "dos_energy_up", "dos_energy_down", "is_magnetic", "ordering", "total_magnetization_normalized_vol", "total_magnetization_normalized_formula_units", "num_magnetic_sites", "num_unique_magnetic_sites", "types_of_magnetic_species", "bulk_modulus", "shear_modulus", "universal_anisotropy", "homogeneous_poisson", "e_total", "e_ionic", "e_electronic", "n", "e_ij_max", "weighted_surface_energy_EV_PER_ANG2", "weighted_surface_energy", "weighted_work_function", "surface_anisotropy", "shape_factor", "has_reconstructed", "possible_species", "has_props", "theoretical", "database_IDs"]}