{"builder_meta": null, "nsites": null, "elements": null, "nelements": null, "composition": null, "composition_reduced": null, "formula_pretty": "Ag2Se", "formula_anonymous": "AB2", "chemsys": null, "volume": 246.38423132538338, "density": 7.944581231582495, "density_atomic": 20.532019277115282, "symmetry": null, "property_name": null, "material_id": "mp-2047939", "deprecated": null, "deprecation_reasons": null, "last_updated": null, "origins": null, "warnings": null, "structure": {"@module": "pymatgen.core.structure", "@class": "Structure", "charge": 0, "lattice": {"matrix": [[5.26546179, 0.0, 0.0], [0.0, 6.88321134, 0.0], [0.0, 0.0, 6.79806542]], "pbc": [true, true, true], "a": 5.26546179, "b": 6.88321134, "c": 6.79806542, "alpha": 90.0, "beta": 90.0, "gamma": 90.0, "volume": 246.38423132538338}, "properties": {}, "sites": [{"species": [{"element": "Ag", "occu": 1}], "abc": [0.63216041, 0.33416645, 0.46281893], "properties": {"magmom": 0.0}, "label": "Ag", "xyz": [3.328616484005734, 2.300138298087543, 3.1462733637544007]}, {"species": [{"element": "Ag", "occu": 1}], "abc": [0.3525531, 0.44659815, 0.84280991], "properties": {"magmom": 0.0}, "label": "Ag", "xyz": [1.856354876996049, 3.074029450503021, 5.729476904804313]}, {"species": [{"element": "Ag", "occu": 1}], "abc": [0.1474469, 0.55340185, 0.34280991], "properties": {"magmom": 0.0}, "label": "Ag", "xyz": [0.776376018003951, 3.809181889496979, 2.330444194804312]}, {"species": [{"element": "Ag", "occu": 1}], "abc": [0.86783959, 0.66583355, 0.9628189300000001], "properties": {"magmom": 0.0}, "label": "Ag", "xyz": [4.569576200994266, 4.583073041912457, 6.545306073754402]}, {"species": [{"element": "Ag", "occu": 1}], "abc": [0.13216041, 0.16583355, 0.53718107], "properties": {"magmom": 0.0}, "label": "Ag", "xyz": [0.6958855890057339, 1.141467371912457, 3.6517920562455997]}, {"species": [{"element": "Ag", "occu": 1}], "abc": [0.8525531, 0.05340185, 0.15719009], "properties": {"magmom": 0.0}, "label": "Ag", "xyz": [4.489085771996049, 0.367576219496979, 1.068588515195688]}, {"species": [{"element": "Ag", "occu": 1}], "abc": [0.647446899999999, 0.94659815, 0.6571900900000001], "properties": {"magmom": 0.0}, "label": "Ag", "xyz": [3.4091069130039457, 6.515635120503021, 4.467621225195688]}, {"species": [{"element": "Ag", "occu": 1}], "abc": [0.36783959, 0.83416645, 0.037181070000000004], "properties": {"magmom": 0.0}, "label": "Ag", "xyz": [1.936845305994266, 5.741743968087543, 0.2527593462455994]}, {"species": [{"element": "Se", "occu": 1}], "abc": [0.17979467000000002, 0.78527658, 0.6832267200000001], "properties": {"magmom": 0.0}, "label": "Se", "xyz": [0.9467019649306594, 5.405224660492417, 4.644619939252023]}, {"species": [{"element": "Se", "occu": 1}], "abc": [0.32020533, 0.21472342, 0.18322672], "properties": {"magmom": 0.0}, "label": "Se", "xyz": [1.6860289300693407, 1.4779866795075827, 1.2455872292520225]}, {"species": [{"element": "Se", "occu": 1}], "abc": [0.67979367, 0.71472342, 0.31677328], "properties": {"magmom": 0.0}, "label": "Se", "xyz": [3.579427594468869, 4.919592349507583, 2.1534454807479775]}, {"species": [{"element": "Se", "occu": 1}], "abc": [0.82020633, 0.28527658, 0.81677328], "properties": {"magmom": 0.0}, "label": "Se", "xyz": [4.31876509053113, 1.9636189904924173, 5.552478190747978]}]}, "task_ids": null, "uncorrected_energy_per_atom": null, "energy_per_atom": -19.141109517500002, "formation_energy_per_atom": -0.13333801052083202, "energy_above_hull": 0.0, "is_stable": true, "equilibrium_reaction_energy_per_atom": null, "decomposes_to": null, "xas": null, "grain_boundaries": null, "band_gap": 0.0, "cbm": null, "vbm": null, "efermi": 6.25982168, "is_gap_direct": null, "is_metal": null, "es_source_calc_id": null, "bandstructure": null, "dos": null, "dos_energy_up": null, "dos_energy_down": null, "is_magnetic": null, "ordering": null, "total_magnetization": 0.0, "total_magnetization_normalized_vol": null, "total_magnetization_normalized_formula_units": null, "num_magnetic_sites": null, "num_unique_magnetic_sites": null, "types_of_magnetic_species": null, "bulk_modulus": null, "shear_modulus": null, "universal_anisotropy": null, "homogeneous_poisson": null, "e_total": null, "e_ionic": null, "e_electronic": null, "n": null, "e_ij_max": null, "weighted_surface_energy_EV_PER_ANG2": null, "weighted_surface_energy": null, "weighted_work_function": null, "surface_anisotropy": null, "shape_factor": null, "has_reconstructed": null, "possible_species": null, "has_props": null, "theoretical": null, "database_IDs": null, "fields_not_requested": ["builder_meta", "nsites", "elements", "nelements", "composition", "composition_reduced", "chemsys", "symmetry", "property_name", "deprecated", "deprecation_reasons", "last_updated", "origins", "warnings", "task_ids", "uncorrected_energy_per_atom", "equilibrium_reaction_energy_per_atom", "decomposes_to", "xas", "grain_boundaries", "cbm", "vbm", "is_gap_direct", "is_metal", "es_source_calc_id", "bandstructure", "dos", "dos_energy_up", "dos_energy_down", "is_magnetic", "ordering", "total_magnetization_normalized_vol", "total_magnetization_normalized_formula_units", "num_magnetic_sites", "num_unique_magnetic_sites", "types_of_magnetic_species", "bulk_modulus", "shear_modulus", "universal_anisotropy", "homogeneous_poisson", "e_total", "e_ionic", "e_electronic", "n", "e_ij_max", "weighted_surface_energy_EV_PER_ANG2", "weighted_surface_energy", "weighted_work_function", "surface_anisotropy", "shape_factor", "has_reconstructed", "possible_species", "has_props", "theoretical", "database_IDs"]}