{"builder_meta": null, "nsites": null, "elements": null, "nelements": null, "composition": null, "composition_reduced": null, "formula_pretty": "Ag2S", "formula_anonymous": "AB2", "chemsys": null, "volume": 122.88528831267233, "density": 6.697040973874489, "density_atomic": 20.48088138544539, "symmetry": null, "property_name": null, "material_id": "mp-556225", "deprecated": null, "deprecation_reasons": null, "last_updated": null, "origins": null, "warnings": null, "structure": {"@module": "pymatgen.core.structure", "@class": "Structure", "charge": 0, "lattice": {"matrix": [[4.21996157, 0.0, 0.12381616000000001], [0.0, 7.40479848, 0.0], [1.45616183, 0.0, 3.97530996]], "pbc": [true, true, true], "a": 4.221777598802904, "b": 7.40479848, "c": 4.23361506908979, "alpha": 90.0, "beta": 68.20153408763994, "gamma": 90.0, "volume": 122.88528831267232}, "properties": {}, "sites": [{"species": [{"element": "Ag", "occu": 1}], "abc": [0.11388983, 0.75, 0.1040251], "properties": {"magmom": 0.0}, "label": "Ag", "xyz": [0.632088085795766, 5.55359886, 0.4276334175336488]}, {"species": [{"element": "Ag", "occu": 1}], "abc": [0.88611017, 0.25, 0.895974899999999], "properties": {"magmom": 0.0}, "label": "Ag", "xyz": [5.0440353142042325, 1.85119962, 3.6714927024663475]}, {"species": [{"element": "Ag", "occu": 1}], "abc": [0.5, -0.0, 0.5], "properties": {"magmom": 0.0}, "label": "Ag", "xyz": [2.8380617, 0.0, 2.04956306]}, {"species": [{"element": "Ag", "occu": 1}], "abc": [0.5, 0.5, 0.5], "properties": {"magmom": 0.0}, "label": "Ag", "xyz": [2.8380617, 3.70239924, 2.04956306]}, {"species": [{"element": "S", "occu": 1}], "abc": [0.72751259, 0.75, 0.71522419], "properties": {"magmom": -0.0}, "label": "S", "xyz": [4.111557336861834, 5.55359886, 2.933315661385387]}, {"species": [{"element": "S", "occu": 1}], "abc": [0.27248741, 0.25, 0.28477581], "properties": {"magmom": -0.0}, "label": "S", "xyz": [1.564566063138166, 1.85119962, 1.1658104586146134]}]}, "task_ids": null, "uncorrected_energy_per_atom": null, "energy_per_atom": -17.033617435, "formation_energy_per_atom": -0.11803297760416501, "energy_above_hull": 2.027000000026646e-05, "is_stable": false, "equilibrium_reaction_energy_per_atom": null, "decomposes_to": null, "xas": null, "grain_boundaries": null, "band_gap": 1.0853, "cbm": null, "vbm": null, "efermi": 2.31499534, "is_gap_direct": null, "is_metal": null, "es_source_calc_id": null, "bandstructure": null, "dos": null, "dos_energy_up": null, "dos_energy_down": null, "is_magnetic": null, "ordering": null, "total_magnetization": 0.0, "total_magnetization_normalized_vol": null, "total_magnetization_normalized_formula_units": null, "num_magnetic_sites": null, "num_unique_magnetic_sites": null, "types_of_magnetic_species": null, "bulk_modulus": null, "shear_modulus": null, "universal_anisotropy": null, "homogeneous_poisson": null, "e_total": null, "e_ionic": null, "e_electronic": null, "n": null, "e_ij_max": null, "weighted_surface_energy_EV_PER_ANG2": null, "weighted_surface_energy": null, "weighted_work_function": null, "surface_anisotropy": null, "shape_factor": null, "has_reconstructed": null, "possible_species": null, "has_props": null, "theoretical": null, "database_IDs": null, "fields_not_requested": ["builder_meta", "nsites", "elements", "nelements", "composition", "composition_reduced", "chemsys", "symmetry", "property_name", "deprecated", "deprecation_reasons", "last_updated", "origins", "warnings", "task_ids", "uncorrected_energy_per_atom", "equilibrium_reaction_energy_per_atom", "decomposes_to", "xas", "grain_boundaries", "cbm", "vbm", "is_gap_direct", "is_metal", "es_source_calc_id", "bandstructure", "dos", "dos_energy_up", "dos_energy_down", "is_magnetic", "ordering", "total_magnetization_normalized_vol", "total_magnetization_normalized_formula_units", "num_magnetic_sites", "num_unique_magnetic_sites", "types_of_magnetic_species", "bulk_modulus", "shear_modulus", "universal_anisotropy", "homogeneous_poisson", "e_total", "e_ionic", "e_electronic", "n", "e_ij_max", "weighted_surface_energy_EV_PER_ANG2", "weighted_surface_energy", "weighted_work_function", "surface_anisotropy", "shape_factor", "has_reconstructed", "possible_species", "has_props", "theoretical", "database_IDs"]}