{"builder_meta": null, "nsites": null, "elements": null, "nelements": null, "composition": null, "composition_reduced": null, "formula_pretty": "Ag2Te", "formula_anonymous": "AB2", "chemsys": null, "volume": 276.5377143946268, "density": 8.246593148191318, "density_atomic": 23.044809532885566, "symmetry": null, "property_name": null, "material_id": "mp-1592", "deprecated": null, "deprecation_reasons": null, "last_updated": null, "origins": null, "warnings": null, "structure": {"@module": "pymatgen.core.structure", "@class": "Structure", "charge": 0, "lattice": {"matrix": [[4.5053505099999995, 0.0, 0.0], [0.0, 7.73839384, -3.1451828], [0.0, -0.0613228, 7.95678242]], "pbc": [true, true, true], "a": 4.5053505099999995, "b": 8.353137977333175, "c": 7.957018723430333, "alpha": 112.56029724304172, "beta": 90.0, "gamma": 90.0, "volume": 276.5377143946267}, "properties": {}, "sites": [{"species": [{"element": "Ag", "occu": 1}], "abc": [0.11261704, 0.34009418, 0.374848299999999], "properties": {"magmom": 0.0}, "label": "Ag", "xyz": [0.5073792385986904, 2.608795960200611, 1.9129279982907739]}, {"species": [{"element": "Ag", "occu": 1}], "abc": [0.6126170400000001, 0.15990582, 0.1251517], "properties": {"magmom": 0.0}, "label": "Ag", "xyz": [2.76005449359869, 1.2297395597993888, 0.4928718117092179]}, {"species": [{"element": "Ag", "occu": 1}], "abc": [0.88738296, 0.65990582, 0.6251517], "properties": {"magmom": 0.0}, "label": "Ag", "xyz": [3.9979712714013096, 5.068275079799388, 2.898671621709217]}, {"species": [{"element": "Ag", "occu": 1}], "abc": [0.38738296, 0.84009418, 0.874848299999999], "properties": {"magmom": 0.0}, "label": "Ag", "xyz": [1.7452960164013094, 6.447331480200612, 4.318727808290774]}, {"species": [{"element": "Ag", "occu": 1}], "abc": [0.86077432, 0.65305538, 0.98830639], "properties": {"magmom": 0.0}, "label": "Ag", "xyz": [3.8780900216069027, 4.992994014678167, 5.8097603609021995]}, {"species": [{"element": "Ag", "occu": 1}], "abc": [0.36077432, 0.84694462, 0.51169361], "properties": {"magmom": 0.0}, "label": "Ag", "xyz": [1.625414766606903, 6.522612545321833, 1.4076390690978]}, {"species": [{"element": "Ag", "occu": 1}], "abc": [0.13922568, 0.34694462, 0.01169361], "properties": {"magmom": 0.0}, "label": "Ag", "xyz": [0.6272604883930967, 2.6840770253218325, -0.9981607409021999]}, {"species": [{"element": "Ag", "occu": 1}], "abc": [0.63922568, 0.15305538, 0.48830639000000003], "properties": {"magmom": 0.0}, "label": "Ag", "xyz": [2.8799357433930965, 1.154458494678167, 3.4039605509022]}, {"species": [{"element": "Te", "occu": 1}], "abc": [0.14522795, 0.96955575, 0.24156334000000002], "properties": {"magmom": -0.0}, "label": "Te", "xyz": [0.6543028185987544, 7.487990902950428, -1.1273631315126176]}, {"species": [{"element": "Te", "occu": 1}], "abc": [0.64522795, 0.5304442500000001, 0.25843666], "properties": {"magmom": -0.0}, "label": "Te", "xyz": [2.9069780735987543, 4.088938457049572, 0.3879801415126167]}, {"species": [{"element": "Te", "occu": 1}], "abc": [0.85477205, 0.03044425, 0.75843666], "properties": {"magmom": -0.0}, "label": "Te", "xyz": [3.851047691401245, 0.18908013704957197, 5.9389627515126175]}, {"species": [{"element": "Te", "occu": 1}], "abc": [0.35477205, 0.46955575, 0.74156334], "properties": {"magmom": -0.0}, "label": "Te", "xyz": [1.5983724364012453, 3.588132582950428, 4.423619478487382]}]}, "task_ids": null, "uncorrected_energy_per_atom": null, "energy_per_atom": -22.804849405, "formation_energy_per_atom": -0.09518987166666601, "energy_above_hull": 0.0, "is_stable": true, "equilibrium_reaction_energy_per_atom": null, "decomposes_to": null, "xas": null, "grain_boundaries": null, "band_gap": 0.0, "cbm": null, "vbm": null, "efermi": 4.21154626, "is_gap_direct": null, "is_metal": null, "es_source_calc_id": null, "bandstructure": null, "dos": null, "dos_energy_up": null, "dos_energy_down": null, "is_magnetic": null, "ordering": null, "total_magnetization": 0.0, "total_magnetization_normalized_vol": null, "total_magnetization_normalized_formula_units": null, "num_magnetic_sites": null, "num_unique_magnetic_sites": null, "types_of_magnetic_species": null, "bulk_modulus": null, "shear_modulus": null, "universal_anisotropy": null, "homogeneous_poisson": null, "e_total": null, "e_ionic": null, "e_electronic": null, "n": null, "e_ij_max": null, "weighted_surface_energy_EV_PER_ANG2": null, "weighted_surface_energy": null, "weighted_work_function": null, "surface_anisotropy": null, "shape_factor": null, "has_reconstructed": null, "possible_species": null, "has_props": null, "theoretical": null, "database_IDs": null, "fields_not_requested": ["builder_meta", "nsites", "elements", "nelements", "composition", "composition_reduced", "chemsys", "symmetry", "property_name", "deprecated", "deprecation_reasons", "last_updated", "origins", "warnings", "task_ids", "uncorrected_energy_per_atom", "equilibrium_reaction_energy_per_atom", "decomposes_to", "xas", "grain_boundaries", "cbm", "vbm", "is_gap_direct", "is_metal", "es_source_calc_id", "bandstructure", "dos", "dos_energy_up", "dos_energy_down", "is_magnetic", "ordering", "total_magnetization_normalized_vol", "total_magnetization_normalized_formula_units", "num_magnetic_sites", "num_unique_magnetic_sites", "types_of_magnetic_species", "bulk_modulus", "shear_modulus", "universal_anisotropy", "homogeneous_poisson", "e_total", "e_ionic", "e_electronic", "n", "e_ij_max", "weighted_surface_energy_EV_PER_ANG2", "weighted_surface_energy", "weighted_work_function", "surface_anisotropy", "shape_factor", "has_reconstructed", "possible_species", "has_props", "theoretical", "database_IDs"]}