{
  "builder_meta": null,
  "nsites": null,
  "elements": null,
  "nelements": null,
  "composition": null,
  "composition_reduced": null,
  "formula_pretty": "Ag3Br",
  "formula_anonymous": "AB3",
  "chemsys": null,
  "volume": 175.204749592078,
  "density": 7.648671575046948,
  "density_atomic": 21.90059369900975,
  "symmetry": null,
  "property_name": null,
  "material_id": "mp-1183272",
  "deprecated": null,
  "deprecation_reasons": null,
  "last_updated": null,
  "origins": null,
  "warnings": null,
  "structure": {
    "@module": "pymatgen.core.structure",
    "@class": "Structure",
    "charge": 0,
    "lattice": {
      "matrix": [
        [3.272696, -5.668477, 0.0],
        [3.272696, 5.668477, 0.0],
        [0.0, 0.0, 4.722194]
      ],
      "pbc": [true, true, true],
      "a": 6.545393082767833,
      "b": 6.545393082767833,
      "c": 4.722194,
      "alpha": 90.0,
      "beta": 90.0,
      "gamma": 120.00001094439102,
      "volume": 175.204749592078
    },
    "properties": {},
    "sites": [
      {
        "species": [{ "element": "Ag", "occu": 1 }],
        "abc": [0.147344, 0.294689, 0.25],
        "properties": { "magmom": 0.0 },
        "label": "Ag",
        "xyz": [1.4466396309679999, 0.835221743565, 1.1805485]
      },
      {
        "species": [{ "element": "Ag", "occu": 1 }],
        "abc": [0.705311, 0.852656, 0.25],
        "properties": { "magmom": 0.0 },
        "label": "Ag",
        "xyz": [5.098752369032, 0.835221743565, 1.1805485]
      },
      {
        "species": [{ "element": "Ag", "occu": 1 }],
        "abc": [0.147344, 0.852656, 0.25],
        "properties": { "magmom": -0.001 },
        "label": "Ag",
        "xyz": [3.272696, 3.9980448498240007, 1.1805485]
      },
      {
        "species": [{ "element": "Ag", "occu": 1 }],
        "abc": [0.852656, 0.705311, 0.75],
        "properties": { "magmom": 0.0 },
        "label": "Ag",
        "xyz": [5.098752369032, -0.835221743565, 3.5416455]
      },
      {
        "species": [{ "element": "Ag", "occu": 1 }],
        "abc": [0.294689, 0.147344, 0.75],
        "properties": { "magmom": 0.0 },
        "label": "Ag",
        "xyz": [1.4466396309679999, -0.835221743565, 3.5416455]
      },
      {
        "species": [{ "element": "Ag", "occu": 1 }],
        "abc": [0.852656, 0.147344, 0.75],
        "properties": { "magmom": -0.001 },
        "label": "Ag",
        "xyz": [3.272696, -3.9980448498240007, 3.5416455]
      },
      {
        "species": [{ "element": "Br", "occu": 1 }],
        "abc": [0.333333, 0.666667, 0.75],
        "properties": { "magmom": -0.0 },
        "label": "Br",
        "xyz": [3.272696, 1.8894961123180003, 3.5416455]
      },
      {
        "species": [{ "element": "Br", "occu": 1 }],
        "abc": [0.666667, 0.333333, 0.25],
        "properties": { "magmom": -0.0 },
        "label": "Br",
        "xyz": [3.272696, -1.8894961123180003, 1.1805485]
      }
    ]
  },
  "task_ids": null,
  "uncorrected_energy_per_atom": null,
  "energy_per_atom": -2.58437952,
  "formation_energy_per_atom": -0.042939627499998,
  "energy_above_hull": 0.286870891666667,
  "is_stable": false,
  "equilibrium_reaction_energy_per_atom": null,
  "decomposes_to": null,
  "xas": null,
  "grain_boundaries": null,
  "band_gap": 0.0,
  "cbm": null,
  "vbm": null,
  "efermi": 2.91368239,
  "is_gap_direct": null,
  "is_metal": null,
  "es_source_calc_id": null,
  "bandstructure": null,
  "dos": null,
  "dos_energy_up": null,
  "dos_energy_down": null,
  "is_magnetic": null,
  "ordering": null,
  "total_magnetization": 0.000318,
  "total_magnetization_normalized_vol": null,
  "total_magnetization_normalized_formula_units": null,
  "num_magnetic_sites": null,
  "num_unique_magnetic_sites": null,
  "types_of_magnetic_species": null,
  "bulk_modulus": null,
  "shear_modulus": null,
  "universal_anisotropy": null,
  "homogeneous_poisson": null,
  "e_total": null,
  "e_ionic": null,
  "e_electronic": null,
  "n": null,
  "e_ij_max": null,
  "weighted_surface_energy_EV_PER_ANG2": null,
  "weighted_surface_energy": null,
  "weighted_work_function": null,
  "surface_anisotropy": null,
  "shape_factor": null,
  "has_reconstructed": null,
  "possible_species": null,
  "has_props": null,
  "theoretical": null,
  "database_IDs": null,
  "fields_not_requested": [
    "builder_meta",
    "nsites",
    "elements",
    "nelements",
    "composition",
    "composition_reduced",
    "chemsys",
    "symmetry",
    "property_name",
    "deprecated",
    "deprecation_reasons",
    "last_updated",
    "origins",
    "warnings",
    "task_ids",
    "uncorrected_energy_per_atom",
    "equilibrium_reaction_energy_per_atom",
    "decomposes_to",
    "xas",
    "grain_boundaries",
    "cbm",
    "vbm",
    "is_gap_direct",
    "is_metal",
    "es_source_calc_id",
    "bandstructure",
    "dos",
    "dos_energy_up",
    "dos_energy_down",
    "is_magnetic",
    "ordering",
    "total_magnetization_normalized_vol",
    "total_magnetization_normalized_formula_units",
    "num_magnetic_sites",
    "num_unique_magnetic_sites",
    "types_of_magnetic_species",
    "bulk_modulus",
    "shear_modulus",
    "universal_anisotropy",
    "homogeneous_poisson",
    "e_total",
    "e_ionic",
    "e_electronic",
    "n",
    "e_ij_max",
    "weighted_surface_energy_EV_PER_ANG2",
    "weighted_surface_energy",
    "weighted_work_function",
    "surface_anisotropy",
    "shape_factor",
    "has_reconstructed",
    "possible_species",
    "has_props",
    "theoretical",
    "database_IDs"
  ]
}
