{
  "builder_meta": null,
  "nsites": null,
  "elements": null,
  "nelements": null,
  "composition": null,
  "composition_reduced": null,
  "formula_pretty": "Ag3Cl",
  "formula_anonymous": "AB3",
  "chemsys": null,
  "volume": 162.5152461228093,
  "density": 7.33751677069213,
  "density_atomic": 20.31440576535116,
  "symmetry": null,
  "property_name": null,
  "material_id": "mp-1183265",
  "deprecated": null,
  "deprecation_reasons": null,
  "last_updated": null,
  "origins": null,
  "warnings": null,
  "structure": {
    "@module": "pymatgen.core.structure",
    "@class": "Structure",
    "charge": 0,
    "lattice": {
      "matrix": [
        [3.135101, -5.430155, 0.0],
        [3.135101, 5.430155, 0.0],
        [0.0, 0.0, 4.773098]
      ],
      "pbc": [true, true, true],
      "a": 6.2702026764871,
      "b": 6.2702026764871,
      "c": 4.773098,
      "alpha": 90.0,
      "beta": 90.0,
      "gamma": 120.00000713789136,
      "volume": 162.5152461228093
    },
    "properties": {},
    "sites": [
      {
        "species": [{ "element": "Ag", "occu": 1 }],
        "abc": [0.154706999999999, 0.309413, 0.25],
        "properties": { "magmom": -0.0 },
        "label": "Ag",
        "xyz": [1.455063076119997, 0.8400775594300054, 1.1932745]
      },
      {
        "species": [{ "element": "Ag", "occu": 1 }],
        "abc": [0.690587, 0.845293, 0.25],
        "properties": { "magmom": -0.0 },
        "label": "Ag",
        "xyz": [4.81513892388, 0.8400775594300001, 1.1932745]
      },
      {
        "species": [{ "element": "Ag", "occu": 1 }],
        "abc": [0.154706999999999, 0.845293, 0.25],
        "properties": { "magmom": -0.0 },
        "label": "Ag",
        "xyz": [3.135100999999997, 3.749989020830005, 1.1932745]
      },
      {
        "species": [{ "element": "Ag", "occu": 1 }],
        "abc": [0.845293, 0.690587, 0.75],
        "properties": { "magmom": -0.0 },
        "label": "Ag",
        "xyz": [4.81513892388, -0.8400775594300001, 3.5798235]
      },
      {
        "species": [{ "element": "Ag", "occu": 1 }],
        "abc": [0.309413, 0.154706999999999, 0.75],
        "properties": { "magmom": -0.0 },
        "label": "Ag",
        "xyz": [1.455063076119997, -0.8400775594300054, 3.5798235]
      },
      {
        "species": [{ "element": "Ag", "occu": 1 }],
        "abc": [0.845293, 0.154706999999999, 0.75],
        "properties": { "magmom": -0.0 },
        "label": "Ag",
        "xyz": [3.135100999999997, -3.749989020830005, 3.5798235]
      },
      {
        "species": [{ "element": "Cl", "occu": 1 }],
        "abc": [0.333333, 0.666667, 0.75],
        "properties": { "magmom": 0.0 },
        "label": "Cl",
        "xyz": [3.1351009999999997, 1.81005528677, 3.5798235]
      },
      {
        "species": [{ "element": "Cl", "occu": 1 }],
        "abc": [0.666667, 0.333333, 0.25],
        "properties": { "magmom": 0.0 },
        "label": "Cl",
        "xyz": [3.1351009999999997, -1.81005528677, 1.1932745]
      }
    ]
  },
  "task_ids": null,
  "uncorrected_energy_per_atom": null,
  "energy_per_atom": -17.575752289583335,
  "formation_energy_per_atom": -0.02073470645833,
  "energy_above_hull": 0.26348526041666503,
  "is_stable": false,
  "equilibrium_reaction_energy_per_atom": null,
  "decomposes_to": null,
  "xas": null,
  "grain_boundaries": null,
  "band_gap": 0.0,
  "cbm": null,
  "vbm": null,
  "efermi": 3.08506527,
  "is_gap_direct": null,
  "is_metal": null,
  "es_source_calc_id": null,
  "bandstructure": null,
  "dos": null,
  "dos_energy_up": null,
  "dos_energy_down": null,
  "is_magnetic": null,
  "ordering": null,
  "total_magnetization": 5.22e-5,
  "total_magnetization_normalized_vol": null,
  "total_magnetization_normalized_formula_units": null,
  "num_magnetic_sites": null,
  "num_unique_magnetic_sites": null,
  "types_of_magnetic_species": null,
  "bulk_modulus": null,
  "shear_modulus": null,
  "universal_anisotropy": null,
  "homogeneous_poisson": null,
  "e_total": null,
  "e_ionic": null,
  "e_electronic": null,
  "n": null,
  "e_ij_max": null,
  "weighted_surface_energy_EV_PER_ANG2": null,
  "weighted_surface_energy": null,
  "weighted_work_function": null,
  "surface_anisotropy": null,
  "shape_factor": null,
  "has_reconstructed": null,
  "possible_species": null,
  "has_props": null,
  "theoretical": null,
  "database_IDs": null,
  "fields_not_requested": [
    "builder_meta",
    "nsites",
    "elements",
    "nelements",
    "composition",
    "composition_reduced",
    "chemsys",
    "symmetry",
    "property_name",
    "deprecated",
    "deprecation_reasons",
    "last_updated",
    "origins",
    "warnings",
    "task_ids",
    "uncorrected_energy_per_atom",
    "equilibrium_reaction_energy_per_atom",
    "decomposes_to",
    "xas",
    "grain_boundaries",
    "cbm",
    "vbm",
    "is_gap_direct",
    "is_metal",
    "es_source_calc_id",
    "bandstructure",
    "dos",
    "dos_energy_up",
    "dos_energy_down",
    "is_magnetic",
    "ordering",
    "total_magnetization_normalized_vol",
    "total_magnetization_normalized_formula_units",
    "num_magnetic_sites",
    "num_unique_magnetic_sites",
    "types_of_magnetic_species",
    "bulk_modulus",
    "shear_modulus",
    "universal_anisotropy",
    "homogeneous_poisson",
    "e_total",
    "e_ionic",
    "e_electronic",
    "n",
    "e_ij_max",
    "weighted_surface_energy_EV_PER_ANG2",
    "weighted_surface_energy",
    "weighted_work_function",
    "surface_anisotropy",
    "shape_factor",
    "has_reconstructed",
    "possible_species",
    "has_props",
    "theoretical",
    "database_IDs"
  ]
}
