{
  "builder_meta": null,
  "nsites": null,
  "elements": null,
  "nelements": null,
  "composition": null,
  "composition_reduced": null,
  "formula_pretty": "Ag3F8",
  "formula_anonymous": "A3B8",
  "chemsys": null,
  "volume": 294.2661391457791,
  "density": 5.367513968524786,
  "density_atomic": 13.375733597535413,
  "symmetry": null,
  "property_name": null,
  "material_id": "mp-562412",
  "deprecated": null,
  "deprecation_reasons": null,
  "last_updated": null,
  "origins": null,
  "warnings": null,
  "structure": {
    "@module": "pymatgen.core.structure",
    "@class": "Structure",
    "charge": 0,
    "lattice": {
      "matrix": [
        [4.90631289, 0.03055209, -0.0],
        [-0.62930995, 5.3934025, -0.0],
        [-0.0, -1e-6, 11.11237222]
      ],
      "pbc": [true, true, true],
      "a": 4.906408014503433,
      "b": 5.429992775333615,
      "c": 11.112372220000044,
      "alpha": 90.00000512129076,
      "beta": 90.00000003210651,
      "gamma": 96.29847810750617,
      "volume": 294.2661391457791
    },
    "properties": {},
    "sites": [
      {
        "species": [{ "element": "Ag", "occu": 1 }],
        "abc": [0.27543197, 0.02416434, 0.68504516],
        "properties": { "magmom": 0.023 },
        "label": "Ag",
        "xyz": [1.3361485651319103, 0.1387423490580073, 7.612476805429455]
      },
      {
        "species": [{ "element": "Ag", "occu": 1 }],
        "abc": [0.72456803, 0.97583566, 0.31495484],
        "properties": { "magmom": 0.023 },
        "label": "Ag",
        "xyz": [2.9408543748680898, 5.285211240941992, 3.4998954145705445]
      },
      {
        "species": [{ "element": "Ag", "occu": 1 }],
        "abc": [0.22456803, 0.47583566, 0.18504516000000001],
        "properties": { "magmom": 0.023 },
        "label": "Ag",
        "xyz": [0.8023529048680895, 2.5732340758516723, 2.056290695429455]
      },
      {
        "species": [{ "element": "Ag", "occu": 1 }],
        "abc": [0.77543197, 0.52416434, 0.8149548400000001],
        "properties": { "magmom": 0.023 },
        "label": "Ag",
        "xyz": [3.47465003513191, 2.8507195141483272, 9.056081524570544]
      },
      {
        "species": [{ "element": "Ag", "occu": 1 }],
        "abc": [0.5, 0.0, -0.0],
        "properties": { "magmom": 0.5660000000000001 },
        "label": "Ag",
        "xyz": [2.453156445, 0.015276045, 0.0]
      },
      {
        "species": [{ "element": "Ag", "occu": 1 }],
        "abc": [-0.0, 0.5, 0.5],
        "properties": { "magmom": 0.5660000000000001 },
        "label": "Ag",
        "xyz": [-0.314654975, 2.6967007499999998, 5.55618611]
      },
      {
        "species": [{ "element": "F", "occu": 1 }],
        "abc": [0.20298375, 0.16809488, 0.09157711],
        "properties": { "magmom": 0.08700000000000001 },
        "label": "F",
        "xyz": [0.8901180085574814, 0.9128048322506275, 1.0176389331518843]
      },
      {
        "species": [{ "element": "F", "occu": 1 }],
        "abc": [0.21270898, 0.76726903, 0.2827549],
        "properties": { "magmom": 0.014 },
        "label": "F",
        "xyz": [0.5607667754869037, 4.144689125720443, 3.1420776958288776]
      },
      {
        "species": [{ "element": "F", "occu": 1 }],
        "abc": [0.79701625, 0.83190512, 0.90842289],
        "properties": { "magmom": 0.08700000000000001 },
        "label": "F",
        "xyz": [3.386884931442518, 4.511148757749373, 10.094733286848115]
      },
      {
        "species": [{ "element": "F", "occu": 1 }],
        "abc": [0.70298375, 0.6680948800000001, 0.40842289],
        "properties": { "magmom": 0.08700000000000001 },
        "label": "F",
        "xyz": [3.0286194785574816, 3.6247818104048477, 4.538547176848115]
      },
      {
        "species": [{ "element": "F", "occu": 1 }],
        "abc": [0.74844502, 0.16129611, 0.46631866],
        "properties": { "magmom": 0.079 },
        "label": "F",
        "xyz": [3.570600202163013, 0.8928009362067068, 5.181906523051625]
      },
      {
        "species": [{ "element": "F", "occu": 1 }],
        "abc": [0.79399452, 0.71197748, 0.66771735],
        "properties": { "magmom": 0.008 },
        "label": "F",
        "xyz": [3.447531035725437, 3.8642386448928967, 7.419923730952016]
      },
      {
        "species": [{ "element": "F", "occu": 1 }],
        "abc": [0.20600548, 0.28802252, 0.33228265],
        "properties": { "magmom": 0.008 },
        "label": "F",
        "xyz": [0.8294719042745632, 1.559714945107103, 3.6924484890479827]
      },
      {
        "species": [{ "element": "F", "occu": 1 }],
        "abc": [0.7872910200000001, 0.23273097, 0.7172451],
        "properties": { "magmom": 0.014 },
        "label": "F",
        "xyz": [3.7162361645130964, 1.2792644642795568, 7.970294524171121]
      },
      {
        "species": [{ "element": "F", "occu": 1 }],
        "abc": [0.29399452, 0.21197748, 0.83228265],
        "properties": { "magmom": 0.008 },
        "label": "F",
        "xyz": [1.3090295657254367, 1.1522611853275968, 9.248634599047982]
      },
      {
        "species": [{ "element": "F", "occu": 1 }],
        "abc": [0.71270898, 0.26726903, 0.2172451],
        "properties": { "magmom": 0.014 },
        "label": "F",
        "xyz": [3.328578195486904, 1.4632639862302435, 2.414108414171122]
      },
      {
        "species": [{ "element": "F", "occu": 1 }],
        "abc": [0.75155498, 0.33870389, 0.96631866],
        "properties": { "magmom": 0.079 },
        "label": "F",
        "xyz": [3.4742141578369865, 1.8497270161559733, 10.738092633051625]
      },
      {
        "species": [{ "element": "F", "occu": 1 }],
        "abc": [0.25155498, 0.83870389, 0.53368134],
        "properties": { "magmom": 0.079 },
        "label": "F",
        "xyz": [0.7064027378369865, 4.531152653793293, 5.930465696948374]
      },
      {
        "species": [{ "element": "F", "occu": 1 }],
        "abc": [0.28729102, 0.73273097, 0.782754899999999],
        "properties": { "magmom": 0.014 },
        "label": "F",
        "xyz": [0.9484247445130962, 3.9606896037697563, 8.698263805828867]
      },
      {
        "species": [{ "element": "F", "occu": 1 }],
        "abc": [0.24844502000000002, 0.66129611, 0.033681340000000004],
        "properties": { "magmom": 0.079 },
        "label": "F",
        "xyz": [0.8027887821630133, 3.574226573844027, 0.3742795869483748]
      },
      {
        "species": [{ "element": "F", "occu": 1 }],
        "abc": [0.29701625, 0.33190512, 0.59157711],
        "properties": { "magmom": 0.08700000000000001 },
        "label": "F",
        "xyz": [1.2483834614425184, 1.7991717795951523, 6.573825043151884]
      },
      {
        "species": [{ "element": "F", "occu": 1 }],
        "abc": [0.70600548, 0.7880225200000001, 0.16771735000000002],
        "properties": { "magmom": 0.008 },
        "label": "F",
        "xyz": [2.9679733742745626, 4.271692404672403, 1.8637376209520171]
      }
    ]
  },
  "task_ids": null,
  "uncorrected_energy_per_atom": null,
  "energy_per_atom": -9.29583318590909,
  "formation_energy_per_atom": -1.19802818272727,
  "energy_above_hull": 0.0,
  "is_stable": true,
  "equilibrium_reaction_energy_per_atom": null,
  "decomposes_to": null,
  "xas": null,
  "grain_boundaries": null,
  "band_gap": 0.306899999999999,
  "cbm": null,
  "vbm": null,
  "efermi": -2.15468164,
  "is_gap_direct": null,
  "is_metal": null,
  "es_source_calc_id": null,
  "bandstructure": null,
  "dos": null,
  "dos_energy_up": null,
  "dos_energy_down": null,
  "is_magnetic": null,
  "ordering": null,
  "total_magnetization": 2.0,
  "total_magnetization_normalized_vol": null,
  "total_magnetization_normalized_formula_units": null,
  "num_magnetic_sites": null,
  "num_unique_magnetic_sites": null,
  "types_of_magnetic_species": null,
  "bulk_modulus": null,
  "shear_modulus": null,
  "universal_anisotropy": null,
  "homogeneous_poisson": null,
  "e_total": null,
  "e_ionic": null,
  "e_electronic": null,
  "n": null,
  "e_ij_max": null,
  "weighted_surface_energy_EV_PER_ANG2": null,
  "weighted_surface_energy": null,
  "weighted_work_function": null,
  "surface_anisotropy": null,
  "shape_factor": null,
  "has_reconstructed": null,
  "possible_species": null,
  "has_props": null,
  "theoretical": null,
  "database_IDs": null,
  "fields_not_requested": [
    "builder_meta",
    "nsites",
    "elements",
    "nelements",
    "composition",
    "composition_reduced",
    "chemsys",
    "symmetry",
    "property_name",
    "deprecated",
    "deprecation_reasons",
    "last_updated",
    "origins",
    "warnings",
    "task_ids",
    "uncorrected_energy_per_atom",
    "equilibrium_reaction_energy_per_atom",
    "decomposes_to",
    "xas",
    "grain_boundaries",
    "cbm",
    "vbm",
    "is_gap_direct",
    "is_metal",
    "es_source_calc_id",
    "bandstructure",
    "dos",
    "dos_energy_up",
    "dos_energy_down",
    "is_magnetic",
    "ordering",
    "total_magnetization_normalized_vol",
    "total_magnetization_normalized_formula_units",
    "num_magnetic_sites",
    "num_unique_magnetic_sites",
    "types_of_magnetic_species",
    "bulk_modulus",
    "shear_modulus",
    "universal_anisotropy",
    "homogeneous_poisson",
    "e_total",
    "e_ionic",
    "e_electronic",
    "n",
    "e_ij_max",
    "weighted_surface_energy_EV_PER_ANG2",
    "weighted_surface_energy",
    "weighted_work_function",
    "surface_anisotropy",
    "shape_factor",
    "has_reconstructed",
    "possible_species",
    "has_props",
    "theoretical",
    "database_IDs"
  ]
}
