{
  "builder_meta": null,
  "nsites": null,
  "elements": null,
  "nelements": null,
  "composition": null,
  "composition_reduced": null,
  "formula_pretty": "Ag3Hg",
  "formula_anonymous": "AB3",
  "chemsys": null,
  "volume": 146.85519983019344,
  "density": 11.854474513769265,
  "density_atomic": 18.35689997877418,
  "symmetry": null,
  "property_name": null,
  "material_id": "mp-1183250",
  "deprecated": null,
  "deprecation_reasons": null,
  "last_updated": null,
  "origins": null,
  "warnings": null,
  "structure": {
    "@module": "pymatgen.core.structure",
    "@class": "Structure",
    "charge": 0,
    "lattice": {
      "matrix": [
        [2.95145422, -5.11206753, -0.0],
        [2.95145422, 5.11206753, 0.0],
        [-0.0, 0.0, 4.86661174]
      ],
      "pbc": [true, true, true],
      "a": 5.902907456841596,
      "b": 5.902907456841596,
      "c": 4.86661174,
      "alpha": 90.0,
      "beta": 90.0,
      "gamma": 119.99998898081346,
      "volume": 146.85519983019344
    },
    "properties": {},
    "sites": [
      {
        "species": [{ "element": "Ag", "occu": 1 }],
        "abc": [0.16448757, 0.32897414, 0.25],
        "properties": { "magmom": -0.0 },
        "label": "Ag",
        "xyz": [1.4564296463879163, 0.8408664536180723, 1.216652935]
      },
      {
        "species": [{ "element": "Ag", "occu": 1 }],
        "abc": [0.67102586, 0.83551243, 0.25],
        "properties": { "magmom": -0.0 },
        "label": "Ag",
        "xyz": [4.4464787936120835, 0.8408664536180721, 1.216652935]
      },
      {
        "species": [{ "element": "Ag", "occu": 1 }],
        "abc": [0.16448757, 0.83551243, 0.25],
        "properties": { "magmom": -0.0 },
        "label": "Ag",
        "xyz": [2.9514542199999996, 3.4303243986287955, 1.216652935]
      },
      {
        "species": [{ "element": "Ag", "occu": 1 }],
        "abc": [0.83551243, 0.67102586, 0.75],
        "properties": { "magmom": -0.0 },
        "label": "Ag",
        "xyz": [4.4464787936120835, -0.8408664536180721, 3.649958805]
      },
      {
        "species": [{ "element": "Ag", "occu": 1 }],
        "abc": [0.32897414, 0.16448757, 0.75],
        "properties": { "magmom": -0.0 },
        "label": "Ag",
        "xyz": [1.4564296463879163, -0.8408664536180723, 3.649958805]
      },
      {
        "species": [{ "element": "Ag", "occu": 1 }],
        "abc": [0.83551243, 0.16448757, 0.75],
        "properties": { "magmom": -0.0 },
        "label": "Ag",
        "xyz": [2.9514542199999996, -3.4303243986287955, 3.649958805]
      },
      {
        "species": [{ "element": "Hg", "occu": 1 }],
        "abc": [0.333333, 0.666667, 0.75],
        "properties": { "magmom": -0.0 },
        "label": "Hg",
        "xyz": [2.95145422, 1.7040259180450201, 3.649958805]
      },
      {
        "species": [{ "element": "Hg", "occu": 1 }],
        "abc": [0.666667, 0.333333, 0.25],
        "properties": { "magmom": -0.0 },
        "label": "Hg",
        "xyz": [2.95145422, -1.7040259180450201, 1.216652935]
      }
    ]
  },
  "task_ids": null,
  "uncorrected_energy_per_atom": null,
  "energy_per_atom": -28.33764722625,
  "formation_energy_per_atom": 0.021212263125001,
  "energy_above_hull": 0.021212263125001,
  "is_stable": false,
  "equilibrium_reaction_energy_per_atom": null,
  "decomposes_to": null,
  "xas": null,
  "grain_boundaries": null,
  "band_gap": 0.0,
  "cbm": null,
  "vbm": null,
  "efermi": 3.2545316,
  "is_gap_direct": null,
  "is_metal": null,
  "es_source_calc_id": null,
  "bandstructure": null,
  "dos": null,
  "dos_energy_up": null,
  "dos_energy_down": null,
  "is_magnetic": null,
  "ordering": null,
  "total_magnetization": 0.0,
  "total_magnetization_normalized_vol": null,
  "total_magnetization_normalized_formula_units": null,
  "num_magnetic_sites": null,
  "num_unique_magnetic_sites": null,
  "types_of_magnetic_species": null,
  "bulk_modulus": null,
  "shear_modulus": null,
  "universal_anisotropy": null,
  "homogeneous_poisson": null,
  "e_total": null,
  "e_ionic": null,
  "e_electronic": null,
  "n": null,
  "e_ij_max": null,
  "weighted_surface_energy_EV_PER_ANG2": null,
  "weighted_surface_energy": null,
  "weighted_work_function": null,
  "surface_anisotropy": null,
  "shape_factor": null,
  "has_reconstructed": null,
  "possible_species": null,
  "has_props": null,
  "theoretical": null,
  "database_IDs": null,
  "fields_not_requested": [
    "builder_meta",
    "nsites",
    "elements",
    "nelements",
    "composition",
    "composition_reduced",
    "chemsys",
    "symmetry",
    "property_name",
    "deprecated",
    "deprecation_reasons",
    "last_updated",
    "origins",
    "warnings",
    "task_ids",
    "uncorrected_energy_per_atom",
    "equilibrium_reaction_energy_per_atom",
    "decomposes_to",
    "xas",
    "grain_boundaries",
    "cbm",
    "vbm",
    "is_gap_direct",
    "is_metal",
    "es_source_calc_id",
    "bandstructure",
    "dos",
    "dos_energy_up",
    "dos_energy_down",
    "is_magnetic",
    "ordering",
    "total_magnetization_normalized_vol",
    "total_magnetization_normalized_formula_units",
    "num_magnetic_sites",
    "num_unique_magnetic_sites",
    "types_of_magnetic_species",
    "bulk_modulus",
    "shear_modulus",
    "universal_anisotropy",
    "homogeneous_poisson",
    "e_total",
    "e_ionic",
    "e_electronic",
    "n",
    "e_ij_max",
    "weighted_surface_energy_EV_PER_ANG2",
    "weighted_surface_energy",
    "weighted_work_function",
    "surface_anisotropy",
    "shape_factor",
    "has_reconstructed",
    "possible_species",
    "has_props",
    "theoretical",
    "database_IDs"
  ]
}
