{
  "builder_meta": null,
  "nsites": null,
  "elements": null,
  "nelements": null,
  "composition": null,
  "composition_reduced": null,
  "formula_pretty": "Ag3O",
  "formula_anonymous": "AB3",
  "chemsys": null,
  "volume": 122.23889308286942,
  "density": 9.226616749406004,
  "density_atomic": 15.279861635358678,
  "symmetry": null,
  "property_name": null,
  "material_id": "mp-27819",
  "deprecated": null,
  "deprecation_reasons": null,
  "last_updated": null,
  "origins": null,
  "warnings": null,
  "structure": {
    "@module": "pymatgen.core.structure",
    "@class": "Structure",
    "charge": 0,
    "lattice": {
      "matrix": [
        [5.32705927, 1e-8, -0.0],
        [-2.663529119999999, 4.61336886, -0.0],
        [-0.0, 0.0, 4.97397616]
      ],
      "pbc": [true, true, true],
      "a": 5.32705927,
      "b": 5.327059189788082,
      "c": 4.97397616,
      "alpha": 90.0,
      "beta": 90.0,
      "gamma": 119.99999399449251,
      "volume": 122.23889308286942
    },
    "properties": {},
    "sites": [
      {
        "species": [{ "element": "Ag", "occu": 1 }],
        "abc": [0.68884075, 0.68884075, 0.22050183],
        "properties": { "magmom": -0.0 },
        "label": "Ag",
        "xyz": [1.8347481061736133, 3.177876472437452, 1.096770845656373]
      },
      {
        "species": [{ "element": "Ag", "occu": 1 }],
        "abc": [-0.0, 0.68884075, 0.77949817],
        "properties": { "magmom": -0.0 },
        "label": "Ag",
        "xyz": [-1.8347473966676393, 3.1778764655490446, 3.8772053143436276]
      },
      {
        "species": [{ "element": "Ag", "occu": 1 }],
        "abc": [0.68884075, -0.0, 0.77949817],
        "properties": { "magmom": -0.0 },
        "label": "Ag",
        "xyz": [3.6694955028412526, 6.8884075e-9, 3.8772053143436276]
      },
      {
        "species": [{ "element": "Ag", "occu": 1 }],
        "abc": [0.31115925, 0.31115925, 0.77949817],
        "properties": { "magmom": -0.0 },
        "label": "Ag",
        "xyz": [0.8287820438263879, 1.4354923975625473, 3.8772053143436276]
      },
      {
        "species": [{ "element": "Ag", "occu": 1 }],
        "abc": [0.0, 0.31115925, 0.22050183],
        "properties": { "magmom": -0.0 },
        "label": "Ag",
        "xyz": [-0.8287817233323597, 1.4354923944509548, 1.096770845656373]
      },
      {
        "species": [{ "element": "Ag", "occu": 1 }],
        "abc": [0.31115925, 0.0, 0.22050183],
        "properties": { "magmom": -0.0 },
        "label": "Ag",
        "xyz": [1.6575637671587475, 3.1115925e-9, 1.096770845656373]
      },
      {
        "species": [{ "element": "O", "occu": 1 }],
        "abc": [0.666667, 0.333333, 0.5],
        "properties": { "magmom": -0.0 },
        "label": "O",
        "xyz": [2.663532470196131, 1.5377880888770499, 2.48698808]
      },
      {
        "species": [{ "element": "O", "occu": 1 }],
        "abc": [0.333333, 0.666667, 0.5],
        "properties": { "magmom": -0.0 },
        "label": "O",
        "xyz": [-2.3201961292240725e-6, 3.07558078112295, 2.48698808]
      }
    ]
  },
  "task_ids": null,
  "uncorrected_energy_per_atom": null,
  "energy_per_atom": -3.585757163749999,
  "formation_energy_per_atom": -0.216563653749997,
  "energy_above_hull": 0.020161739583333,
  "is_stable": false,
  "equilibrium_reaction_energy_per_atom": null,
  "decomposes_to": null,
  "xas": null,
  "grain_boundaries": null,
  "band_gap": 0.0,
  "cbm": null,
  "vbm": null,
  "efermi": 2.25022401,
  "is_gap_direct": null,
  "is_metal": null,
  "es_source_calc_id": null,
  "bandstructure": null,
  "dos": null,
  "dos_energy_up": null,
  "dos_energy_down": null,
  "is_magnetic": null,
  "ordering": null,
  "total_magnetization": 0.0,
  "total_magnetization_normalized_vol": null,
  "total_magnetization_normalized_formula_units": null,
  "num_magnetic_sites": null,
  "num_unique_magnetic_sites": null,
  "types_of_magnetic_species": null,
  "bulk_modulus": null,
  "shear_modulus": null,
  "universal_anisotropy": null,
  "homogeneous_poisson": null,
  "e_total": null,
  "e_ionic": null,
  "e_electronic": null,
  "n": null,
  "e_ij_max": null,
  "weighted_surface_energy_EV_PER_ANG2": null,
  "weighted_surface_energy": null,
  "weighted_work_function": null,
  "surface_anisotropy": null,
  "shape_factor": null,
  "has_reconstructed": null,
  "possible_species": null,
  "has_props": null,
  "theoretical": null,
  "database_IDs": null,
  "fields_not_requested": [
    "builder_meta",
    "nsites",
    "elements",
    "nelements",
    "composition",
    "composition_reduced",
    "chemsys",
    "symmetry",
    "property_name",
    "deprecated",
    "deprecation_reasons",
    "last_updated",
    "origins",
    "warnings",
    "task_ids",
    "uncorrected_energy_per_atom",
    "equilibrium_reaction_energy_per_atom",
    "decomposes_to",
    "xas",
    "grain_boundaries",
    "cbm",
    "vbm",
    "is_gap_direct",
    "is_metal",
    "es_source_calc_id",
    "bandstructure",
    "dos",
    "dos_energy_up",
    "dos_energy_down",
    "is_magnetic",
    "ordering",
    "total_magnetization_normalized_vol",
    "total_magnetization_normalized_formula_units",
    "num_magnetic_sites",
    "num_unique_magnetic_sites",
    "types_of_magnetic_species",
    "bulk_modulus",
    "shear_modulus",
    "universal_anisotropy",
    "homogeneous_poisson",
    "e_total",
    "e_ionic",
    "e_electronic",
    "n",
    "e_ij_max",
    "weighted_surface_energy_EV_PER_ANG2",
    "weighted_surface_energy",
    "weighted_work_function",
    "surface_anisotropy",
    "shape_factor",
    "has_reconstructed",
    "possible_species",
    "has_props",
    "theoretical",
    "database_IDs"
  ]
}
