{"builder_meta": null, "nsites": null, "elements": null, "nelements": null, "composition": null, "composition_reduced": null, "formula_pretty": "Ag3O4", "formula_anonymous": "A3B4", "chemsys": null, "volume": 182.6046271942463, "density": 7.049422627340591, "density_atomic": 13.043187656731877, "symmetry": null, "property_name": null, "material_id": "mp-1605", "deprecated": null, "deprecation_reasons": null, "last_updated": null, "origins": null, "warnings": null, "structure": {"@module": "pymatgen.core.structure", "@class": "Structure", "charge": 0, "lattice": {"matrix": [[3.60062979, 0.05371741, -1.266e-05], [-1.5129606, 5.47095264, -0.00012298], [-4.537e-05, -0.00020873000000000002, 9.23171217]], "pbc": [true, true, true], "a": 3.6010304698700937, "b": 5.676299197663862, "c": 9.231712172471191, "alpha": 90.00241488836494, "beta": 90.00050231066838, "gamma": 104.60375178932458, "volume": 182.60462719424632}, "properties": {}, "sites": [{"species": [{"element": "Ag", "occu": 1}], "abc": [0.28674917, 0.5491714600000001, 0.8583855300000001], "properties": {"magmom": -0.002}, "label": "Ag", "xyz": [0.20156387718380214, 3.0197153008200277, 7.924296976502258]}, {"species": [{"element": "Ag", "occu": 1}], "abc": [0.71315361, 0.9508220900000001, 0.35840712], "properties": {"magmom": -0.002}, "label": "Ag", "xyz": [1.1292295123013538, 5.24013657799901, 3.3085854108933197]}, {"species": [{"element": "Ag", "occu": 1}], "abc": [0.71325083, 0.45082854, 0.14161447], "properties": {"magmom": -0.002}, "label": "Ag", "xyz": [1.886059942816198, 2.5047460191799726, 1.3072795534977428]}, {"species": [{"element": "Ag", "occu": 1}], "abc": [0.28684639, 0.04917791, 0.64159288], "properties": {"magmom": -0.002}, "label": "Ag", "xyz": [0.9583943076986466, 0.28432474200098995, 5.922991119106681]}, {"species": [{"element": "Ag", "occu": 1}], "abc": [-0.0, 0.5, 0.5], "properties": {"magmom": -0.0}, "label": "Ag", "xyz": [-0.756502985, 2.735371955, 4.615794595]}, {"species": [{"element": "Ag", "occu": 1}], "abc": [-0.0, 0.0, 0.0], "properties": {"magmom": -0.0}, "label": "Ag", "xyz": [0.0, 0.0, 0.0]}, {"species": [{"element": "O", "occu": 1}], "abc": [0.04619338, 0.33092084, 0.6910305800000001], "properties": {"magmom": -0.001}, "label": "O", "xyz": [-0.3343762845675284, 1.8127893931488, 6.379354133775065]}, {"species": [{"element": "O", "occu": 1}], "abc": [0.95382977, 0.16912768, 0.19099949], "properties": {"magmom": -0.001}, "label": "O", "xyz": [3.1784957025945793, 0.9764869248948232, 1.7632194414898186]}, {"species": [{"element": "O", "occu": 1}], "abc": [0.95380662, 0.66907916, 0.30896942], "properties": {"magmom": -0.001}, "label": "O", "xyz": [2.4220001045675286, 3.7116719268512, 2.852222396224935]}, {"species": [{"element": "O", "occu": 1}], "abc": [0.04617023, 0.83087232, 0.8090005100000001], "properties": {"magmom": -0.001}, "label": "O", "xyz": [-1.090871882594579, 4.547974395105177, 7.4683570885101815]}, {"species": [{"element": "O", "occu": 1}], "abc": [0.47514379, 0.27347577, 0.95530196], "properties": {"magmom": -0.002}, "label": "O", "xyz": [1.297015477692917, 1.521497079455806, 8.819033082786277]}, {"species": [{"element": "O", "occu": 1}], "abc": [0.524879499999999, 0.22650186, 0.45531989], "properties": {"magmom": -0.002}, "label": "O", "xyz": [1.5471877159901766, 1.2672810773133656, 4.203347669582849]}, {"species": [{"element": "O", "occu": 1}], "abc": [0.4751205, 0.7734981400000001, 0.54468011], "properties": {"magmom": -0.002}, "label": "O", "xyz": [0.5404361040098203, 4.257180242686634, 5.028228860417151]}, {"species": [{"element": "O", "occu": 1}], "abc": [0.52485621, 0.72652423, 0.04469804], "properties": {"magmom": -0.002}, "label": "O", "xyz": [0.7906083423070833, 4.002964240544194, 0.4125434472137228]}]}, "task_ids": null, "uncorrected_energy_per_atom": null, "energy_per_atom": -4.447254322142856, "formation_energy_per_atom": -0.40144617142857003, "energy_above_hull": 0.0, "is_stable": true, "equilibrium_reaction_energy_per_atom": null, "decomposes_to": null, "xas": null, "grain_boundaries": null, "band_gap": 0.0, "cbm": null, "vbm": null, "efermi": 1.36934779, "is_gap_direct": null, "is_metal": null, "es_source_calc_id": null, "bandstructure": null, "dos": null, "dos_energy_up": null, "dos_energy_down": null, "is_magnetic": null, "ordering": null, "total_magnetization": 0.0191946, "total_magnetization_normalized_vol": null, "total_magnetization_normalized_formula_units": null, "num_magnetic_sites": null, "num_unique_magnetic_sites": null, "types_of_magnetic_species": null, "bulk_modulus": null, "shear_modulus": null, "universal_anisotropy": null, "homogeneous_poisson": null, "e_total": null, "e_ionic": null, "e_electronic": null, "n": null, "e_ij_max": null, "weighted_surface_energy_EV_PER_ANG2": null, "weighted_surface_energy": null, "weighted_work_function": null, "surface_anisotropy": null, "shape_factor": null, "has_reconstructed": null, "possible_species": null, "has_props": null, "theoretical": null, "database_IDs": null, "fields_not_requested": ["builder_meta", "nsites", "elements", "nelements", "composition", "composition_reduced", "chemsys", "symmetry", "property_name", "deprecated", "deprecation_reasons", "last_updated", "origins", "warnings", "task_ids", "uncorrected_energy_per_atom", "equilibrium_reaction_energy_per_atom", "decomposes_to", "xas", "grain_boundaries", "cbm", "vbm", "is_gap_direct", "is_metal", "es_source_calc_id", "bandstructure", "dos", "dos_energy_up", "dos_energy_down", "is_magnetic", "ordering", "total_magnetization_normalized_vol", "total_magnetization_normalized_formula_units", "num_magnetic_sites", "num_unique_magnetic_sites", "types_of_magnetic_species", "bulk_modulus", "shear_modulus", "universal_anisotropy", "homogeneous_poisson", "e_total", "e_ionic", "e_electronic", "n", "e_ij_max", "weighted_surface_energy_EV_PER_ANG2", "weighted_surface_energy", "weighted_work_function", "surface_anisotropy", "shape_factor", "has_reconstructed", "possible_species", "has_props", "theoretical", "database_IDs"]}