{
  "builder_meta": null,
  "nsites": null,
  "elements": null,
  "nelements": null,
  "composition": null,
  "composition_reduced": null,
  "formula_pretty": "Ag3Ru",
  "formula_anonymous": "AB3",
  "chemsys": null,
  "volume": 137.7874669379773,
  "density": 10.235891254320787,
  "density_atomic": 17.223433367247164,
  "symmetry": null,
  "property_name": null,
  "material_id": "mp-1183261",
  "deprecated": null,
  "deprecation_reasons": null,
  "last_updated": null,
  "origins": null,
  "warnings": null,
  "structure": {
    "@module": "pymatgen.core.structure",
    "@class": "Structure",
    "charge": 0,
    "lattice": {
      "matrix": [
        [2.908733, -5.038073, 0.0],
        [2.908733, 5.038073, 0.0],
        [0.0, 0.0, 4.701229]
      ],
      "pbc": [true, true, true],
      "a": 5.8174657041204805,
      "b": 5.8174657041204805,
      "c": 4.701229,
      "alpha": 90.0,
      "beta": 90.0,
      "gamma": 119.99999663509293,
      "volume": 137.7874669379773
    },
    "properties": {},
    "sites": [
      {
        "species": [{ "element": "Ag", "occu": 1 }],
        "abc": [0.168351, 0.336702, 0.25],
        "properties": { "magmom": 0.026000000000000002 },
        "label": "Ag",
        "xyz": [1.4690643278489999, 0.8481646276229999, 1.17530725]
      },
      {
        "species": [{ "element": "Ag", "occu": 1 }],
        "abc": [0.663297999999999, 0.831649, 0.25],
        "properties": { "magmom": 0.026000000000000002 },
        "label": "Ag",
        "xyz": [4.348401672150997, 0.8481646276230044, 1.17530725]
      },
      {
        "species": [{ "element": "Ag", "occu": 1 }],
        "abc": [0.168351, 0.831649, 0.25],
        "properties": { "magmom": 0.026000000000000002 },
        "label": "Ag",
        "xyz": [2.908733, 3.3417437447539995, 1.17530725]
      },
      {
        "species": [{ "element": "Ag", "occu": 1 }],
        "abc": [0.831649, 0.663297999999999, 0.75],
        "properties": { "magmom": 0.026000000000000002 },
        "label": "Ag",
        "xyz": [4.348401672150997, -0.8481646276230044, 3.5259217499999997]
      },
      {
        "species": [{ "element": "Ag", "occu": 1 }],
        "abc": [0.336702, 0.168351, 0.75],
        "properties": { "magmom": 0.026000000000000002 },
        "label": "Ag",
        "xyz": [1.4690643278489999, -0.8481646276229999, 3.5259217499999997]
      },
      {
        "species": [{ "element": "Ag", "occu": 1 }],
        "abc": [0.831649, 0.168351, 0.75],
        "properties": { "magmom": 0.026000000000000002 },
        "label": "Ag",
        "xyz": [2.908733, -3.3417437447539995, 3.5259217499999997]
      },
      {
        "species": [{ "element": "Ru", "occu": 1 }],
        "abc": [0.333333, 0.666667, 0.75],
        "properties": { "magmom": 1.554 },
        "label": "Ru",
        "xyz": [2.908733, 1.679361025382, 3.5259217499999997]
      },
      {
        "species": [{ "element": "Ru", "occu": 1 }],
        "abc": [0.666667, 0.333333, 0.25],
        "properties": { "magmom": 1.599 },
        "label": "Ru",
        "xyz": [2.908733, -1.679361025382, 1.17530725]
      }
    ]
  },
  "task_ids": null,
  "uncorrected_energy_per_atom": null,
  "energy_per_atom": -21.848607503750003,
  "formation_energy_per_atom": 0.5244341787499991,
  "energy_above_hull": 0.5244341787499991,
  "is_stable": false,
  "equilibrium_reaction_energy_per_atom": null,
  "decomposes_to": null,
  "xas": null,
  "grain_boundaries": null,
  "band_gap": 0.0,
  "cbm": null,
  "vbm": null,
  "efermi": 3.53113259,
  "is_gap_direct": null,
  "is_metal": null,
  "es_source_calc_id": null,
  "bandstructure": null,
  "dos": null,
  "dos_energy_up": null,
  "dos_energy_down": null,
  "is_magnetic": null,
  "ordering": null,
  "total_magnetization": 3.3120908,
  "total_magnetization_normalized_vol": null,
  "total_magnetization_normalized_formula_units": null,
  "num_magnetic_sites": null,
  "num_unique_magnetic_sites": null,
  "types_of_magnetic_species": null,
  "bulk_modulus": null,
  "shear_modulus": null,
  "universal_anisotropy": null,
  "homogeneous_poisson": null,
  "e_total": null,
  "e_ionic": null,
  "e_electronic": null,
  "n": null,
  "e_ij_max": null,
  "weighted_surface_energy_EV_PER_ANG2": null,
  "weighted_surface_energy": null,
  "weighted_work_function": null,
  "surface_anisotropy": null,
  "shape_factor": null,
  "has_reconstructed": null,
  "possible_species": null,
  "has_props": null,
  "theoretical": null,
  "database_IDs": null,
  "fields_not_requested": [
    "builder_meta",
    "nsites",
    "elements",
    "nelements",
    "composition",
    "composition_reduced",
    "chemsys",
    "symmetry",
    "property_name",
    "deprecated",
    "deprecation_reasons",
    "last_updated",
    "origins",
    "warnings",
    "task_ids",
    "uncorrected_energy_per_atom",
    "equilibrium_reaction_energy_per_atom",
    "decomposes_to",
    "xas",
    "grain_boundaries",
    "cbm",
    "vbm",
    "is_gap_direct",
    "is_metal",
    "es_source_calc_id",
    "bandstructure",
    "dos",
    "dos_energy_up",
    "dos_energy_down",
    "is_magnetic",
    "ordering",
    "total_magnetization_normalized_vol",
    "total_magnetization_normalized_formula_units",
    "num_magnetic_sites",
    "num_unique_magnetic_sites",
    "types_of_magnetic_species",
    "bulk_modulus",
    "shear_modulus",
    "universal_anisotropy",
    "homogeneous_poisson",
    "e_total",
    "e_ionic",
    "e_electronic",
    "n",
    "e_ij_max",
    "weighted_surface_energy_EV_PER_ANG2",
    "weighted_surface_energy",
    "weighted_work_function",
    "surface_anisotropy",
    "shape_factor",
    "has_reconstructed",
    "possible_species",
    "has_props",
    "theoretical",
    "database_IDs"
  ]
}
