{"builder_meta": null, "nsites": null, "elements": null, "nelements": null, "composition": null, "composition_reduced": null, "formula_pretty": "Ag3S", "formula_anonymous": "AB3", "chemsys": null, "volume": 144.45463049065503, "density": 8.177007044993303, "density_atomic": 18.05682881133188, "symmetry": null, "property_name": null, "material_id": "mp-1183254", "deprecated": null, "deprecation_reasons": null, "last_updated": null, "origins": null, "warnings": null, "structure": {"@module": "pymatgen.core.structure", "@class": "Structure", "charge": 0, "lattice": {"matrix": [[2.987769, -5.174967, 0.0], [2.987769, 5.174967, 0.0], [0.0, 0.0, 4.671398]], "pbc": [true, true, true], "a": 5.975537385746156, "b": 5.975537385746156, "c": 4.671398, "alpha": 90.0, "beta": 90.0, "gamma": 119.99999319915426, "volume": 144.45463049065503}, "properties": {}, "sites": [{"species": [{"element": "Ag", "occu": 1}], "abc": [0.164942, 0.329884, 0.25], "properties": {"magmom": -0.0}, "label": "Ag", "xyz": [1.478425783194, 0.853569406914, 1.1678495]}, {"species": [{"element": "Ag", "occu": 1}], "abc": [0.670115999999999, 0.835058, 0.25], "properties": {"magmom": -0.0}, "label": "Ag", "xyz": [4.497112216805997, 0.8535694069140045, 1.1678495]}, {"species": [{"element": "Ag", "occu": 1}], "abc": [0.164942, 0.835058, 0.25], "properties": {"magmom": -0.0}, "label": "Ag", "xyz": [2.9877689999999997, 3.467828186171999, 1.1678495]}, {"species": [{"element": "Ag", "occu": 1}], "abc": [0.835058, 0.670115999999999, 0.75], "properties": {"magmom": -0.0}, "label": "Ag", "xyz": [4.497112216805997, -0.8535694069140045, 3.5035485]}, {"species": [{"element": "Ag", "occu": 1}], "abc": [0.329884, 0.164942, 0.75], "properties": {"magmom": -0.0}, "label": "Ag", "xyz": [1.478425783194, -0.853569406914, 3.5035485]}, {"species": [{"element": "Ag", "occu": 1}], "abc": [0.835058, 0.164942, 0.75], "properties": {"magmom": -0.0}, "label": "Ag", "xyz": [2.9877689999999997, -3.467828186171999, 3.5035485]}, {"species": [{"element": "S", "occu": 1}], "abc": [0.333333, 0.666667, 0.75], "properties": {"magmom": -0.0}, "label": "S", "xyz": [2.987769, 1.724992449978, 3.5035485]}, {"species": [{"element": "S", "occu": 1}], "abc": [0.666667, 0.333333, 0.25], "properties": {"magmom": -0.0}, "label": "S", "xyz": [2.987769, -1.724992449978, 1.1678495]}]}, "task_ids": null, "uncorrected_energy_per_atom": null, "energy_per_atom": -17.964198881666665, "formation_energy_per_atom": 0.061458747630211, "energy_above_hull": 0.14999868333333302, "is_stable": false, "equilibrium_reaction_energy_per_atom": null, "decomposes_to": null, "xas": null, "grain_boundaries": null, "band_gap": 0.0, "cbm": null, "vbm": null, "efermi": 3.82854009, "is_gap_direct": null, "is_metal": null, "es_source_calc_id": null, "bandstructure": null, "dos": null, "dos_energy_up": null, "dos_energy_down": null, "is_magnetic": null, "ordering": null, "total_magnetization": 0.000290699999999, "total_magnetization_normalized_vol": null, "total_magnetization_normalized_formula_units": null, "num_magnetic_sites": null, "num_unique_magnetic_sites": null, "types_of_magnetic_species": null, "bulk_modulus": null, "shear_modulus": null, "universal_anisotropy": null, "homogeneous_poisson": null, "e_total": null, "e_ionic": null, "e_electronic": null, "n": null, "e_ij_max": null, "weighted_surface_energy_EV_PER_ANG2": null, "weighted_surface_energy": null, "weighted_work_function": null, "surface_anisotropy": null, "shape_factor": null, "has_reconstructed": null, "possible_species": null, "has_props": null, "theoretical": null, "database_IDs": null, "fields_not_requested": ["builder_meta", "nsites", "elements", "nelements", "composition", "composition_reduced", "chemsys", "symmetry", "property_name", "deprecated", "deprecation_reasons", "last_updated", "origins", "warnings", "task_ids", "uncorrected_energy_per_atom", "equilibrium_reaction_energy_per_atom", "decomposes_to", "xas", "grain_boundaries", "cbm", "vbm", "is_gap_direct", "is_metal", "es_source_calc_id", "bandstructure", "dos", "dos_energy_up", "dos_energy_down", "is_magnetic", "ordering", "total_magnetization_normalized_vol", "total_magnetization_normalized_formula_units", "num_magnetic_sites", "num_unique_magnetic_sites", "types_of_magnetic_species", "bulk_modulus", "shear_modulus", "universal_anisotropy", "homogeneous_poisson", "e_total", "e_ionic", "e_electronic", "n", "e_ij_max", "weighted_surface_energy_EV_PER_ANG2", "weighted_surface_energy", "weighted_work_function", "surface_anisotropy", "shape_factor", "has_reconstructed", "possible_species", "has_props", "theoretical", "database_IDs"]}