{
  "builder_meta": null,
  "nsites": null,
  "elements": null,
  "nelements": null,
  "composition": null,
  "composition_reduced": null,
  "formula_pretty": "Ag3Sn",
  "formula_anonymous": "AB3",
  "chemsys": null,
  "volume": 150.81440107395323,
  "density": 9.740192817095668,
  "density_atomic": 18.851800134244154,
  "symmetry": null,
  "property_name": null,
  "material_id": "mp-611",
  "deprecated": null,
  "deprecation_reasons": null,
  "last_updated": null,
  "origins": null,
  "warnings": null,
  "structure": {
    "@module": "pymatgen.core.structure",
    "@class": "Structure",
    "charge": 0,
    "lattice": {
      "matrix": [
        [4.7745809900000005, 0.0, 0.0],
        [0.0, 5.21544277, 0.0],
        [0.0, 0.0, 6.0564253]
      ],
      "pbc": [true, true, true],
      "a": 4.7745809900000005,
      "b": 5.21544277,
      "c": 6.0564253,
      "alpha": 90.0,
      "beta": 90.0,
      "gamma": 90.0,
      "volume": 150.81440107395326
    },
    "properties": {},
    "sites": [
      {
        "species": [{ "element": "Ag", "occu": 1 }],
        "abc": [0.75, 0.32454198, 0.25],
        "properties": { "magmom": 0.0 },
        "label": "Ag",
        "xyz": [3.5809357425000004, 1.6926301231524847, 1.514106325]
      },
      {
        "species": [{ "element": "Ag", "occu": 1 }],
        "abc": [0.25, 0.67545802, 0.75],
        "properties": { "magmom": 0.0 },
        "label": "Ag",
        "xyz": [1.1936452475000001, 3.5228126468475156, 4.542318975]
      },
      {
        "species": [{ "element": "Ag", "occu": 1 }],
        "abc": [0.25, 0.16449661000000002, 0.5013719],
        "properties": { "magmom": 0.0 },
        "label": "Ag",
        "xyz": [1.1936452475000001, 0.8579226553140098, 3.03652145986907]
      },
      {
        "species": [{ "element": "Ag", "occu": 1 }],
        "abc": [0.75, 0.8355033900000001, 0.498628099999999],
        "properties": { "magmom": 0.0 },
        "label": "Ag",
        "xyz": [3.5809357425000004, 4.3575201146859905, 3.019903840130924]
      },
      {
        "species": [{ "element": "Ag", "occu": 1 }],
        "abc": [0.25, 0.16449661000000002, 0.9986280999999991],
        "properties": { "magmom": 0.0 },
        "label": "Ag",
        "xyz": [1.1936452475000001, 0.8579226553140098, 6.048116490130925]
      },
      {
        "species": [{ "element": "Ag", "occu": 1 }],
        "abc": [0.75, 0.8355033900000001, 0.0013719],
        "properties": { "magmom": 0.0 },
        "label": "Ag",
        "xyz": [3.5809357425000004, 4.3575201146859905, 0.008308809869069999]
      },
      {
        "species": [{ "element": "Sn", "occu": 1 }],
        "abc": [0.25, 0.66961496, 0.25],
        "properties": { "magmom": 0.0 },
        "label": "Sn",
        "xyz": [1.1936452475000001, 3.4923385018158393, 1.514106325]
      },
      {
        "species": [{ "element": "Sn", "occu": 1 }],
        "abc": [0.75, 0.33038504, 0.75],
        "properties": { "magmom": 0.0 },
        "label": "Sn",
        "xyz": [3.5809357425000004, 1.7231042681841608, 4.542318975]
      }
    ]
  },
  "task_ids": null,
  "uncorrected_energy_per_atom": null,
  "energy_per_atom": -22.1902763225,
  "formation_energy_per_atom": 0.013177481250000001,
  "energy_above_hull": 0.013177481250000001,
  "is_stable": false,
  "equilibrium_reaction_energy_per_atom": null,
  "decomposes_to": null,
  "xas": null,
  "grain_boundaries": null,
  "band_gap": 0.0,
  "cbm": null,
  "vbm": null,
  "efermi": 5.33017062,
  "is_gap_direct": null,
  "is_metal": null,
  "es_source_calc_id": null,
  "bandstructure": null,
  "dos": null,
  "dos_energy_up": null,
  "dos_energy_down": null,
  "is_magnetic": null,
  "ordering": null,
  "total_magnetization": 0.0,
  "total_magnetization_normalized_vol": null,
  "total_magnetization_normalized_formula_units": null,
  "num_magnetic_sites": null,
  "num_unique_magnetic_sites": null,
  "types_of_magnetic_species": null,
  "bulk_modulus": null,
  "shear_modulus": null,
  "universal_anisotropy": null,
  "homogeneous_poisson": null,
  "e_total": null,
  "e_ionic": null,
  "e_electronic": null,
  "n": null,
  "e_ij_max": null,
  "weighted_surface_energy_EV_PER_ANG2": null,
  "weighted_surface_energy": null,
  "weighted_work_function": null,
  "surface_anisotropy": null,
  "shape_factor": null,
  "has_reconstructed": null,
  "possible_species": null,
  "has_props": null,
  "theoretical": null,
  "database_IDs": null,
  "fields_not_requested": [
    "builder_meta",
    "nsites",
    "elements",
    "nelements",
    "composition",
    "composition_reduced",
    "chemsys",
    "symmetry",
    "property_name",
    "deprecated",
    "deprecation_reasons",
    "last_updated",
    "origins",
    "warnings",
    "task_ids",
    "uncorrected_energy_per_atom",
    "equilibrium_reaction_energy_per_atom",
    "decomposes_to",
    "xas",
    "grain_boundaries",
    "cbm",
    "vbm",
    "is_gap_direct",
    "is_metal",
    "es_source_calc_id",
    "bandstructure",
    "dos",
    "dos_energy_up",
    "dos_energy_down",
    "is_magnetic",
    "ordering",
    "total_magnetization_normalized_vol",
    "total_magnetization_normalized_formula_units",
    "num_magnetic_sites",
    "num_unique_magnetic_sites",
    "types_of_magnetic_species",
    "bulk_modulus",
    "shear_modulus",
    "universal_anisotropy",
    "homogeneous_poisson",
    "e_total",
    "e_ionic",
    "e_electronic",
    "n",
    "e_ij_max",
    "weighted_surface_energy_EV_PER_ANG2",
    "weighted_surface_energy",
    "weighted_work_function",
    "surface_anisotropy",
    "shape_factor",
    "has_reconstructed",
    "possible_species",
    "has_props",
    "theoretical",
    "database_IDs"
  ]
}
