{"builder_meta": null, "nsites": null, "elements": null, "nelements": null, "composition": null, "composition_reduced": null, "formula_pretty": "Ag3Se", "formula_anonymous": "AB3", "chemsys": null, "volume": 152.58666480085938, "density": 8.76189601499747, "density_atomic": 19.073333100107423, "symmetry": null, "property_name": null, "material_id": "mp-1183249", "deprecated": null, "deprecation_reasons": null, "last_updated": null, "origins": null, "warnings": null, "structure": {"@module": "pymatgen.core.structure", "@class": "Structure", "charge": 0, "lattice": {"matrix": [[3.01315, -5.21893, 0.0], [3.01315, 5.21893, 0.0], [0.0, 0.0, 4.851593]], "pbc": [true, true, true], "a": 6.026300960572746, "b": 6.026300960572746, "c": 4.851593, "alpha": 90.0, "beta": 90.0, "gamma": 120.00001054560337, "volume": 152.58666480085938}, "properties": {}, "sites": [{"species": [{"element": "Ag", "occu": 1}], "abc": [0.162503999999999, 0.325009, 0.25], "properties": {"magmom": 0.0}, "label": "Ag", "xyz": [1.4689497959499969, 0.8481022196500052, 1.21289825]}, {"species": [{"element": "Ag", "occu": 1}], "abc": [0.674991, 0.837495999999999, 0.25], "properties": {"magmom": 0.0}, "label": "Ag", "xyz": [4.557350204049997, 0.8481022196499945, 1.21289825]}, {"species": [{"element": "Ag", "occu": 1}], "abc": [0.162503999999999, 0.837495999999999, 0.25], "properties": {"magmom": 0.0}, "label": "Ag", "xyz": [3.013149999999994, 3.52273599856, 1.21289825]}, {"species": [{"element": "Ag", "occu": 1}], "abc": [0.837495999999999, 0.674991, 0.75], "properties": {"magmom": -0.0}, "label": "Ag", "xyz": [4.557350204049997, -0.8481022196499945, 3.63869475]}, {"species": [{"element": "Ag", "occu": 1}], "abc": [0.325009, 0.162503999999999, 0.75], "properties": {"magmom": -0.0}, "label": "Ag", "xyz": [1.4689497959499969, -0.8481022196500052, 3.63869475]}, {"species": [{"element": "Ag", "occu": 1}], "abc": [0.837495999999999, 0.162503999999999, 0.75], "properties": {"magmom": -0.0}, "label": "Ag", "xyz": [3.013149999999994, -3.52273599856, 3.63869475]}, {"species": [{"element": "Se", "occu": 1}], "abc": [0.333333, 0.666667, 0.75], "properties": {"magmom": -0.0}, "label": "Se", "xyz": [3.0131500000000004, 1.7396468126200002, 3.63869475]}, {"species": [{"element": "Se", "occu": 1}], "abc": [0.666667, 0.333333, 0.25], "properties": {"magmom": 0.0}, "label": "Se", "xyz": [3.0131500000000004, -1.7396468126200002, 1.21289825]}]}, "task_ids": null, "uncorrected_energy_per_atom": null, "energy_per_atom": -19.624195413541667, "formation_energy_per_atom": -0.029397497057289, "energy_above_hull": 0.07060601083333301, "is_stable": false, "equilibrium_reaction_energy_per_atom": null, "decomposes_to": null, "xas": null, "grain_boundaries": null, "band_gap": 0.0, "cbm": null, "vbm": null, "efermi": 3.63062628, "is_gap_direct": null, "is_metal": null, "es_source_calc_id": null, "bandstructure": null, "dos": null, "dos_energy_up": null, "dos_energy_down": null, "is_magnetic": null, "ordering": null, "total_magnetization": 0.0001727, "total_magnetization_normalized_vol": null, "total_magnetization_normalized_formula_units": null, "num_magnetic_sites": null, "num_unique_magnetic_sites": null, "types_of_magnetic_species": null, "bulk_modulus": null, "shear_modulus": null, "universal_anisotropy": null, "homogeneous_poisson": null, "e_total": null, "e_ionic": null, "e_electronic": null, "n": null, "e_ij_max": null, "weighted_surface_energy_EV_PER_ANG2": null, "weighted_surface_energy": null, "weighted_work_function": null, "surface_anisotropy": null, "shape_factor": null, "has_reconstructed": null, "possible_species": null, "has_props": null, "theoretical": null, "database_IDs": null, "fields_not_requested": ["builder_meta", "nsites", "elements", "nelements", "composition", "composition_reduced", "chemsys", "symmetry", "property_name", "deprecated", "deprecation_reasons", "last_updated", "origins", "warnings", "task_ids", "uncorrected_energy_per_atom", "equilibrium_reaction_energy_per_atom", "decomposes_to", "xas", "grain_boundaries", "cbm", "vbm", "is_gap_direct", "is_metal", "es_source_calc_id", "bandstructure", "dos", "dos_energy_up", "dos_energy_down", "is_magnetic", "ordering", "total_magnetization_normalized_vol", "total_magnetization_normalized_formula_units", "num_magnetic_sites", "num_unique_magnetic_sites", "types_of_magnetic_species", "bulk_modulus", "shear_modulus", "universal_anisotropy", "homogeneous_poisson", "e_total", "e_ionic", "e_electronic", "n", "e_ij_max", "weighted_surface_energy_EV_PER_ANG2", "weighted_surface_energy", "weighted_work_function", "surface_anisotropy", "shape_factor", "has_reconstructed", "possible_species", "has_props", "theoretical", "database_IDs"]}