{"builder_meta": null, "nsites": null, "elements": null, "nelements": null, "composition": null, "composition_reduced": null, "formula_pretty": "Ag8S", "formula_anonymous": "AB8", "chemsys": null, "volume": 190.08262996228714, "density": 7.81870529998439, "density_atomic": 21.120292218031906, "symmetry": null, "property_name": null, "material_id": "mp-28963", "deprecated": null, "deprecation_reasons": null, "last_updated": null, "origins": null, "warnings": null, "structure": {"@module": "pymatgen.core.structure", "@class": "Structure", "charge": 0, "lattice": {"matrix": [[0.0, 4.5635639999999995, 4.5635639999999995], [4.5635639999999995, 0.0, 4.5635639999999995], [4.5635639999999995, 4.5635639999999995, 0.0]], "pbc": [true, true, true], "a": 6.453854101557611, "b": 6.453854101557611, "c": 6.453854101557611, "alpha": 60.00000000000001, "beta": 60.00000000000001, "gamma": 60.00000000000001, "volume": 190.08262996228706}, "properties": {}, "sites": [{"species": [{"element": "Ag", "occu": 1}], "abc": [0.6226700000000001, 0.125777, 0.125777], "properties": {"magmom": 0.0}, "label": "Ag", "xyz": [1.147982778456, 3.415585785108, 3.415585785108]}, {"species": [{"element": "Ag", "occu": 1}], "abc": [0.06333899999999901, 0.645554, 0.645554], "properties": {"magmom": -0.0}, "label": "Ag", "xyz": [5.892053988911999, 3.235078574651995, 3.235078574651995]}, {"species": [{"element": "Ag", "occu": 1}], "abc": [0.645554, 0.645554, 0.06333899999999901], "properties": {"magmom": -0.0}, "label": "Ag", "xyz": [3.235078574651995, 3.235078574651995, 5.892053988911999]}, {"species": [{"element": "Ag", "occu": 1}], "abc": [0.125777, 0.6226700000000001, 0.125777], "properties": {"magmom": -0.0}, "label": "Ag", "xyz": [3.415585785108, 1.147982778456, 3.415585785108]}, {"species": [{"element": "Ag", "occu": 1}], "abc": [0.125777, 0.125777, 0.125777], "properties": {"magmom": 0.0}, "label": "Ag", "xyz": [1.147982778456, 1.147982778456, 1.147982778456]}, {"species": [{"element": "Ag", "occu": 1}], "abc": [0.645554, 0.645554, 0.645554], "properties": {"magmom": -0.0}, "label": "Ag", "xyz": [5.892053988911999, 5.892053988911999, 5.892053988911999]}, {"species": [{"element": "Ag", "occu": 1}], "abc": [0.645554, 0.06333899999999901, 0.645554], "properties": {"magmom": -0.0}, "label": "Ag", "xyz": [3.235078574651995, 5.892053988911999, 3.235078574651995]}, {"species": [{"element": "Ag", "occu": 1}], "abc": [0.125777, 0.125777, 0.6226700000000001], "properties": {"magmom": -0.0}, "label": "Ag", "xyz": [3.415585785108, 3.415585785108, 1.147982778456]}, {"species": [{"element": "S", "occu": 1}], "abc": [0.5, 0.5, 0.5], "properties": {"magmom": -0.0}, "label": "S", "xyz": [4.5635639999999995, 4.5635639999999995, 4.5635639999999995]}]}, "task_ids": null, "uncorrected_energy_per_atom": null, "energy_per_atom": -19.646467608888894, "formation_energy_per_atom": 0.22931197357638602, "energy_above_hull": 0.268663056111108, "is_stable": false, "equilibrium_reaction_energy_per_atom": null, "decomposes_to": null, "xas": null, "grain_boundaries": null, "band_gap": 0.0, "cbm": null, "vbm": null, "efermi": 2.513940599999999, "is_gap_direct": null, "is_metal": null, "es_source_calc_id": null, "bandstructure": null, "dos": null, "dos_energy_up": null, "dos_energy_down": null, "is_magnetic": null, "ordering": null, "total_magnetization": 0.00039969999999900005, "total_magnetization_normalized_vol": null, "total_magnetization_normalized_formula_units": null, "num_magnetic_sites": null, "num_unique_magnetic_sites": null, "types_of_magnetic_species": null, "bulk_modulus": null, "shear_modulus": null, "universal_anisotropy": null, "homogeneous_poisson": null, "e_total": null, "e_ionic": null, "e_electronic": null, "n": null, "e_ij_max": null, "weighted_surface_energy_EV_PER_ANG2": null, "weighted_surface_energy": null, "weighted_work_function": null, "surface_anisotropy": null, "shape_factor": null, "has_reconstructed": null, "possible_species": null, "has_props": null, "theoretical": null, "database_IDs": null, "fields_not_requested": ["builder_meta", "nsites", "elements", "nelements", "composition", "composition_reduced", "chemsys", "symmetry", "property_name", "deprecated", "deprecation_reasons", "last_updated", "origins", "warnings", "task_ids", "uncorrected_energy_per_atom", "equilibrium_reaction_energy_per_atom", "decomposes_to", "xas", "grain_boundaries", "cbm", "vbm", "is_gap_direct", "is_metal", "es_source_calc_id", "bandstructure", "dos", "dos_energy_up", "dos_energy_down", "is_magnetic", "ordering", "total_magnetization_normalized_vol", "total_magnetization_normalized_formula_units", "num_magnetic_sites", "num_unique_magnetic_sites", "types_of_magnetic_species", "bulk_modulus", "shear_modulus", "universal_anisotropy", "homogeneous_poisson", "e_total", "e_ionic", "e_electronic", "n", "e_ij_max", "weighted_surface_energy_EV_PER_ANG2", "weighted_surface_energy", "weighted_work_function", "surface_anisotropy", "shape_factor", "has_reconstructed", "possible_species", "has_props", "theoretical", "database_IDs"]}