{"builder_meta": null, "nsites": null, "elements": null, "nelements": null, "composition": null, "composition_reduced": null, "formula_pretty": "AgC6", "formula_anonymous": "AB6", "chemsys": null, "volume": 170.20499046953026, "density": 1.755440770114115, "density_atomic": 24.314998638504324, "symmetry": null, "property_name": null, "material_id": "mp-1214982", "deprecated": null, "deprecation_reasons": null, "last_updated": null, "origins": null, "warnings": null, "structure": {"@module": "pymatgen.core.structure", "@class": "Structure", "charge": 0, "lattice": {"matrix": [[2.572782, -6.260844, 0.0], [2.572782, 6.260844, 0.0], [0.0, 0.0, 5.283314]], "pbc": [true, true, true], "a": 6.768853286329968, "b": 6.768853286329968, "c": 5.283314, "alpha": 90.0, "beta": 90.0, "gamma": 135.32132827944818, "volume": 170.20499046953026}, "properties": {}, "sites": [{"species": [{"element": "Ag", "occu": 1}], "abc": [0.0, 0.0, 0.0], "properties": {"magmom": 0.151}, "label": "Ag", "xyz": [0.0, 0.0, 0.0]}, {"species": [{"element": "C", "occu": 1}], "abc": [0.0, 0.0, 0.379602999999999], "properties": {"magmom": 0.169}, "label": "C", "xyz": [0.0, 0.0, 2.0055618443419947]}, {"species": [{"element": "C", "occu": 1}], "abc": [0.0, 0.0, 0.620397], "properties": {"magmom": 0.169}, "label": "C", "xyz": [0.0, 0.0, 3.277752155658]}, {"species": [{"element": "C", "occu": 1}], "abc": [0.37661000000000006, 0.881278, 0.0], "properties": {"magmom": 0.03}, "label": "C", "xyz": [3.2362716044160003, 3.159647619791999, 0.0]}, {"species": [{"element": "C", "occu": 1}], "abc": [0.62339, 0.118722, 0.0], "properties": {"magmom": 0.03}, "label": "C", "xyz": [1.909292395584, -3.1596476197919996, 0.0]}, {"species": [{"element": "C", "occu": 1}], "abc": [0.881278, 0.37661000000000006, 0.0], "properties": {"magmom": 0.03}, "label": "C", "xyz": [3.2362716044160003, -3.159647619791999, 0.0]}, {"species": [{"element": "C", "occu": 1}], "abc": [0.118722, 0.62339, 0.0], "properties": {"magmom": 0.03}, "label": "C", "xyz": [1.909292395584, 3.1596476197919996, 0.0]}]}, "task_ids": null, "uncorrected_energy_per_atom": null, "energy_per_atom": -6.9259397328571435, "formation_energy_per_atom": 1.390478929047618, "energy_above_hull": 1.390478929047617, "is_stable": false, "equilibrium_reaction_energy_per_atom": null, "decomposes_to": null, "xas": null, "grain_boundaries": null, "band_gap": 0.0, "cbm": null, "vbm": null, "efermi": -2.48150594, "is_gap_direct": null, "is_metal": null, "es_source_calc_id": null, "bandstructure": null, "dos": null, "dos_energy_up": null, "dos_energy_down": null, "is_magnetic": null, "ordering": null, "total_magnetization": 0.968073099999999, "total_magnetization_normalized_vol": null, "total_magnetization_normalized_formula_units": null, "num_magnetic_sites": null, "num_unique_magnetic_sites": null, "types_of_magnetic_species": null, "bulk_modulus": null, "shear_modulus": null, "universal_anisotropy": null, "homogeneous_poisson": null, "e_total": null, "e_ionic": null, "e_electronic": null, "n": null, "e_ij_max": null, "weighted_surface_energy_EV_PER_ANG2": null, "weighted_surface_energy": null, "weighted_work_function": null, "surface_anisotropy": null, "shape_factor": null, "has_reconstructed": null, "possible_species": null, "has_props": null, "theoretical": null, "database_IDs": null, "fields_not_requested": ["builder_meta", "nsites", "elements", "nelements", "composition", "composition_reduced", "chemsys", "symmetry", "property_name", "deprecated", "deprecation_reasons", "last_updated", "origins", "warnings", "task_ids", "uncorrected_energy_per_atom", "equilibrium_reaction_energy_per_atom", "decomposes_to", "xas", "grain_boundaries", "cbm", "vbm", "is_gap_direct", "is_metal", "es_source_calc_id", "bandstructure", "dos", "dos_energy_up", "dos_energy_down", "is_magnetic", "ordering", "total_magnetization_normalized_vol", "total_magnetization_normalized_formula_units", "num_magnetic_sites", "num_unique_magnetic_sites", "types_of_magnetic_species", "bulk_modulus", "shear_modulus", "universal_anisotropy", "homogeneous_poisson", "e_total", "e_ionic", "e_electronic", "n", "e_ij_max", "weighted_surface_energy_EV_PER_ANG2", "weighted_surface_energy", "weighted_work_function", "surface_anisotropy", "shape_factor", "has_reconstructed", "possible_species", "has_props", "theoretical", "database_IDs"]}