{"builder_meta": null, "nsites": null, "elements": null, "nelements": null, "composition": null, "composition_reduced": null, "formula_pretty": "AgF2", "formula_anonymous": "AB2", "chemsys": null, "volume": 166.01125269282707, "density": 5.836099364305911, "density_atomic": 13.83427105773559, "symmetry": null, "property_name": null, "material_id": "mp-2284", "deprecated": null, "deprecation_reasons": null, "last_updated": null, "origins": null, "warnings": null, "structure": {"@module": "pymatgen.core.structure", "@class": "Structure", "charge": 0, "lattice": {"matrix": [[5.15029714, 1.79e-06, -6.347000000000001e-05], [1.04e-06, 5.61804978, 1.14e-06], [-0.00010968000000000001, 1.399999999999999e-07, 5.73745983]], "pbc": [true, true, true], "a": 5.150297140391399, "b": 5.618049780000211, "c": 5.737459831048349, "alpha": 89.99998697581596, "beta": 90.00180138128512, "gamma": 89.99996948037851, "volume": 166.01125269282707}, "properties": {}, "sites": [{"species": [{"element": "Ag", "occu": 1}], "abc": [0.5, 0.0, 0.5], "properties": {"magmom": -0.49}, "label": "Ag", "xyz": [2.5750937300000003, 9.649999999999999e-07, 2.86869818]}, {"species": [{"element": "Ag", "occu": 1}], "abc": [0.0, 0.5, 0.5], "properties": {"magmom": 0.49}, "label": "Ag", "xyz": [-5.432e-05, 2.80902496, 2.868730485]}, {"species": [{"element": "Ag", "occu": 1}], "abc": [0.5, 0.5, 0.0], "properties": {"magmom": -0.49}, "label": "Ag", "xyz": [2.57514909, 2.8090257849999998, -3.1165000000000004e-05]}, {"species": [{"element": "Ag", "occu": 1}], "abc": [0.0, 0.0, 0.0], "properties": {"magmom": 0.49}, "label": "Ag", "xyz": [0.0, 0.0, 0.0]}, {"species": [{"element": "F", "occu": 1}], "abc": [0.68411866, 0.30511619, 0.62873397], "properties": {"magmom": 0.001}, "label": "F", "xyz": [3.5233457357976405, 1.7141592566990955, 3.607292823452531]}, {"species": [{"element": "F", "occu": 1}], "abc": [0.18414518, 0.19484882, 0.37126516], "properties": {"magmom": -0.001}, "label": "F", "xyz": [0.9483618761788092, 1.0946707519312542, 2.130107476211603]}, {"species": [{"element": "F", "occu": 1}], "abc": [0.31587022, 0.80513515, 0.8712654400000001], "properties": {"magmom": 0.001}, "label": "F", "xyz": [1.6267307676242675, 4.523290039712623, 4.998831332838483]}, {"species": [{"element": "F", "occu": 1}], "abc": [0.81586525, 0.69486773, 0.12873196], "properties": {"magmom": -0.001}, "label": "F", "xyz": [4.201935067041452, 3.903802976076871, 0.7385434585189615]}, {"species": [{"element": "F", "occu": 1}], "abc": [0.18413475, 0.30513227, 0.87126804], "properties": {"magmom": -0.001}, "label": "F", "xyz": [0.9482534329585487, 1.7142487339231287, 4.998854041481039]}, {"species": [{"element": "F", "occu": 1}], "abc": [0.68412978, 0.19486485, 0.12873456], "properties": {"magmom": 0.001}, "label": "F", "xyz": [3.5234577323757326, 1.0947616702873775, 0.7385661671615171]}, {"species": [{"element": "F", "occu": 1}], "abc": [0.81585482, 0.80515118, 0.62873484], "properties": {"magmom": -0.001}, "label": "F", "xyz": [4.201826623821191, 4.523380958068746, 3.607290023788397]}, {"species": [{"element": "F", "occu": 1}], "abc": [0.31588134, 0.69488381, 0.37126603], "properties": {"magmom": 0.001}, "label": "F", "xyz": [1.6268427642023595, 3.9038924533009043, 2.1301046765474685]}]}, "task_ids": null, "uncorrected_energy_per_atom": null, "energy_per_atom": -10.5142665025, "formation_energy_per_atom": -1.311622154166665, "energy_above_hull": 0.0, "is_stable": true, "equilibrium_reaction_energy_per_atom": null, "decomposes_to": null, "xas": null, "grain_boundaries": null, "band_gap": 0.0, "cbm": null, "vbm": null, "efermi": -1.1013139, "is_gap_direct": null, "is_metal": null, "es_source_calc_id": null, "bandstructure": null, "dos": null, "dos_energy_up": null, "dos_energy_down": null, "is_magnetic": null, "ordering": null, "total_magnetization": 0.0, "total_magnetization_normalized_vol": null, "total_magnetization_normalized_formula_units": null, "num_magnetic_sites": null, "num_unique_magnetic_sites": null, "types_of_magnetic_species": null, "bulk_modulus": null, "shear_modulus": null, "universal_anisotropy": null, "homogeneous_poisson": null, "e_total": null, "e_ionic": null, "e_electronic": null, "n": null, "e_ij_max": null, "weighted_surface_energy_EV_PER_ANG2": null, "weighted_surface_energy": null, "weighted_work_function": null, "surface_anisotropy": null, "shape_factor": null, "has_reconstructed": null, "possible_species": null, "has_props": null, "theoretical": null, "database_IDs": null, "fields_not_requested": ["builder_meta", "nsites", "elements", "nelements", "composition", "composition_reduced", "chemsys", "symmetry", "property_name", "deprecated", "deprecation_reasons", "last_updated", "origins", "warnings", "task_ids", "uncorrected_energy_per_atom", "equilibrium_reaction_energy_per_atom", "decomposes_to", "xas", "grain_boundaries", "cbm", "vbm", "is_gap_direct", "is_metal", "es_source_calc_id", "bandstructure", "dos", "dos_energy_up", "dos_energy_down", "is_magnetic", "ordering", "total_magnetization_normalized_vol", "total_magnetization_normalized_formula_units", "num_magnetic_sites", "num_unique_magnetic_sites", "types_of_magnetic_species", "bulk_modulus", "shear_modulus", "universal_anisotropy", "homogeneous_poisson", "e_total", "e_ionic", "e_electronic", "n", "e_ij_max", "weighted_surface_energy_EV_PER_ANG2", "weighted_surface_energy", "weighted_work_function", "surface_anisotropy", "shape_factor", "has_reconstructed", "possible_species", "has_props", "theoretical", "database_IDs"]}