{"builder_meta": null, "nsites": null, "elements": null, "nelements": null, "composition": null, "composition_reduced": null, "formula_pretty": "AgF3", "formula_anonymous": "AB3", "chemsys": null, "volume": 334.38184645239704, "density": 4.91226665319555, "density_atomic": 13.932576935516543, "symmetry": null, "property_name": null, "material_id": "mp-18536", "deprecated": null, "deprecation_reasons": null, "last_updated": null, "origins": null, "warnings": null, "structure": {"@module": "pymatgen.core.structure", "@class": "Structure", "charge": 0, "lattice": {"matrix": [[5.02700069, 0.0, -0.0], [-2.51350184, 4.3535111, 0.0], [-0.0, 0.0, 15.27897044]], "pbc": [true, true, true], "a": 5.02700069, "b": 5.027002128257616, "c": 15.27897044, "alpha": 90.0, "beta": 90.0, "gamma": 120.0000102111012, "volume": 334.38184645239704}, "properties": {}, "sites": [{"species": [{"element": "Ag", "occu": 1}], "abc": [0.71321373, 0.42642645, 0.75], "properties": {"magmom": -0.0}, "label": "Ag", "xyz": [2.5135022461278056, 1.8564522834085952, 11.45922783]}, {"species": [{"element": "Ag", "occu": 1}], "abc": [0.28678627, 0.71321373, 0.916667], "properties": {"magmom": -0.0}, "label": "Ag", "xyz": [-0.3509892454957366, 3.104983890227403, 14.00572799632348]}, {"species": [{"element": "Ag", "occu": 1}], "abc": [0.42642645, 0.71321373, 0.583333], "properties": {"magmom": -0.0}, "label": "Ag", "xyz": [0.35098203571598763, 3.104983890227403, 8.91272766367652]}, {"species": [{"element": "Ag", "occu": 1}], "abc": [0.57357355, 0.28678627, 0.083332999999999], "properties": {"magmom": -0.0}, "label": "Ag", "xyz": [2.1625168142840128, 1.2485272097725972, 1.2732424436765049]}, {"species": [{"element": "Ag", "occu": 1}], "abc": [0.71321373, 0.28678627, 0.416666999999999], "properties": {"magmom": -0.0}, "label": "Ag", "xyz": [2.864488095495737, 1.2485272097725972, 6.366242776323465]}, {"species": [{"element": "Ag", "occu": 1}], "abc": [0.28678627, 0.57357355, 0.25], "properties": {"magmom": -0.0}, "label": "Ag", "xyz": [-3.396127805421756e-06, 2.497058816591405, 3.81974261]}, {"species": [{"element": "F", "occu": 1}], "abc": [0.8856305800000001, 0.5531038500000001, 0.16382181], "properties": {"magmom": -0.0}, "label": "F", "xyz": [3.061837992059017, 2.4079437504277355, 2.5030285924172966]}, {"species": [{"element": "F", "occu": 1}], "abc": [0.44689615, 0.33252773, 0.49715481], "properties": {"magmom": -0.0}, "label": "F", "xyz": [1.4107381932023206, 1.4476631636128032, 7.596013646093817]}, {"species": [{"element": "F", "occu": 1}], "abc": [0.66747227, 0.11436942, 0.83048781], "properties": {"magmom": -0.0}, "label": "F", "xyz": [3.067915814236134, 0.497908539470562, 12.688998699770337]}, {"species": [{"element": "F", "occu": 1}], "abc": [0.33252773, 0.8856305800000001, 0.33048781], "properties": {"magmom": -0.0}, "label": "F", "xyz": [-0.5544169642361334, 3.8556025605294386, 5.0495134797703365]}, {"species": [{"element": "F", "occu": 1}], "abc": [0.11436942, 0.66747227, 0.50284519], "properties": {"magmom": -0.0}, "label": "F", "xyz": [-1.102757625539077, 2.905847936387197, 7.682956793906184]}, {"species": [{"element": "F", "occu": 1}], "abc": [0.11436942, 0.44689615, 0.6638218100000001], "properties": {"magmom": -0.0}, "label": "F", "xyz": [-0.548339142059016, 1.9455673495722652, 10.142513812417297]}, {"species": [{"element": "F", "occu": 1}], "abc": [0.24605151, 0.0, -0.0], "properties": {"magmom": 0.0}, "label": "F", "xyz": [1.236901110545542, 0.0, 0.0]}, {"species": [{"element": "F", "occu": 1}], "abc": [0.24605151, 0.24605151, 0.166666999999999], "properties": {"magmom": 0.0}, "label": "F", "xyz": [0.6184501874257636, 1.0711879799567612, 2.5465001663234648]}, {"species": [{"element": "F", "occu": 1}], "abc": [-0.0, 0.75394849, 0.833333], "properties": {"magmom": 0.0}, "label": "F", "xyz": [-1.8950509168802214, 3.2823231200432392, 12.73247027367652]}, {"species": [{"element": "F", "occu": 1}], "abc": [0.0, 0.24605151, 0.333333], "properties": {"magmom": 0.0}, "label": "F", "xyz": [-0.6184509231197785, 1.0711879799567612, 5.09298505367652]}, {"species": [{"element": "F", "occu": 1}], "abc": [0.75394849, 0.75394849, 0.666667], "properties": {"magmom": 0.0}, "label": "F", "xyz": [1.8950486625742369, 3.2823231200432392, 10.18598538632348]}, {"species": [{"element": "F", "occu": 1}], "abc": [0.75394849, -0.0, 0.5], "properties": {"magmom": 0.0}, "label": "F", "xyz": [3.7900995794544583, 0.0, 7.63948522]}, {"species": [{"element": "F", "occu": 1}], "abc": [0.8856305800000001, 0.33252773, 0.00284519], "properties": {"magmom": -0.0}, "label": "F", "xyz": [3.616256475539078, 1.4476631636128032, 0.0434715739061836]}, {"species": [{"element": "F", "occu": 1}], "abc": [0.5531038500000001, 0.8856305800000001, 0.16951219], "properties": {"magmom": -0.0}, "label": "F", "xyz": [0.5544193432013897, 3.8556025605294386, 2.5899717402296636]}, {"species": [{"element": "F", "occu": 1}], "abc": [0.33252773, 0.44689615, 0.83617819], "properties": {"magmom": -0.0}, "label": "F", "xyz": [0.548342832840218, 1.9455673495722652, 12.775941847582704]}, {"species": [{"element": "F", "occu": 1}], "abc": [0.66747227, 0.5531038500000001, 0.33617819], "properties": {"magmom": -0.0}, "label": "F", "xyz": [1.9651560171597824, 2.4079437504277355, 5.136456627582703]}, {"species": [{"element": "F", "occu": 1}], "abc": [0.44689615, 0.11436942, 0.6695121900000001], "properties": {"magmom": -0.0}, "label": "F", "xyz": [1.959079506798611, 0.497908539470562, 10.229456960229665]}, {"species": [{"element": "F", "occu": 1}], "abc": [0.5531038500000001, 0.66747227, 0.9971548100000001], "properties": {"magmom": -0.0}, "label": "F", "xyz": [1.1027606567976802, 2.905847936387197, 15.235498866093817]}]}, "task_ids": null, "uncorrected_energy_per_atom": null, "energy_per_atom": -8.8124376825, "formation_energy_per_atom": -1.128947433749999, "energy_above_hull": 0.0, "is_stable": true, "equilibrium_reaction_energy_per_atom": null, "decomposes_to": null, "xas": null, "grain_boundaries": null, "band_gap": 0.20849999999999902, "cbm": null, "vbm": null, "efermi": -2.31708552, "is_gap_direct": null, "is_metal": null, "es_source_calc_id": null, "bandstructure": null, "dos": null, "dos_energy_up": null, "dos_energy_down": null, "is_magnetic": null, "ordering": null, "total_magnetization": 0.0, "total_magnetization_normalized_vol": null, "total_magnetization_normalized_formula_units": null, "num_magnetic_sites": null, "num_unique_magnetic_sites": null, "types_of_magnetic_species": null, "bulk_modulus": null, "shear_modulus": null, "universal_anisotropy": null, "homogeneous_poisson": null, "e_total": null, "e_ionic": null, "e_electronic": null, "n": null, "e_ij_max": null, "weighted_surface_energy_EV_PER_ANG2": null, "weighted_surface_energy": null, "weighted_work_function": null, "surface_anisotropy": null, "shape_factor": null, "has_reconstructed": null, "possible_species": null, "has_props": null, "theoretical": null, "database_IDs": null, "fields_not_requested": ["builder_meta", "nsites", "elements", "nelements", "composition", "composition_reduced", "chemsys", "symmetry", "property_name", "deprecated", "deprecation_reasons", "last_updated", "origins", "warnings", "task_ids", "uncorrected_energy_per_atom", "equilibrium_reaction_energy_per_atom", "decomposes_to", "xas", "grain_boundaries", "cbm", "vbm", "is_gap_direct", "is_metal", "es_source_calc_id", "bandstructure", "dos", "dos_energy_up", "dos_energy_down", "is_magnetic", "ordering", "total_magnetization_normalized_vol", "total_magnetization_normalized_formula_units", "num_magnetic_sites", "num_unique_magnetic_sites", "types_of_magnetic_species", "bulk_modulus", "shear_modulus", "universal_anisotropy", "homogeneous_poisson", "e_total", "e_ionic", "e_electronic", "n", "e_ij_max", "weighted_surface_energy_EV_PER_ANG2", "weighted_surface_energy", "weighted_work_function", "surface_anisotropy", "shape_factor", "has_reconstructed", "possible_species", "has_props", "theoretical", "database_IDs"]}