{
  "builder_meta": null,
  "nsites": null,
  "elements": null,
  "nelements": null,
  "composition": null,
  "composition_reduced": null,
  "formula_pretty": "AgH",
  "formula_anonymous": "AB",
  "chemsys": null,
  "volume": 46.61407852899997,
  "density": 7.757016317640359,
  "density_atomic": 11.653519632249992,
  "symmetry": null,
  "property_name": null,
  "material_id": "mp-1096804",
  "deprecated": null,
  "deprecation_reasons": null,
  "last_updated": null,
  "origins": null,
  "warnings": null,
  "structure": {
    "@module": "pymatgen.core.structure",
    "@class": "Structure",
    "charge": 0,
    "lattice": {
      "matrix": [
        [1.611463, -2.791134999999999, 0.0],
        [1.611463, 2.791134999999999, 0.0],
        [0.0, 0.0, 5.181863]
      ],
      "pbc": [true, true, true],
      "a": 3.2229253153919024,
      "b": 3.2229253153919024,
      "c": 5.181863,
      "alpha": 90.0,
      "beta": 90.0,
      "gamma": 119.9999859465224,
      "volume": 46.61407852899995
    },
    "properties": {},
    "sites": [
      {
        "species": [{ "element": "Ag", "occu": 1 }],
        "abc": [0.666667, 0.333333, 0.497598999999999],
        "properties": { "magmom": -0.0 },
        "label": "Ag",
        "xyz": [1.611463, -0.9303801940899996, 2.578489846936995]
      },
      {
        "species": [{ "element": "Ag", "occu": 1 }],
        "abc": [0.333333, 0.666667, 0.9975989999999991],
        "properties": { "magmom": -0.0 },
        "label": "Ag",
        "xyz": [1.611463, 0.9303801940899996, 5.169421346936995]
      },
      {
        "species": [{ "element": "H", "occu": 1 }],
        "abc": [0.666667, 0.333333, 0.877401],
        "properties": { "magmom": -0.0 },
        "label": "H",
        "xyz": [1.611463, -0.9303801940899996, 4.546571778063]
      },
      {
        "species": [{ "element": "H", "occu": 1 }],
        "abc": [0.333333, 0.666667, 0.377401],
        "properties": { "magmom": -0.0 },
        "label": "H",
        "xyz": [1.611463, 0.9303801940899996, 1.9556402780629998]
      }
    ]
  },
  "task_ids": null,
  "uncorrected_energy_per_atom": null,
  "energy_per_atom": -12.284596376458332,
  "formation_energy_per_atom": 0.120898396666667,
  "energy_above_hull": 0.120898396666667,
  "is_stable": false,
  "equilibrium_reaction_energy_per_atom": null,
  "decomposes_to": null,
  "xas": null,
  "grain_boundaries": null,
  "band_gap": 0.8512000000000001,
  "cbm": null,
  "vbm": null,
  "efermi": 2.4347902,
  "is_gap_direct": null,
  "is_metal": null,
  "es_source_calc_id": null,
  "bandstructure": null,
  "dos": null,
  "dos_energy_up": null,
  "dos_energy_down": null,
  "is_magnetic": null,
  "ordering": null,
  "total_magnetization": 0.0,
  "total_magnetization_normalized_vol": null,
  "total_magnetization_normalized_formula_units": null,
  "num_magnetic_sites": null,
  "num_unique_magnetic_sites": null,
  "types_of_magnetic_species": null,
  "bulk_modulus": null,
  "shear_modulus": null,
  "universal_anisotropy": null,
  "homogeneous_poisson": null,
  "e_total": null,
  "e_ionic": null,
  "e_electronic": null,
  "n": null,
  "e_ij_max": null,
  "weighted_surface_energy_EV_PER_ANG2": null,
  "weighted_surface_energy": null,
  "weighted_work_function": null,
  "surface_anisotropy": null,
  "shape_factor": null,
  "has_reconstructed": null,
  "possible_species": null,
  "has_props": null,
  "theoretical": null,
  "database_IDs": null,
  "fields_not_requested": [
    "builder_meta",
    "nsites",
    "elements",
    "nelements",
    "composition",
    "composition_reduced",
    "chemsys",
    "symmetry",
    "property_name",
    "deprecated",
    "deprecation_reasons",
    "last_updated",
    "origins",
    "warnings",
    "task_ids",
    "uncorrected_energy_per_atom",
    "equilibrium_reaction_energy_per_atom",
    "decomposes_to",
    "xas",
    "grain_boundaries",
    "cbm",
    "vbm",
    "is_gap_direct",
    "is_metal",
    "es_source_calc_id",
    "bandstructure",
    "dos",
    "dos_energy_up",
    "dos_energy_down",
    "is_magnetic",
    "ordering",
    "total_magnetization_normalized_vol",
    "total_magnetization_normalized_formula_units",
    "num_magnetic_sites",
    "num_unique_magnetic_sites",
    "types_of_magnetic_species",
    "bulk_modulus",
    "shear_modulus",
    "universal_anisotropy",
    "homogeneous_poisson",
    "e_total",
    "e_ionic",
    "e_electronic",
    "n",
    "e_ij_max",
    "weighted_surface_energy_EV_PER_ANG2",
    "weighted_surface_energy",
    "weighted_work_function",
    "surface_anisotropy",
    "shape_factor",
    "has_reconstructed",
    "possible_species",
    "has_props",
    "theoretical",
    "database_IDs"
  ]
}
