{
  "builder_meta": null,
  "nsites": null,
  "elements": null,
  "nelements": null,
  "composition": null,
  "composition_reduced": null,
  "formula_pretty": "AgI",
  "formula_anonymous": "AB",
  "chemsys": null,
  "volume": 268.4034289336924,
  "density": 5.809898805745882,
  "density_atomic": 33.55042861671155,
  "symmetry": null,
  "property_name": null,
  "material_id": "mp-580941",
  "deprecated": null,
  "deprecation_reasons": null,
  "last_updated": null,
  "origins": null,
  "warnings": null,
  "structure": {
    "@module": "pymatgen.core.structure",
    "@class": "Structure",
    "charge": 0,
    "lattice": {
      "matrix": [
        [4.5062755800000005, -3.0000000000000004e-8, -0.0],
        [-2.25313884, 3.9025491, 0.0],
        [0.0, 0.0, 15.26236861]
      ],
      "pbc": [true, true, true],
      "a": 4.5062755800000005,
      "b": 4.5062760801161925,
      "c": 15.26236861,
      "alpha": 90.0,
      "beta": 90.0,
      "gamma": 120.00001212588978,
      "volume": 268.40342893369245
    },
    "properties": {},
    "sites": [
      {
        "species": [{ "element": "Ag", "occu": 1 }],
        "abc": [0.0, -0.0, 0.32347407],
        "properties": { "magmom": 0.0 },
        "label": "Ag",
        "xyz": [0.0, 0.0, 4.936980492116943]
      },
      {
        "species": [{ "element": "Ag", "occu": 1 }],
        "abc": [0.666667, 0.333333, 0.42647086],
        "properties": { "magmom": -0.0 },
        "label": "Ag",
        "xyz": [2.2531396931381407, 1.3008483791502898, 6.508955466743704]
      },
      {
        "species": [{ "element": "Ag", "occu": 1 }],
        "abc": [0.333333, 0.666667, 0.92647086],
        "properties": { "magmom": -0.0 },
        "label": "Ag",
        "xyz": [-2.9531381400271783e-6, 2.60170069084971, 14.140139771743705]
      },
      {
        "species": [{ "element": "Ag", "occu": 1 }],
        "abc": [0.0, 0.0, 0.8234740700000001],
        "properties": { "magmom": 0.0 },
        "label": "Ag",
        "xyz": [0.0, 0.0, 12.568164797116943]
      },
      {
        "species": [{ "element": "I", "occu": 1 }],
        "abc": [0.0, 0.0, 0.01163992],
        "properties": { "magmom": 0.0 },
        "label": "I",
        "xyz": [0.0, 0.0, 0.17765274963091118]
      },
      {
        "species": [{ "element": "I", "occu": 1 }],
        "abc": [0.666667, 0.333333, 0.23841515],
        "properties": { "magmom": 0.0 },
        "label": "I",
        "xyz": [2.2531396931381407, 1.3008483791502898, 3.638779901508441]
      },
      {
        "species": [{ "element": "I", "occu": 1 }],
        "abc": [0.333333, 0.666667, 0.73841515],
        "properties": { "magmom": 0.0 },
        "label": "I",
        "xyz": [-2.9531381400271783e-6, 2.60170069084971, 11.26996420650844]
      },
      {
        "species": [{ "element": "I", "occu": 1 }],
        "abc": [0.0, 0.0, 0.51163992],
        "properties": { "magmom": 0.0 },
        "label": "I",
        "xyz": [0.0, 0.0, 7.808837054630911]
      }
    ]
  },
  "task_ids": null,
  "uncorrected_energy_per_atom": null,
  "energy_per_atom": -2.651235045,
  "formation_energy_per_atom": -0.46775989833333204,
  "energy_above_hull": 0.0,
  "is_stable": true,
  "equilibrium_reaction_energy_per_atom": null,
  "decomposes_to": null,
  "xas": null,
  "grain_boundaries": null,
  "band_gap": 1.3759000000000001,
  "cbm": null,
  "vbm": null,
  "efermi": 1.27372464,
  "is_gap_direct": null,
  "is_metal": null,
  "es_source_calc_id": null,
  "bandstructure": null,
  "dos": null,
  "dos_energy_up": null,
  "dos_energy_down": null,
  "is_magnetic": null,
  "ordering": null,
  "total_magnetization": 0.0,
  "total_magnetization_normalized_vol": null,
  "total_magnetization_normalized_formula_units": null,
  "num_magnetic_sites": null,
  "num_unique_magnetic_sites": null,
  "types_of_magnetic_species": null,
  "bulk_modulus": null,
  "shear_modulus": null,
  "universal_anisotropy": null,
  "homogeneous_poisson": null,
  "e_total": null,
  "e_ionic": null,
  "e_electronic": null,
  "n": null,
  "e_ij_max": null,
  "weighted_surface_energy_EV_PER_ANG2": null,
  "weighted_surface_energy": null,
  "weighted_work_function": null,
  "surface_anisotropy": null,
  "shape_factor": null,
  "has_reconstructed": null,
  "possible_species": null,
  "has_props": null,
  "theoretical": null,
  "database_IDs": null,
  "fields_not_requested": [
    "builder_meta",
    "nsites",
    "elements",
    "nelements",
    "composition",
    "composition_reduced",
    "chemsys",
    "symmetry",
    "property_name",
    "deprecated",
    "deprecation_reasons",
    "last_updated",
    "origins",
    "warnings",
    "task_ids",
    "uncorrected_energy_per_atom",
    "equilibrium_reaction_energy_per_atom",
    "decomposes_to",
    "xas",
    "grain_boundaries",
    "cbm",
    "vbm",
    "is_gap_direct",
    "is_metal",
    "es_source_calc_id",
    "bandstructure",
    "dos",
    "dos_energy_up",
    "dos_energy_down",
    "is_magnetic",
    "ordering",
    "total_magnetization_normalized_vol",
    "total_magnetization_normalized_formula_units",
    "num_magnetic_sites",
    "num_unique_magnetic_sites",
    "types_of_magnetic_species",
    "bulk_modulus",
    "shear_modulus",
    "universal_anisotropy",
    "homogeneous_poisson",
    "e_total",
    "e_ionic",
    "e_electronic",
    "n",
    "e_ij_max",
    "weighted_surface_energy_EV_PER_ANG2",
    "weighted_surface_energy",
    "weighted_work_function",
    "surface_anisotropy",
    "shape_factor",
    "has_reconstructed",
    "possible_species",
    "has_props",
    "theoretical",
    "database_IDs"
  ]
}
