{"builder_meta": null, "nsites": null, "elements": null, "nelements": null, "composition": null, "composition_reduced": null, "formula_pretty": "AgO2", "formula_anonymous": "AB2", "chemsys": null, "volume": 172.26764377894028, "density": 5.39287848915329, "density_atomic": 14.355636981578357, "symmetry": null, "property_name": null, "material_id": "mp-1214946", "deprecated": null, "deprecation_reasons": null, "last_updated": null, "origins": null, "warnings": null, "structure": {"@module": "pymatgen.core.structure", "@class": "Structure", "charge": 0, "lattice": {"matrix": [[-2.672824, 2.672824, 6.028413], [2.672824, -2.672824, 6.028413], [2.672824, 2.672824, -6.028413]], "pbc": [true, true, true], "a": 7.115457790509406, "b": 7.115457790509406, "c": 7.115457790509406, "alpha": 135.8727130886369, "beta": 135.8727130886369, "gamma": 64.17718425481449, "volume": 172.26764377894028}, "properties": {}, "sites": [{"species": [{"element": "Ag", "occu": 1}], "abc": [0.5, 0.5, 0.0], "properties": {"magmom": -0.036000000000000004}, "label": "Ag", "xyz": [0.0, 0.0, 6.028413]}, {"species": [{"element": "Ag", "occu": 1}], "abc": [0.25, 0.75, 0.5], "properties": {"magmom": -0.036000000000000004}, "label": "Ag", "xyz": [2.6728239999999994, 2.220446049250313e-16, 3.0142065]}, {"species": [{"element": "Ag", "occu": 1}], "abc": [0.0, 0.0, 0.0], "properties": {"magmom": -0.036000000000000004}, "label": "Ag", "xyz": [0.0, 0.0, 0.0]}, {"species": [{"element": "Ag", "occu": 1}], "abc": [0.75, 0.25, 0.5], "properties": {"magmom": -0.036000000000000004}, "label": "Ag", "xyz": [2.220446049250313e-16, 2.6728239999999994, 3.0142065]}, {"species": [{"element": "O", "occu": 1}], "abc": [0.342205, 0.342205, 0.184409], "properties": {"magmom": -0.108}, "label": "O", "xyz": [0.49289280101599997, 0.49289280101599997, 3.014212528413]}, {"species": [{"element": "O", "occu": 1}], "abc": [0.157795, 0.157795, 0.815591], "properties": {"magmom": -0.109}, "label": "O", "xyz": [2.179931198984, 2.179931198984, -3.0142125284129992]}, {"species": [{"element": "O", "occu": 1}], "abc": [0.092205, 0.407794999999999, 0.5], "properties": {"magmom": -0.112}, "label": "O", "xyz": [2.179928526159997, 0.49289547384000265, -6.217248937900877e-15]}, {"species": [{"element": "O", "occu": 1}], "abc": [0.407794999999999, 0.907794999999999, 0.315591], "properties": {"magmom": -0.108}, "label": "O", "xyz": [2.179931198984, -0.49289280101599997, 6.028406971586988]}, {"species": [{"element": "O", "occu": 1}], "abc": [0.907794999999999, 0.592205, 0.5], "properties": {"magmom": -0.113}, "label": "O", "xyz": [0.49289547384000265, 2.179928526159997, 6.028412999999993]}, {"species": [{"element": "O", "occu": 1}], "abc": [0.592205, 0.092205, 0.684408999999999], "properties": {"magmom": -0.109}, "label": "O", "xyz": [0.4928928010159974, 3.1657168010159973, 6.028413006120559e-06]}, {"species": [{"element": "O", "occu": 1}], "abc": [0.657795, 0.842205, 0.0], "properties": {"magmom": -0.112}, "label": "O", "xyz": [0.49289547383999976, -0.49289547383999976, 9.042619499999999]}, {"species": [{"element": "O", "occu": 1}], "abc": [0.842205, 0.657795, 0.0], "properties": {"magmom": -0.113}, "label": "O", "xyz": [-0.49289547383999976, 0.49289547383999976, 9.042619499999999]}]}, "task_ids": null, "uncorrected_energy_per_atom": null, "energy_per_atom": -4.2525583775, "formation_energy_per_atom": -0.006271814722221001, "energy_above_hull": 0.30596409638888905, "is_stable": false, "equilibrium_reaction_energy_per_atom": null, "decomposes_to": null, "xas": null, "grain_boundaries": null, "band_gap": 0.0, "cbm": null, "vbm": null, "efermi": 1.08818721, "is_gap_direct": null, "is_metal": null, "es_source_calc_id": null, "bandstructure": null, "dos": null, "dos_energy_up": null, "dos_energy_down": null, "is_magnetic": null, "ordering": null, "total_magnetization": 1.1788575, "total_magnetization_normalized_vol": null, "total_magnetization_normalized_formula_units": null, "num_magnetic_sites": null, "num_unique_magnetic_sites": null, "types_of_magnetic_species": null, "bulk_modulus": null, "shear_modulus": null, "universal_anisotropy": null, "homogeneous_poisson": null, "e_total": null, "e_ionic": null, "e_electronic": null, "n": null, "e_ij_max": null, "weighted_surface_energy_EV_PER_ANG2": null, "weighted_surface_energy": null, "weighted_work_function": null, "surface_anisotropy": null, "shape_factor": null, "has_reconstructed": null, "possible_species": null, "has_props": null, "theoretical": null, "database_IDs": null, "fields_not_requested": ["builder_meta", "nsites", "elements", "nelements", "composition", "composition_reduced", "chemsys", "symmetry", "property_name", "deprecated", "deprecation_reasons", "last_updated", "origins", "warnings", "task_ids", "uncorrected_energy_per_atom", "equilibrium_reaction_energy_per_atom", "decomposes_to", "xas", "grain_boundaries", "cbm", "vbm", "is_gap_direct", "is_metal", "es_source_calc_id", "bandstructure", "dos", "dos_energy_up", "dos_energy_down", "is_magnetic", "ordering", "total_magnetization_normalized_vol", "total_magnetization_normalized_formula_units", "num_magnetic_sites", "num_unique_magnetic_sites", "types_of_magnetic_species", "bulk_modulus", "shear_modulus", "universal_anisotropy", "homogeneous_poisson", "e_total", "e_ionic", "e_electronic", "n", "e_ij_max", "weighted_surface_energy_EV_PER_ANG2", "weighted_surface_energy", "weighted_work_function", "surface_anisotropy", "shape_factor", "has_reconstructed", "possible_species", "has_props", "theoretical", "database_IDs"]}