{"builder_meta": null, "nsites": null, "elements": null, "nelements": null, "composition": null, "composition_reduced": null, "formula_pretty": "AgP2", "formula_anonymous": "AB2", "chemsys": null, "volume": 226.41691982451545, "density": 4.98170620894439, "density_atomic": 18.868076652042955, "symmetry": null, "property_name": null, "material_id": "mp-8200", "deprecated": null, "deprecation_reasons": null, "last_updated": null, "origins": null, "warnings": null, "structure": {"@module": "pymatgen.core.structure", "@class": "Structure", "charge": 0, "lattice": {"matrix": [[5.07451564, 0.0, 0.0], [0.0, 5.69956592, -2.4674381800000003], [0.0, 0.01672593, 7.82114993]], "pbc": [true, true, true], "a": 5.07451564, "b": 6.210740925891787, "c": 7.82116781460885, "alpha": 113.28607021520716, "beta": 90.0, "gamma": 90.0, "volume": 226.41691982451545}, "properties": {}, "sites": [{"species": [{"element": "Ag", "occu": 1}], "abc": [0.047756230000000004, 0.7589670900000001, 0.90185538], "properties": {"magmom": 0.0}, "label": "Ag", "xyz": [0.24233973604243725, 4.340867330521577, 5.180841766927626]}, {"species": [{"element": "Ag", "occu": 1}], "abc": [0.5477562300000001, 0.74103291, 0.59814462], "properties": {"magmom": 0.0}, "label": "Ag", "xyz": [2.7795975560424377, 4.233570444478424, 2.8497258580723726]}, {"species": [{"element": "Ag", "occu": 1}], "abc": [0.95224377, 0.24103291000000002, 0.09814462], "properties": {"magmom": 0.0}, "label": "Ag", "xyz": [4.832175903957563, 1.3754245194784238, 0.17286998307237278]}, {"species": [{"element": "Ag", "occu": 1}], "abc": [0.45224377, 0.25896709, 0.40185538], "properties": {"magmom": 0.0}, "label": "Ag", "xyz": [2.294918083957563, 1.4827214055215763, 2.503985891927627]}, {"species": [{"element": "P", "occu": 1}], "abc": [0.40599863, 0.67268535, 0.08425481], "properties": {"magmom": 0.0}, "label": "P", "xyz": [2.0602463977535734, 3.8354237357974954, -1.0008400143829999]}, {"species": [{"element": "P", "occu": 1}], "abc": [0.90599863, 0.82731465, 0.41574519], "properties": {"magmom": 0.0}, "label": "P", "xyz": [4.597504217753574, 4.722288109202505, 1.2102577093829994]}, {"species": [{"element": "P", "occu": 1}], "abc": [0.59400137, 0.32731465, 0.91574519], "properties": {"magmom": 0.0}, "label": "P", "xyz": [3.014269242246427, 1.8808681142025048, 6.354551764382999]}, {"species": [{"element": "P", "occu": 1}], "abc": [0.09400137, 0.17268435000000001, 0.58425481], "properties": {"magmom": 0.0}, "label": "P", "xyz": [0.47701142224642684, 0.9939980412315754, 4.14345650805518]}, {"species": [{"element": "P", "occu": 1}], "abc": [0.7703440300000001, 0.42289671, 0.69963054], "properties": {"magmom": -0.0}, "label": "P", "xyz": [3.90912282841563, 2.4220296474340257, 4.428443860496475]}, {"species": [{"element": "P", "occu": 1}], "abc": [0.27034403, 0.07710329, 0.80036946], "properties": {"magmom": -0.0}, "label": "P", "xyz": [1.3718650084156294, 0.45284220756597465, 6.069561944503525]}, {"species": [{"element": "P", "occu": 1}], "abc": [0.22965597000000001, 0.57710329, 0.30036946000000003], "properties": {"magmom": -0.0}, "label": "P", "xyz": [1.165392811584371, 3.294262202565975, 0.9252678895035256]}, {"species": [{"element": "P", "occu": 1}], "abc": [0.72965597, 0.9228967100000001, 0.19963054], "properties": {"magmom": -0.0}, "label": "P", "xyz": [3.7026506315843712, 5.2634496424340265, -0.715850194503526]}]}, "task_ids": null, "uncorrected_energy_per_atom": null, "energy_per_atom": -13.158262103333334, "formation_energy_per_atom": -0.038252180317459, "energy_above_hull": 0.0009195113636370001, "is_stable": false, "equilibrium_reaction_energy_per_atom": null, "decomposes_to": null, "xas": null, "grain_boundaries": null, "band_gap": 0.6586999999999991, "cbm": null, "vbm": null, "efermi": 5.27508609, "is_gap_direct": null, "is_metal": null, "es_source_calc_id": null, "bandstructure": null, "dos": null, "dos_energy_up": null, "dos_energy_down": null, "is_magnetic": null, "ordering": null, "total_magnetization": 0.0, "total_magnetization_normalized_vol": null, "total_magnetization_normalized_formula_units": null, "num_magnetic_sites": null, "num_unique_magnetic_sites": null, "types_of_magnetic_species": null, "bulk_modulus": null, "shear_modulus": null, "universal_anisotropy": null, "homogeneous_poisson": null, "e_total": null, "e_ionic": null, "e_electronic": null, "n": null, "e_ij_max": null, "weighted_surface_energy_EV_PER_ANG2": null, "weighted_surface_energy": null, "weighted_work_function": null, "surface_anisotropy": null, "shape_factor": null, "has_reconstructed": null, "possible_species": null, "has_props": null, "theoretical": null, "database_IDs": null, "fields_not_requested": ["builder_meta", "nsites", "elements", "nelements", "composition", "composition_reduced", "chemsys", "symmetry", "property_name", "deprecated", "deprecation_reasons", "last_updated", "origins", "warnings", "task_ids", "uncorrected_energy_per_atom", "equilibrium_reaction_energy_per_atom", "decomposes_to", "xas", "grain_boundaries", "cbm", "vbm", "is_gap_direct", "is_metal", "es_source_calc_id", "bandstructure", "dos", "dos_energy_up", "dos_energy_down", "is_magnetic", "ordering", "total_magnetization_normalized_vol", "total_magnetization_normalized_formula_units", "num_magnetic_sites", "num_unique_magnetic_sites", "types_of_magnetic_species", "bulk_modulus", "shear_modulus", "universal_anisotropy", "homogeneous_poisson", "e_total", "e_ionic", "e_electronic", "n", "e_ij_max", "weighted_surface_energy_EV_PER_ANG2", "weighted_surface_energy", "weighted_work_function", "surface_anisotropy", "shape_factor", "has_reconstructed", "possible_species", "has_props", "theoretical", "database_IDs"]}