{"builder_meta": null, "nsites": null, "elements": null, "nelements": null, "composition": null, "composition_reduced": null, "formula_pretty": "AgSe5", "formula_anonymous": "AB5", "chemsys": null, "volume": 638.0752457930655, "density": 2.616306428249072, "density_atomic": 53.172937149422125, "symmetry": null, "property_name": null, "material_id": "mp-1101086", "deprecated": null, "deprecation_reasons": null, "last_updated": null, "origins": null, "warnings": null, "structure": {"@module": "pymatgen.core.structure", "@class": "Structure", "charge": 0, "lattice": {"matrix": [[9.652515, 5.591606, 0.0], [-9.652515, 5.591606, 0.0], [0.0, 3.578689, 5.911053]], "pbc": [true, true, true], "a": 11.155137985899636, "b": 11.155137985899636, "c": 6.909961108973769, "alpha": 74.9534837604248, "beta": 74.9534837604248, "gamma": 119.83342723321708, "volume": 638.0752457930655}, "properties": {}, "sites": [{"species": [{"element": "Ag", "occu": 1}], "abc": [0.366776, 0.334194, 0.704558999999999], "properties": {"magmom": 0.001}, "label": "Ag", "xyz": [0.3144982437300001, 6.440945600970997, 4.164685590626994]}, {"species": [{"element": "Ag", "occu": 1}], "abc": [0.334194, 0.366776, 0.204559], "properties": {"magmom": 0.001}, "label": "Ag", "xyz": [-0.3144982437300001, 4.651601100971, 1.209159090627]}, {"species": [{"element": "Se", "occu": 1}], "abc": [0.141615, 0.280036, 0.029480000000000003], "properties": {"magmom": 0.0}, "label": "Se", "xyz": [-1.336110778815, 2.463206013226, 0.17425784244]}, {"species": [{"element": "Se", "occu": 1}], "abc": [0.280036, 0.141615, 0.5294800000000001], "properties": {"magmom": 0.0}, "label": "Se", "xyz": [1.336110778815, 4.252550513226, 3.1297843424400003]}, {"species": [{"element": "Se", "occu": 1}], "abc": [0.144602999999999, 0.496836, 0.868286999999999], "properties": {"magmom": 0.001}, "label": "Se", "xyz": [-3.399934315995009, 6.694003296776991, 5.132490476210994]}, {"species": [{"element": "Se", "occu": 1}], "abc": [0.496836, 0.144602999999999, 0.368287], "properties": {"magmom": 0.001}, "label": "Se", "xyz": [3.399934315995009, 4.904658796776994, 2.176963976211]}, {"species": [{"element": "Se", "occu": 1}], "abc": [0.712507999999999, 0.406802999999999, 0.158293], "properties": {"magmom": 0.002}, "label": "Se", "xyz": [2.950822098075, 6.825227521342988, 0.9356783125289999]}, {"species": [{"element": "Se", "occu": 1}], "abc": [0.406802999999999, 0.712507999999999, 0.658293], "properties": {"magmom": 0.002}, "label": "Se", "xyz": [-2.950822098075, 8.614572021342989, 3.891204812529]}, {"species": [{"element": "Se", "occu": 1}], "abc": [0.652513999999999, 0.518041, 0.883987], "properties": {"magmom": 0.002}, "label": "Se", "xyz": [1.2980026495949915, 9.708796914372993, 5.225294008311]}, {"species": [{"element": "Se", "occu": 1}], "abc": [0.518041, 0.652513999999999, 0.383986999999999], "properties": {"magmom": 0.001}, "label": "Se", "xyz": [-1.2980026495949915, 7.91945241437299, 2.269767508310994]}, {"species": [{"element": "Se", "occu": 1}], "abc": [0.394617999999999, 0.631656, 0.155496], "properties": {"magmom": 0.005}, "label": "Se", "xyz": [-2.2880128505700092, 6.294991680787994, 0.919145097288]}, {"species": [{"element": "Se", "occu": 1}], "abc": [0.631656, 0.394617999999999, 0.655496], "properties": {"magmom": 0.006}, "label": "Se", "xyz": [2.2880128505700092, 8.084336180787993, 3.8746715972879997]}]}, "task_ids": null, "uncorrected_energy_per_atom": null, "energy_per_atom": -15.371666478502606, "formation_energy_per_atom": 0.11394657144530801, "energy_above_hull": 0.14728107407552002, "is_stable": false, "equilibrium_reaction_energy_per_atom": null, "decomposes_to": null, "xas": null, "grain_boundaries": null, "band_gap": 0.0, "cbm": null, "vbm": null, "efermi": -1.3383744800000001, "is_gap_direct": null, "is_metal": null, "es_source_calc_id": null, "bandstructure": null, "dos": null, "dos_energy_up": null, "dos_energy_down": null, "is_magnetic": null, "ordering": null, "total_magnetization": 0.03504, "total_magnetization_normalized_vol": null, "total_magnetization_normalized_formula_units": null, "num_magnetic_sites": null, "num_unique_magnetic_sites": null, "types_of_magnetic_species": null, "bulk_modulus": null, "shear_modulus": null, "universal_anisotropy": null, "homogeneous_poisson": null, "e_total": null, "e_ionic": null, "e_electronic": null, "n": null, "e_ij_max": null, "weighted_surface_energy_EV_PER_ANG2": null, "weighted_surface_energy": null, "weighted_work_function": null, "surface_anisotropy": null, "shape_factor": null, "has_reconstructed": null, "possible_species": null, "has_props": null, "theoretical": null, "database_IDs": null, "fields_not_requested": ["builder_meta", "nsites", "elements", "nelements", "composition", "composition_reduced", "chemsys", "symmetry", "property_name", "deprecated", "deprecation_reasons", "last_updated", "origins", "warnings", "task_ids", "uncorrected_energy_per_atom", "equilibrium_reaction_energy_per_atom", "decomposes_to", "xas", "grain_boundaries", "cbm", "vbm", "is_gap_direct", "is_metal", "es_source_calc_id", "bandstructure", "dos", "dos_energy_up", "dos_energy_down", "is_magnetic", "ordering", "total_magnetization_normalized_vol", "total_magnetization_normalized_formula_units", "num_magnetic_sites", "num_unique_magnetic_sites", "types_of_magnetic_species", "bulk_modulus", "shear_modulus", "universal_anisotropy", "homogeneous_poisson", "e_total", "e_ionic", "e_electronic", "n", "e_ij_max", "weighted_surface_energy_EV_PER_ANG2", "weighted_surface_energy", "weighted_work_function", "surface_anisotropy", "shape_factor", "has_reconstructed", "possible_species", "has_props", "theoretical", "database_IDs"]}