{
  "builder_meta": null,
  "nsites": null,
  "elements": null,
  "nelements": null,
  "composition": null,
  "composition_reduced": null,
  "formula_pretty": "AgSn3",
  "formula_anonymous": "AB3",
  "chemsys": null,
  "volume": 204.84830783392704,
  "density": 7.522514060079257,
  "density_atomic": 25.60603847924088,
  "symmetry": null,
  "property_name": null,
  "material_id": "mp-1183248",
  "deprecated": null,
  "deprecation_reasons": null,
  "last_updated": null,
  "origins": null,
  "warnings": null,
  "structure": {
    "@module": "pymatgen.core.structure",
    "@class": "Structure",
    "charge": 0,
    "lattice": {
      "matrix": [
        [3.386727, -5.865984, 0.0],
        [3.386727, 5.865984, 0.0],
        [0.0, 0.0, 5.155625]
      ],
      "pbc": [true, true, true],
      "a": 6.773454662193068,
      "b": 6.773454662193068,
      "c": 5.155625,
      "alpha": 90.0,
      "beta": 90.0,
      "gamma": 120.00000646794614,
      "volume": 204.84830783392704
    },
    "properties": {},
    "sites": [
      {
        "species": [{ "element": "Ag", "occu": 1 }],
        "abc": [0.333333, 0.666667, 0.75],
        "properties": { "magmom": -0.0 },
        "label": "Ag",
        "xyz": [3.3867269999999996, 1.9553319106560003, 3.8667187499999995]
      },
      {
        "species": [{ "element": "Ag", "occu": 1 }],
        "abc": [0.666667, 0.333333, 0.25],
        "properties": { "magmom": -0.0 },
        "label": "Ag",
        "xyz": [3.3867269999999996, -1.9553319106560003, 1.28890625]
      },
      {
        "species": [{ "element": "Sn", "occu": 1 }],
        "abc": [0.169518, 0.339036, 0.25],
        "properties": { "magmom": -0.0 },
        "label": "Sn",
        "xyz": [1.722333562758, 0.994389875712, 1.28890625]
      },
      {
        "species": [{ "element": "Sn", "occu": 1 }],
        "abc": [0.660964, 0.830481999999999, 0.25],
        "properties": { "magmom": -0.0 },
        "label": "Sn",
        "xyz": [5.051120437241996, 0.994389875711994, 1.28890625]
      },
      {
        "species": [{ "element": "Sn", "occu": 1 }],
        "abc": [0.169518, 0.830481999999999, 0.25],
        "properties": { "magmom": -0.0 },
        "label": "Sn",
        "xyz": [3.386726999999997, 3.8772042485759943, 1.28890625]
      },
      {
        "species": [{ "element": "Sn", "occu": 1 }],
        "abc": [0.830481999999999, 0.660964, 0.75],
        "properties": { "magmom": -0.0 },
        "label": "Sn",
        "xyz": [5.051120437241996, -0.994389875711994, 3.8667187499999995]
      },
      {
        "species": [{ "element": "Sn", "occu": 1 }],
        "abc": [0.339036, 0.169518, 0.75],
        "properties": { "magmom": -0.0 },
        "label": "Sn",
        "xyz": [1.722333562758, -0.994389875712, 3.8667187499999995]
      },
      {
        "species": [{ "element": "Sn", "occu": 1 }],
        "abc": [0.830481999999999, 0.169518, 0.75],
        "properties": { "magmom": -0.0 },
        "label": "Sn",
        "xyz": [3.386726999999997, -3.8772042485759943, 3.8667187499999995]
      }
    ]
  },
  "task_ids": null,
  "uncorrected_energy_per_atom": null,
  "energy_per_atom": -23.78711600375,
  "formation_energy_per_atom": 0.11149111750000101,
  "energy_above_hull": 0.11149111750000101,
  "is_stable": false,
  "equilibrium_reaction_energy_per_atom": null,
  "decomposes_to": null,
  "xas": null,
  "grain_boundaries": null,
  "band_gap": 0.0,
  "cbm": null,
  "vbm": null,
  "efermi": 6.93293825,
  "is_gap_direct": null,
  "is_metal": null,
  "es_source_calc_id": null,
  "bandstructure": null,
  "dos": null,
  "dos_energy_up": null,
  "dos_energy_down": null,
  "is_magnetic": null,
  "ordering": null,
  "total_magnetization": 0.0005656999999990001,
  "total_magnetization_normalized_vol": null,
  "total_magnetization_normalized_formula_units": null,
  "num_magnetic_sites": null,
  "num_unique_magnetic_sites": null,
  "types_of_magnetic_species": null,
  "bulk_modulus": null,
  "shear_modulus": null,
  "universal_anisotropy": null,
  "homogeneous_poisson": null,
  "e_total": null,
  "e_ionic": null,
  "e_electronic": null,
  "n": null,
  "e_ij_max": null,
  "weighted_surface_energy_EV_PER_ANG2": null,
  "weighted_surface_energy": null,
  "weighted_work_function": null,
  "surface_anisotropy": null,
  "shape_factor": null,
  "has_reconstructed": null,
  "possible_species": null,
  "has_props": null,
  "theoretical": null,
  "database_IDs": null,
  "fields_not_requested": [
    "builder_meta",
    "nsites",
    "elements",
    "nelements",
    "composition",
    "composition_reduced",
    "chemsys",
    "symmetry",
    "property_name",
    "deprecated",
    "deprecation_reasons",
    "last_updated",
    "origins",
    "warnings",
    "task_ids",
    "uncorrected_energy_per_atom",
    "equilibrium_reaction_energy_per_atom",
    "decomposes_to",
    "xas",
    "grain_boundaries",
    "cbm",
    "vbm",
    "is_gap_direct",
    "is_metal",
    "es_source_calc_id",
    "bandstructure",
    "dos",
    "dos_energy_up",
    "dos_energy_down",
    "is_magnetic",
    "ordering",
    "total_magnetization_normalized_vol",
    "total_magnetization_normalized_formula_units",
    "num_magnetic_sites",
    "num_unique_magnetic_sites",
    "types_of_magnetic_species",
    "bulk_modulus",
    "shear_modulus",
    "universal_anisotropy",
    "homogeneous_poisson",
    "e_total",
    "e_ionic",
    "e_electronic",
    "n",
    "e_ij_max",
    "weighted_surface_energy_EV_PER_ANG2",
    "weighted_surface_energy",
    "weighted_work_function",
    "surface_anisotropy",
    "shape_factor",
    "has_reconstructed",
    "possible_species",
    "has_props",
    "theoretical",
    "database_IDs"
  ]
}
