{
  "builder_meta": null,
  "nsites": null,
  "elements": null,
  "nelements": null,
  "composition": null,
  "composition_reduced": null,
  "formula_pretty": "AgTe3",
  "formula_anonymous": "AB3",
  "chemsys": null,
  "volume": 113.88237041063722,
  "density": 7.154520158830463,
  "density_atomic": 28.470592602659305,
  "symmetry": null,
  "property_name": null,
  "material_id": "mp-28246",
  "deprecated": null,
  "deprecation_reasons": null,
  "last_updated": null,
  "origins": null,
  "warnings": null,
  "structure": {
    "@module": "pymatgen.core.structure",
    "@class": "Structure",
    "charge": 0,
    "lattice": {
      "matrix": [
        [4.98336137, 0.00916304, -1.763595539999999],
        [-2.4975504, 4.31233452, -1.76359555],
        [0.0052713, 0.00916307, 5.28622221]
      ],
      "pbc": [true, true, true],
      "a": 5.286231524821648,
      "b": 5.28623271119458,
      "c": 5.286232779773589,
      "alpha": 109.43133408773102,
      "beta": 109.43133009759917,
      "gamma": 109.43134706704002,
      "volume": 113.88237041063722
    },
    "properties": {},
    "sites": [
      {
        "species": [{ "element": "Ag", "occu": 1 }],
        "abc": [0.00438178, 0.00438178, 0.00438178],
        "properties": { "magmom": 0.0 },
        "label": "Ag",
        "xyz": [0.010915374469040598, 0.0189760021353214, 0.007707687380993606]
      },
      {
        "species": [{ "element": "Te", "occu": 1 }],
        "abc": [0.50643919, 0.00663883, 0.50643919],
        "properties": { "magmom": -0.0 },
        "label": "Te",
        "xyz": [2.509858276080305, 0.03790991608566251, 1.7722879863819914]
      },
      {
        "species": [{ "element": "Te", "occu": 1 }],
        "abc": [0.50643919, 0.50643919, 0.00663883],
        "properties": { "magmom": -0.0 },
        "label": "Te",
        "xyz": [1.2589470894044934, 2.1886365559373853, -1.7512134680004026]
      },
      {
        "species": [{ "element": "Te", "occu": 1 }],
        "abc": [0.00663883, 0.50643919, 0.50643919],
        "properties": { "magmom": -0.0 },
        "label": "Te",
        "xyz": [-1.2291041196939319, 2.1886365709313957, 1.7722879813839874]
      }
    ]
  },
  "task_ids": null,
  "uncorrected_energy_per_atom": null,
  "energy_per_atom": -24.4190064925,
  "formation_energy_per_atom": -0.017118973749997,
  "energy_above_hull": 0.018577228125,
  "is_stable": false,
  "equilibrium_reaction_energy_per_atom": null,
  "decomposes_to": null,
  "xas": null,
  "grain_boundaries": null,
  "band_gap": 0.0,
  "cbm": null,
  "vbm": null,
  "efermi": 5.77630196,
  "is_gap_direct": null,
  "is_metal": null,
  "es_source_calc_id": null,
  "bandstructure": null,
  "dos": null,
  "dos_energy_up": null,
  "dos_energy_down": null,
  "is_magnetic": null,
  "ordering": null,
  "total_magnetization": 0.0,
  "total_magnetization_normalized_vol": null,
  "total_magnetization_normalized_formula_units": null,
  "num_magnetic_sites": null,
  "num_unique_magnetic_sites": null,
  "types_of_magnetic_species": null,
  "bulk_modulus": null,
  "shear_modulus": null,
  "universal_anisotropy": null,
  "homogeneous_poisson": null,
  "e_total": null,
  "e_ionic": null,
  "e_electronic": null,
  "n": null,
  "e_ij_max": null,
  "weighted_surface_energy_EV_PER_ANG2": null,
  "weighted_surface_energy": null,
  "weighted_work_function": null,
  "surface_anisotropy": null,
  "shape_factor": null,
  "has_reconstructed": null,
  "possible_species": null,
  "has_props": null,
  "theoretical": null,
  "database_IDs": null,
  "fields_not_requested": [
    "builder_meta",
    "nsites",
    "elements",
    "nelements",
    "composition",
    "composition_reduced",
    "chemsys",
    "symmetry",
    "property_name",
    "deprecated",
    "deprecation_reasons",
    "last_updated",
    "origins",
    "warnings",
    "task_ids",
    "uncorrected_energy_per_atom",
    "equilibrium_reaction_energy_per_atom",
    "decomposes_to",
    "xas",
    "grain_boundaries",
    "cbm",
    "vbm",
    "is_gap_direct",
    "is_metal",
    "es_source_calc_id",
    "bandstructure",
    "dos",
    "dos_energy_up",
    "dos_energy_down",
    "is_magnetic",
    "ordering",
    "total_magnetization_normalized_vol",
    "total_magnetization_normalized_formula_units",
    "num_magnetic_sites",
    "num_unique_magnetic_sites",
    "types_of_magnetic_species",
    "bulk_modulus",
    "shear_modulus",
    "universal_anisotropy",
    "homogeneous_poisson",
    "e_total",
    "e_ionic",
    "e_electronic",
    "n",
    "e_ij_max",
    "weighted_surface_energy_EV_PER_ANG2",
    "weighted_surface_energy",
    "weighted_work_function",
    "surface_anisotropy",
    "shape_factor",
    "has_reconstructed",
    "possible_species",
    "has_props",
    "theoretical",
    "database_IDs"
  ]
}
