{
  "builder_meta": null,
  "nsites": null,
  "elements": null,
  "nelements": null,
  "composition": null,
  "composition_reduced": null,
  "formula_pretty": "Al2Mo3",
  "formula_anonymous": "A2B3",
  "chemsys": null,
  "volume": 640.2221602568056,
  "density": 7.091840142062068,
  "density_atomic": 16.00555400642014,
  "symmetry": null,
  "property_name": null,
  "material_id": "mp-1198386",
  "deprecated": null,
  "deprecation_reasons": null,
  "last_updated": null,
  "origins": null,
  "warnings": null,
  "structure": {
    "@module": "pymatgen.core.structure",
    "@class": "Structure",
    "charge": 0,
    "lattice": {
      "matrix": [
        [8.998011, 0.0, 0.0],
        [0.0, 7.628175, 0.0],
        [0.0, 3.019697, 9.327463]
      ],
      "pbc": [true, true, true],
      "a": 8.998011,
      "b": 7.628175,
      "c": 9.804087718302911,
      "alpha": 72.06102421800135,
      "beta": 90.0,
      "gamma": 90.0,
      "volume": 640.2221602568056
    },
    "properties": {},
    "sites": [
      {
        "species": [{ "element": "Al", "occu": 1 }],
        "abc": [0.46401000000000003, 0.5815600000000001, 0.323449],
        "properties": { "magmom": -0.0 },
        "label": "Al",
        "xyz": [4.17516708411, 5.412959427953, 3.016958579887]
      },
      {
        "species": [{ "element": "Al", "occu": 1 }],
        "abc": [0.96401, 0.91844, 0.676551],
        "properties": { "magmom": -0.0 },
        "label": "Al",
        "xyz": [8.67417258411, 9.049000072047, 6.310504420113]
      },
      {
        "species": [{ "element": "Al", "occu": 1 }],
        "abc": [0.5359900000000001, 0.41844000000000003, 0.676551],
        "properties": { "magmom": 0.0 },
        "label": "Al",
        "xyz": [4.822843915890001, 5.234912572047, 6.310504420113]
      },
      {
        "species": [{ "element": "Al", "occu": 1 }],
        "abc": [0.03599, 0.08156000000000001, 0.323449],
        "properties": { "magmom": -0.0 },
        "label": "Al",
        "xyz": [0.32383841589, 1.598871927953, 3.016958579887]
      },
      {
        "species": [{ "element": "Al", "occu": 1 }],
        "abc": [0.87882, 0.968382, 0.929225],
        "properties": { "magmom": -0.0 },
        "label": "Al",
        "xyz": [7.90763202702, 10.192965307675, 8.667311806175]
      },
      {
        "species": [{ "element": "Al", "occu": 1 }],
        "abc": [0.37882000000000005, 0.531617999999999, 0.070774999999999],
        "properties": { "magmom": -0.0 },
        "label": "Al",
        "xyz": [3.4086265270200005, 4.26899419232499, 0.6601511938249907]
      },
      {
        "species": [{ "element": "Al", "occu": 1 }],
        "abc": [0.12118000000000001, 0.031618, 0.070774999999999],
        "properties": { "magmom": -0.0 },
        "label": "Al",
        "xyz": [1.0903789729800002, 0.454906692324997, 0.6601511938249907]
      },
      {
        "species": [{ "element": "Al", "occu": 1 }],
        "abc": [0.6211800000000001, 0.468381999999999, 0.929225],
        "properties": { "magmom": -0.0 },
        "label": "Al",
        "xyz": [5.589384472980001, 6.378877807674993, 8.667311806175]
      },
      {
        "species": [{ "element": "Al", "occu": 1 }],
        "abc": [0.901598999999999, 0.434193, 0.248652999999999],
        "properties": { "magmom": -0.0 },
        "label": "Al",
        "xyz": [8.112597719588992, 4.062956905915997, 2.3193016573389906]
      },
      {
        "species": [{ "element": "Al", "occu": 1 }],
        "abc": [0.401599, 0.065806999999999, 0.751347],
        "properties": { "magmom": -0.0 },
        "label": "Al",
        "xyz": [3.613592219589, 2.770827594083992, 7.008161342660999]
      },
      {
        "species": [{ "element": "Al", "occu": 1 }],
        "abc": [0.098401, 0.565807, 0.751347],
        "properties": { "magmom": -0.0 },
        "label": "Al",
        "xyz": [0.885413280411, 6.584915094084, 7.008161342660999]
      },
      {
        "species": [{ "element": "Al", "occu": 1 }],
        "abc": [0.598401, 0.934192999999999, 0.248652999999999],
        "properties": { "magmom": -0.0 },
        "label": "Al",
        "xyz": [5.384418780411, 7.877044405915989, 2.3193016573389906]
      },
      {
        "species": [{ "element": "Al", "occu": 1 }],
        "abc": [0.48995299999999903, 0.201294, 0.476338999999999],
        "properties": { "magmom": 0.0 },
        "label": "Al",
        "xyz": [4.4086024834829916, 2.9739053077329967, 4.443034397956991]
      },
      {
        "species": [{ "element": "Al", "occu": 1 }],
        "abc": [0.989953, 0.29870599999999903, 0.523660999999999],
        "properties": { "magmom": 0.0 },
        "label": "Al",
        "xyz": [8.907607983483, 3.8598791922669897, 4.884428602042991]
      },
      {
        "species": [{ "element": "Al", "occu": 1 }],
        "abc": [0.510047, 0.798705999999999, 0.523660999999999],
        "properties": { "magmom": 0.0 },
        "label": "Al",
        "xyz": [4.589408516517, 7.673966692266989, 4.884428602042991]
      },
      {
        "species": [{ "element": "Al", "occu": 1 }],
        "abc": [0.010047, 0.701294, 0.476338999999999],
        "properties": { "magmom": 0.0 },
        "label": "Al",
        "xyz": [0.090403016517, 6.787992807732997, 4.443034397956991]
      },
      {
        "species": [{ "element": "Mo", "occu": 1 }],
        "abc": [0.764535, 0.017986, 0.447926],
        "properties": { "magmom": 0.0 },
        "label": "Mo",
        "xyz": [6.879294339885, 1.489801153972, 4.178013191738]
      },
      {
        "species": [{ "element": "Mo", "occu": 1 }],
        "abc": [0.264534999999999, 0.482014, 0.552074],
        "properties": { "magmom": 0.0 },
        "label": "Mo",
        "xyz": [2.380288839884991, 5.343983346028, 5.149449808261999]
      },
      {
        "species": [{ "element": "Mo", "occu": 1 }],
        "abc": [0.235464999999999, 0.982013999999999, 0.552074],
        "properties": { "magmom": 0.0 },
        "label": "Mo",
        "xyz": [2.118716660114991, 9.158070846027993, 5.149449808261999]
      },
      {
        "species": [{ "element": "Mo", "occu": 1 }],
        "abc": [0.735464999999999, 0.517986, 0.447926],
        "properties": { "magmom": 0.0 },
        "label": "Mo",
        "xyz": [6.617722160114991, 5.303888653971999, 4.178013191738]
      },
      {
        "species": [{ "element": "Mo", "occu": 1 }],
        "abc": [0.665477, 0.687910999999999, 0.107225],
        "properties": { "magmom": 0.0 },
        "label": "Mo",
        "xyz": [5.9879693662469995, 5.5712925032499925, 1.000137220175]
      },
      {
        "species": [{ "element": "Mo", "occu": 1 }],
        "abc": [0.165476999999999, 0.812089, 0.892775],
        "properties": { "magmom": 0.0 },
        "label": "Mo",
        "xyz": [1.488963866246991, 8.89066699675, 8.327325779825]
      },
      {
        "species": [{ "element": "Mo", "occu": 1 }],
        "abc": [0.334522999999999, 0.312089, 0.892775],
        "properties": { "magmom": 0.0 },
        "label": "Mo",
        "xyz": [3.010041633752991, 5.07657949675, 8.327325779825]
      },
      {
        "species": [{ "element": "Mo", "occu": 1 }],
        "abc": [0.834523, 0.187911, 0.107225],
        "properties": { "magmom": 0.0 },
        "label": "Mo",
        "xyz": [7.5090471337530005, 1.75720500325, 1.000137220175]
      },
      {
        "species": [{ "element": "Mo", "occu": 1 }],
        "abc": [0.618522, 0.314828999999999, 0.219826],
        "properties": { "magmom": 0.0 },
        "label": "Mo",
        "xyz": [5.565467759742, 3.0653786197969923, 2.050418881438]
      },
      {
        "species": [{ "element": "Mo", "occu": 1 }],
        "abc": [0.118521999999999, 0.185171, 0.780173999999999],
        "properties": { "magmom": 0.0 },
        "label": "Mo",
        "xyz": [1.066462259741991, 3.768405880202997, 7.2770441185619905]
      },
      {
        "species": [{ "element": "Mo", "occu": 1 }],
        "abc": [0.381478, 0.685171, 0.780173999999999],
        "properties": { "magmom": 0.0 },
        "label": "Mo",
        "xyz": [3.432543240258, 7.5824933802029975, 7.2770441185619905]
      },
      {
        "species": [{ "element": "Mo", "occu": 1 }],
        "abc": [0.881478, 0.814828999999999, 0.219826],
        "properties": { "magmom": 0.0 },
        "label": "Mo",
        "xyz": [7.931548740258, 6.879466119796992, 2.050418881438]
      },
      {
        "species": [{ "element": "Mo", "occu": 1 }],
        "abc": [0.225071, 0.345124, 0.340898],
        "properties": { "magmom": 0.0 },
        "label": "Mo",
        "xyz": [2.025191333781, 3.662074936606, 3.179713481774]
      },
      {
        "species": [{ "element": "Mo", "occu": 1 }],
        "abc": [0.725071, 0.15487599999999901, 0.659102],
        "properties": { "magmom": 0.0 },
        "label": "Mo",
        "xyz": [6.524196833781001, 3.1717095633939922, 6.147749518225999]
      },
      {
        "species": [{ "element": "Mo", "occu": 1 }],
        "abc": [0.774929, 0.654876, 0.659102],
        "properties": { "magmom": 0.0 },
        "label": "Mo",
        "xyz": [6.972819666218999, 6.985797063394, 6.147749518225999]
      },
      {
        "species": [{ "element": "Mo", "occu": 1 }],
        "abc": [0.274929, 0.845124, 0.340898],
        "properties": { "magmom": 0.0 },
        "label": "Mo",
        "xyz": [2.473814166219, 7.476162436606, 3.179713481774]
      },
      {
        "species": [{ "element": "Mo", "occu": 1 }],
        "abc": [0.138138999999999, 0.662229, 0.188953999999999],
        "properties": { "magmom": 0.0 },
        "label": "Mo",
        "xyz": [1.242976241528991, 5.6221825290129965, 1.7624614437019908]
      },
      {
        "species": [{ "element": "Mo", "occu": 1 }],
        "abc": [0.638139, 0.837770999999999, 0.811045999999999],
        "properties": { "magmom": 0.0 },
        "label": "Mo",
        "xyz": [5.741981741529, 8.83977697098699, 7.565001556297991]
      },
      {
        "species": [{ "element": "Mo", "occu": 1 }],
        "abc": [0.861861, 0.337771, 0.811045999999999],
        "properties": { "magmom": 0.0 },
        "label": "Mo",
        "xyz": [7.755034758471, 5.025689470986997, 7.565001556297991]
      },
      {
        "species": [{ "element": "Mo", "occu": 1 }],
        "abc": [0.361861, 0.162228999999999, 0.188953999999999],
        "properties": { "magmom": 0.0 },
        "label": "Mo",
        "xyz": [3.256029258471, 1.8080950290129894, 1.7624614437019908]
      },
      {
        "species": [{ "element": "Mo", "occu": 1 }],
        "abc": [0.105501, 0.385774, 0.054161],
        "properties": { "magmom": -0.0 },
        "label": "Mo",
        "xyz": [0.949299158511, 3.106301391667, 0.505184723543]
      },
      {
        "species": [{ "element": "Mo", "occu": 1 }],
        "abc": [0.605501, 0.114226, 0.945839],
        "properties": { "magmom": -0.0 },
        "label": "Mo",
        "xyz": [5.448304658511, 3.727483108333, 8.822278276457]
      },
      {
        "species": [{ "element": "Mo", "occu": 1 }],
        "abc": [0.894498999999999, 0.614225999999999, 0.945839],
        "properties": { "magmom": -0.0 },
        "label": "Mo",
        "xyz": [8.048711841488991, 7.541570608332993, 8.822278276457]
      },
      {
        "species": [{ "element": "Mo", "occu": 1 }],
        "abc": [0.394499, 0.885774, 0.054161],
        "properties": { "magmom": -0.0 },
        "label": "Mo",
        "xyz": [3.5497063414889998, 6.920388891666999, 0.505184723543]
      }
    ]
  },
  "task_ids": null,
  "uncorrected_energy_per_atom": null,
  "energy_per_atom": -18.295260385321427,
  "formation_energy_per_atom": 0.040766610678571,
  "energy_above_hull": 0.337850483821426,
  "is_stable": false,
  "equilibrium_reaction_energy_per_atom": null,
  "decomposes_to": null,
  "xas": null,
  "grain_boundaries": null,
  "band_gap": 0.0,
  "cbm": null,
  "vbm": null,
  "efermi": 7.97017002,
  "is_gap_direct": null,
  "is_metal": null,
  "es_source_calc_id": null,
  "bandstructure": null,
  "dos": null,
  "dos_energy_up": null,
  "dos_energy_down": null,
  "is_magnetic": null,
  "ordering": null,
  "total_magnetization": 0.0008269999999990001,
  "total_magnetization_normalized_vol": null,
  "total_magnetization_normalized_formula_units": null,
  "num_magnetic_sites": null,
  "num_unique_magnetic_sites": null,
  "types_of_magnetic_species": null,
  "bulk_modulus": null,
  "shear_modulus": null,
  "universal_anisotropy": null,
  "homogeneous_poisson": null,
  "e_total": null,
  "e_ionic": null,
  "e_electronic": null,
  "n": null,
  "e_ij_max": null,
  "weighted_surface_energy_EV_PER_ANG2": null,
  "weighted_surface_energy": null,
  "weighted_work_function": null,
  "surface_anisotropy": null,
  "shape_factor": null,
  "has_reconstructed": null,
  "possible_species": null,
  "has_props": null,
  "theoretical": null,
  "database_IDs": null,
  "fields_not_requested": [
    "builder_meta",
    "nsites",
    "elements",
    "nelements",
    "composition",
    "composition_reduced",
    "chemsys",
    "symmetry",
    "property_name",
    "deprecated",
    "deprecation_reasons",
    "last_updated",
    "origins",
    "warnings",
    "task_ids",
    "uncorrected_energy_per_atom",
    "equilibrium_reaction_energy_per_atom",
    "decomposes_to",
    "xas",
    "grain_boundaries",
    "cbm",
    "vbm",
    "is_gap_direct",
    "is_metal",
    "es_source_calc_id",
    "bandstructure",
    "dos",
    "dos_energy_up",
    "dos_energy_down",
    "is_magnetic",
    "ordering",
    "total_magnetization_normalized_vol",
    "total_magnetization_normalized_formula_units",
    "num_magnetic_sites",
    "num_unique_magnetic_sites",
    "types_of_magnetic_species",
    "bulk_modulus",
    "shear_modulus",
    "universal_anisotropy",
    "homogeneous_poisson",
    "e_total",
    "e_ionic",
    "e_electronic",
    "n",
    "e_ij_max",
    "weighted_surface_energy_EV_PER_ANG2",
    "weighted_surface_energy",
    "weighted_work_function",
    "surface_anisotropy",
    "shape_factor",
    "has_reconstructed",
    "possible_species",
    "has_props",
    "theoretical",
    "database_IDs"
  ]
}
