{"builder_meta": null, "nsites": null, "elements": null, "nelements": null, "composition": null, "composition_reduced": null, "formula_pretty": "Al2O3", "formula_anonymous": "A2B3", "chemsys": null, "volume": 87.42001939959368, "density": 3.873499119169007, "density_atomic": 8.74200193995937, "symmetry": null, "property_name": null, "material_id": "mp-1143", "deprecated": null, "deprecation_reasons": null, "last_updated": null, "origins": null, "warnings": null, "structure": {"@module": "pymatgen.core.structure", "@class": "Structure", "charge": 0, "lattice": {"matrix": [[4.256773, 0.000341, 2.948067], [1.54451, 3.966687, 2.948066], [0.0004969999999990001, 0.000339, 5.177956]], "pbc": [true, true, true], "a": 5.177954762867189, "b": 5.1779542327472345, "c": 5.177956034949119, "alpha": 55.28962764116247, "beta": 55.289609396062694, "gamma": 55.289594926906936, "volume": 87.42001939959368}, "properties": {}, "sites": [{"species": [{"element": "Al", "occu": 1}], "abc": [0.647903999999999, 0.647903, 0.647903], "properties": {"magmom": -0.0}, "label": "Al", "xyz": [3.7589949241129954, 2.570468981742, 7.174938433433997]}, {"species": [{"element": "Al", "occu": 1}], "abc": [0.852097, 0.852097, 0.852097], "properties": {"magmom": -0.0}, "label": "Al", "xyz": [4.9436793326599995, 3.3805815185989996, 9.436198014633]}, {"species": [{"element": "Al", "occu": 1}], "abc": [0.147903999999999, 0.147903, 0.147903], "properties": {"magmom": -0.0}, "label": "Al", "xyz": [0.8581049241129957, 0.586785481742, 1.6378939334339973]}, {"species": [{"element": "Al", "occu": 1}], "abc": [0.352097, 0.352095999999999, 0.352095999999999], "properties": {"magmom": -0.0}, "label": "Al", "xyz": [2.042787787652998, 1.396894051572996, 3.899145388610992]}, {"species": [{"element": "O", "occu": 1}], "abc": [0.443855, 0.056145, 0.750000999999999], "properties": {"magmom": 0.0}, "label": "O", "xyz": [1.9764792443619992, 0.223115246509, 5.357505621810995]}, {"species": [{"element": "O", "occu": 1}], "abc": [0.943855, 0.250001, 0.556145], "properties": {"magmom": 0.0}, "label": "O", "xyz": [4.404181928489999, 0.9921861043969998, 6.399261565971]}, {"species": [{"element": "O", "occu": 1}], "abc": [0.056144, 0.75, 0.443855], "properties": {"magmom": 0.0}, "label": "O", "xyz": [1.3975953592469996, 2.975184861949, 4.674827434028]}, {"species": [{"element": "O", "occu": 1}], "abc": [0.750000999999999, 0.443856, 0.056144], "properties": {"magmom": 0.0}, "label": "O", "xyz": [3.8781519409009952, 1.7609126082289996, 3.8102811422269967]}, {"species": [{"element": "O", "occu": 1}], "abc": [0.25, 0.556144, 0.943855], "properties": {"magmom": 0.0}, "label": "O", "xyz": [1.9236323153749992, 2.2064543917729997, 7.2638056278839995]}, {"species": [{"element": "O", "occu": 1}], "abc": [0.556144, 0.943855999999999, 0.249999], "properties": {"magmom": 0.0}, "label": "O", "xyz": [3.825298043374998, 3.7442557198369966, 5.7165833781879964]}]}, "task_ids": null, "uncorrected_energy_per_atom": null, "energy_per_atom": -7.893557943, "formation_energy_per_atom": -3.426551008, "energy_above_hull": 0.0, "is_stable": true, "equilibrium_reaction_energy_per_atom": null, "decomposes_to": null, "xas": null, "grain_boundaries": null, "band_gap": 5.853700000000001, "cbm": null, "vbm": null, "efermi": 5.87476121, "is_gap_direct": null, "is_metal": null, "es_source_calc_id": null, "bandstructure": null, "dos": null, "dos_energy_up": null, "dos_energy_down": null, "is_magnetic": null, "ordering": null, "total_magnetization": 0.0, "total_magnetization_normalized_vol": null, "total_magnetization_normalized_formula_units": null, "num_magnetic_sites": null, "num_unique_magnetic_sites": null, "types_of_magnetic_species": null, "bulk_modulus": null, "shear_modulus": null, "universal_anisotropy": null, "homogeneous_poisson": null, "e_total": null, "e_ionic": null, "e_electronic": null, "n": null, "e_ij_max": null, "weighted_surface_energy_EV_PER_ANG2": null, "weighted_surface_energy": null, "weighted_work_function": null, "surface_anisotropy": null, "shape_factor": null, "has_reconstructed": null, "possible_species": null, "has_props": null, "theoretical": null, "database_IDs": null, "fields_not_requested": ["builder_meta", "nsites", "elements", "nelements", "composition", "composition_reduced", "chemsys", "symmetry", "property_name", "deprecated", "deprecation_reasons", "last_updated", "origins", "warnings", "task_ids", "uncorrected_energy_per_atom", "equilibrium_reaction_energy_per_atom", "decomposes_to", "xas", "grain_boundaries", "cbm", "vbm", "is_gap_direct", "is_metal", "es_source_calc_id", "bandstructure", "dos", "dos_energy_up", "dos_energy_down", "is_magnetic", "ordering", "total_magnetization_normalized_vol", "total_magnetization_normalized_formula_units", "num_magnetic_sites", "num_unique_magnetic_sites", "types_of_magnetic_species", "bulk_modulus", "shear_modulus", "universal_anisotropy", "homogeneous_poisson", "e_total", "e_ionic", "e_electronic", "n", "e_ij_max", "weighted_surface_energy_EV_PER_ANG2", "weighted_surface_energy", "weighted_work_function", "surface_anisotropy", "shape_factor", "has_reconstructed", "possible_species", "has_props", "theoretical", "database_IDs"]}