{"builder_meta": null, "nsites": null, "elements": null, "nelements": null, "composition": null, "composition_reduced": null, "formula_pretty": "Al2Os", "formula_anonymous": "AB2", "chemsys": null, "volume": 41.33040791395677, "density": 9.81098820335959, "density_atomic": 13.77680263798559, "symmetry": null, "property_name": null, "material_id": "mp-7188", "deprecated": null, "deprecation_reasons": null, "last_updated": null, "origins": null, "warnings": null, "structure": {"@module": "pymatgen.core.structure", "@class": "Structure", "charge": 0, "lattice": {"matrix": [[2.97262015, -6.0300000000000016e-05, -1.05811945], [-0.37665163, 2.9486612, -1.05812004], [0.0027745400000000003, 0.00315165, 4.71300765]], "pbc": [true, true, true], "a": 3.1553268183011434, "b": 3.155326820127623, "c": 4.713009520458075, "alpha": 109.55972376401773, "beta": 109.55971506226498, "gamma": 90.00116613026414, "volume": 41.330407913956776}, "properties": {}, "sites": [{"species": [{"element": "Al", "occu": 1}], "abc": [0.33861522, 0.33861523, 0.67733634], "properties": {"magmom": -0.0}, "label": "Al", "xyz": [0.8809137445151418, 1.000575899008271, 2.475700440982763]}, {"species": [{"element": "Al", "occu": 1}], "abc": [0.66138474, 0.6613847700000001, 0.32266365], "properties": {"magmom": -0.0}, "label": "Al", "xyz": [1.717829196552307, 1.951176650962625, 0.12106771421193874]}, {"species": [{"element": "Os", "occu": 1}], "abc": [4e-08, 0.0, 1e-08], "properties": {"magmom": 0.0}, "label": "Os", "xyz": [1.189325514e-07, 2.91045e-11, 4.8052985e-09]}]}, "task_ids": null, "uncorrected_energy_per_atom": null, "energy_per_atom": -22.820100166666666, "formation_energy_per_atom": -0.670291663333335, "energy_above_hull": 0.0, "is_stable": true, "equilibrium_reaction_energy_per_atom": null, "decomposes_to": null, "xas": null, "grain_boundaries": null, "band_gap": 0.28989999999999905, "cbm": null, "vbm": null, "efermi": 9.1716797, "is_gap_direct": null, "is_metal": null, "es_source_calc_id": null, "bandstructure": null, "dos": null, "dos_energy_up": null, "dos_energy_down": null, "is_magnetic": null, "ordering": null, "total_magnetization": 0.0, "total_magnetization_normalized_vol": null, "total_magnetization_normalized_formula_units": null, "num_magnetic_sites": null, "num_unique_magnetic_sites": null, "types_of_magnetic_species": null, "bulk_modulus": null, "shear_modulus": null, "universal_anisotropy": null, "homogeneous_poisson": null, "e_total": null, "e_ionic": null, "e_electronic": null, "n": null, "e_ij_max": null, "weighted_surface_energy_EV_PER_ANG2": null, "weighted_surface_energy": null, "weighted_work_function": null, "surface_anisotropy": null, "shape_factor": null, "has_reconstructed": null, "possible_species": null, "has_props": null, "theoretical": null, "database_IDs": null, "fields_not_requested": ["builder_meta", "nsites", "elements", "nelements", "composition", "composition_reduced", "chemsys", "symmetry", "property_name", "deprecated", "deprecation_reasons", "last_updated", "origins", "warnings", "task_ids", "uncorrected_energy_per_atom", "equilibrium_reaction_energy_per_atom", "decomposes_to", "xas", "grain_boundaries", "cbm", "vbm", "is_gap_direct", "is_metal", "es_source_calc_id", "bandstructure", "dos", "dos_energy_up", "dos_energy_down", "is_magnetic", "ordering", "total_magnetization_normalized_vol", "total_magnetization_normalized_formula_units", "num_magnetic_sites", "num_unique_magnetic_sites", "types_of_magnetic_species", "bulk_modulus", "shear_modulus", "universal_anisotropy", "homogeneous_poisson", "e_total", "e_ionic", "e_electronic", "n", "e_ij_max", "weighted_surface_energy_EV_PER_ANG2", "weighted_surface_energy", "weighted_work_function", "surface_anisotropy", "shape_factor", "has_reconstructed", "possible_species", "has_props", "theoretical", "database_IDs"]}