{"builder_meta": null, "nsites": null, "elements": null, "nelements": null, "composition": null, "composition_reduced": null, "formula_pretty": "Al2Ru", "formula_anonymous": "AB2", "chemsys": null, "volume": 82.4376362145777, "density": 6.245654124184848, "density_atomic": 13.739606035762948, "symmetry": null, "property_name": null, "material_id": "mp-10910", "deprecated": null, "deprecation_reasons": null, "last_updated": null, "origins": null, "warnings": null, "structure": {"@module": "pymatgen.core.structure", "@class": "Structure", "charge": 0, "lattice": {"matrix": [[4.49605189, 0.00272952, -1.11285999], [-2.58741669, 3.6769214, -1.11286], [0.00223265, 0.0043029800000000005, 4.9819289300000005]], "pbc": [true, true, true], "a": 4.631732656921685, "b": 4.631731154662209, "c": 4.981931288560076, "alpha": 103.87669969940151, "beta": 103.87668236676166, "gamma": 118.95137987985701, "volume": 82.43763621457771}, "properties": {}, "sites": [{"species": [{"element": "Al", "occu": 1}], "abc": [0.79593897, 0.20406103, 0.75], "properties": {"magmom": 0.0}, "label": "Al", "xyz": [3.0522664830925628, 0.7557161344504364, 2.62358670545939]}, {"species": [{"element": "Al", "occu": 1}], "abc": [0.45406103000000003, 0.54593897, 0.75], "properties": {"magmom": 0.0}, "label": "Al", "xyz": [0.6305848369074375, 2.011841285549564, 2.6235867020406105]}, {"species": [{"element": "Al", "occu": 1}], "abc": [0.20406103, 0.79593897, 0.25], "properties": {"magmom": 0.0}, "label": "Al", "xyz": [-1.1413986330925625, 2.9282377655495635, 0.13262223454061028]}, {"species": [{"element": "Al", "occu": 1}], "abc": [0.54593897, 0.45406103000000003, 0.25], "properties": {"magmom": 0.0}, "label": "Al", "xyz": [1.2802830130925629, 1.6721126144504366, 0.13262223795938977]}, {"species": [{"element": "Ru", "occu": 1}], "abc": [0.125, 0.875, 0.75], "properties": {"magmom": 0.0}, "label": "Ru", "xyz": [-1.7003086299999997, 3.22087465, 2.6235866987500005]}, {"species": [{"element": "Ru", "occu": 1}], "abc": [0.875, 0.125, 0.25], "properties": {"magmom": 0.0}, "label": "Ru", "xyz": [3.61117648, 0.46307925, 0.13262224125000022]}]}, "task_ids": null, "uncorrected_energy_per_atom": null, "energy_per_atom": -13.744011246666666, "formation_energy_per_atom": -0.7811005950000001, "energy_above_hull": 0.0, "is_stable": true, "equilibrium_reaction_energy_per_atom": null, "decomposes_to": null, "xas": null, "grain_boundaries": null, "band_gap": 0.086399999999999, "cbm": null, "vbm": null, "efermi": 9.0433687, "is_gap_direct": null, "is_metal": null, "es_source_calc_id": null, "bandstructure": null, "dos": null, "dos_energy_up": null, "dos_energy_down": null, "is_magnetic": null, "ordering": null, "total_magnetization": 0.0, "total_magnetization_normalized_vol": null, "total_magnetization_normalized_formula_units": null, "num_magnetic_sites": null, "num_unique_magnetic_sites": null, "types_of_magnetic_species": null, "bulk_modulus": null, "shear_modulus": null, "universal_anisotropy": null, "homogeneous_poisson": null, "e_total": null, "e_ionic": null, "e_electronic": null, "n": null, "e_ij_max": null, "weighted_surface_energy_EV_PER_ANG2": null, "weighted_surface_energy": null, "weighted_work_function": null, "surface_anisotropy": null, "shape_factor": null, "has_reconstructed": null, "possible_species": null, "has_props": null, "theoretical": null, "database_IDs": null, "fields_not_requested": ["builder_meta", "nsites", "elements", "nelements", "composition", "composition_reduced", "chemsys", "symmetry", "property_name", "deprecated", "deprecation_reasons", "last_updated", "origins", "warnings", "task_ids", "uncorrected_energy_per_atom", "equilibrium_reaction_energy_per_atom", "decomposes_to", "xas", "grain_boundaries", "cbm", "vbm", "is_gap_direct", "is_metal", "es_source_calc_id", "bandstructure", "dos", "dos_energy_up", "dos_energy_down", "is_magnetic", "ordering", "total_magnetization_normalized_vol", "total_magnetization_normalized_formula_units", "num_magnetic_sites", "num_unique_magnetic_sites", "types_of_magnetic_species", "bulk_modulus", "shear_modulus", "universal_anisotropy", "homogeneous_poisson", "e_total", "e_ionic", "e_electronic", "n", "e_ij_max", "weighted_surface_energy_EV_PER_ANG2", "weighted_surface_energy", "weighted_work_function", "surface_anisotropy", "shape_factor", "has_reconstructed", "possible_species", "has_props", "theoretical", "database_IDs"]}