{"builder_meta": null, "nsites": null, "elements": null, "nelements": null, "composition": null, "composition_reduced": null, "formula_pretty": "Al2S3", "formula_anonymous": "A2B3", "chemsys": null, "volume": 217.81180719136236, "density": 2.28953018269642, "density_atomic": 21.781180719136238, "symmetry": null, "property_name": null, "material_id": "mp-1228491", "deprecated": null, "deprecation_reasons": null, "last_updated": null, "origins": null, "warnings": null, "structure": {"@module": "pymatgen.core.structure", "@class": "Structure", "charge": 0, "lattice": {"matrix": [[3.23002167, 5.6268134100000005, 0.01011745], [-3.23002167, 5.6268134100000005, 0.01011745], [-0.0, 3.65392371, 5.99873103]], "pbc": [true, true, true], "a": 6.48800211948331, "b": 6.48800211948331, "c": 7.023954188972549, "alpha": 63.096415816135675, "beta": 63.096415816135675, "gamma": 59.71510285908085, "volume": 217.8118071913624}, "properties": {}, "sites": [{"species": [{"element": "Al", "occu": 1}], "abc": [0.180584499999999, 0.98821082, 0.49635461000000003], "properties": {"magmom": -0.0}, "label": "Al", "xyz": [-2.608650514862358, 8.39023505816804, 2.9893230291008828]}, {"species": [{"element": "Al", "occu": 1}], "abc": [0.80992482, 0.67441087, 0.5097751500000001], "properties": {"magmom": 0.0}, "label": "Al", "xyz": [0.43771299508729644, 10.21475947278741, 3.073021702754695]}, {"species": [{"element": "Al", "occu": 1}], "abc": [0.98821082, 0.180584499999999, 0.99635461], "properties": {"magmom": -0.0}, "label": "Al", "xyz": [2.608650514862358, 10.217196913168038, 5.988688544100882]}, {"species": [{"element": "Al", "occu": 1}], "abc": [0.67441087, 0.80992482, 0.00977515], "properties": {"magmom": 0.0}, "label": "Al", "xyz": [-0.43771299508729644, 8.38779761778741, 0.073656187754695]}, {"species": [{"element": "S", "occu": 1}], "abc": [0.29715332, 0.11983212, 0.1139533], "properties": {"magmom": -0.0}, "label": "S", "xyz": [0.5727513185504041, 2.7626759302694937, 0.687794026020827]}, {"species": [{"element": "S", "occu": 1}], "abc": [0.95691557, 0.8004175, 0.12624604], "properties": {"magmom": -0.0}, "label": "S", "xyz": [0.505492157413177, 10.34947868296208, 0.7750957670316927]}, {"species": [{"element": "S", "occu": 1}], "abc": [0.63520551, 0.45431897, 0.1286269], "properties": {"magmom": 0.0}, "label": "S", "xyz": [0.5842674440113218, 6.600543834241076, 0.7826213857728829]}, {"species": [{"element": "S", "occu": 1}], "abc": [0.11983212, 0.29715332, 0.613953299999999], "properties": {"magmom": -0.0}, "label": "S", "xyz": [-0.5727513185504041, 4.58963778526949, 3.6871595410208213]}, {"species": [{"element": "S", "occu": 1}], "abc": [0.8004175, 0.95691557, 0.6262460400000001], "properties": {"magmom": -0.0}, "label": "S", "xyz": [-0.505492157413177, 12.17644053796208, 3.774461282031693]}, {"species": [{"element": "S", "occu": 1}], "abc": [0.45431897, 0.63520551, 0.6286269], "properties": {"magmom": 0.0}, "label": "S", "xyz": [-0.5842674440113218, 8.427505689241077, 3.7819869007728832]}]}, "task_ids": null, "uncorrected_energy_per_atom": null, "energy_per_atom": -8.750217892, "formation_energy_per_atom": -1.2363791106875, "energy_above_hull": 0.0, "is_stable": true, "equilibrium_reaction_energy_per_atom": null, "decomposes_to": null, "xas": null, "grain_boundaries": null, "band_gap": 3.0435, "cbm": null, "vbm": null, "efermi": 3.2901739, "is_gap_direct": null, "is_metal": null, "es_source_calc_id": null, "bandstructure": null, "dos": null, "dos_energy_up": null, "dos_energy_down": null, "is_magnetic": null, "ordering": null, "total_magnetization": 0.0, "total_magnetization_normalized_vol": null, "total_magnetization_normalized_formula_units": null, "num_magnetic_sites": null, "num_unique_magnetic_sites": null, "types_of_magnetic_species": null, "bulk_modulus": null, "shear_modulus": null, "universal_anisotropy": null, "homogeneous_poisson": null, "e_total": null, "e_ionic": null, "e_electronic": null, "n": null, "e_ij_max": null, "weighted_surface_energy_EV_PER_ANG2": null, "weighted_surface_energy": null, "weighted_work_function": null, "surface_anisotropy": null, "shape_factor": null, "has_reconstructed": null, "possible_species": null, "has_props": null, "theoretical": null, "database_IDs": null, "fields_not_requested": ["builder_meta", "nsites", "elements", "nelements", "composition", "composition_reduced", "chemsys", "symmetry", "property_name", "deprecated", "deprecation_reasons", "last_updated", "origins", "warnings", "task_ids", "uncorrected_energy_per_atom", "equilibrium_reaction_energy_per_atom", "decomposes_to", "xas", "grain_boundaries", "cbm", "vbm", "is_gap_direct", "is_metal", "es_source_calc_id", "bandstructure", "dos", "dos_energy_up", "dos_energy_down", "is_magnetic", "ordering", "total_magnetization_normalized_vol", "total_magnetization_normalized_formula_units", "num_magnetic_sites", "num_unique_magnetic_sites", "types_of_magnetic_species", "bulk_modulus", "shear_modulus", "universal_anisotropy", "homogeneous_poisson", "e_total", "e_ionic", "e_electronic", "n", "e_ij_max", "weighted_surface_energy_EV_PER_ANG2", "weighted_surface_energy", "weighted_work_function", "surface_anisotropy", "shape_factor", "has_reconstructed", "possible_species", "has_props", "theoretical", "database_IDs"]}