{
  "builder_meta": null,
  "nsites": null,
  "elements": null,
  "nelements": null,
  "composition": null,
  "composition_reduced": null,
  "formula_pretty": "Al2Se3",
  "formula_anonymous": "A2B3",
  "chemsys": null,
  "volume": 252.55345149639967,
  "density": 3.824586748501788,
  "density_atomic": 25.255345149639968,
  "symmetry": null,
  "property_name": null,
  "material_id": "mp-11674",
  "deprecated": null,
  "deprecation_reasons": null,
  "last_updated": null,
  "origins": null,
  "warnings": null,
  "structure": {
    "@module": "pymatgen.core.structure",
    "@class": "Structure",
    "charge": 0,
    "lattice": {
      "matrix": [
        [6.77603462, 1e-8, 0.0],
        [-3.3880168, 5.04788799, -3.03855155],
        [0.0, 0.00467985, 7.38077994]
      ],
      "pbc": [true, true, true],
      "a": 6.77603462,
      "b": 6.796515763144811,
      "c": 7.380781423650373,
      "alpha": 116.52600001297981,
      "beta": 89.9999999999464,
      "gamma": 119.90035992111707,
      "volume": 252.55345149639967
    },
    "properties": {},
    "sites": [
      {
        "species": [{ "element": "Al", "occu": 1 }],
        "abc": [0.6371605100000001, 0.08360766, 0.12872702],
        "properties": { "magmom": -0.0 },
        "label": "Al",
        "xyz": [4.034157517568169, 0.42264453230215554, 0.6960596220671058]
      },
      {
        "species": [{ "element": "Al", "occu": 1 }],
        "abc": [0.44644715, 0.08360766, 0.62872702],
        "properties": { "magmom": -0.0 },
        "label": "Al",
        "xyz": [2.741877187711645, 0.424984455395022, 4.386449592067105]
      },
      {
        "species": [{ "element": "Al", "occu": 1 }],
        "abc": [0.26593505, 0.40067517, 0.11732339],
        "properties": { "magmom": -0.0 },
        "label": "Al",
        "xyz": [0.4444908981685751, 2.023112437060251, -0.3515340354452171]
      },
      {
        "species": [{ "element": "Al", "occu": 1 }],
        "abc": [0.13474112, 0.40067517, 0.61732339],
        "properties": { "magmom": -0.0 },
        "label": "Al",
        "xyz": [-0.4444837134452816, 2.0254523607483113, 3.3388559345547826]
      },
      {
        "species": [{ "element": "Se", "occu": 1 }],
        "abc": [0.9082253, 0.99579156, 0.98857913],
        "properties": { "magmom": 0.0 },
        "label": "Se",
        "xyz": [2.7804075409816784, 5.031270667391149, 4.270721023691734]
      },
      {
        "species": [{ "element": "Se", "occu": 1 }],
        "abc": [0.08756626, 0.99579156, 0.48857913000000003],
        "properties": { "magmom": 0.0 },
        "label": "Se",
        "xyz": [-2.7804065252742864, 5.0289307341845575, 0.5803310536917343]
      },
      {
        "species": [{ "element": "Se", "occu": 1 }],
        "abc": [0.58557247, 0.34397636, 0.01313823],
        "properties": { "magmom": -0.0 },
        "label": "Se",
        "xyz": [2.8024616427560636, 1.7364156272893068, -0.9482195174102518]
      },
      {
        "species": [{ "element": "Se", "occu": 1 }],
        "abc": [0.75840389, 0.34397636, 0.51313823],
        "properties": { "magmom": -0.0 },
        "label": "Se",
        "xyz": [3.9735733280998238, 1.738755554017621, 2.7421704525897486]
      },
      {
        "species": [{ "element": "Se", "occu": 1 }],
        "abc": [0.2472982, 0.67574724, 0.00223122],
        "properties": { "magmom": 0.0 },
        "label": "Se",
        "xyz": [-0.6137418370099479, 3.411106821319547, -2.0368246796924954]
      },
      {
        "species": [{ "element": "Se", "occu": 1 }],
        "abc": [0.42845004000000003, 0.67574724, 0.50223222],
        "properties": { "magmom": 0.0 },
        "label": "Se",
        "xyz": [0.6137493023067533, 3.413446752810915, 1.6535726710874448]
      }
    ]
  },
  "task_ids": null,
  "uncorrected_energy_per_atom": null,
  "energy_per_atom": -12.288599007,
  "formation_energy_per_atom": -1.0088235364375011,
  "energy_above_hull": 0.0,
  "is_stable": true,
  "equilibrium_reaction_energy_per_atom": null,
  "decomposes_to": null,
  "xas": null,
  "grain_boundaries": null,
  "band_gap": 1.8004,
  "cbm": null,
  "vbm": null,
  "efermi": 2.75585637,
  "is_gap_direct": null,
  "is_metal": null,
  "es_source_calc_id": null,
  "bandstructure": null,
  "dos": null,
  "dos_energy_up": null,
  "dos_energy_down": null,
  "is_magnetic": null,
  "ordering": null,
  "total_magnetization": 0.0,
  "total_magnetization_normalized_vol": null,
  "total_magnetization_normalized_formula_units": null,
  "num_magnetic_sites": null,
  "num_unique_magnetic_sites": null,
  "types_of_magnetic_species": null,
  "bulk_modulus": null,
  "shear_modulus": null,
  "universal_anisotropy": null,
  "homogeneous_poisson": null,
  "e_total": null,
  "e_ionic": null,
  "e_electronic": null,
  "n": null,
  "e_ij_max": null,
  "weighted_surface_energy_EV_PER_ANG2": null,
  "weighted_surface_energy": null,
  "weighted_work_function": null,
  "surface_anisotropy": null,
  "shape_factor": null,
  "has_reconstructed": null,
  "possible_species": null,
  "has_props": null,
  "theoretical": null,
  "database_IDs": null,
  "fields_not_requested": [
    "builder_meta",
    "nsites",
    "elements",
    "nelements",
    "composition",
    "composition_reduced",
    "chemsys",
    "symmetry",
    "property_name",
    "deprecated",
    "deprecation_reasons",
    "last_updated",
    "origins",
    "warnings",
    "task_ids",
    "uncorrected_energy_per_atom",
    "equilibrium_reaction_energy_per_atom",
    "decomposes_to",
    "xas",
    "grain_boundaries",
    "cbm",
    "vbm",
    "is_gap_direct",
    "is_metal",
    "es_source_calc_id",
    "bandstructure",
    "dos",
    "dos_energy_up",
    "dos_energy_down",
    "is_magnetic",
    "ordering",
    "total_magnetization_normalized_vol",
    "total_magnetization_normalized_formula_units",
    "num_magnetic_sites",
    "num_unique_magnetic_sites",
    "types_of_magnetic_species",
    "bulk_modulus",
    "shear_modulus",
    "universal_anisotropy",
    "homogeneous_poisson",
    "e_total",
    "e_ionic",
    "e_electronic",
    "n",
    "e_ij_max",
    "weighted_surface_energy_EV_PER_ANG2",
    "weighted_surface_energy",
    "weighted_work_function",
    "surface_anisotropy",
    "shape_factor",
    "has_reconstructed",
    "possible_species",
    "has_props",
    "theoretical",
    "database_IDs"
  ]
}
