{
  "builder_meta": null,
  "nsites": null,
  "elements": null,
  "nelements": null,
  "composition": null,
  "composition_reduced": null,
  "formula_pretty": "Al2Te5",
  "formula_anonymous": "A2B5",
  "chemsys": null,
  "volume": 240.2763278172873,
  "density": 4.782126199336237,
  "density_atomic": 34.3251896881839,
  "symmetry": null,
  "property_name": null,
  "material_id": "mp-9254",
  "deprecated": null,
  "deprecation_reasons": null,
  "last_updated": null,
  "origins": null,
  "warnings": null,
  "structure": {
    "@module": "pymatgen.core.structure",
    "@class": "Structure",
    "charge": 0,
    "lattice": {
      "matrix": [
        [4.05182118, -1e-8, 1.06358424],
        [1.8354978100000001, 7.00411762, 1.25718679],
        [-0.051755920000000004, -0.05531004, 8.44685706]
      ],
      "pbc": [true, true, true],
      "a": 4.189088959460395,
      "b": 7.3489614552166325,
      "c": 8.447196698778338,
      "alpha": 80.60195332738428,
      "beta": 75.64332003856903,
      "gamma": 73.4404161071931,
      "volume": 240.2763278172873
    },
    "properties": {},
    "sites": [
      {
        "species": [{ "element": "Al", "occu": 1 }],
        "abc": [0.37049554, 0.85711592, 0.40189401],
        "properties": { "magmom": -0.0 },
        "label": "Al",
        "xyz": [3.0536156759136333, 5.9811119401806945, 4.866349285197197]
      },
      {
        "species": [{ "element": "Al", "occu": 1 }],
        "abc": [0.62950446, 0.14288408, 0.59810599],
        "properties": { "magmom": -0.0 },
        "label": "Al",
        "xyz": [2.7819473940863673, 0.9676956298193052, 5.901278804802803]
      },
      {
        "species": [{ "element": "Te", "occu": 1 }],
        "abc": [0.58145482, 0.71083772, 0.12625265],
        "properties": { "magmom": 0.0 },
        "label": "Te",
        "xyz": [3.654157711161293, 4.971807954676472, 2.5785200622379643]
      },
      {
        "species": [{ "element": "Te", "occu": 1 }],
        "abc": [0.41854518, 0.28916228, 0.87374735],
        "properties": { "magmom": 0.0 },
        "label": "Te",
        "xyz": [2.1814053588387075, 1.9769996153235276, 8.189108027762035]
      },
      {
        "species": [{ "element": "Te", "occu": 1 }],
        "abc": [0.0, -0.0, -0.0],
        "properties": { "magmom": 0.0 },
        "label": "Te",
        "xyz": [0.0, 0.0, 0.0]
      },
      {
        "species": [{ "element": "Te", "occu": 1 }],
        "abc": [0.18147757, 0.23697652, 0.40006834],
        "properties": { "magmom": -0.0 },
        "label": "Te",
        "xyz": [1.149578640302781, 1.637683621555373, 3.8702605160611476]
      },
      {
        "species": [{ "element": "Te", "occu": 1 }],
        "abc": [0.81852243, 0.76302348, 0.59993166],
        "properties": { "magmom": -0.0 },
        "label": "Te",
        "xyz": [4.6859844296972195, 5.311123948444626, 6.897367573938851]
      }
    ]
  },
  "task_ids": null,
  "uncorrected_energy_per_atom": null,
  "energy_per_atom": -20.48055688428571,
  "formation_energy_per_atom": -0.40193999714285505,
  "energy_above_hull": 0.0,
  "is_stable": true,
  "equilibrium_reaction_energy_per_atom": null,
  "decomposes_to": null,
  "xas": null,
  "grain_boundaries": null,
  "band_gap": 1.046099999999999,
  "cbm": null,
  "vbm": null,
  "efermi": 3.66655846,
  "is_gap_direct": null,
  "is_metal": null,
  "es_source_calc_id": null,
  "bandstructure": null,
  "dos": null,
  "dos_energy_up": null,
  "dos_energy_down": null,
  "is_magnetic": null,
  "ordering": null,
  "total_magnetization": 0.0,
  "total_magnetization_normalized_vol": null,
  "total_magnetization_normalized_formula_units": null,
  "num_magnetic_sites": null,
  "num_unique_magnetic_sites": null,
  "types_of_magnetic_species": null,
  "bulk_modulus": null,
  "shear_modulus": null,
  "universal_anisotropy": null,
  "homogeneous_poisson": null,
  "e_total": null,
  "e_ionic": null,
  "e_electronic": null,
  "n": null,
  "e_ij_max": null,
  "weighted_surface_energy_EV_PER_ANG2": null,
  "weighted_surface_energy": null,
  "weighted_work_function": null,
  "surface_anisotropy": null,
  "shape_factor": null,
  "has_reconstructed": null,
  "possible_species": null,
  "has_props": null,
  "theoretical": null,
  "database_IDs": null,
  "fields_not_requested": [
    "builder_meta",
    "nsites",
    "elements",
    "nelements",
    "composition",
    "composition_reduced",
    "chemsys",
    "symmetry",
    "property_name",
    "deprecated",
    "deprecation_reasons",
    "last_updated",
    "origins",
    "warnings",
    "task_ids",
    "uncorrected_energy_per_atom",
    "equilibrium_reaction_energy_per_atom",
    "decomposes_to",
    "xas",
    "grain_boundaries",
    "cbm",
    "vbm",
    "is_gap_direct",
    "is_metal",
    "es_source_calc_id",
    "bandstructure",
    "dos",
    "dos_energy_up",
    "dos_energy_down",
    "is_magnetic",
    "ordering",
    "total_magnetization_normalized_vol",
    "total_magnetization_normalized_formula_units",
    "num_magnetic_sites",
    "num_unique_magnetic_sites",
    "types_of_magnetic_species",
    "bulk_modulus",
    "shear_modulus",
    "universal_anisotropy",
    "homogeneous_poisson",
    "e_total",
    "e_ionic",
    "e_electronic",
    "n",
    "e_ij_max",
    "weighted_surface_energy_EV_PER_ANG2",
    "weighted_surface_energy",
    "weighted_work_function",
    "surface_anisotropy",
    "shape_factor",
    "has_reconstructed",
    "possible_species",
    "has_props",
    "theoretical",
    "database_IDs"
  ]
}
