{"builder_meta": null, "nsites": null, "elements": null, "nelements": null, "composition": null, "composition_reduced": null, "formula_pretty": "Al2W", "formula_anonymous": "AB2", "chemsys": null, "volume": 139.5611228092286, "density": 8.488351739360981, "density_atomic": 15.506791423247623, "symmetry": null, "property_name": null, "material_id": "mp-12524", "deprecated": null, "deprecation_reasons": null, "last_updated": null, "origins": null, "warnings": null, "structure": {"@module": "pymatgen.core.structure", "@class": "Structure", "charge": 0, "lattice": {"matrix": [[2.436434, -4.220028, 0.0], [2.436434, 4.220028, 0.0], [0.0, 0.0, 6.786791]], "pbc": [true, true, true], "a": 4.872868452681645, "b": 4.872868452681645, "c": 6.786791, "alpha": 90.0, "beta": 90.0, "gamma": 120.00000614610803, "volume": 139.5611228092286}, "properties": {}, "sites": [{"species": [{"element": "Al", "occu": 1}], "abc": [0.168545, 0.8314549999999991, 0.166666999999999], "properties": {"magmom": -0.0}, "label": "Al", "xyz": [2.436433999999998, 2.797498761479996, 1.1311340955969933]}, {"species": [{"element": "Al", "occu": 1}], "abc": [0.33708899999999903, 0.168545, 0.833333], "properties": {"magmom": 0.0}, "label": "Al", "xyz": [1.2319438691559979, -0.7112603992319959, 5.655656904403]}, {"species": [{"element": "Al", "occu": 1}], "abc": [0.8314549999999991, 0.662910999999999, 0.5], "properties": {"magmom": 0.0}, "label": "Al", "xyz": [3.6409241308439952, -0.7112603992320001, 3.3933955]}, {"species": [{"element": "Al", "occu": 1}], "abc": [0.8314549999999991, 0.168545, 0.166666999999999], "properties": {"magmom": -0.0}, "label": "Al", "xyz": [2.436433999999998, -2.797498761479996, 1.1311340955969933]}, {"species": [{"element": "Al", "occu": 1}], "abc": [0.662910999999999, 0.8314549999999991, 0.833333], "properties": {"magmom": 0.0}, "label": "Al", "xyz": [3.6409241308439952, 0.7112603992320001, 5.655656904403]}, {"species": [{"element": "Al", "occu": 1}], "abc": [0.168545, 0.33708899999999903, 0.5], "properties": {"magmom": 0.0}, "label": "Al", "xyz": [1.2319438691559979, 0.7112603992319959, 3.3933955]}, {"species": [{"element": "W", "occu": 1}], "abc": [0.5, 0.0, 0.5], "properties": {"magmom": 0.001}, "label": "W", "xyz": [1.218217, -2.110014, 3.3933955]}, {"species": [{"element": "W", "occu": 1}], "abc": [0.0, 0.5, 0.833333], "properties": {"magmom": 0.001}, "label": "W", "xyz": [1.218217, 2.110014, 5.655656904403]}, {"species": [{"element": "W", "occu": 1}], "abc": [0.5, 0.5, 0.166666999999999], "properties": {"magmom": 0.001}, "label": "W", "xyz": [2.436434, 0.0, 1.1311340955969933]}]}, "task_ids": null, "uncorrected_energy_per_atom": null, "energy_per_atom": -21.668879650888886, "formation_energy_per_atom": -0.058215970888887004, "energy_above_hull": 0.09311756111111401, "is_stable": false, "equilibrium_reaction_energy_per_atom": null, "decomposes_to": null, "xas": null, "grain_boundaries": null, "band_gap": 0.0, "cbm": null, "vbm": null, "efermi": 7.36161348, "is_gap_direct": null, "is_metal": null, "es_source_calc_id": null, "bandstructure": null, "dos": null, "dos_energy_up": null, "dos_energy_down": null, "is_magnetic": null, "ordering": null, "total_magnetization": 0.0020348, "total_magnetization_normalized_vol": null, "total_magnetization_normalized_formula_units": null, "num_magnetic_sites": null, "num_unique_magnetic_sites": null, "types_of_magnetic_species": null, "bulk_modulus": null, "shear_modulus": null, "universal_anisotropy": null, "homogeneous_poisson": null, "e_total": null, "e_ionic": null, "e_electronic": null, "n": null, "e_ij_max": null, "weighted_surface_energy_EV_PER_ANG2": null, "weighted_surface_energy": null, "weighted_work_function": null, "surface_anisotropy": null, "shape_factor": null, "has_reconstructed": null, "possible_species": null, "has_props": null, "theoretical": null, "database_IDs": null, "fields_not_requested": ["builder_meta", "nsites", "elements", "nelements", "composition", "composition_reduced", "chemsys", "symmetry", "property_name", "deprecated", "deprecation_reasons", "last_updated", "origins", "warnings", "task_ids", "uncorrected_energy_per_atom", "equilibrium_reaction_energy_per_atom", "decomposes_to", "xas", "grain_boundaries", "cbm", "vbm", "is_gap_direct", "is_metal", "es_source_calc_id", "bandstructure", "dos", "dos_energy_up", "dos_energy_down", "is_magnetic", "ordering", "total_magnetization_normalized_vol", "total_magnetization_normalized_formula_units", "num_magnetic_sites", "num_unique_magnetic_sites", "types_of_magnetic_species", "bulk_modulus", "shear_modulus", "universal_anisotropy", "homogeneous_poisson", "e_total", "e_ionic", "e_electronic", "n", "e_ij_max", "weighted_surface_energy_EV_PER_ANG2", "weighted_surface_energy", "weighted_work_function", "surface_anisotropy", "shape_factor", "has_reconstructed", "possible_species", "has_props", "theoretical", "database_IDs"]}