{"builder_meta": null, "nsites": null, "elements": null, "nelements": null, "composition": null, "composition_reduced": null, "formula_pretty": "Al3Fe", "formula_anonymous": "AB3", "chemsys": null, "volume": 109.43277322920537, "density": 4.151306674196288, "density_atomic": 13.67909665365067, "symmetry": null, "property_name": null, "material_id": "mp-984873", "deprecated": null, "deprecation_reasons": null, "last_updated": null, "origins": null, "warnings": null, "structure": {"@module": "pymatgen.core.structure", "@class": "Structure", "charge": 0, "lattice": {"matrix": [[2.687488, -4.654865, 0.0], [2.687488, 4.654865, 0.0], [0.0, 0.0, 4.373849]], "pbc": [true, true, true], "a": 5.374975341187064, "b": 5.374975341187064, "c": 4.373849, "alpha": 90.0, "beta": 90.0, "gamma": 119.99999189080673, "volume": 109.43277322920537}, "properties": {}, "sites": [{"species": [{"element": "Al", "occu": 1}], "abc": [0.171302999999999, 0.342607, 0.25], "properties": {"magmom": -0.003}, "label": "Al", "xyz": [1.3811269580799974, 0.7973969939600046, 1.09346225]}, {"species": [{"element": "Al", "occu": 1}], "abc": [0.657393, 0.828697, 0.25], "properties": {"magmom": -0.002}, "label": "Al", "xyz": [3.9938490419200003, 0.7973969939600001, 1.09346225]}, {"species": [{"element": "Al", "occu": 1}], "abc": [0.171302999999999, 0.828697, 0.25], "properties": {"magmom": -0.004}, "label": "Al", "xyz": [2.687487999999998, 3.0600803218100046, 1.09346225]}, {"species": [{"element": "Al", "occu": 1}], "abc": [0.828697, 0.657393, 0.75], "properties": {"magmom": -0.003}, "label": "Al", "xyz": [3.9938490419200003, -0.7973969939600001, 3.28038675]}, {"species": [{"element": "Al", "occu": 1}], "abc": [0.342607, 0.171302999999999, 0.75], "properties": {"magmom": -0.002}, "label": "Al", "xyz": [1.3811269580799974, -0.7973969939600046, 3.28038675]}, {"species": [{"element": "Al", "occu": 1}], "abc": [0.828697, 0.171302999999999, 0.75], "properties": {"magmom": -0.004}, "label": "Al", "xyz": [2.687487999999998, -3.0600803218100046, 3.28038675]}, {"species": [{"element": "Fe", "occu": 1}], "abc": [0.333333, 0.666667, 0.75], "properties": {"magmom": 0.352}, "label": "Fe", "xyz": [2.687488, 1.55162476991, 3.28038675]}, {"species": [{"element": "Fe", "occu": 1}], "abc": [0.666667, 0.333333, 0.25], "properties": {"magmom": 0.34600000000000003}, "label": "Fe", "xyz": [2.687488, -1.55162476991, 1.09346225]}]}, "task_ids": null, "uncorrected_energy_per_atom": null, "energy_per_atom": -5.0807489325, "formation_energy_per_atom": -0.154061757499999, "energy_above_hull": 0.17269562333333302, "is_stable": false, "equilibrium_reaction_energy_per_atom": null, "decomposes_to": null, "xas": null, "grain_boundaries": null, "band_gap": 0.0, "cbm": null, "vbm": null, "efermi": 8.44147151, "is_gap_direct": null, "is_metal": null, "es_source_calc_id": null, "bandstructure": null, "dos": null, "dos_energy_up": null, "dos_energy_down": null, "is_magnetic": null, "ordering": null, "total_magnetization": 0.5927958, "total_magnetization_normalized_vol": null, "total_magnetization_normalized_formula_units": null, "num_magnetic_sites": null, "num_unique_magnetic_sites": null, "types_of_magnetic_species": null, "bulk_modulus": null, "shear_modulus": null, "universal_anisotropy": null, "homogeneous_poisson": null, "e_total": null, "e_ionic": null, "e_electronic": null, "n": null, "e_ij_max": null, "weighted_surface_energy_EV_PER_ANG2": null, "weighted_surface_energy": null, "weighted_work_function": null, "surface_anisotropy": null, "shape_factor": null, "has_reconstructed": null, "possible_species": null, "has_props": null, "theoretical": null, "database_IDs": null, "fields_not_requested": ["builder_meta", "nsites", "elements", "nelements", "composition", "composition_reduced", "chemsys", "symmetry", "property_name", "deprecated", "deprecation_reasons", "last_updated", "origins", "warnings", "task_ids", "uncorrected_energy_per_atom", "equilibrium_reaction_energy_per_atom", "decomposes_to", "xas", "grain_boundaries", "cbm", "vbm", "is_gap_direct", "is_metal", "es_source_calc_id", "bandstructure", "dos", "dos_energy_up", "dos_energy_down", "is_magnetic", "ordering", "total_magnetization_normalized_vol", "total_magnetization_normalized_formula_units", "num_magnetic_sites", "num_unique_magnetic_sites", "types_of_magnetic_species", "bulk_modulus", "shear_modulus", "universal_anisotropy", "homogeneous_poisson", "e_total", "e_ionic", "e_electronic", "n", "e_ij_max", "weighted_surface_energy_EV_PER_ANG2", "weighted_surface_energy", "weighted_work_function", "surface_anisotropy", "shape_factor", "has_reconstructed", "possible_species", "has_props", "theoretical", "database_IDs"]}