{
  "builder_meta": null,
  "nsites": null,
  "elements": null,
  "nelements": null,
  "composition": null,
  "composition_reduced": null,
  "formula_pretty": "Al3Mo",
  "formula_anonymous": "AB3",
  "chemsys": null,
  "volume": 239.09414952668516,
  "density": 4.9139439906479065,
  "density_atomic": 14.943384345417822,
  "symmetry": null,
  "property_name": null,
  "material_id": "mp-571247",
  "deprecated": null,
  "deprecation_reasons": null,
  "last_updated": null,
  "origins": null,
  "warnings": null,
  "structure": {
    "@module": "pymatgen.core.structure",
    "@class": "Structure",
    "charge": 0,
    "lattice": {
      "matrix": [
        [3.49931955, 0.00010404, -0.76770877],
        [-0.37052406, 8.15836575, -1.689607689999999],
        [0.0038201, -0.00704483, 8.37562889]
      ],
      "pbc": [true, true, true],
      "a": 3.5825429626693155,
      "b": 8.339723852497698,
      "c": 8.37563272390787,
      "alpha": 101.7382254618897,
      "beta": 102.34783339037573,
      "gamma": 89.99732797774892,
      "volume": 239.09414952668516
    },
    "properties": {},
    "sites": [
      {
        "species": [{ "element": "Al", "occu": 1 }],
        "abc": [0.12615453000000001, 0.65604361, 0.25268457],
        "properties": { "magmom": -0.0 },
        "label": "Al",
        "xyz": [0.199340351561662, 5.350476723608386, 0.911085917061639]
      },
      {
        "species": [{ "element": "Al", "occu": 1 }],
        "abc": [0.12525083, 0.14595466, 0.25027024000000003],
        "properties": { "magmom": 0.0 },
        "label": "Al",
        "xyz": [0.38516902221743093, 1.189001418998389, 1.7534083758831194]
      },
      {
        "species": [{ "element": "Al", "occu": 1 }],
        "abc": [0.62500897, 0.39673638, 0.24995247],
        "properties": { "magmom": -0.0 },
        "label": "Al",
        "xyz": [2.0410605768097074, 3.2350246476449938, 0.9433554227104297]
      },
      {
        "species": [{ "element": "Al", "occu": 1 }],
        "abc": [0.74859536, 0.69611652, 0.49733861],
        "properties": { "magmom": -0.0 },
        "label": "Al",
        "xyz": [2.363546342287878, 5.6757473926785575, 2.4146565816470975]
      },
      {
        "species": [{ "element": "Al", "occu": 1 }],
        "abc": [0.50295301, 0.59642955, 0.00607856],
        "properties": { "magmom": -0.0 },
        "label": "Al",
        "xyz": [1.5390250229614286, 4.865899917817228, -1.3429416281525381]
      },
      {
        "species": [{ "element": "Al", "occu": 1 }],
        "abc": [0.7499378800000001, 0.2061343, 0.49979988000000003],
        "properties": { "magmom": -0.0 },
        "label": "Al",
        "xyz": [2.5498038525498843, 1.6782760313686398, 3.262118328262559]
      },
      {
        "species": [{ "element": "Al", "occu": 1 }],
        "abc": [0.37189996000000003, 0.7558686800000001, 0.74393593],
        "properties": { "magmom": 0.0 },
        "label": "Al",
        "xyz": [1.02417117817797, 6.161450940723807, 4.66829887240422]
      },
      {
        "species": [{ "element": "Al", "occu": 1 }],
        "abc": [0.003194599999999, 0.85404389, 0.00637518],
        "properties": { "magmom": -0.0 },
        "label": "Al",
        "xyz": [-0.30524052948144886, 6.967557841479632, -1.3920555047912042]
      },
      {
        "species": [{ "element": "Al", "occu": 1 }],
        "abc": [0.49762458, 0.09215581, 0.9951700000000001],
        "properties": { "magmom": -0.0 },
        "label": "Al",
        "xyz": [1.7110031253977505, 0.7448817733577108, 7.797436682973555]
      },
      {
        "species": [{ "element": "Al", "occu": 1 }],
        "abc": [0.25001788, 0.95533715, 0.500010899999999],
        "properties": { "magmom": -0.0 },
        "label": "Al",
        "xyz": [0.522827147485815, 7.7904934043342005, 2.3818198250394023]
      },
      {
        "species": [{ "element": "Al", "occu": 1 }],
        "abc": [0.37743144, 0.26019729, 0.75474909],
        "properties": { "magmom": 0.0 },
        "label": "Al",
        "xyz": [1.2272270774835636, 2.1175068479141306, 5.592109514242321]
      },
      {
        "species": [{ "element": "Al", "occu": 1 }],
        "abc": [0.87193816, 0.49832241, 0.74367757],
        "properties": { "magmom": 0.0 },
        "label": "Al",
        "xyz": [2.8693907298220007, 4.06034811659216, 4.7174033917720015]
      },
      {
        "species": [{ "element": "Mo", "occu": 1 }],
        "abc": [0.01071629, 0.35503731, 0.021500230000000002],
        "properties": { "magmom": -0.0 },
        "label": "Mo",
        "xyz": [-0.09396800942358607, 2.8963738793336327, -0.42802281149813215]
      },
      {
        "species": [{ "element": "Mo", "occu": 1 }],
        "abc": [0.63277349, 0.9042964800000001, 0.26562644],
        "properties": { "magmom": 0.0 },
        "label": "Mo",
        "xyz": [1.880227760628865, 7.375775970918155, 0.21109644046741405]
      },
      {
        "species": [{ "element": "Mo", "occu": 1 }],
        "abc": [0.24222976000000002, 0.44789255, 0.48437715000000003],
        "properties": { "magmom": -0.0 },
        "label": "Mo",
        "xyz": [0.68353473784077, 3.6506840865067587, 3.1142386433151596]
      },
      {
        "species": [{ "element": "Mo", "occu": 1 }],
        "abc": [0.8642702600000001, 0.9972314, 0.7284561700000001],
        "properties": { "magmom": -0.0 },
        "label": "Mo",
        "xyz": [2.6576423656291164, 8.1307365673823, 3.7528408421491064]
      }
    ]
  },
  "task_ids": null,
  "uncorrected_energy_per_atom": null,
  "energy_per_atom": -11.93056367125,
  "formation_energy_per_atom": -0.363495063749999,
  "energy_above_hull": 0.0,
  "is_stable": true,
  "equilibrium_reaction_energy_per_atom": null,
  "decomposes_to": null,
  "xas": null,
  "grain_boundaries": null,
  "band_gap": 0.0,
  "cbm": null,
  "vbm": null,
  "efermi": 8.4196793,
  "is_gap_direct": null,
  "is_metal": null,
  "es_source_calc_id": null,
  "bandstructure": null,
  "dos": null,
  "dos_energy_up": null,
  "dos_energy_down": null,
  "is_magnetic": null,
  "ordering": null,
  "total_magnetization": 0.0,
  "total_magnetization_normalized_vol": null,
  "total_magnetization_normalized_formula_units": null,
  "num_magnetic_sites": null,
  "num_unique_magnetic_sites": null,
  "types_of_magnetic_species": null,
  "bulk_modulus": null,
  "shear_modulus": null,
  "universal_anisotropy": null,
  "homogeneous_poisson": null,
  "e_total": null,
  "e_ionic": null,
  "e_electronic": null,
  "n": null,
  "e_ij_max": null,
  "weighted_surface_energy_EV_PER_ANG2": null,
  "weighted_surface_energy": null,
  "weighted_work_function": null,
  "surface_anisotropy": null,
  "shape_factor": null,
  "has_reconstructed": null,
  "possible_species": null,
  "has_props": null,
  "theoretical": null,
  "database_IDs": null,
  "fields_not_requested": [
    "builder_meta",
    "nsites",
    "elements",
    "nelements",
    "composition",
    "composition_reduced",
    "chemsys",
    "symmetry",
    "property_name",
    "deprecated",
    "deprecation_reasons",
    "last_updated",
    "origins",
    "warnings",
    "task_ids",
    "uncorrected_energy_per_atom",
    "equilibrium_reaction_energy_per_atom",
    "decomposes_to",
    "xas",
    "grain_boundaries",
    "cbm",
    "vbm",
    "is_gap_direct",
    "is_metal",
    "es_source_calc_id",
    "bandstructure",
    "dos",
    "dos_energy_up",
    "dos_energy_down",
    "is_magnetic",
    "ordering",
    "total_magnetization_normalized_vol",
    "total_magnetization_normalized_formula_units",
    "num_magnetic_sites",
    "num_unique_magnetic_sites",
    "types_of_magnetic_species",
    "bulk_modulus",
    "shear_modulus",
    "universal_anisotropy",
    "homogeneous_poisson",
    "e_total",
    "e_ionic",
    "e_electronic",
    "n",
    "e_ij_max",
    "weighted_surface_energy_EV_PER_ANG2",
    "weighted_surface_energy",
    "weighted_work_function",
    "surface_anisotropy",
    "shape_factor",
    "has_reconstructed",
    "possible_species",
    "has_props",
    "theoretical",
    "database_IDs"
  ]
}
