{"builder_meta": null, "nsites": null, "elements": null, "nelements": null, "composition": null, "composition_reduced": null, "formula_pretty": "Al3Ni5", "formula_anonymous": "A3B5", "chemsys": null, "volume": 90.37206581100932, "density": 6.879616056635388, "density_atomic": 11.296508226376165, "symmetry": null, "property_name": null, "material_id": "mp-16514", "deprecated": null, "deprecation_reasons": null, "last_updated": null, "origins": null, "warnings": null, "structure": {"@module": "pymatgen.core.structure", "@class": "Structure", "charge": 0, "lattice": {"matrix": [[3.72527337, 0.0, 0.0], [0.0, 4.9112235, -0.5636153700000001], [0.0, -0.03319863, 4.9433482699999995]], "pbc": [true, true, true], "a": 3.72527337, "b": 4.94345815722683, "c": 4.94345974673061, "alpha": 96.93144550351933, "beta": 90.0, "gamma": 90.0, "volume": 90.3720658110093}, "properties": {}, "sites": [{"species": [{"element": "Al", "occu": 1}], "abc": [-0.0, 0.5, 0.5], "properties": {"magmom": 0.0}, "label": "Al", "xyz": [0.0, 2.439012435, 2.18986645]}, {"species": [{"element": "Al", "occu": 1}], "abc": [0.5, 0.22126299, 0.7787370100000001], "properties": {"magmom": -0.0}, "label": "Al", "xyz": [1.862636685, 1.0608189943059687, 3.7248610291923163]}, {"species": [{"element": "Al", "occu": 1}], "abc": [0.5, 0.7787370100000001, 0.22126299], "properties": {"magmom": -0.0}, "label": "Al", "xyz": [1.862636685, 3.817205875694032, 0.6548718708076835]}, {"species": [{"element": "Ni", "occu": 1}], "abc": [-0.0, 0.0, 0.0], "properties": {"magmom": -0.0}, "label": "Ni", "xyz": [0.0, 0.0, 0.0]}, {"species": [{"element": "Ni", "occu": 1}], "abc": [-0.0, 0.5, 0.0], "properties": {"magmom": -0.0}, "label": "Ni", "xyz": [0.0, 2.45561175, -0.28180768500000003]}, {"species": [{"element": "Ni", "occu": 1}], "abc": [-0.0, 0.0, 0.5], "properties": {"magmom": -0.0}, "label": "Ni", "xyz": [0.0, -0.016599315, 2.4716741349999998]}, {"species": [{"element": "Ni", "occu": 1}], "abc": [0.5, 0.27589205, 0.27589205], "properties": {"magmom": -0.0}, "label": "Ni", "xyz": [1.862636685, 1.3458082813352834, 1.2083334882334449]}, {"species": [{"element": "Ni", "occu": 1}], "abc": [0.5, 0.7241079500000001, 0.7241079500000001], "properties": {"magmom": -0.0}, "label": "Ni", "xyz": [1.862636685, 3.5322165886647166, 3.1713994117665547]}]}, "task_ids": null, "uncorrected_energy_per_atom": null, "energy_per_atom": -10.57636064375, "formation_energy_per_atom": -0.563250544999998, "energy_above_hull": 0.0, "is_stable": true, "equilibrium_reaction_energy_per_atom": null, "decomposes_to": null, "xas": null, "grain_boundaries": null, "band_gap": 0.0, "cbm": null, "vbm": null, "efermi": 8.91322567, "is_gap_direct": null, "is_metal": null, "es_source_calc_id": null, "bandstructure": null, "dos": null, "dos_energy_up": null, "dos_energy_down": null, "is_magnetic": null, "ordering": null, "total_magnetization": 1e-07, "total_magnetization_normalized_vol": null, "total_magnetization_normalized_formula_units": null, "num_magnetic_sites": null, "num_unique_magnetic_sites": null, "types_of_magnetic_species": null, "bulk_modulus": null, "shear_modulus": null, "universal_anisotropy": null, "homogeneous_poisson": null, "e_total": null, "e_ionic": null, "e_electronic": null, "n": null, "e_ij_max": null, "weighted_surface_energy_EV_PER_ANG2": null, "weighted_surface_energy": null, "weighted_work_function": null, "surface_anisotropy": null, "shape_factor": null, "has_reconstructed": null, "possible_species": null, "has_props": null, "theoretical": null, "database_IDs": null, "fields_not_requested": ["builder_meta", "nsites", "elements", "nelements", "composition", "composition_reduced", "chemsys", "symmetry", "property_name", "deprecated", "deprecation_reasons", "last_updated", "origins", "warnings", "task_ids", "uncorrected_energy_per_atom", "equilibrium_reaction_energy_per_atom", "decomposes_to", "xas", "grain_boundaries", "cbm", "vbm", "is_gap_direct", "is_metal", "es_source_calc_id", "bandstructure", "dos", "dos_energy_up", "dos_energy_down", "is_magnetic", "ordering", "total_magnetization_normalized_vol", "total_magnetization_normalized_formula_units", "num_magnetic_sites", "num_unique_magnetic_sites", "types_of_magnetic_species", "bulk_modulus", "shear_modulus", "universal_anisotropy", "homogeneous_poisson", "e_total", "e_ionic", "e_electronic", "n", "e_ij_max", "weighted_surface_energy_EV_PER_ANG2", "weighted_surface_energy", "weighted_work_function", "surface_anisotropy", "shape_factor", "has_reconstructed", "possible_species", "has_props", "theoretical", "database_IDs"]}