{"builder_meta": null, "nsites": null, "elements": null, "nelements": null, "composition": null, "composition_reduced": null, "formula_pretty": "Al3Ni2", "formula_anonymous": "A2B3", "chemsys": null, "volume": 67.43506090961826, "density": 4.883766094782531, "density_atomic": 13.487012181923651, "symmetry": null, "property_name": null, "material_id": "mp-1057", "deprecated": null, "deprecation_reasons": null, "last_updated": null, "origins": null, "warnings": null, "structure": {"@module": "pymatgen.core.structure", "@class": "Structure", "charge": 0, "lattice": {"matrix": [[3.994196, 0.0, 0.0], [-1.997099, 3.459074, 0.0], [0.0, 0.0, 4.880862]], "pbc": [true, true, true], "a": 3.994196, "b": 3.994195457570523, "c": 4.880862, "alpha": 90.0, "beta": 90.0, "gamma": 120.00002105628026, "volume": 67.43506090961826}, "properties": {}, "sites": [{"species": [{"element": "Al", "occu": 1}], "abc": [0.0, 0.0, 0.0], "properties": {"magmom": -0.0}, "label": "Al", "xyz": [0.0, 0.0, 0.0]}, {"species": [{"element": "Al", "occu": 1}], "abc": [0.333333, 0.666667, 0.648083], "properties": {"magmom": 0.0}, "label": "Al", "xyz": [-2.6637649999106117e-06, 2.306050486358, 3.1632036875459995]}, {"species": [{"element": "Al", "occu": 1}], "abc": [0.666667, 0.333333, 0.351917], "properties": {"magmom": 0.0}, "label": "Al", "xyz": [1.9970996637650003, 1.153023513642, 1.7176583124539997]}, {"species": [{"element": "Ni", "occu": 1}], "abc": [0.333333, 0.666667, 0.146571999999999], "properties": {"magmom": -0.0}, "label": "Ni", "xyz": [-2.6637649999106117e-06, 2.306050486358, 0.7153977050639951]}, {"species": [{"element": "Ni", "occu": 1}], "abc": [0.666667, 0.333333, 0.853428], "properties": {"magmom": -0.0}, "label": "Ni", "xyz": [1.9970996637650003, 1.153023513642, 4.165464294935999]}]}, "task_ids": null, "uncorrected_energy_per_atom": null, "energy_per_atom": -9.47616249, "formation_energy_per_atom": -0.644216627999999, "energy_above_hull": 0.0, "is_stable": true, "equilibrium_reaction_energy_per_atom": null, "decomposes_to": null, "xas": null, "grain_boundaries": null, "band_gap": 0.0, "cbm": null, "vbm": null, "efermi": 8.48830948, "is_gap_direct": null, "is_metal": null, "es_source_calc_id": null, "bandstructure": null, "dos": null, "dos_energy_up": null, "dos_energy_down": null, "is_magnetic": null, "ordering": null, "total_magnetization": 8e-07, "total_magnetization_normalized_vol": null, "total_magnetization_normalized_formula_units": null, "num_magnetic_sites": null, "num_unique_magnetic_sites": null, "types_of_magnetic_species": null, "bulk_modulus": null, "shear_modulus": null, "universal_anisotropy": null, "homogeneous_poisson": null, "e_total": null, "e_ionic": null, "e_electronic": null, "n": null, "e_ij_max": null, "weighted_surface_energy_EV_PER_ANG2": null, "weighted_surface_energy": null, "weighted_work_function": null, "surface_anisotropy": null, "shape_factor": null, "has_reconstructed": null, "possible_species": null, "has_props": null, "theoretical": null, "database_IDs": null, "fields_not_requested": ["builder_meta", "nsites", "elements", "nelements", "composition", "composition_reduced", "chemsys", "symmetry", "property_name", "deprecated", "deprecation_reasons", "last_updated", "origins", "warnings", "task_ids", "uncorrected_energy_per_atom", "equilibrium_reaction_energy_per_atom", "decomposes_to", "xas", "grain_boundaries", "cbm", "vbm", "is_gap_direct", "is_metal", "es_source_calc_id", "bandstructure", "dos", "dos_energy_up", "dos_energy_down", "is_magnetic", "ordering", "total_magnetization_normalized_vol", "total_magnetization_normalized_formula_units", "num_magnetic_sites", "num_unique_magnetic_sites", "types_of_magnetic_species", "bulk_modulus", "shear_modulus", "universal_anisotropy", "homogeneous_poisson", "e_total", "e_ionic", "e_electronic", "n", "e_ij_max", "weighted_surface_energy_EV_PER_ANG2", "weighted_surface_energy", "weighted_work_function", "surface_anisotropy", "shape_factor", "has_reconstructed", "possible_species", "has_props", "theoretical", "database_IDs"]}