{
  "builder_meta": null,
  "nsites": null,
  "elements": null,
  "nelements": null,
  "composition": null,
  "composition_reduced": null,
  "formula_pretty": "Al3Os2",
  "formula_anonymous": "A2B3",
  "chemsys": null,
  "volume": 68.3190273989156,
  "density": 11.214743816122077,
  "density_atomic": 13.663805479783118,
  "symmetry": null,
  "property_name": null,
  "material_id": "mp-16521",
  "deprecated": null,
  "deprecation_reasons": null,
  "last_updated": null,
  "origins": null,
  "warnings": null,
  "structure": {
    "@module": "pymatgen.core.structure",
    "@class": "Structure",
    "charge": 0,
    "lattice": {
      "matrix": [
        [3.03971621, -0.00046706, -0.6501861600000001],
        [-0.13955827, 3.03651118, -0.6501861600000001],
        [-0.00545813, -0.00571362, 7.40423826]
      ],
      "pbc": [true, true, true],
      "a": 3.108475011663654,
      "b": 3.1084753014373354,
      "c": 7.40424247627564,
      "alpha": 102.11568380394718,
      "beta": 102.11568686979273,
      "gamma": 90.01715873298332,
      "volume": 68.3190273989156
    },
    "properties": {},
    "sites": [
      {
        "species": [{ "element": "Al", "occu": 1 }],
        "abc": [0.0, 0.0, 0.0],
        "properties": { "magmom": 0.0 },
        "label": "Al",
        "xyz": [0.0, 0.0, 0.0]
      },
      {
        "species": [{ "element": "Al", "occu": 1 }],
        "abc": [0.19569984, 0.19569984, 0.39165419],
        "properties": { "magmom": 0.0 },
        "label": "Al",
        "xyz": [0.5654227453486649, 0.591915585303873, 2.6454182833228805]
      },
      {
        "species": [{ "element": "Al", "occu": 1 }],
        "abc": [0.80430016, 0.80430016, 0.60834681],
        "properties": { "magmom": 0.0 },
        "label": "Al",
        "xyz": [2.3292770591932053, 2.4384149089825073, 3.4584550609153792]
      },
      {
        "species": [{ "element": "Os", "occu": 1 }],
        "abc": [0.39275914, 0.39275914, 0.78540204],
        "properties": { "magmom": -0.0 },
        "label": "Os",
        "xyz": [1.1347767119419865, 1.187946588769472, 5.304570719967046]
      },
      {
        "species": [{ "element": "Os", "occu": 1 }],
        "abc": [0.60724086, 0.60724086, 0.21459696],
        "properties": { "magmom": -0.0 },
        "label": "Os",
        "xyz": [1.7599231035161436, 1.842383916944148, 0.7992878157946942]
      }
    ]
  },
  "task_ids": null,
  "uncorrected_energy_per_atom": null,
  "energy_per_atom": -25.829203352,
  "formation_energy_per_atom": -0.595852814000002,
  "energy_above_hull": 0.007409683000005001,
  "is_stable": false,
  "equilibrium_reaction_energy_per_atom": null,
  "decomposes_to": null,
  "xas": null,
  "grain_boundaries": null,
  "band_gap": 0.0,
  "cbm": null,
  "vbm": null,
  "efermi": 8.99581627,
  "is_gap_direct": null,
  "is_metal": null,
  "es_source_calc_id": null,
  "bandstructure": null,
  "dos": null,
  "dos_energy_up": null,
  "dos_energy_down": null,
  "is_magnetic": null,
  "ordering": null,
  "total_magnetization": 0.0,
  "total_magnetization_normalized_vol": null,
  "total_magnetization_normalized_formula_units": null,
  "num_magnetic_sites": null,
  "num_unique_magnetic_sites": null,
  "types_of_magnetic_species": null,
  "bulk_modulus": null,
  "shear_modulus": null,
  "universal_anisotropy": null,
  "homogeneous_poisson": null,
  "e_total": null,
  "e_ionic": null,
  "e_electronic": null,
  "n": null,
  "e_ij_max": null,
  "weighted_surface_energy_EV_PER_ANG2": null,
  "weighted_surface_energy": null,
  "weighted_work_function": null,
  "surface_anisotropy": null,
  "shape_factor": null,
  "has_reconstructed": null,
  "possible_species": null,
  "has_props": null,
  "theoretical": null,
  "database_IDs": null,
  "fields_not_requested": [
    "builder_meta",
    "nsites",
    "elements",
    "nelements",
    "composition",
    "composition_reduced",
    "chemsys",
    "symmetry",
    "property_name",
    "deprecated",
    "deprecation_reasons",
    "last_updated",
    "origins",
    "warnings",
    "task_ids",
    "uncorrected_energy_per_atom",
    "equilibrium_reaction_energy_per_atom",
    "decomposes_to",
    "xas",
    "grain_boundaries",
    "cbm",
    "vbm",
    "is_gap_direct",
    "is_metal",
    "es_source_calc_id",
    "bandstructure",
    "dos",
    "dos_energy_up",
    "dos_energy_down",
    "is_magnetic",
    "ordering",
    "total_magnetization_normalized_vol",
    "total_magnetization_normalized_formula_units",
    "num_magnetic_sites",
    "num_unique_magnetic_sites",
    "types_of_magnetic_species",
    "bulk_modulus",
    "shear_modulus",
    "universal_anisotropy",
    "homogeneous_poisson",
    "e_total",
    "e_ionic",
    "e_electronic",
    "n",
    "e_ij_max",
    "weighted_surface_energy_EV_PER_ANG2",
    "weighted_surface_energy",
    "weighted_work_function",
    "surface_anisotropy",
    "shape_factor",
    "has_reconstructed",
    "possible_species",
    "has_props",
    "theoretical",
    "database_IDs"
  ]
}
