{
  "builder_meta": null,
  "nsites": null,
  "elements": null,
  "nelements": null,
  "composition": null,
  "composition_reduced": null,
  "formula_pretty": "Al3Pt2",
  "formula_anonymous": "A2B3",
  "chemsys": null,
  "volume": 79.5399117928314,
  "density": 9.835325255848748,
  "density_atomic": 15.907982358566281,
  "symmetry": null,
  "property_name": null,
  "material_id": "mp-10905",
  "deprecated": null,
  "deprecation_reasons": null,
  "last_updated": null,
  "origins": null,
  "warnings": null,
  "structure": {
    "@module": "pymatgen.core.structure",
    "@class": "Structure",
    "charge": 0,
    "lattice": {
      "matrix": [
        [4.2071405, 0.0, 0.0],
        [-2.10356875, 3.64349034, 0.0],
        [0.0, 0.0, 5.18896172]
      ],
      "pbc": [true, true, true],
      "a": 4.2071405,
      "b": 4.207139567883371,
      "c": 5.18896172,
      "alpha": 90.0,
      "beta": 90.0,
      "gamma": 119.9999837407282,
      "volume": 79.5399117928314
    },
    "properties": {},
    "sites": [
      {
        "species": [{ "element": "Al", "occu": 1 }],
        "abc": [-0.0, -0.0, 0.0],
        "properties": { "magmom": -0.0 },
        "label": "Al",
        "xyz": [0.0, 0.0, 0.0]
      },
      {
        "species": [{ "element": "Al", "occu": 1 }],
        "abc": [0.333333, 0.666667, 0.6468302300000001],
        "properties": { "magmom": 0.0 },
        "label": "Al",
        "xyz": [-1.1035697500272335e-6, 2.42899477449678, 3.356377302808796]
      },
      {
        "species": [{ "element": "Al", "occu": 1 }],
        "abc": [0.666667, 0.333333, 0.35316977],
        "properties": { "magmom": 0.0 },
        "label": "Al",
        "xyz": [2.1035728535697507, 1.21449556550322, 1.8325844171912045]
      },
      {
        "species": [{ "element": "Pt", "occu": 1 }],
        "abc": [0.333333, 0.666667, 0.166125499999999],
        "properties": { "magmom": 0.0 },
        "label": "Pt",
        "xyz": [-1.1035697500272335e-6, 2.42899477449678, 0.8620188602158548]
      },
      {
        "species": [{ "element": "Pt", "occu": 1 }],
        "abc": [0.666667, 0.333333, 0.8338745],
        "properties": { "magmom": 0.0 },
        "label": "Pt",
        "xyz": [2.1035728535697507, 1.21449556550322, 4.32694285978414]
      }
    ]
  },
  "task_ids": null,
  "uncorrected_energy_per_atom": null,
  "energy_per_atom": -25.73697062,
  "formation_energy_per_atom": -1.102624861999999,
  "energy_above_hull": 0.0,
  "is_stable": true,
  "equilibrium_reaction_energy_per_atom": null,
  "decomposes_to": null,
  "xas": null,
  "grain_boundaries": null,
  "band_gap": 0.0,
  "cbm": null,
  "vbm": null,
  "efermi": 8.440594130000001,
  "is_gap_direct": null,
  "is_metal": null,
  "es_source_calc_id": null,
  "bandstructure": null,
  "dos": null,
  "dos_energy_up": null,
  "dos_energy_down": null,
  "is_magnetic": null,
  "ordering": null,
  "total_magnetization": 0.0,
  "total_magnetization_normalized_vol": null,
  "total_magnetization_normalized_formula_units": null,
  "num_magnetic_sites": null,
  "num_unique_magnetic_sites": null,
  "types_of_magnetic_species": null,
  "bulk_modulus": null,
  "shear_modulus": null,
  "universal_anisotropy": null,
  "homogeneous_poisson": null,
  "e_total": null,
  "e_ionic": null,
  "e_electronic": null,
  "n": null,
  "e_ij_max": null,
  "weighted_surface_energy_EV_PER_ANG2": null,
  "weighted_surface_energy": null,
  "weighted_work_function": null,
  "surface_anisotropy": null,
  "shape_factor": null,
  "has_reconstructed": null,
  "possible_species": null,
  "has_props": null,
  "theoretical": null,
  "database_IDs": null,
  "fields_not_requested": [
    "builder_meta",
    "nsites",
    "elements",
    "nelements",
    "composition",
    "composition_reduced",
    "chemsys",
    "symmetry",
    "property_name",
    "deprecated",
    "deprecation_reasons",
    "last_updated",
    "origins",
    "warnings",
    "task_ids",
    "uncorrected_energy_per_atom",
    "equilibrium_reaction_energy_per_atom",
    "decomposes_to",
    "xas",
    "grain_boundaries",
    "cbm",
    "vbm",
    "is_gap_direct",
    "is_metal",
    "es_source_calc_id",
    "bandstructure",
    "dos",
    "dos_energy_up",
    "dos_energy_down",
    "is_magnetic",
    "ordering",
    "total_magnetization_normalized_vol",
    "total_magnetization_normalized_formula_units",
    "num_magnetic_sites",
    "num_unique_magnetic_sites",
    "types_of_magnetic_species",
    "bulk_modulus",
    "shear_modulus",
    "universal_anisotropy",
    "homogeneous_poisson",
    "e_total",
    "e_ionic",
    "e_electronic",
    "n",
    "e_ij_max",
    "weighted_surface_energy_EV_PER_ANG2",
    "weighted_surface_energy",
    "weighted_work_function",
    "surface_anisotropy",
    "shape_factor",
    "has_reconstructed",
    "possible_species",
    "has_props",
    "theoretical",
    "database_IDs"
  ]
}
