{"builder_meta": null, "nsites": null, "elements": null, "nelements": null, "composition": null, "composition_reduced": null, "formula_pretty": "Al3Pd5", "formula_anonymous": "A3B5", "chemsys": null, "volume": 228.7686352796945, "density": 8.899686207946214, "density_atomic": 14.298039704980907, "symmetry": null, "property_name": null, "material_id": "mp-16523", "deprecated": null, "deprecation_reasons": null, "last_updated": null, "origins": null, "warnings": null, "structure": {"@module": "pymatgen.core.structure", "@class": "Structure", "charge": 0, "lattice": {"matrix": [[4.0435376, 0.0, 0.0], [0.0, 5.37832577, 0.0], [0.0, 0.0, 10.51932544]], "pbc": [true, true, true], "a": 4.0435376, "b": 5.37832577, "c": 10.51932544, "alpha": 90.0, "beta": 90.0, "gamma": 90.0, "volume": 228.7686352796945}, "properties": {}, "sites": [{"species": [{"element": "Al", "occu": 1}], "abc": [-0.0, -0.0, 0.0], "properties": {"magmom": 0.0}, "label": "Al", "xyz": [0.0, 0.0, 0.0]}, {"species": [{"element": "Al", "occu": 1}], "abc": [-0.0, 0.5, 0.5], "properties": {"magmom": 0.0}, "label": "Al", "xyz": [0.0, 2.689162885, 5.25966272]}, {"species": [{"element": "Al", "occu": 1}], "abc": [0.5, 0.16398209, 0.35812401], "properties": {"magmom": -0.0}, "label": "Al", "xyz": [2.0217688, 0.8819491004654593, 3.767223009067814]}, {"species": [{"element": "Al", "occu": 1}], "abc": [0.5, 0.83601791, 0.6418759900000001], "properties": {"magmom": -0.0}, "label": "Al", "xyz": [2.0217688, 4.496376669534541, 6.752102430932186]}, {"species": [{"element": "Al", "occu": 1}], "abc": [0.5, 0.66398209, 0.14187599], "properties": {"magmom": -0.0}, "label": "Al", "xyz": [2.0217688, 3.571111985465459, 1.4924397109321856]}, {"species": [{"element": "Al", "occu": 1}], "abc": [0.5, 0.33601791000000003, 0.85812401], "properties": {"magmom": -0.0}, "label": "Al", "xyz": [2.0217688, 1.8072137845345408, 9.026885729067814]}, {"species": [{"element": "Pd", "occu": 1}], "abc": [0.5, 0.18720419, 0.10601385], "properties": {"magmom": 0.0}, "label": "Pd", "xyz": [2.0217688, 1.0068451193289762, 1.115194189297344]}, {"species": [{"element": "Pd", "occu": 1}], "abc": [0.5, 0.81279581, 0.89398615], "properties": {"magmom": 0.0}, "label": "Pd", "xyz": [2.0217688, 4.371480650671024, 9.404131250702656]}, {"species": [{"element": "Pd", "occu": 1}], "abc": [0.5, 0.68720419, 0.39398615000000003], "properties": {"magmom": 0.0}, "label": "Pd", "xyz": [2.0217688, 3.6960080043289762, 4.144468530702656]}, {"species": [{"element": "Pd", "occu": 1}], "abc": [0.5, 0.31279581, 0.60601385], "properties": {"magmom": 0.0}, "label": "Pd", "xyz": [2.0217688, 1.6823177656710238, 6.3748569092973435]}, {"species": [{"element": "Pd", "occu": 1}], "abc": [-0.0, -0.0, 0.5], "properties": {"magmom": 0.0}, "label": "Pd", "xyz": [0.0, 0.0, 5.25966272]}, {"species": [{"element": "Pd", "occu": 1}], "abc": [-0.0, 0.5, 0.0], "properties": {"magmom": 0.0}, "label": "Pd", "xyz": [0.0, 2.689162885, 0.0]}, {"species": [{"element": "Pd", "occu": 1}], "abc": [-0.0, 0.90541832, 0.23262623000000002], "properties": {"magmom": -0.0}, "label": "Pd", "xyz": [0.0, 4.869634683086106, 2.4470710192502914]}, {"species": [{"element": "Pd", "occu": 1}], "abc": [-0.0, 0.09458168, 0.7673737700000001], "properties": {"magmom": -0.0}, "label": "Pd", "xyz": [0.0, 0.5086910869138936, 8.07225442074971]}, {"species": [{"element": "Pd", "occu": 1}], "abc": [0.0, 0.40541832, 0.26737377], "properties": {"magmom": -0.0}, "label": "Pd", "xyz": [0.0, 2.1804717980861064, 2.8125917007497088]}, {"species": [{"element": "Pd", "occu": 1}], "abc": [0.0, 0.59458168, 0.73262623], "properties": {"magmom": -0.0}, "label": "Pd", "xyz": [0.0, 3.1978539719138936, 7.706733739250291]}]}, "task_ids": null, "uncorrected_energy_per_atom": null, "energy_per_atom": -17.732353604375, "formation_energy_per_atom": -0.857533224374996, "energy_above_hull": 0.0, "is_stable": true, "equilibrium_reaction_energy_per_atom": null, "decomposes_to": null, "xas": null, "grain_boundaries": null, "band_gap": 0.0, "cbm": null, "vbm": null, "efermi": 6.61799482, "is_gap_direct": null, "is_metal": null, "es_source_calc_id": null, "bandstructure": null, "dos": null, "dos_energy_up": null, "dos_energy_down": null, "is_magnetic": null, "ordering": null, "total_magnetization": 0.0, "total_magnetization_normalized_vol": null, "total_magnetization_normalized_formula_units": null, "num_magnetic_sites": null, "num_unique_magnetic_sites": null, "types_of_magnetic_species": null, "bulk_modulus": null, "shear_modulus": null, "universal_anisotropy": null, "homogeneous_poisson": null, "e_total": null, "e_ionic": null, "e_electronic": null, "n": null, "e_ij_max": null, "weighted_surface_energy_EV_PER_ANG2": null, "weighted_surface_energy": null, "weighted_work_function": null, "surface_anisotropy": null, "shape_factor": null, "has_reconstructed": null, "possible_species": null, "has_props": null, "theoretical": null, "database_IDs": null, "fields_not_requested": ["builder_meta", "nsites", "elements", "nelements", "composition", "composition_reduced", "chemsys", "symmetry", "property_name", "deprecated", "deprecation_reasons", "last_updated", "origins", "warnings", "task_ids", "uncorrected_energy_per_atom", "equilibrium_reaction_energy_per_atom", "decomposes_to", "xas", "grain_boundaries", "cbm", "vbm", "is_gap_direct", "is_metal", "es_source_calc_id", "bandstructure", "dos", "dos_energy_up", "dos_energy_down", "is_magnetic", "ordering", "total_magnetization_normalized_vol", "total_magnetization_normalized_formula_units", "num_magnetic_sites", "num_unique_magnetic_sites", "types_of_magnetic_species", "bulk_modulus", "shear_modulus", "universal_anisotropy", "homogeneous_poisson", "e_total", "e_ionic", "e_electronic", "n", "e_ij_max", "weighted_surface_energy_EV_PER_ANG2", "weighted_surface_energy", "weighted_work_function", "surface_anisotropy", "shape_factor", "has_reconstructed", "possible_species", "has_props", "theoretical", "database_IDs"]}