{
  "builder_meta": null,
  "nsites": null,
  "elements": null,
  "nelements": null,
  "composition": null,
  "composition_reduced": null,
  "formula_pretty": "Al3Pt5",
  "formula_anonymous": "A3B5",
  "chemsys": null,
  "volume": 232.66361773621125,
  "density": 15.078719485042974,
  "density_atomic": 14.541476108513203,
  "symmetry": null,
  "property_name": null,
  "material_id": "mp-1501",
  "deprecated": null,
  "deprecation_reasons": null,
  "last_updated": null,
  "origins": null,
  "warnings": null,
  "structure": {
    "@module": "pymatgen.core.structure",
    "@class": "Structure",
    "charge": 0,
    "lattice": {
      "matrix": [
        [3.97142287, 0.0, 0.0],
        [0.0, 5.42852235, 0.0],
        [0.0, -0.0, 10.79196962]
      ],
      "pbc": [true, true, true],
      "a": 3.97142287,
      "b": 5.42852235,
      "c": 10.79196962,
      "alpha": 90.0,
      "beta": 90.0,
      "gamma": 90.0,
      "volume": 232.66361773621125
    },
    "properties": {},
    "sites": [
      {
        "species": [{ "element": "Al", "occu": 1 }],
        "abc": [0.5, 0.18373541000000002, 0.63932308],
        "properties": { "magmom": 0.0 },
        "label": "Al",
        "xyz": [1.985711435, 0.9974117796714135, 6.89955525672483]
      },
      {
        "species": [{ "element": "Al", "occu": 1 }],
        "abc": [0.5, 0.8162645900000001, 0.36067692],
        "properties": { "magmom": 0.0 },
        "label": "Al",
        "xyz": [1.985711435, 4.4311105703285865, 3.8924143632751704]
      },
      {
        "species": [{ "element": "Al", "occu": 1 }],
        "abc": [0.5, 0.68373541, 0.8606769200000001],
        "properties": { "magmom": 0.0 },
        "label": "Al",
        "xyz": [1.985711435, 3.7116729546714136, 9.28839917327517]
      },
      {
        "species": [{ "element": "Al", "occu": 1 }],
        "abc": [0.5, 0.31626459, 0.13932308000000002],
        "properties": { "magmom": 0.0 },
        "label": "Al",
        "xyz": [1.985711435, 1.7168493953285864, 1.5035704467248296]
      },
      {
        "species": [{ "element": "Al", "occu": 1 }],
        "abc": [-0.0, 0.5, 0.5],
        "properties": { "magmom": 0.0 },
        "label": "Al",
        "xyz": [0.0, 2.714261175, 5.39598481]
      },
      {
        "species": [{ "element": "Al", "occu": 1 }],
        "abc": [-0.0, 0.0, 0.0],
        "properties": { "magmom": 0.0 },
        "label": "Al",
        "xyz": [0.0, 0.0, 0.0]
      },
      {
        "species": [{ "element": "Pt", "occu": 1 }],
        "abc": [0.5, 0.29188318, 0.39265968],
        "properties": { "magmom": -0.0 },
        "label": "Pt",
        "xyz": [1.985711435, 1.5844943662190731, 4.237571337558921]
      },
      {
        "species": [{ "element": "Pt", "occu": 1 }],
        "abc": [0.5, 0.7081158200000001, 0.60734032],
        "properties": { "magmom": -0.0 },
        "label": "Pt",
        "xyz": [1.985711435, 3.844022555258577, 6.5543982824410785]
      },
      {
        "species": [{ "element": "Pt", "occu": 1 }],
        "abc": [0.5, 0.79188418, 0.10734032],
        "properties": { "magmom": -0.0 },
        "label": "Pt",
        "xyz": [1.985711435, 4.298760969741423, 1.1584134724410784]
      },
      {
        "species": [{ "element": "Pt", "occu": 1 }],
        "abc": [0.5, 0.20811682, 0.8926596800000001],
        "properties": { "magmom": -0.0 },
        "label": "Pt",
        "xyz": [1.985711435, 1.129766808780927, 9.633556147558922]
      },
      {
        "species": [{ "element": "Pt", "occu": 1 }],
        "abc": [0.0, 0.43101647, 0.73137838],
        "properties": { "magmom": -0.0 },
        "label": "Pt",
        "xyz": [0.0, 2.339782540613104, 7.8930132576848155]
      },
      {
        "species": [{ "element": "Pt", "occu": 1 }],
        "abc": [-0.0, 0.56898353, 0.26862062000000003],
        "properties": { "magmom": -0.0 },
        "label": "Pt",
        "xyz": [0.0, 3.0887398093868956, 2.898945570345565]
      },
      {
        "species": [{ "element": "Pt", "occu": 1 }],
        "abc": [0.0, 0.93101647, 0.76862162],
        "properties": { "magmom": -0.0 },
        "label": "Pt",
        "xyz": [0.0, 5.054043715613104, 8.294941172315184]
      },
      {
        "species": [{ "element": "Pt", "occu": 1 }],
        "abc": [-0.0, 0.06898353, 0.23137938],
        "properties": { "magmom": -0.0 },
        "label": "Pt",
        "xyz": [0.0, 0.3744786343868955, 2.4970392396544354]
      },
      {
        "species": [{ "element": "Pt", "occu": 1 }],
        "abc": [0.0, 0.5, 0.0],
        "properties": { "magmom": -0.0 },
        "label": "Pt",
        "xyz": [0.0, 2.714261175, 0.0]
      },
      {
        "species": [{ "element": "Pt", "occu": 1 }],
        "abc": [-0.0, 0.0, 0.5],
        "properties": { "magmom": -0.0 },
        "label": "Pt",
        "xyz": [0.0, 0.0, 5.39598481]
      }
    ]
  },
  "task_ids": null,
  "uncorrected_energy_per_atom": null,
  "energy_per_atom": -35.683656541875,
  "formation_energy_per_atom": -0.9792966056250021,
  "energy_above_hull": 0.0,
  "is_stable": true,
  "equilibrium_reaction_energy_per_atom": null,
  "decomposes_to": null,
  "xas": null,
  "grain_boundaries": null,
  "band_gap": 0.0,
  "cbm": null,
  "vbm": null,
  "efermi": 8.49503962,
  "is_gap_direct": null,
  "is_metal": null,
  "es_source_calc_id": null,
  "bandstructure": null,
  "dos": null,
  "dos_energy_up": null,
  "dos_energy_down": null,
  "is_magnetic": null,
  "ordering": null,
  "total_magnetization": 4e-7,
  "total_magnetization_normalized_vol": null,
  "total_magnetization_normalized_formula_units": null,
  "num_magnetic_sites": null,
  "num_unique_magnetic_sites": null,
  "types_of_magnetic_species": null,
  "bulk_modulus": null,
  "shear_modulus": null,
  "universal_anisotropy": null,
  "homogeneous_poisson": null,
  "e_total": null,
  "e_ionic": null,
  "e_electronic": null,
  "n": null,
  "e_ij_max": null,
  "weighted_surface_energy_EV_PER_ANG2": null,
  "weighted_surface_energy": null,
  "weighted_work_function": null,
  "surface_anisotropy": null,
  "shape_factor": null,
  "has_reconstructed": null,
  "possible_species": null,
  "has_props": null,
  "theoretical": null,
  "database_IDs": null,
  "fields_not_requested": [
    "builder_meta",
    "nsites",
    "elements",
    "nelements",
    "composition",
    "composition_reduced",
    "chemsys",
    "symmetry",
    "property_name",
    "deprecated",
    "deprecation_reasons",
    "last_updated",
    "origins",
    "warnings",
    "task_ids",
    "uncorrected_energy_per_atom",
    "equilibrium_reaction_energy_per_atom",
    "decomposes_to",
    "xas",
    "grain_boundaries",
    "cbm",
    "vbm",
    "is_gap_direct",
    "is_metal",
    "es_source_calc_id",
    "bandstructure",
    "dos",
    "dos_energy_up",
    "dos_energy_down",
    "is_magnetic",
    "ordering",
    "total_magnetization_normalized_vol",
    "total_magnetization_normalized_formula_units",
    "num_magnetic_sites",
    "num_unique_magnetic_sites",
    "types_of_magnetic_species",
    "bulk_modulus",
    "shear_modulus",
    "universal_anisotropy",
    "homogeneous_poisson",
    "e_total",
    "e_ionic",
    "e_electronic",
    "n",
    "e_ij_max",
    "weighted_surface_energy_EV_PER_ANG2",
    "weighted_surface_energy",
    "weighted_work_function",
    "surface_anisotropy",
    "shape_factor",
    "has_reconstructed",
    "possible_species",
    "has_props",
    "theoretical",
    "database_IDs"
  ]
}
