{"builder_meta": null, "nsites": null, "elements": null, "nelements": null, "composition": null, "composition_reduced": null, "formula_pretty": "Al3Pd2", "formula_anonymous": "A2B3", "chemsys": null, "volume": 79.47490366535837, "density": 6.138300384182941, "density_atomic": 15.894980733071673, "symmetry": null, "property_name": null, "material_id": "mp-10901", "deprecated": null, "deprecation_reasons": null, "last_updated": null, "origins": null, "warnings": null, "structure": {"@module": "pymatgen.core.structure", "@class": "Structure", "charge": 0, "lattice": {"matrix": [[4.21215347, 2.019999999999999e-06, -1e-06], [-2.10607572, 3.64783265, 1e-06], [-1.009999999999998e-06, 1.009999999999998e-06, 5.17238445]], "pbc": [true, true, true], "a": 4.212153470000603, "b": 4.212153603654612, "c": 5.172384450000197, "alpha": 89.99997111439204, "beta": 90.00002479050495, "gamma": 119.99995553092398, "volume": 79.47490366535837}, "properties": {}, "sites": [{"species": [{"element": "Al", "occu": 1}], "abc": [-0.0, 0.0, -0.0], "properties": {"magmom": 0.0}, "label": "Al", "xyz": [0.0, 0.0, 0.0]}, {"species": [{"element": "Al", "occu": 1}], "abc": [0.333333, 0.666667, 0.64492892], "properties": {"magmom": 0.0}, "label": "Al", "xyz": [-2.0807879395579876e-06, 2.431890973988419, 3.3358206504972943]}, {"species": [{"element": "Al", "occu": 1}], "abc": [0.666667, 0.333333, 0.35507108], "properties": {"magmom": 0.0}, "label": "Al", "xyz": [2.1060788207879386, 1.2159447060115807, 1.836563799502706]}, {"species": [{"element": "Pd", "occu": 1}], "abc": [0.333333, 0.666667, 0.1568725], "properties": {"magmom": -0.0}, "label": "Pd", "xyz": [-1.5878509553579887e-06, 2.431890481051435, 0.8114052129666249]}, {"species": [{"element": "Pd", "occu": 1}], "abc": [0.666667, 0.333333, 0.843127499999999], "properties": {"magmom": -0.0}, "label": "Pd", "xyz": [2.1060783278509545, 1.215945198948565, 4.360979237033369]}]}, "task_ids": null, "uncorrected_energy_per_atom": null, "energy_per_atom": -14.035781358, "formation_energy_per_atom": -0.812340915999999, "energy_above_hull": 0.0, "is_stable": true, "equilibrium_reaction_energy_per_atom": null, "decomposes_to": null, "xas": null, "grain_boundaries": null, "band_gap": 0.0, "cbm": null, "vbm": null, "efermi": 7.3746062, "is_gap_direct": null, "is_metal": null, "es_source_calc_id": null, "bandstructure": null, "dos": null, "dos_energy_up": null, "dos_energy_down": null, "is_magnetic": null, "ordering": null, "total_magnetization": 0.0, "total_magnetization_normalized_vol": null, "total_magnetization_normalized_formula_units": null, "num_magnetic_sites": null, "num_unique_magnetic_sites": null, "types_of_magnetic_species": null, "bulk_modulus": null, "shear_modulus": null, "universal_anisotropy": null, "homogeneous_poisson": null, "e_total": null, "e_ionic": null, "e_electronic": null, "n": null, "e_ij_max": null, "weighted_surface_energy_EV_PER_ANG2": null, "weighted_surface_energy": null, "weighted_work_function": null, "surface_anisotropy": null, "shape_factor": null, "has_reconstructed": null, "possible_species": null, "has_props": null, "theoretical": null, "database_IDs": null, "fields_not_requested": ["builder_meta", "nsites", "elements", "nelements", "composition", "composition_reduced", "chemsys", "symmetry", "property_name", "deprecated", "deprecation_reasons", "last_updated", "origins", "warnings", "task_ids", "uncorrected_energy_per_atom", "equilibrium_reaction_energy_per_atom", "decomposes_to", "xas", "grain_boundaries", "cbm", "vbm", "is_gap_direct", "is_metal", "es_source_calc_id", "bandstructure", "dos", "dos_energy_up", "dos_energy_down", "is_magnetic", "ordering", "total_magnetization_normalized_vol", "total_magnetization_normalized_formula_units", "num_magnetic_sites", "num_unique_magnetic_sites", "types_of_magnetic_species", "bulk_modulus", "shear_modulus", "universal_anisotropy", "homogeneous_poisson", "e_total", "e_ionic", "e_electronic", "n", "e_ij_max", "weighted_surface_energy_EV_PER_ANG2", "weighted_surface_energy", "weighted_work_function", "surface_anisotropy", "shape_factor", "has_reconstructed", "possible_species", "has_props", "theoretical", "database_IDs"]}