{
  "builder_meta": null,
  "nsites": null,
  "elements": null,
  "nelements": null,
  "composition": null,
  "composition_reduced": null,
  "formula_pretty": "Al3P",
  "formula_anonymous": "AB3",
  "chemsys": null,
  "volume": 130.01985016575824,
  "density": 2.858714855777335,
  "density_atomic": 16.25248127071978,
  "symmetry": null,
  "property_name": null,
  "material_id": "mp-1183180",
  "deprecated": null,
  "deprecation_reasons": null,
  "last_updated": null,
  "origins": null,
  "warnings": null,
  "structure": {
    "@module": "pymatgen.core.structure",
    "@class": "Structure",
    "charge": 0,
    "lattice": {
      "matrix": [
        [2.807611, -4.862924, 0.0],
        [2.807611, 4.862924, 0.0],
        [0.0, 0.0, 4.761516]
      ],
      "pbc": [true, true, true],
      "a": 5.615221220673055,
      "b": 5.615221220673055,
      "c": 4.761516,
      "alpha": 90.0,
      "beta": 90.0,
      "gamma": 119.99999081784053,
      "volume": 130.01985016575824
    },
    "properties": {},
    "sites": [
      {
        "species": [{ "element": "Al", "occu": 1 }],
        "abc": [0.831191999999999, 0.16880799999999901, 0.75],
        "properties": { "magmom": -0.0 },
        "label": "Al",
        "xyz": [2.8076109999999947, -3.221123050816, 3.5711370000000002]
      },
      {
        "species": [{ "element": "Al", "occu": 1 }],
        "abc": [0.337617, 0.16880799999999901, 0.75],
        "properties": { "magmom": -0.0 },
        "label": "Al",
        "xyz": [1.4218444006749973, -0.8209053375160048, 3.5711370000000002]
      },
      {
        "species": [{ "element": "Al", "occu": 1 }],
        "abc": [0.831191999999999, 0.6623829999999991, 0.75],
        "properties": { "magmom": -0.0 },
        "label": "Al",
        "xyz": [4.193377599324995, -0.8209053375159998, 3.5711370000000002]
      },
      {
        "species": [{ "element": "Al", "occu": 1 }],
        "abc": [0.16880799999999901, 0.831191999999999, 0.25],
        "properties": { "magmom": -0.0 },
        "label": "Al",
        "xyz": [2.8076109999999947, 3.221123050816, 1.190379]
      },
      {
        "species": [{ "element": "Al", "occu": 1 }],
        "abc": [0.6623829999999991, 0.831191999999999, 0.25],
        "properties": { "magmom": -0.0 },
        "label": "Al",
        "xyz": [4.193377599324995, 0.8209053375159998, 1.190379]
      },
      {
        "species": [{ "element": "Al", "occu": 1 }],
        "abc": [0.16880799999999901, 0.337617, 0.25],
        "properties": { "magmom": -0.0 },
        "label": "Al",
        "xyz": [1.4218444006749973, 0.8209053375160048, 1.190379]
      },
      {
        "species": [{ "element": "P", "occu": 1 }],
        "abc": [0.666667, 0.333333, 0.25],
        "properties": { "magmom": -0.0 },
        "label": "P",
        "xyz": [2.807611, -1.620977908616, 1.190379]
      },
      {
        "species": [{ "element": "P", "occu": 1 }],
        "abc": [0.333333, 0.666667, 0.75],
        "properties": { "magmom": -0.0 },
        "label": "P",
        "xyz": [2.807611, 1.620977908616, 3.5711370000000002]
      }
    ]
  },
  "task_ids": null,
  "uncorrected_energy_per_atom": null,
  "energy_per_atom": -7.2331400750000014,
  "formation_energy_per_atom": 0.06645275050595201,
  "energy_above_hull": 0.435077142499999,
  "is_stable": false,
  "equilibrium_reaction_energy_per_atom": null,
  "decomposes_to": null,
  "xas": null,
  "grain_boundaries": null,
  "band_gap": 0.0,
  "cbm": null,
  "vbm": null,
  "efermi": 8.37511955,
  "is_gap_direct": null,
  "is_metal": null,
  "es_source_calc_id": null,
  "bandstructure": null,
  "dos": null,
  "dos_energy_up": null,
  "dos_energy_down": null,
  "is_magnetic": null,
  "ordering": null,
  "total_magnetization": 5.4600000000000006e-5,
  "total_magnetization_normalized_vol": null,
  "total_magnetization_normalized_formula_units": null,
  "num_magnetic_sites": null,
  "num_unique_magnetic_sites": null,
  "types_of_magnetic_species": null,
  "bulk_modulus": null,
  "shear_modulus": null,
  "universal_anisotropy": null,
  "homogeneous_poisson": null,
  "e_total": null,
  "e_ionic": null,
  "e_electronic": null,
  "n": null,
  "e_ij_max": null,
  "weighted_surface_energy_EV_PER_ANG2": null,
  "weighted_surface_energy": null,
  "weighted_work_function": null,
  "surface_anisotropy": null,
  "shape_factor": null,
  "has_reconstructed": null,
  "possible_species": null,
  "has_props": null,
  "theoretical": null,
  "database_IDs": null,
  "fields_not_requested": [
    "builder_meta",
    "nsites",
    "elements",
    "nelements",
    "composition",
    "composition_reduced",
    "chemsys",
    "symmetry",
    "property_name",
    "deprecated",
    "deprecation_reasons",
    "last_updated",
    "origins",
    "warnings",
    "task_ids",
    "uncorrected_energy_per_atom",
    "equilibrium_reaction_energy_per_atom",
    "decomposes_to",
    "xas",
    "grain_boundaries",
    "cbm",
    "vbm",
    "is_gap_direct",
    "is_metal",
    "es_source_calc_id",
    "bandstructure",
    "dos",
    "dos_energy_up",
    "dos_energy_down",
    "is_magnetic",
    "ordering",
    "total_magnetization_normalized_vol",
    "total_magnetization_normalized_formula_units",
    "num_magnetic_sites",
    "num_unique_magnetic_sites",
    "types_of_magnetic_species",
    "bulk_modulus",
    "shear_modulus",
    "universal_anisotropy",
    "homogeneous_poisson",
    "e_total",
    "e_ionic",
    "e_electronic",
    "n",
    "e_ij_max",
    "weighted_surface_energy_EV_PER_ANG2",
    "weighted_surface_energy",
    "weighted_work_function",
    "surface_anisotropy",
    "shape_factor",
    "has_reconstructed",
    "possible_species",
    "has_props",
    "theoretical",
    "database_IDs"
  ]
}
