{"builder_meta": null, "nsites": null, "elements": null, "nelements": null, "composition": null, "composition_reduced": null, "formula_pretty": "Al3Ru", "formula_anonymous": "AB3", "chemsys": null, "volume": 230.79867251101987, "density": 5.238199629829475, "density_atomic": 14.424917031938742, "symmetry": null, "property_name": null, "material_id": "mp-1188814", "deprecated": null, "deprecation_reasons": null, "last_updated": null, "origins": null, "warnings": null, "structure": {"@module": "pymatgen.core.structure", "@class": "Structure", "charge": 0, "lattice": {"matrix": [[2.729539, -4.7277000000000005, 0.0], [2.729539, 4.7277000000000005, 0.0], [0.0, 0.0, 8.942606]], "pbc": [true, true, true], "a": 5.459077801471692, "b": 5.459077801471692, "c": 8.942606, "alpha": 90.0, "beta": 90.0, "gamma": 119.99999759400255, "volume": 230.79867251101993}, "properties": {}, "sites": [{"species": [{"element": "Al", "occu": 1}], "abc": [0.5, 0.5, 0.5], "properties": {"magmom": 0.0}, "label": "Al", "xyz": [2.729539, 0.0, 4.471303]}, {"species": [{"element": "Al", "occu": 1}], "abc": [0.5, 0.0, 0.5], "properties": {"magmom": 0.0}, "label": "Al", "xyz": [1.3647695, -2.3638500000000002, 4.471303]}, {"species": [{"element": "Al", "occu": 1}], "abc": [0.0, 0.5, 0.5], "properties": {"magmom": 0.0}, "label": "Al", "xyz": [1.3647695, 2.3638500000000002, 4.471303]}, {"species": [{"element": "Al", "occu": 1}], "abc": [0.5, 0.5, 0.0], "properties": {"magmom": 0.0}, "label": "Al", "xyz": [2.729539, 0.0, 0.0]}, {"species": [{"element": "Al", "occu": 1}], "abc": [0.5, 0.0, 0.0], "properties": {"magmom": 0.0}, "label": "Al", "xyz": [1.3647695, -2.3638500000000002, 0.0]}, {"species": [{"element": "Al", "occu": 1}], "abc": [0.0, 0.5, 0.0], "properties": {"magmom": 0.0}, "label": "Al", "xyz": [1.3647695, 2.3638500000000002, 0.0]}, {"species": [{"element": "Al", "occu": 1}], "abc": [0.836452, 0.672904, 0.25], "properties": {"magmom": -0.0}, "label": "Al", "xyz": [4.119846066884, -0.7732058796000003, 2.2356515]}, {"species": [{"element": "Al", "occu": 1}], "abc": [0.327096, 0.163548, 0.25], "properties": {"magmom": -0.0}, "label": "Al", "xyz": [1.339231933116, -0.7732058796000001, 2.2356515]}, {"species": [{"element": "Al", "occu": 1}], "abc": [0.836452, 0.163548, 0.25], "properties": {"magmom": -0.0}, "label": "Al", "xyz": [2.729539, -3.1812882408, 2.2356515]}, {"species": [{"element": "Al", "occu": 1}], "abc": [0.163548, 0.327096, 0.75], "properties": {"magmom": -0.0}, "label": "Al", "xyz": [1.339231933116, 0.7732058796000001, 6.7069545]}, {"species": [{"element": "Al", "occu": 1}], "abc": [0.672904, 0.836452, 0.75], "properties": {"magmom": -0.0}, "label": "Al", "xyz": [4.119846066884, 0.7732058796000003, 6.7069545]}, {"species": [{"element": "Al", "occu": 1}], "abc": [0.163548, 0.836452, 0.75], "properties": {"magmom": -0.0}, "label": "Al", "xyz": [2.729539, 3.1812882408, 6.7069545]}, {"species": [{"element": "Ru", "occu": 1}], "abc": [0.0, 0.0, 0.5], "properties": {"magmom": 0.0}, "label": "Ru", "xyz": [0.0, 0.0, 4.471303]}, {"species": [{"element": "Ru", "occu": 1}], "abc": [0.0, 0.0, 0.0], "properties": {"magmom": 0.0}, "label": "Ru", "xyz": [0.0, 0.0, 0.0]}, {"species": [{"element": "Ru", "occu": 1}], "abc": [0.333333, 0.666667, 0.25], "properties": {"magmom": 0.0}, "label": "Ru", "xyz": [2.729539, 1.5759031518000004, 2.2356515]}, {"species": [{"element": "Ru", "occu": 1}], "abc": [0.666667, 0.333333, 0.75], "properties": {"magmom": 0.0}, "label": "Ru", "xyz": [2.729539, -1.5759031518000004, 6.7069545]}]}, "task_ids": null, "uncorrected_energy_per_atom": null, "energy_per_atom": -11.839153523583335, "formation_energy_per_atom": -0.43394595233333505, "energy_above_hull": 0.17701125891666603, "is_stable": false, "equilibrium_reaction_energy_per_atom": null, "decomposes_to": null, "xas": null, "grain_boundaries": null, "band_gap": 0.0, "cbm": null, "vbm": null, "efermi": 8.907624180000001, "is_gap_direct": null, "is_metal": null, "es_source_calc_id": null, "bandstructure": null, "dos": null, "dos_energy_up": null, "dos_energy_down": null, "is_magnetic": null, "ordering": null, "total_magnetization": 0.0053069, "total_magnetization_normalized_vol": null, "total_magnetization_normalized_formula_units": null, "num_magnetic_sites": null, "num_unique_magnetic_sites": null, "types_of_magnetic_species": null, "bulk_modulus": null, "shear_modulus": null, "universal_anisotropy": null, "homogeneous_poisson": null, "e_total": null, "e_ionic": null, "e_electronic": null, "n": null, "e_ij_max": null, "weighted_surface_energy_EV_PER_ANG2": null, "weighted_surface_energy": null, "weighted_work_function": null, "surface_anisotropy": null, "shape_factor": null, "has_reconstructed": null, "possible_species": null, "has_props": null, "theoretical": null, "database_IDs": null, "fields_not_requested": ["builder_meta", "nsites", "elements", "nelements", "composition", "composition_reduced", "chemsys", "symmetry", "property_name", "deprecated", "deprecation_reasons", "last_updated", "origins", "warnings", "task_ids", "uncorrected_energy_per_atom", "equilibrium_reaction_energy_per_atom", "decomposes_to", "xas", "grain_boundaries", "cbm", "vbm", "is_gap_direct", "is_metal", "es_source_calc_id", "bandstructure", "dos", "dos_energy_up", "dos_energy_down", "is_magnetic", "ordering", "total_magnetization_normalized_vol", "total_magnetization_normalized_formula_units", "num_magnetic_sites", "num_unique_magnetic_sites", "types_of_magnetic_species", "bulk_modulus", "shear_modulus", "universal_anisotropy", "homogeneous_poisson", "e_total", "e_ionic", "e_electronic", "n", "e_ij_max", "weighted_surface_energy_EV_PER_ANG2", "weighted_surface_energy", "weighted_work_function", "surface_anisotropy", "shape_factor", "has_reconstructed", "possible_species", "has_props", "theoretical", "database_IDs"]}