{"builder_meta": null, "nsites": null, "elements": null, "nelements": null, "composition": null, "composition_reduced": null, "formula_pretty": "Al3Ru2", "formula_anonymous": "A2B3", "chemsys": null, "volume": 67.66563129895513, "density": 6.946998862871915, "density_atomic": 13.533126259791027, "symmetry": null, "property_name": null, "material_id": "mp-1070580", "deprecated": null, "deprecation_reasons": null, "last_updated": null, "origins": null, "warnings": null, "structure": {"@module": "pymatgen.core.structure", "@class": "Structure", "charge": 0, "lattice": {"matrix": [[3.07780175, 0.0, 0.0], [0.0, 3.07780175, 0.0], [-1.53890088, -1.53890088, 7.14310203]], "pbc": [true, true, true], "a": 3.07780175, "b": 3.07780175, "c": 7.467284543120053, "alpha": 101.89306476686885, "beta": 101.89306476686885, "gamma": 90.0, "volume": 67.66563129895513}, "properties": {}, "sites": [{"species": [{"element": "Al", "occu": 1}], "abc": [0.0, 0.0, -0.0], "properties": {"magmom": 0.0}, "label": "Al", "xyz": [0.0, 0.0, 0.0]}, {"species": [{"element": "Al", "occu": 1}], "abc": [0.80618462, 0.80618462, 0.61236924], "properties": {"magmom": 0.0}, "label": "Al", "xyz": [1.5389008719381536, 1.5389008719381536, 4.374215961353557]}, {"species": [{"element": "Al", "occu": 1}], "abc": [0.19381538, 0.19381538, 0.38763076], "properties": {"magmom": 0.0}, "label": "Al", "xyz": [-1.9381537486040656e-09, -1.9381537486040656e-09, 2.768886068646443]}, {"species": [{"element": "Ru", "occu": 1}], "abc": [0.60586857, 0.60586857, 0.21173714000000002], "properties": {"magmom": -0.0}, "label": "Ru", "xyz": [1.5389008739413144, 1.5389008739413144, 1.5124599945603943]}, {"species": [{"element": "Ru", "occu": 1}], "abc": [0.39413143, 0.39413143, 0.78826286], "properties": {"magmom": -0.0}, "label": "Ru", "xyz": [-3.941314163924403e-09, -3.941314163924403e-09, 5.630642035439606]}]}, "task_ids": null, "uncorrected_energy_per_atom": null, "energy_per_atom": -14.984364189999999, "formation_energy_per_atom": -0.7752910740000001, "energy_above_hull": 0.0, "is_stable": true, "equilibrium_reaction_energy_per_atom": null, "decomposes_to": null, "xas": null, "grain_boundaries": null, "band_gap": 0.0, "cbm": null, "vbm": null, "efermi": 9.17053446, "is_gap_direct": null, "is_metal": null, "es_source_calc_id": null, "bandstructure": null, "dos": null, "dos_energy_up": null, "dos_energy_down": null, "is_magnetic": null, "ordering": null, "total_magnetization": 0.0, "total_magnetization_normalized_vol": null, "total_magnetization_normalized_formula_units": null, "num_magnetic_sites": null, "num_unique_magnetic_sites": null, "types_of_magnetic_species": null, "bulk_modulus": null, "shear_modulus": null, "universal_anisotropy": null, "homogeneous_poisson": null, "e_total": null, "e_ionic": null, "e_electronic": null, "n": null, "e_ij_max": null, "weighted_surface_energy_EV_PER_ANG2": null, "weighted_surface_energy": null, "weighted_work_function": null, "surface_anisotropy": null, "shape_factor": null, "has_reconstructed": null, "possible_species": null, "has_props": null, "theoretical": null, "database_IDs": null, "fields_not_requested": ["builder_meta", "nsites", "elements", "nelements", "composition", "composition_reduced", "chemsys", "symmetry", "property_name", "deprecated", "deprecation_reasons", "last_updated", "origins", "warnings", "task_ids", "uncorrected_energy_per_atom", "equilibrium_reaction_energy_per_atom", "decomposes_to", "xas", "grain_boundaries", "cbm", "vbm", "is_gap_direct", "is_metal", "es_source_calc_id", "bandstructure", "dos", "dos_energy_up", "dos_energy_down", "is_magnetic", "ordering", "total_magnetization_normalized_vol", "total_magnetization_normalized_formula_units", "num_magnetic_sites", "num_unique_magnetic_sites", "types_of_magnetic_species", "bulk_modulus", "shear_modulus", "universal_anisotropy", "homogeneous_poisson", "e_total", "e_ionic", "e_electronic", "n", "e_ij_max", "weighted_surface_energy_EV_PER_ANG2", "weighted_surface_energy", "weighted_work_function", "surface_anisotropy", "shape_factor", "has_reconstructed", "possible_species", "has_props", "theoretical", "database_IDs"]}