{"builder_meta": null, "nsites": null, "elements": null, "nelements": null, "composition": null, "composition_reduced": null, "formula_pretty": "Al3Tc2", "formula_anonymous": "A2B3", "chemsys": null, "volume": 84.15503124360058, "density": 5.464644799301861, "density_atomic": 16.831006248720115, "symmetry": null, "property_name": null, "material_id": "mp-1070275", "deprecated": null, "deprecation_reasons": null, "last_updated": null, "origins": null, "warnings": null, "structure": {"@module": "pymatgen.core.structure", "@class": "Structure", "charge": 0, "lattice": {"matrix": [[-2.178047, -3.772489, 0.0], [-2.178047, 3.772489, 0.0], [0.0, 0.0, -5.121001]], "pbc": [true, true, true], "a": 4.356094809497379, "b": 4.356094809497379, "c": 5.121001, "alpha": 90.0, "beta": 90.0, "gamma": 120.00001229447847, "volume": 84.15503124360058}, "properties": {}, "sites": [{"species": [{"element": "Al", "occu": 1}], "abc": [0.0, 0.0, 0.0], "properties": {"magmom": 0.0}, "label": "Al", "xyz": [0.0, 0.0, 0.0]}, {"species": [{"element": "Al", "occu": 1}], "abc": [0.666667, 0.333333, 0.6081200000000001], "properties": {"magmom": 0.0}, "label": "Al", "xyz": [-2.178047, -1.2574988483260003, -3.1141831281200005]}, {"species": [{"element": "Al", "occu": 1}], "abc": [0.333333, 0.666667, 0.39188], "properties": {"magmom": 0.0}, "label": "Al", "xyz": [-2.178047, 1.2574988483260003, -2.00681787188]}, {"species": [{"element": "Tc", "occu": 1}], "abc": [0.666667, 0.333333, 0.103798999999999], "properties": {"magmom": -0.0}, "label": "Tc", "xyz": [-2.178047, -1.2574988483260003, -0.5315547827989948]}, {"species": [{"element": "Tc", "occu": 1}], "abc": [0.333333, 0.666667, 0.896200999999999], "properties": {"magmom": -0.0}, "label": "Tc", "xyz": [-2.178047, 1.2574988483260003, -4.589446217200995]}]}, "task_ids": null, "uncorrected_energy_per_atom": null, "energy_per_atom": -14.63225188733333, "formation_energy_per_atom": -0.20712806933333003, "energy_above_hull": 0.22666661428571303, "is_stable": false, "equilibrium_reaction_energy_per_atom": null, "decomposes_to": null, "xas": null, "grain_boundaries": null, "band_gap": 0.0, "cbm": null, "vbm": null, "efermi": 6.94361889, "is_gap_direct": null, "is_metal": null, "es_source_calc_id": null, "bandstructure": null, "dos": null, "dos_energy_up": null, "dos_energy_down": null, "is_magnetic": null, "ordering": null, "total_magnetization": 8e-06, "total_magnetization_normalized_vol": null, "total_magnetization_normalized_formula_units": null, "num_magnetic_sites": null, "num_unique_magnetic_sites": null, "types_of_magnetic_species": null, "bulk_modulus": null, "shear_modulus": null, "universal_anisotropy": null, "homogeneous_poisson": null, "e_total": null, "e_ionic": null, "e_electronic": null, "n": null, "e_ij_max": null, "weighted_surface_energy_EV_PER_ANG2": null, "weighted_surface_energy": null, "weighted_work_function": null, "surface_anisotropy": null, "shape_factor": null, "has_reconstructed": null, "possible_species": null, "has_props": null, "theoretical": null, "database_IDs": null, "fields_not_requested": ["builder_meta", "nsites", "elements", "nelements", "composition", "composition_reduced", "chemsys", "symmetry", "property_name", "deprecated", "deprecation_reasons", "last_updated", "origins", "warnings", "task_ids", "uncorrected_energy_per_atom", "equilibrium_reaction_energy_per_atom", "decomposes_to", "xas", "grain_boundaries", "cbm", "vbm", "is_gap_direct", "is_metal", "es_source_calc_id", "bandstructure", "dos", "dos_energy_up", "dos_energy_down", "is_magnetic", "ordering", "total_magnetization_normalized_vol", "total_magnetization_normalized_formula_units", "num_magnetic_sites", "num_unique_magnetic_sites", "types_of_magnetic_species", "bulk_modulus", "shear_modulus", "universal_anisotropy", "homogeneous_poisson", "e_total", "e_ionic", "e_electronic", "n", "e_ij_max", "weighted_surface_energy_EV_PER_ANG2", "weighted_surface_energy", "weighted_work_function", "surface_anisotropy", "shape_factor", "has_reconstructed", "possible_species", "has_props", "theoretical", "database_IDs"]}