{"builder_meta": null, "nsites": null, "elements": null, "nelements": null, "composition": null, "composition_reduced": null, "formula_pretty": "Al4C3", "formula_anonymous": "A3B4", "chemsys": null, "volume": 79.90244024318747, "density": 2.991752250158876, "density_atomic": 11.414634320455352, "symmetry": null, "property_name": null, "material_id": "mp-1591", "deprecated": null, "deprecation_reasons": null, "last_updated": null, "origins": null, "warnings": null, "structure": {"@module": "pymatgen.core.structure", "@class": "Structure", "charge": 0, "lattice": {"matrix": [[3.26309188, -0.00361671, 7.87602324], [1.5640351, 2.86383986, 7.87602324], [-0.00610255, -0.00361671, 8.52522531]], "pbc": [true, true, true], "a": 8.525228664084809, "b": 8.525228830640087, "c": 8.525228261341296, "alpha": 22.54559013747872, "beta": 22.545582959120743, "gamma": 22.54558792639824, "volume": 79.90244024318747}, "properties": {}, "sites": [{"species": [{"element": "Al", "occu": 1}], "abc": [0.86987806, 0.86987806, 0.86987806], "properties": {"magmom": 0.0}, "label": "Al", "xyz": [4.193703378381006, 2.4848992682107065, 21.11826608677793]}, {"species": [{"element": "Al", "occu": 1}], "abc": [0.13012194, 0.13012194, 0.13012194], "properties": {"magmom": 0.0}, "label": "Al", "xyz": [0.6273210516189941, 0.3717071717892936, 3.1590057032220726]}, {"species": [{"element": "Al", "occu": 1}], "abc": [0.7064868, 0.7064868, 0.7064868], "properties": {"magmom": -0.0}, "label": "Al", "xyz": [3.405990122272524, 2.018154742654992, 17.15157205964737]}, {"species": [{"element": "Al", "occu": 1}], "abc": [0.2935132, 0.2935132, 0.2935132], "properties": {"magmom": -0.0}, "label": "Al", "xyz": [1.4150343077274758, 0.8384516973450079, 7.125699730352627]}, {"species": [{"element": "C", "occu": 1}], "abc": [0.78327526, 0.78327526, 0.78327526], "properties": {"magmom": 0.0}, "label": "C", "xyz": [3.776189163874602, 2.2375091520086743, 19.015786373402918]}, {"species": [{"element": "C", "occu": 1}], "abc": [0.21672474, 0.21672474, 0.21672474], "properties": {"magmom": 0.0}, "label": "C", "xyz": [1.0448352661253981, 0.6190972879913256, 5.261485416597084]}, {"species": [{"element": "C", "occu": 1}], "abc": [-0.0, -0.0, 0.0], "properties": {"magmom": 0.0}, "label": "C", "xyz": [0.0, 0.0, 0.0]}]}, "task_ids": null, "uncorrected_energy_per_atom": null, "energy_per_atom": -6.186745705714287, "formation_energy_per_atom": -0.09127430607143, "energy_above_hull": 0.0, "is_stable": true, "equilibrium_reaction_energy_per_atom": null, "decomposes_to": null, "xas": null, "grain_boundaries": null, "band_gap": 1.3154, "cbm": null, "vbm": null, "efermi": 7.3085706, "is_gap_direct": null, "is_metal": null, "es_source_calc_id": null, "bandstructure": null, "dos": null, "dos_energy_up": null, "dos_energy_down": null, "is_magnetic": null, "ordering": null, "total_magnetization": 0.0, "total_magnetization_normalized_vol": null, "total_magnetization_normalized_formula_units": null, "num_magnetic_sites": null, "num_unique_magnetic_sites": null, "types_of_magnetic_species": null, "bulk_modulus": null, "shear_modulus": null, "universal_anisotropy": null, "homogeneous_poisson": null, "e_total": null, "e_ionic": null, "e_electronic": null, "n": null, "e_ij_max": null, "weighted_surface_energy_EV_PER_ANG2": null, "weighted_surface_energy": null, "weighted_work_function": null, "surface_anisotropy": null, "shape_factor": null, "has_reconstructed": null, "possible_species": null, "has_props": null, "theoretical": null, "database_IDs": null, "fields_not_requested": ["builder_meta", "nsites", "elements", "nelements", "composition", "composition_reduced", "chemsys", "symmetry", "property_name", "deprecated", "deprecation_reasons", "last_updated", "origins", "warnings", "task_ids", "uncorrected_energy_per_atom", "equilibrium_reaction_energy_per_atom", "decomposes_to", "xas", "grain_boundaries", "cbm", "vbm", "is_gap_direct", "is_metal", "es_source_calc_id", "bandstructure", "dos", "dos_energy_up", "dos_energy_down", "is_magnetic", "ordering", "total_magnetization_normalized_vol", "total_magnetization_normalized_formula_units", "num_magnetic_sites", "num_unique_magnetic_sites", "types_of_magnetic_species", "bulk_modulus", "shear_modulus", "universal_anisotropy", "homogeneous_poisson", "e_total", "e_ionic", "e_electronic", "n", "e_ij_max", "weighted_surface_energy_EV_PER_ANG2", "weighted_surface_energy", "weighted_work_function", "surface_anisotropy", "shape_factor", "has_reconstructed", "possible_species", "has_props", "theoretical", "database_IDs"]}