{
  "builder_meta": null,
  "nsites": null,
  "elements": null,
  "nelements": null,
  "composition": null,
  "composition_reduced": null,
  "formula_pretty": "Al4Mo",
  "formula_anonymous": "AB4",
  "chemsys": null,
  "volume": 242.85554909852902,
  "density": 4.181840377895131,
  "density_atomic": 16.190369939901935,
  "symmetry": null,
  "property_name": null,
  "material_id": "mp-30180",
  "deprecated": null,
  "deprecation_reasons": null,
  "last_updated": null,
  "origins": null,
  "warnings": null,
  "structure": {
    "@module": "pymatgen.core.structure",
    "@class": "Structure",
    "charge": 0,
    "lattice": {
      "matrix": [
        [8.920842, 2.638388, 0.0],
        [-8.920842, 2.638388, 0.0],
        [0.0, 0.907562, 5.159095]
      ],
      "pbc": [true, true, true],
      "a": 9.302822863384426,
      "b": 9.302822863384426,
      "c": 5.238313660222056,
      "alpha": 87.18352262982664,
      "beta": 87.18352262982664,
      "gamma": 147.04825591526668,
      "volume": 242.85554909852902
    },
    "properties": {},
    "sites": [
      {
        "species": [{ "element": "Al", "occu": 1 }],
        "abc": [0.837607, 0.837607, 0.52009],
        "properties": { "magmom": -0.0 },
        "label": "Al",
        "xyz": [0.0, 4.891878435612, 2.68319371855]
      },
      {
        "species": [{ "element": "Al", "occu": 1 }],
        "abc": [0.48254, 0.48254, 0.158848],
        "properties": { "magmom": -0.0 },
        "label": "Al",
        "xyz": [0.0, 2.6904198996160003, 0.8195119225599999]
      },
      {
        "species": [{ "element": "Al", "occu": 1 }],
        "abc": [0.245201, 0.39899, 0.696182],
        "properties": { "magmom": -0.0 },
        "label": "Al",
        "xyz": [-1.3719273703380002, 2.331454132392, 3.5916690752899996]
      },
      {
        "species": [{ "element": "Al", "occu": 1 }],
        "abc": [0.39899, 0.245201, 0.696182],
        "properties": { "magmom": -0.0 },
        "label": "Al",
        "xyz": [1.3719273703380002, 2.331454132392, 3.5916690752899996]
      },
      {
        "species": [{ "element": "Al", "occu": 1 }],
        "abc": [0.048247, 0.283790999999999, 0.225772],
        "properties": { "magmom": -0.0 },
        "label": "Al",
        "xyz": [-2.1012508080479915, 1.0809471626079974, 1.16477919634]
      },
      {
        "species": [{ "element": "Al", "occu": 1 }],
        "abc": [0.283790999999999, 0.048247, 0.225772],
        "properties": { "magmom": -0.0 },
        "label": "Al",
        "xyz": [2.1012508080479915, 1.0809471626079974, 1.16477919634]
      },
      {
        "species": [{ "element": "Al", "occu": 1 }],
        "abc": [0.675497, 0.921303, 0.821955],
        "properties": { "magmom": -0.0 },
        "label": "Al",
        "xyz": [-2.192796488652, 4.95895308211, 4.240543930725]
      },
      {
        "species": [{ "element": "Al", "occu": 1 }],
        "abc": [0.921303, 0.675497, 0.821955],
        "properties": { "magmom": -0.0 },
        "label": "Al",
        "xyz": [2.192796488652, 4.95895308211, 4.240543930725]
      },
      {
        "species": [{ "element": "Al", "occu": 1 }],
        "abc": [0.059713999999999004, 0.530046, 0.594788],
        "properties": { "magmom": 0.0 },
        "label": "Al",
        "xyz": [-4.1957574595440095, 2.095822693735997, 3.0685677968599996]
      },
      {
        "species": [{ "element": "Al", "occu": 1 }],
        "abc": [0.530046, 0.059713999999999004, 0.594788],
        "properties": { "magmom": 0.0 },
        "label": "Al",
        "xyz": [4.1957574595440095, 2.095822693735997, 3.0685677968599996]
      },
      {
        "species": [{ "element": "Al", "occu": 1 }],
        "abc": [0.208616, 0.708198, 0.085290999999999],
        "properties": { "magmom": 0.0 },
        "label": "Al",
        "xyz": [-4.456692088044001, 2.496317926373999, 0.44002437164499486]
      },
      {
        "species": [{ "element": "Al", "occu": 1 }],
        "abc": [0.708198, 0.208616, 0.085290999999999],
        "properties": { "magmom": 0.0 },
        "label": "Al",
        "xyz": [4.456692088044001, 2.496317926373999, 0.44002437164499486]
      },
      {
        "species": [{ "element": "Mo", "occu": 1 }],
        "abc": [0.993513, 0.993513, 0.002503999999999],
        "properties": { "magmom": 0.002 },
        "label": "Mo",
        "xyz": [0.0, 5.2448180893359995, 0.012918373879994841]
      },
      {
        "species": [{ "element": "Mo", "occu": 1 }],
        "abc": [0.513849, 0.788686999999999, 0.343592],
        "properties": { "magmom": 0.002 },
        "label": "Mo",
        "xyz": [-2.4517863735959917, 3.7484263946719976, 1.77262376924]
      },
      {
        "species": [{ "element": "Mo", "occu": 1 }],
        "abc": [0.788686999999999, 0.513849, 0.343592],
        "properties": { "magmom": 0.002 },
        "label": "Mo",
        "xyz": [2.4517863735959917, 3.7484263946719976, 1.77262376924]
      }
    ]
  },
  "task_ids": null,
  "uncorrected_energy_per_atom": null,
  "energy_per_atom": -10.88858524416667,
  "formation_energy_per_atom": -0.288510692166668,
  "energy_above_hull": 0.022488266833331,
  "is_stable": false,
  "equilibrium_reaction_energy_per_atom": null,
  "decomposes_to": null,
  "xas": null,
  "grain_boundaries": null,
  "band_gap": 0.0,
  "cbm": null,
  "vbm": null,
  "efermi": 7.60367216,
  "is_gap_direct": null,
  "is_metal": null,
  "es_source_calc_id": null,
  "bandstructure": null,
  "dos": null,
  "dos_energy_up": null,
  "dos_energy_down": null,
  "is_magnetic": null,
  "ordering": null,
  "total_magnetization": 0.014355099999999002,
  "total_magnetization_normalized_vol": null,
  "total_magnetization_normalized_formula_units": null,
  "num_magnetic_sites": null,
  "num_unique_magnetic_sites": null,
  "types_of_magnetic_species": null,
  "bulk_modulus": null,
  "shear_modulus": null,
  "universal_anisotropy": null,
  "homogeneous_poisson": null,
  "e_total": null,
  "e_ionic": null,
  "e_electronic": null,
  "n": null,
  "e_ij_max": null,
  "weighted_surface_energy_EV_PER_ANG2": null,
  "weighted_surface_energy": null,
  "weighted_work_function": null,
  "surface_anisotropy": null,
  "shape_factor": null,
  "has_reconstructed": null,
  "possible_species": null,
  "has_props": null,
  "theoretical": null,
  "database_IDs": null,
  "fields_not_requested": [
    "builder_meta",
    "nsites",
    "elements",
    "nelements",
    "composition",
    "composition_reduced",
    "chemsys",
    "symmetry",
    "property_name",
    "deprecated",
    "deprecation_reasons",
    "last_updated",
    "origins",
    "warnings",
    "task_ids",
    "uncorrected_energy_per_atom",
    "equilibrium_reaction_energy_per_atom",
    "decomposes_to",
    "xas",
    "grain_boundaries",
    "cbm",
    "vbm",
    "is_gap_direct",
    "is_metal",
    "es_source_calc_id",
    "bandstructure",
    "dos",
    "dos_energy_up",
    "dos_energy_down",
    "is_magnetic",
    "ordering",
    "total_magnetization_normalized_vol",
    "total_magnetization_normalized_formula_units",
    "num_magnetic_sites",
    "num_unique_magnetic_sites",
    "types_of_magnetic_species",
    "bulk_modulus",
    "shear_modulus",
    "universal_anisotropy",
    "homogeneous_poisson",
    "e_total",
    "e_ionic",
    "e_electronic",
    "n",
    "e_ij_max",
    "weighted_surface_energy_EV_PER_ANG2",
    "weighted_surface_energy",
    "weighted_work_function",
    "surface_anisotropy",
    "shape_factor",
    "has_reconstructed",
    "possible_species",
    "has_props",
    "theoretical",
    "database_IDs"
  ]
}
