{"builder_meta": null, "nsites": null, "elements": null, "nelements": null, "composition": null, "composition_reduced": null, "formula_pretty": "Al4Tc", "formula_anonymous": "AB4", "chemsys": null, "volume": 226.3788007782774, "density": 4.531543011628796, "density_atomic": 15.09192005188516, "symmetry": null, "property_name": null, "material_id": "mp-1104047", "deprecated": null, "deprecation_reasons": null, "last_updated": null, "origins": null, "warnings": null, "structure": {"@module": "pymatgen.core.structure", "@class": "Structure", "charge": 0, "lattice": {"matrix": [[-5.07908867, -0.0, 0.91461593], [-0.02939873, -0.0, 5.10512941], [-2.53954433, 8.73964511, 0.45730896]], "pbc": [true, true, true], "a": 5.160781337853032, "b": 5.105214058016819, "c": 9.112618368925494, "alpha": 87.03143040856008, "beta": 73.55070042017975, "gamma": 79.46193097014576, "volume": 226.3788007782774}, "properties": {}, "sites": [{"species": [{"element": "Al", "occu": 1}], "abc": [0.84935495, 0.51018075, 0.0], "properties": {"magmom": -0.0}, "label": "Al", "xyz": [-4.328947769473864, 0.0, 3.381372318735211]}, {"species": [{"element": "Al", "occu": 1}], "abc": [0.5051605100000001, 0.14712286, 0.0], "properties": {"magmom": -0.0}, "label": "Al", "xyz": [-2.57008024811039, 0.0, 1.213109089122237]}, {"species": [{"element": "Al", "occu": 1}], "abc": [0.27089308, 0.686074699999999, 0.1524304], "properties": {"magmom": 0.0}, "label": "Al", "xyz": [-1.7831634563141665, 1.3321875999753439, 3.81997104241807]}, {"species": [{"element": "Al", "occu": 1}], "abc": [0.42332348000000003, 0.686074699999999, 0.847569599999999], "properties": {"magmom": 0.0}, "label": "Al", "xyz": [-4.3227077878384685, 7.407457510024647, 4.277279699081574]}, {"species": [{"element": "Al", "occu": 1}], "abc": [0.057394499999999, 0.21977852, 0.23847983], "properties": {"magmom": 0.0}, "label": "Al", "xyz": [-0.9036030641354534, 2.0842290800931313, 1.283550673170934]}, {"species": [{"element": "Al", "occu": 1}], "abc": [0.29587233, 0.21977852, 0.76152017], "properties": {"magmom": 0.0}, "label": "Al", "xyz": [-3.443137238342917, 6.655416029906869, 1.7408573293642133]}, {"species": [{"element": "Al", "occu": 1}], "abc": [0.95484132, 0.80731494, 0.74773076], "properties": {"magmom": -0.0}, "label": "Al", "xyz": [-6.772353175930462, 6.534901480230584, 5.336704301436223]}, {"species": [{"element": "Al", "occu": 1}], "abc": [0.70257208, 0.80731494, 0.25226924], "properties": {"magmom": -0.0}, "label": "Al", "xyz": [-4.232808843407769, 2.2047436297694163, 4.87939584345201]}, {"species": [{"element": "Al", "occu": 1}], "abc": [0.07492831, 0.58646616, 0.46507011000000004], "properties": {"magmom": -0.0}, "label": "Al", "xyz": [-1.5788750515782008, 4.064547712668662, 3.2751969956509295]}, {"species": [{"element": "Al", "occu": 1}], "abc": [0.53999642, 0.58646616, 0.53492989], "properties": {"magmom": -0.0}, "label": "Al", "xyz": [-4.118409228051562, 4.675097397331338, 3.7325032009295502]}, {"species": [{"element": "Al", "occu": 1}], "abc": [0.23029471, 0.06751284, 0.49606908], "properties": {"magmom": 0.0}, "label": "Al", "xyz": [-2.4314614634789455, 4.335467709244199, 0.7821498304603114]}, {"species": [{"element": "Al", "occu": 1}], "abc": [0.7263637900000001, 0.06751284, 0.5039309200000001], "properties": {"magmom": 0.0}, "label": "Al", "xyz": [-4.971005798439636, 4.404177400755802, 1.2394578032828425]}, {"species": [{"element": "Tc", "occu": 1}], "abc": [0.01164338, 0.99467044, 0.0], "properties": {"magmom": -0.0}, "label": "Tc", "xyz": [-0.0883798071430458, 0.0, 5.0885705373286845]}, {"species": [{"element": "Tc", "occu": 1}], "abc": [0.80487649, 0.32986681, 0.72461014], "properties": {"magmom": -0.0}, "label": "Tc", "xyz": [-5.937916298889026, 6.332835466707415, 2.751536322079222]}, {"species": [{"element": "Tc", "occu": 1}], "abc": [0.52948563, 0.32986681, 0.27538986], "properties": {"magmom": -0.0}, "label": "Tc", "xyz": [-3.3983668870464574, 2.4068096432925845, 2.294226995489114]}]}, "task_ids": null, "uncorrected_energy_per_atom": null, "energy_per_atom": -10.987042285333333, "formation_energy_per_atom": -0.40843121133333204, "energy_above_hull": 0.0, "is_stable": true, "equilibrium_reaction_energy_per_atom": null, "decomposes_to": null, "xas": null, "grain_boundaries": null, "band_gap": 0.0, "cbm": null, "vbm": null, "efermi": 8.47779017, "is_gap_direct": null, "is_metal": null, "es_source_calc_id": null, "bandstructure": null, "dos": null, "dos_energy_up": null, "dos_energy_down": null, "is_magnetic": null, "ordering": null, "total_magnetization": 1e-07, "total_magnetization_normalized_vol": null, "total_magnetization_normalized_formula_units": null, "num_magnetic_sites": null, "num_unique_magnetic_sites": null, "types_of_magnetic_species": null, "bulk_modulus": null, "shear_modulus": null, "universal_anisotropy": null, "homogeneous_poisson": null, "e_total": null, "e_ionic": null, "e_electronic": null, "n": null, "e_ij_max": null, "weighted_surface_energy_EV_PER_ANG2": null, "weighted_surface_energy": null, "weighted_work_function": null, "surface_anisotropy": null, "shape_factor": null, "has_reconstructed": null, "possible_species": null, "has_props": null, "theoretical": null, "database_IDs": null, "fields_not_requested": ["builder_meta", "nsites", "elements", "nelements", "composition", "composition_reduced", "chemsys", "symmetry", "property_name", "deprecated", "deprecation_reasons", "last_updated", "origins", "warnings", "task_ids", "uncorrected_energy_per_atom", "equilibrium_reaction_energy_per_atom", "decomposes_to", "xas", "grain_boundaries", "cbm", "vbm", "is_gap_direct", "is_metal", "es_source_calc_id", "bandstructure", "dos", "dos_energy_up", "dos_energy_down", "is_magnetic", "ordering", "total_magnetization_normalized_vol", "total_magnetization_normalized_formula_units", "num_magnetic_sites", "num_unique_magnetic_sites", "types_of_magnetic_species", "bulk_modulus", "shear_modulus", "universal_anisotropy", "homogeneous_poisson", "e_total", "e_ionic", "e_electronic", "n", "e_ij_max", "weighted_surface_energy_EV_PER_ANG2", "weighted_surface_energy", "weighted_work_function", "surface_anisotropy", "shape_factor", "has_reconstructed", "possible_species", "has_props", "theoretical", "database_IDs"]}