{"builder_meta": null, "nsites": null, "elements": null, "nelements": null, "composition": null, "composition_reduced": null, "formula_pretty": "Al4W", "formula_anonymous": "AB4", "chemsys": null, "volume": 237.30856285606666, "density": 6.124799187967377, "density_atomic": 15.820570857071111, "symmetry": null, "property_name": null, "material_id": "mp-30336", "deprecated": null, "deprecation_reasons": null, "last_updated": null, "origins": null, "warnings": null, "structure": {"@module": "pymatgen.core.structure", "@class": "Structure", "charge": 0, "lattice": {"matrix": [[5.19225151, -0.02310028, 0.25489639000000003], [0.83232151, 4.95181521, 1.4900011800000001], [-0.01171148, -0.0016230700000000001, 9.22185882]], "pbc": [true, true, true], "a": 5.198555716318562, "b": 5.237684267536315, "c": 9.221866399440614, "alpha": 73.49442436242546, "beta": 87.26225587428647, "gamma": 80.30141942562518, "volume": 237.30856285606666}, "properties": {}, "sites": [{"species": [{"element": "Al", "occu": 1}], "abc": [0.51398328, 0.85319658, 2.029e-05], "properties": {"magmom": -0.0}, "label": "Al", "xyz": [3.37886408986126, 4.212998611348573, 1.4024635050797816]}, {"species": [{"element": "Al", "occu": 1}], "abc": [0.15230143000000002, 0.49561729, 0.9999076], "properties": {"magmom": -0.0}, "label": "Al", "xyz": [1.1915898632283193, 2.4490641092552483, 9.998298151872271]}, {"species": [{"element": "Al", "occu": 1}], "abc": [0.68925138, 0.42101877, 0.8461429500000001], "properties": {"magmom": 0.0}, "label": "Al", "xyz": [3.9192799107232603, 2.0675118998752486, 8.606016979104986]}, {"species": [{"element": "Al", "occu": 1}], "abc": [0.68923523, 0.26735791000000003, 0.15387147], "properties": {"magmom": -0.0}, "label": "Al", "xyz": [3.799408340430866, 1.307735694286134, 1.993028146136019]}, {"species": [{"element": "Al", "occu": 1}], "abc": [0.215870999999999, 0.30307152, 0.76361721], "properties": {"magmom": 0.0}, "label": "Al", "xyz": [1.3641663831970292, 1.4945280777249044, 7.548571764172376]}, {"species": [{"element": "Al", "occu": 1}], "abc": [0.215732199999999, 0.06697698, 0.23641112], "properties": {"magmom": -0.0}, "label": "Al", "xyz": [1.1731134982307991, 0.32629044226231146, 2.334935110337672]}, {"species": [{"element": "Al", "occu": 1}], "abc": [0.80635682, 0.948960399999999, 0.7509244900000001], "properties": {"magmom": -0.0}, "label": "Al", "xyz": [4.967853132155857, 4.679230671073785, 8.544409189503652]}, {"species": [{"element": "Al", "occu": 1}], "abc": [0.80618221, 0.69997263, 0.24918027], "properties": {"magmom": 0.0}, "label": "Al", "xyz": [4.765584803819409, 3.4471076440148547, 3.546358250348407]}, {"species": [{"element": "Al", "occu": 1}], "abc": [0.58036719, 0.5424963700000001, 0.53172534], "properties": {"magmom": 0.0}, "label": "Al", "xyz": [3.458716525794973, 2.6720721042963813, 5.85974974954766]}, {"species": [{"element": "Al", "occu": 1}], "abc": [0.58045636, 0.07427491, 0.46829048], "properties": {"magmom": -0.0}, "label": "Al", "xyz": [3.0702116423547072, 0.35362685638622676, 4.577134627570968]}, {"species": [{"element": "Al", "occu": 1}], "abc": [0.07156189, 0.22706686, 0.49958818], "properties": {"magmom": -0.0}, "label": "Al", "xyz": [0.5547090462188061, 1.121929164751299, 4.963702420862219]}, {"species": [{"element": "Al", "occu": 1}], "abc": [0.07167286, 0.72666606, 0.50032848], "properties": {"magmom": 0.0}, "label": "Al", "xyz": [0.9711037208990189, 3.595848317218339, 5.71496104632612]}, {"species": [{"element": "W", "occu": 1}], "abc": [0.99317549, 0.0095602, 0.00011753000000000001], "properties": {"magmom": -0.0}, "label": "W", "xyz": [5.164772721297148, 0.0243975211030877, 0.26848540138563176]}, {"species": [{"element": "W", "occu": 1}], "abc": [0.32999001, 0.80679383, 0.72698841], "properties": {"magmom": -0.0}, "label": "W", "xyz": [2.3763888763277516, 3.9862911440213336, 7.9904215017980595]}, {"species": [{"element": "W", "occu": 1}], "abc": [0.32985967, 0.53396869, 0.27288718], "properties": {"magmom": 0.0}, "label": "W", "xyz": [2.1539520832482975, 2.636051515072825, 3.396221065020573]}]}, "task_ids": null, "uncorrected_energy_per_atom": null, "energy_per_atom": -15.819920694666667, "formation_energy_per_atom": -0.16068315466666602, "energy_above_hull": 0.020917083733333, "is_stable": false, "equilibrium_reaction_energy_per_atom": null, "decomposes_to": null, "xas": null, "grain_boundaries": null, "band_gap": 0.0, "cbm": null, "vbm": null, "efermi": 7.4344636, "is_gap_direct": null, "is_metal": null, "es_source_calc_id": null, "bandstructure": null, "dos": null, "dos_energy_up": null, "dos_energy_down": null, "is_magnetic": null, "ordering": null, "total_magnetization": 1e-07, "total_magnetization_normalized_vol": null, "total_magnetization_normalized_formula_units": null, "num_magnetic_sites": null, "num_unique_magnetic_sites": null, "types_of_magnetic_species": null, "bulk_modulus": null, "shear_modulus": null, "universal_anisotropy": null, "homogeneous_poisson": null, "e_total": null, "e_ionic": null, "e_electronic": null, "n": null, "e_ij_max": null, "weighted_surface_energy_EV_PER_ANG2": null, "weighted_surface_energy": null, "weighted_work_function": null, "surface_anisotropy": null, "shape_factor": null, "has_reconstructed": null, "possible_species": null, "has_props": null, "theoretical": null, "database_IDs": null, "fields_not_requested": ["builder_meta", "nsites", "elements", "nelements", "composition", "composition_reduced", "chemsys", "symmetry", "property_name", "deprecated", "deprecation_reasons", "last_updated", "origins", "warnings", "task_ids", "uncorrected_energy_per_atom", "equilibrium_reaction_energy_per_atom", "decomposes_to", "xas", "grain_boundaries", "cbm", "vbm", "is_gap_direct", "is_metal", "es_source_calc_id", "bandstructure", "dos", "dos_energy_up", "dos_energy_down", "is_magnetic", "ordering", "total_magnetization_normalized_vol", "total_magnetization_normalized_formula_units", "num_magnetic_sites", "num_unique_magnetic_sites", "types_of_magnetic_species", "bulk_modulus", "shear_modulus", "universal_anisotropy", "homogeneous_poisson", "e_total", "e_ionic", "e_electronic", "n", "e_ij_max", "weighted_surface_energy_EV_PER_ANG2", "weighted_surface_energy", "weighted_work_function", "surface_anisotropy", "shape_factor", "has_reconstructed", "possible_species", "has_props", "theoretical", "database_IDs"]}