{"builder_meta": null, "nsites": null, "elements": null, "nelements": null, "composition": null, "composition_reduced": null, "formula_pretty": "Al5Co2", "formula_anonymous": "A2B5", "chemsys": null, "volume": 376.3307399553464, "density": 4.461407961468099, "density_atomic": 13.4403835698338, "symmetry": null, "property_name": null, "material_id": "mp-196", "deprecated": null, "deprecation_reasons": null, "last_updated": null, "origins": null, "warnings": null, "structure": {"@module": "pymatgen.core.structure", "@class": "Structure", "charge": 0, "lattice": {"matrix": [[7.6047411, -1e-06, 0.0], [-3.80237005, 6.58589809, -0.0], [0.0, 0.0, 7.51398438]], "pbc": [true, true, true], "a": 7.604741100000066, "b": 7.604740077675412, "c": 7.51398438, "alpha": 90.0, "beta": 90.0, "gamma": 120.00000763132766, "volume": 376.3307399553464}, "properties": {}, "sites": [{"species": [{"element": "Al", "occu": 1}], "abc": [-0.0, 0.0, -0.0], "properties": {"magmom": -0.0}, "label": "Al", "xyz": [0.0, 0.0, 0.0]}, {"species": [{"element": "Al", "occu": 1}], "abc": [-0.0, 0.0, 0.5], "properties": {"magmom": -0.0}, "label": "Al", "xyz": [0.0, 0.0, 3.75699219]}, {"species": [{"element": "Al", "occu": 1}], "abc": [0.46812806, 0.93625612, 0.25], "properties": {"magmom": 0.0}, "label": "Al", "xyz": [4.6812806031582e-07, 6.166086924330751, 1.878496095]}, {"species": [{"element": "Al", "occu": 1}], "abc": [0.53187194, 0.46812806, 0.75], "properties": {"magmom": 0.0}, "label": "Al", "xyz": [2.2647522871461314, 3.0830431643574654, 5.635488285]}, {"species": [{"element": "Al", "occu": 1}], "abc": [0.93625612, 0.46812806, 0.75], "properties": {"magmom": 0.0}, "label": "Al", "xyz": [5.339989280981929, 3.083042759973285, 5.635488285]}, {"species": [{"element": "Al", "occu": 1}], "abc": [0.06374388, 0.53187194, 0.25], "properties": {"magmom": 0.0}, "label": "Al", "xyz": [-1.5376182309819293, 3.502854330026715, 1.878496095]}, {"species": [{"element": "Al", "occu": 1}], "abc": [0.46812806, 0.53187194, 0.25], "properties": {"magmom": 0.0}, "label": "Al", "xyz": [1.5376187628538691, 3.502853925642535, 1.878496095]}, {"species": [{"element": "Al", "occu": 1}], "abc": [0.53187194, 0.06374388, 0.75], "properties": {"magmom": 0.0}, "label": "Al", "xyz": [3.8023705818719407, 0.4198101656692492, 5.635488285]}, {"species": [{"element": "Al", "occu": 1}], "abc": [0.19395997, 0.38791993, 0.93916405], "properties": {"magmom": 0.0}, "label": "Al", "xyz": [2.3198367049559465e-07, 2.554800932099964, 7.056864001957539]}, {"species": [{"element": "Al", "occu": 1}], "abc": [0.80604003, 0.19395997, 0.43916405000000003], "properties": {"magmom": 0.0}, "label": "Al", "xyz": [5.392218163559335, 1.2773997899194272, 3.2998718119575394]}, {"species": [{"element": "Al", "occu": 1}], "abc": [0.38791993, 0.19395997, 0.43916405000000003], "properties": {"magmom": 0.0}, "label": "Al", "xyz": [2.2125230543532246, 1.2774002080395273, 3.2998718119575394]}, {"species": [{"element": "Al", "occu": 1}], "abc": [0.61208007, 0.80604003, 0.93916405], "properties": {"magmom": 0.0}, "label": "Al", "xyz": [1.589847995646775, 5.3084968819604725, 7.056864001957539]}, {"species": [{"element": "Al", "occu": 1}], "abc": [0.19395997, 0.80604003, 0.93916405], "properties": {"magmom": 0.0}, "label": "Al", "xyz": [-1.5898471135593344, 5.308497300080573, 7.056864001957539]}, {"species": [{"element": "Al", "occu": 1}], "abc": [0.80604003, 0.61208007, 0.06083595], "properties": {"magmom": 0.0}, "label": "Al", "xyz": [3.80237081801633, 4.031096157900036, 0.45712037804246103]}, {"species": [{"element": "Al", "occu": 1}], "abc": [0.80604003, 0.19395997, 0.06083595], "properties": {"magmom": 0.0}, "label": "Al", "xyz": [5.392218163559335, 1.2773997899194272, 0.45712037804246103]}, {"species": [{"element": "Al", "occu": 1}], "abc": [0.80604003, 0.61208007, 0.43916405000000003], "properties": {"magmom": 0.0}, "label": "Al", "xyz": [3.80237081801633, 4.031096157900036, 3.2998718119575394]}, {"species": [{"element": "Al", "occu": 1}], "abc": [0.38791993, 0.19395997, 0.06083595], "properties": {"magmom": 0.0}, "label": "Al", "xyz": [2.2125230543532246, 1.2774002080395273, 0.45712037804246103]}, {"species": [{"element": "Al", "occu": 1}], "abc": [0.61208007, 0.80604003, 0.56083595], "properties": {"magmom": 0.0}, "label": "Al", "xyz": [1.589847995646775, 5.3084968819604725, 4.214112568042461]}, {"species": [{"element": "Al", "occu": 1}], "abc": [0.19395997, 0.38791993, 0.56083595], "properties": {"magmom": 0.0}, "label": "Al", "xyz": [2.3198367049559465e-07, 2.554800932099964, 4.214112568042461]}, {"species": [{"element": "Al", "occu": 1}], "abc": [0.19395997, 0.80604003, 0.56083595], "properties": {"magmom": 0.0}, "label": "Al", "xyz": [-1.5898471135593344, 5.308497300080573, 4.214112568042461]}, {"species": [{"element": "Co", "occu": 1}], "abc": [0.333333, 0.666667, 0.75], "properties": {"magmom": -0.0}, "label": "Co", "xyz": [-3.469037050063406e-06, 4.3906005886330295, 5.635488285]}, {"species": [{"element": "Co", "occu": 1}], "abc": [0.666667, 0.333333, 0.25], "properties": {"magmom": -0.0}, "label": "Co", "xyz": [3.8023745190370497, 2.19529650136697, 1.878496095]}, {"species": [{"element": "Co", "occu": 1}], "abc": [0.12698852, 0.25397705, 0.25], "properties": {"magmom": -0.0}, "label": "Co", "xyz": [8.896481962228364e-08, 1.6726668415103143, 1.878496095]}, {"species": [{"element": "Co", "occu": 1}], "abc": [0.8730114800000001, 0.12698952, 0.75], "properties": {"magmom": -0.0}, "label": "Co", "xyz": [6.156165135215952, 0.8363391642065368, 5.635488285]}, {"species": [{"element": "Co", "occu": 1}], "abc": [0.25397705, 0.12698952, 0.75], "properties": {"magmom": -0.0}, "label": "Co", "xyz": [1.4485685630798788, 0.8363397832409668, 5.635488285]}, {"species": [{"element": "Co", "occu": 1}], "abc": [0.74602295, 0.87301048, 0.25], "properties": {"magmom": -0.0}, "label": "Co", "xyz": [2.35380248692012, 5.749557306759033, 1.878496095]}, {"species": [{"element": "Co", "occu": 1}], "abc": [0.12698852, 0.87301048, 0.25], "properties": {"magmom": -0.0}, "label": "Co", "xyz": [-2.3537940852159522, 5.749557925793463, 1.878496095]}, {"species": [{"element": "Co", "occu": 1}], "abc": [0.8730114800000001, 0.74602295, 0.75], "properties": {"magmom": -0.0}, "label": "Co", "xyz": [3.802370961035181, 4.913230248489685, 5.635488285]}]}, "task_ids": null, "uncorrected_energy_per_atom": null, "energy_per_atom": -9.017944408928571, "formation_energy_per_atom": -0.42809385035714104, "energy_above_hull": 0.0, "is_stable": true, "equilibrium_reaction_energy_per_atom": null, "decomposes_to": null, "xas": null, "grain_boundaries": null, "band_gap": 0.0, "cbm": null, "vbm": null, "efermi": 8.03526829, "is_gap_direct": null, "is_metal": null, "es_source_calc_id": null, "bandstructure": null, "dos": null, "dos_energy_up": null, "dos_energy_down": null, "is_magnetic": null, "ordering": null, "total_magnetization": 3e-07, "total_magnetization_normalized_vol": null, "total_magnetization_normalized_formula_units": null, "num_magnetic_sites": null, "num_unique_magnetic_sites": null, "types_of_magnetic_species": null, "bulk_modulus": null, "shear_modulus": null, "universal_anisotropy": null, "homogeneous_poisson": null, "e_total": null, "e_ionic": null, "e_electronic": null, "n": null, "e_ij_max": null, "weighted_surface_energy_EV_PER_ANG2": null, "weighted_surface_energy": null, "weighted_work_function": null, "surface_anisotropy": null, "shape_factor": null, "has_reconstructed": null, "possible_species": null, "has_props": null, "theoretical": null, "database_IDs": null, "fields_not_requested": ["builder_meta", "nsites", "elements", "nelements", "composition", "composition_reduced", "chemsys", "symmetry", "property_name", "deprecated", "deprecation_reasons", "last_updated", "origins", "warnings", "task_ids", "uncorrected_energy_per_atom", "equilibrium_reaction_energy_per_atom", "decomposes_to", "xas", "grain_boundaries", "cbm", "vbm", "is_gap_direct", "is_metal", "es_source_calc_id", "bandstructure", "dos", "dos_energy_up", "dos_energy_down", "is_magnetic", "ordering", "total_magnetization_normalized_vol", "total_magnetization_normalized_formula_units", "num_magnetic_sites", "num_unique_magnetic_sites", "types_of_magnetic_species", "bulk_modulus", "shear_modulus", "universal_anisotropy", "homogeneous_poisson", "e_total", "e_ionic", "e_electronic", "n", "e_ij_max", "weighted_surface_energy_EV_PER_ANG2", "weighted_surface_energy", "weighted_work_function", "surface_anisotropy", "shape_factor", "has_reconstructed", "possible_species", "has_props", "theoretical", "database_IDs"]}