{"builder_meta": null, "nsites": null, "elements": null, "nelements": null, "composition": null, "composition_reduced": null, "formula_pretty": "Al5O8", "formula_anonymous": "A5B8", "chemsys": null, "volume": 244.1102709698692, "density": 3.576748514629643, "density_atomic": 9.3888565757642, "symmetry": null, "property_name": null, "material_id": "mp-1182893", "deprecated": null, "deprecation_reasons": null, "last_updated": null, "origins": null, "warnings": null, "structure": {"@module": "pymatgen.core.structure", "@class": "Structure", "charge": 0, "lattice": {"matrix": [[2.802596, -4.854239, 0.0], [2.802596, 4.854239, 0.0], [0.0, 0.0, 8.971693]], "pbc": [true, true, true], "a": 5.605192290041172, "b": 5.605192290041172, "c": 8.971693, "alpha": 90.0, "beta": 90.0, "gamma": 120.00000342342747, "volume": 244.1102709698692}, "properties": {}, "sites": [{"species": [{"element": "Al", "occu": 1}], "abc": [0.8383929999999991, 0.161607, 0.869132], "properties": {"magmom": -0.004}, "label": "Al", "xyz": [2.802595999999997, -3.285280995853996, 7.797585480476]}, {"species": [{"element": "Al", "occu": 1}], "abc": [0.8383929999999991, 0.676786, 0.869132], "properties": {"magmom": -0.004}, "label": "Al", "xyz": [4.246434604683997, -0.7844790020729957, 7.797585480476]}, {"species": [{"element": "Al", "occu": 1}], "abc": [0.323214, 0.161607, 0.869132], "properties": {"magmom": -0.004}, "label": "Al", "xyz": [1.358757395316, -0.7844790020729999, 7.797585480476]}, {"species": [{"element": "Al", "occu": 1}], "abc": [0.161607, 0.8383929999999991, 0.369131999999999], "properties": {"magmom": -0.004}, "label": "Al", "xyz": [2.802595999999997, 3.285280995853996, 3.311738980475991]}, {"species": [{"element": "Al", "occu": 1}], "abc": [0.161607, 0.323214, 0.369131999999999], "properties": {"magmom": -0.004}, "label": "Al", "xyz": [1.358757395316, 0.7844790020729999, 3.311738980475991]}, {"species": [{"element": "Al", "occu": 1}], "abc": [0.676786, 0.8383929999999991, 0.369131999999999], "properties": {"magmom": -0.004}, "label": "Al", "xyz": [4.246434604683997, 0.7844790020729957, 3.311738980475991]}, {"species": [{"element": "Al", "occu": 1}], "abc": [0.333333, 0.666667, 0.648246], "properties": {"magmom": -0.005}, "label": "Al", "xyz": [2.802596, 1.618082902826, 5.815864100478]}, {"species": [{"element": "Al", "occu": 1}], "abc": [0.666667, 0.333333, 0.148246], "properties": {"magmom": -0.005}, "label": "Al", "xyz": [2.802596, -1.618082902826, 1.330017600478]}, {"species": [{"element": "Al", "occu": 1}], "abc": [0.666667, 0.333333, 0.557066], "properties": {"magmom": -0.001}, "label": "Al", "xyz": [2.802596, -1.618082902826, 4.997825132738]}, {"species": [{"element": "Al", "occu": 1}], "abc": [0.333333, 0.666667, 0.057066], "properties": {"magmom": -0.001}, "label": "Al", "xyz": [2.802596, 1.618082902826, 0.511978632738]}, {"species": [{"element": "O", "occu": 1}], "abc": [0.0, 0.0, 0.471032], "properties": {"magmom": 0.073}, "label": "O", "xyz": [0.0, 0.0, 4.225954497176]}, {"species": [{"element": "O", "occu": 1}], "abc": [0.0, 0.0, 0.971032], "properties": {"magmom": 0.073}, "label": "O", "xyz": [0.0, 0.0, 8.711800997176]}, {"species": [{"element": "O", "occu": 1}], "abc": [0.487386, 0.512614, 0.499627999999999], "properties": {"magmom": 0.026000000000000002}, "label": "O", "xyz": [2.802596, 0.12246274149199987, 4.482509030203992]}, {"species": [{"element": "O", "occu": 1}], "abc": [0.487386, 0.974770999999999, 0.499627999999999], "properties": {"magmom": 0.026000000000000002}, "label": "O", "xyz": [4.097835359571997, 2.3658832750149954, 4.482509030203992]}, {"species": [{"element": "O", "occu": 1}], "abc": [0.025228999999999002, 0.512614, 0.499627999999999], "properties": {"magmom": 0.026000000000000002}, "label": "O", "xyz": [1.507356640427997, 2.3658832750150047, 4.482509030203992]}, {"species": [{"element": "O", "occu": 1}], "abc": [0.512614, 0.487386, 0.999628], "properties": {"magmom": 0.026000000000000002}, "label": "O", "xyz": [2.802596, -0.12246274149199987, 8.968355530204]}, {"species": [{"element": "O", "occu": 1}], "abc": [0.512614, 0.025228999999999002, 0.999628], "properties": {"magmom": 0.026000000000000002}, "label": "O", "xyz": [1.507356640427997, -2.3658832750150047, 8.968355530204]}, {"species": [{"element": "O", "occu": 1}], "abc": [0.974770999999999, 0.487386, 0.999628], "properties": {"magmom": 0.026000000000000002}, "label": "O", "xyz": [4.097835359571997, -2.3658832750149954, 8.968355530204]}, {"species": [{"element": "O", "occu": 1}], "abc": [0.659809, 0.829904, 0.758455], "properties": {"magmom": 0.234}, "label": "O", "xyz": [4.175063694947999, 0.8256817827050003, 6.804625414315]}, {"species": [{"element": "O", "occu": 1}], "abc": [0.170096, 0.829904, 0.758455], "properties": {"magmom": 0.234}, "label": "O", "xyz": [2.8025959999999994, 3.202865726112, 6.804625414315]}, {"species": [{"element": "O", "occu": 1}], "abc": [0.170096, 0.340190999999999, 0.758455], "properties": {"magmom": 0.229}, "label": "O", "xyz": [1.4301283050519973, 0.8256817827049951, 6.804625414315]}, {"species": [{"element": "O", "occu": 1}], "abc": [0.340190999999999, 0.170096, 0.258455], "properties": {"magmom": 0.232}, "label": "O", "xyz": [1.4301283050519973, -0.8256817827049951, 2.318778914315]}, {"species": [{"element": "O", "occu": 1}], "abc": [0.829904, 0.170096, 0.258455], "properties": {"magmom": 0.233}, "label": "O", "xyz": [2.8025959999999994, -3.202865726112, 2.318778914315]}, {"species": [{"element": "O", "occu": 1}], "abc": [0.829904, 0.659809, 0.258455], "properties": {"magmom": 0.228}, "label": "O", "xyz": [4.175063694947999, -0.8256817827050003, 2.318778914315]}, {"species": [{"element": "O", "occu": 1}], "abc": [0.666667, 0.333333, 0.760062], "properties": {"magmom": 0.002}, "label": "O", "xyz": [2.802596, -1.618082902826, 6.819042924966]}, {"species": [{"element": "O", "occu": 1}], "abc": [0.333333, 0.666667, 0.260062], "properties": {"magmom": 0.002}, "label": "O", "xyz": [2.802596, 1.618082902826, 2.333196424966]}]}, "task_ids": null, "uncorrected_energy_per_atom": null, "energy_per_atom": -7.717005010769231, "formation_energy_per_atom": -3.231499842307692, "energy_above_hull": 0.063260742307692, "is_stable": false, "equilibrium_reaction_energy_per_atom": null, "decomposes_to": null, "xas": null, "grain_boundaries": null, "band_gap": 0.0, "cbm": null, "vbm": null, "efermi": 5.11026928, "is_gap_direct": null, "is_metal": null, "es_source_calc_id": null, "bandstructure": null, "dos": null, "dos_energy_up": null, "dos_energy_down": null, "is_magnetic": null, "ordering": null, "total_magnetization": 2.0061308, "total_magnetization_normalized_vol": null, "total_magnetization_normalized_formula_units": null, "num_magnetic_sites": null, "num_unique_magnetic_sites": null, "types_of_magnetic_species": null, "bulk_modulus": null, "shear_modulus": null, "universal_anisotropy": null, "homogeneous_poisson": null, "e_total": null, "e_ionic": null, "e_electronic": null, "n": null, "e_ij_max": null, "weighted_surface_energy_EV_PER_ANG2": null, "weighted_surface_energy": null, "weighted_work_function": null, "surface_anisotropy": null, "shape_factor": null, "has_reconstructed": null, "possible_species": null, "has_props": null, "theoretical": null, "database_IDs": null, "fields_not_requested": ["builder_meta", "nsites", "elements", "nelements", "composition", "composition_reduced", "chemsys", "symmetry", "property_name", "deprecated", "deprecation_reasons", "last_updated", "origins", "warnings", "task_ids", "uncorrected_energy_per_atom", "equilibrium_reaction_energy_per_atom", "decomposes_to", "xas", "grain_boundaries", "cbm", "vbm", "is_gap_direct", "is_metal", "es_source_calc_id", "bandstructure", "dos", "dos_energy_up", "dos_energy_down", "is_magnetic", "ordering", "total_magnetization_normalized_vol", "total_magnetization_normalized_formula_units", "num_magnetic_sites", "num_unique_magnetic_sites", "types_of_magnetic_species", "bulk_modulus", "shear_modulus", "universal_anisotropy", "homogeneous_poisson", "e_total", "e_ionic", "e_electronic", "n", "e_ij_max", "weighted_surface_energy_EV_PER_ANG2", "weighted_surface_energy", "weighted_work_function", "surface_anisotropy", "shape_factor", "has_reconstructed", "possible_species", "has_props", "theoretical", "database_IDs"]}