{"builder_meta": null, "nsites": null, "elements": null, "nelements": null, "composition": null, "composition_reduced": null, "formula_pretty": "Al5Rh2", "formula_anonymous": "A2B5", "chemsys": null, "volume": 423.02604653285954, "density": 5.349804865062312, "density_atomic": 15.10807309045927, "symmetry": null, "property_name": null, "material_id": "mp-1791", "deprecated": null, "deprecation_reasons": null, "last_updated": null, "origins": null, "warnings": null, "structure": {"@module": "pymatgen.core.structure", "@class": "Structure", "charge": 0, "lattice": {"matrix": [[7.89879136, 0.0, 0.0], [-3.94939468, 6.84055272, 0.0], [0.0, -0.0, 7.82916186]], "pbc": [true, true, true], "a": 7.89879136, "b": 7.898789771446744, "c": 7.82916186, "alpha": 90.0, "beta": 90.0, "gamma": 119.99999827688181, "volume": 423.02604653285954}, "properties": {}, "sites": [{"species": [{"element": "Al", "occu": 1}], "abc": [-0.0, -0.0, 0.0], "properties": {"magmom": 0.0}, "label": "Al", "xyz": [0.0, 0.0, 0.0]}, {"species": [{"element": "Al", "occu": 1}], "abc": [-0.0, -0.0, 0.5], "properties": {"magmom": 0.0}, "label": "Al", "xyz": [0.0, 0.0, 3.91458093]}, {"species": [{"element": "Al", "occu": 1}], "abc": [0.47180694, 0.94361489, 0.25], "properties": {"magmom": 0.0}, "label": "Al", "xyz": [-3.0452747470377517e-06, 6.454847402422001, 1.957290465]}, {"species": [{"element": "Al", "occu": 1}], "abc": [0.52819306, 0.47180694, 0.75], "properties": {"magmom": 0.0}, "label": "Al", "xyz": [2.3087349599168823, 3.2274202467318767, 5.871871395]}, {"species": [{"element": "Al", "occu": 1}], "abc": [0.94361489, 0.47180694, 0.75], "properties": {"magmom": 0.0}, "label": "Al", "xyz": [5.5900653214762706, 3.2274202467318767, 5.871871395]}, {"species": [{"element": "Al", "occu": 1}], "abc": [0.05638511, 0.52819306, 0.25], "properties": {"magmom": 0.0}, "label": "Al", "xyz": [-1.6406686414762712, 3.613132473268123, 1.957290465]}, {"species": [{"element": "Al", "occu": 1}], "abc": [0.47180694, 0.52819306, 0.25], "properties": {"magmom": 0.0}, "label": "Al", "xyz": [1.6406617200831173, 3.613132473268123, 1.957290465]}, {"species": [{"element": "Al", "occu": 1}], "abc": [0.52819306, 0.05638511, 0.75], "properties": {"magmom": 0.0}, "label": "Al", "xyz": [3.9493997252747466, 0.3857053175779992, 5.871871395]}, {"species": [{"element": "Al", "occu": 1}], "abc": [0.19190102, 0.38380203, 0.94015821], "properties": {"magmom": 0.0}, "label": "Al", "xyz": [4.2329598670676205e-07, 2.6254180202580217, 7.36065080009787]}, {"species": [{"element": "Al", "occu": 1}], "abc": [0.80809898, 0.19190102, 0.44015821], "properties": {"magmom": 0.0}, "label": "Al", "xyz": [5.625112373774239, 1.3127090443317744, 3.4460698700978707]}, {"species": [{"element": "Al", "occu": 1}], "abc": [0.38380203, 0.19190102, 0.44015821], "properties": {"magmom": 0.0}, "label": "Al", "xyz": [2.2736792910398873, 1.3127090443317744, 3.4460698700978707]}, {"species": [{"element": "Al", "occu": 1}], "abc": [0.61619797, 0.80809898, 0.94015821], "properties": {"magmom": 0.0}, "label": "Al", "xyz": [1.6757173889601122, 5.527843675668225, 7.36065080009787]}, {"species": [{"element": "Al", "occu": 1}], "abc": [0.19190102, 0.80809898, 0.94015821], "properties": {"magmom": 0.0}, "label": "Al", "xyz": [-1.6757156937742395, 5.527843675668225, 7.36065080009787]}, {"species": [{"element": "Al", "occu": 1}], "abc": [0.80809898, 0.61619797, 0.05984179], "properties": {"magmom": 0.0}, "label": "Al", "xyz": [3.9493962567040133, 4.215134699741978, 0.4685110599021294]}, {"species": [{"element": "Al", "occu": 1}], "abc": [0.80809898, 0.19190102, 0.05984179], "properties": {"magmom": 0.0}, "label": "Al", "xyz": [5.625112373774239, 1.3127090443317744, 0.4685110599021294]}, {"species": [{"element": "Al", "occu": 1}], "abc": [0.80809898, 0.61619797, 0.44015821], "properties": {"magmom": 0.0}, "label": "Al", "xyz": [3.9493962567040133, 4.215134699741978, 3.4460698700978707]}, {"species": [{"element": "Al", "occu": 1}], "abc": [0.38380203, 0.19190102, 0.05984179], "properties": {"magmom": 0.0}, "label": "Al", "xyz": [2.2736792910398873, 1.3127090443317744, 0.4685110599021294]}, {"species": [{"element": "Al", "occu": 1}], "abc": [0.61619797, 0.80809898, 0.55984179], "properties": {"magmom": 0.0}, "label": "Al", "xyz": [1.6757173889601122, 5.527843675668225, 4.3830919899021294]}, {"species": [{"element": "Al", "occu": 1}], "abc": [0.19190102, 0.38380203, 0.55984179], "properties": {"magmom": 0.0}, "label": "Al", "xyz": [4.2329598670676205e-07, 2.6254180202580217, 4.3830919899021294]}, {"species": [{"element": "Al", "occu": 1}], "abc": [0.19190102, 0.80809898, 0.55984179], "properties": {"magmom": 0.0}, "label": "Al", "xyz": [-1.6757156937742395, 5.527843675668225, 4.3830919899021294]}, {"species": [{"element": "Rh", "occu": 1}], "abc": [0.333333, 0.666667, 0.75], "properties": {"magmom": -0.0}, "label": "Rh", "xyz": [-3.282728680442659e-06, 4.56037076018424, 5.871871395]}, {"species": [{"element": "Rh", "occu": 1}], "abc": [0.666667, 0.333333, 0.25], "properties": {"magmom": -0.0}, "label": "Rh", "xyz": [3.9493999627286804, 2.28018195981576, 1.957290465]}, {"species": [{"element": "Rh", "occu": 1}], "abc": [0.12975893, 0.25951586, 0.25], "properties": {"magmom": -0.0}, "label": "Rh", "xyz": [8.158307220007543e-06, 1.775231922006139, 1.957290465]}, {"species": [{"element": "Rh", "occu": 1}], "abc": [0.8702410700000001, 0.12975893, 0.75], "properties": {"magmom": -0.0}, "label": "Rh", "xyz": [6.361383417008662, 0.8876228015557895, 5.871871395]}, {"species": [{"element": "Rh", "occu": 1}], "abc": [0.25951586, 0.12975893, 0.75], "properties": {"magmom": -0.0}, "label": "Rh", "xyz": [1.5373924049264769, 0.8876228015557895, 5.871871395]}, {"species": [{"element": "Rh", "occu": 1}], "abc": [0.7404841400000001, 0.8702410700000001, 0.25], "properties": {"magmom": -0.0}, "label": "Rh", "xyz": [2.4120042750735227, 5.952929918444211, 1.957290465]}, {"species": [{"element": "Rh", "occu": 1}], "abc": [0.12975893, 0.8702410700000001, 0.25], "properties": {"magmom": -0.0}, "label": "Rh", "xyz": [-2.4119867370086636, 5.952929918444211, 1.957290465]}, {"species": [{"element": "Rh", "occu": 1}], "abc": [0.8702410700000001, 0.7404841400000001, 0.75], "properties": {"magmom": -0.0}, "label": "Rh", "xyz": [3.9493885216927795, 5.065320797993861, 5.871871395]}]}, "task_ids": null, "uncorrected_energy_per_atom": null, "energy_per_atom": -12.511268666428572, "formation_energy_per_atom": -0.8065616792857131, "energy_above_hull": 0.0, "is_stable": true, "equilibrium_reaction_energy_per_atom": null, "decomposes_to": null, "xas": null, "grain_boundaries": null, "band_gap": 0.0, "cbm": null, "vbm": null, "efermi": 8.05435312, "is_gap_direct": null, "is_metal": null, "es_source_calc_id": null, "bandstructure": null, "dos": null, "dos_energy_up": null, "dos_energy_down": null, "is_magnetic": null, "ordering": null, "total_magnetization": 1e-07, "total_magnetization_normalized_vol": null, "total_magnetization_normalized_formula_units": null, "num_magnetic_sites": null, "num_unique_magnetic_sites": null, "types_of_magnetic_species": null, "bulk_modulus": null, "shear_modulus": null, "universal_anisotropy": null, "homogeneous_poisson": null, "e_total": null, "e_ionic": null, "e_electronic": null, "n": null, "e_ij_max": null, "weighted_surface_energy_EV_PER_ANG2": null, "weighted_surface_energy": null, "weighted_work_function": null, "surface_anisotropy": null, "shape_factor": null, "has_reconstructed": null, "possible_species": null, "has_props": null, "theoretical": null, "database_IDs": null, "fields_not_requested": ["builder_meta", "nsites", "elements", "nelements", "composition", "composition_reduced", "chemsys", "symmetry", "property_name", "deprecated", "deprecation_reasons", "last_updated", "origins", "warnings", "task_ids", "uncorrected_energy_per_atom", "equilibrium_reaction_energy_per_atom", "decomposes_to", "xas", "grain_boundaries", "cbm", "vbm", "is_gap_direct", "is_metal", "es_source_calc_id", "bandstructure", "dos", "dos_energy_up", "dos_energy_down", "is_magnetic", "ordering", "total_magnetization_normalized_vol", "total_magnetization_normalized_formula_units", "num_magnetic_sites", "num_unique_magnetic_sites", "types_of_magnetic_species", "bulk_modulus", "shear_modulus", "universal_anisotropy", "homogeneous_poisson", "e_total", "e_ionic", "e_electronic", "n", "e_ij_max", "weighted_surface_energy_EV_PER_ANG2", "weighted_surface_energy", "weighted_work_function", "surface_anisotropy", "shape_factor", "has_reconstructed", "possible_species", "has_props", "theoretical", "database_IDs"]}