{
  "builder_meta": null,
  "nsites": null,
  "elements": null,
  "nelements": null,
  "composition": null,
  "composition_reduced": null,
  "formula_pretty": "Al5Se8",
  "formula_anonymous": "A5B8",
  "chemsys": null,
  "volume": 292.0428521640637,
  "density": 4.358774072943756,
  "density_atomic": 22.464834781851053,
  "symmetry": null,
  "property_name": null,
  "material_id": "mp-1228165",
  "deprecated": null,
  "deprecation_reasons": null,
  "last_updated": null,
  "origins": null,
  "warnings": null,
  "structure": {
    "@module": "pymatgen.core.structure",
    "@class": "Structure",
    "charge": 0,
    "lattice": {
      "matrix": [
        [0.0, 5.265895, 5.265895],
        [5.265895, 0.0, 5.265895],
        [5.265895, 5.265895, 0.0]
      ],
      "pbc": [true, true, true],
      "a": 7.44710012703267,
      "b": 7.44710012703267,
      "c": 7.44710012703267,
      "alpha": 60.00000000000001,
      "beta": 60.00000000000001,
      "gamma": 60.00000000000001,
      "volume": 292.0428521640637
    },
    "properties": {},
    "sites": [
      {
        "species": [{ "element": "Al", "occu": 1 }],
        "abc": [0.884972, 0.884972, 0.345085],
        "properties": { "magmom": -0.0 },
        "label": "Al",
        "xyz": [6.477351006015001, 6.477351006015001, 9.32033925988]
      },
      {
        "species": [{ "element": "Al", "occu": 1 }],
        "abc": [0.884972, 0.345085, 0.884972],
        "properties": { "magmom": -0.0 },
        "label": "Al",
        "xyz": [6.477351006015001, 9.32033925988, 6.477351006015001]
      },
      {
        "species": [{ "element": "Al", "occu": 1 }],
        "abc": [0.345085, 0.884972, 0.884972],
        "properties": { "magmom": -0.0 },
        "label": "Al",
        "xyz": [9.32033925988, 6.477351006015001, 6.477351006015001]
      },
      {
        "species": [{ "element": "Al", "occu": 1 }],
        "abc": [0.884972, 0.884972, 0.884972],
        "properties": { "magmom": -0.0 },
        "label": "Al",
        "xyz": [9.32033925988, 9.32033925988, 9.32033925988]
      },
      {
        "species": [{ "element": "Al", "occu": 1 }],
        "abc": [0.5, 0.5, 0.5],
        "properties": { "magmom": 0.0 },
        "label": "Al",
        "xyz": [5.265895, 5.265895, 5.265895]
      },
      {
        "species": [{ "element": "Se", "occu": 1 }],
        "abc": [0.123141, 0.123141, 0.630578],
        "properties": { "magmom": 0.046 },
        "label": "Se",
        "xyz": [3.969005113505, 3.969005113505, 1.29689515239]
      },
      {
        "species": [{ "element": "Se", "occu": 1 }],
        "abc": [0.123141, 0.630578, 0.123141],
        "properties": { "magmom": 0.038 },
        "label": "Se",
        "xyz": [3.969005113505, 1.29689515239, 3.969005113505]
      },
      {
        "species": [{ "element": "Se", "occu": 1 }],
        "abc": [0.630578, 0.123141, 0.123141],
        "properties": { "magmom": 0.022 },
        "label": "Se",
        "xyz": [1.29689515239, 3.969005113505, 3.969005113505]
      },
      {
        "species": [{ "element": "Se", "occu": 1 }],
        "abc": [0.123141, 0.123141, 0.123141],
        "properties": { "magmom": 0.043000000000000003 },
        "label": "Se",
        "xyz": [1.29689515239, 1.29689515239, 1.29689515239]
      },
      {
        "species": [{ "element": "Se", "occu": 1 }],
        "abc": [0.634151, 0.634151, 0.097546],
        "properties": { "magmom": 0.006 },
        "label": "Se",
        "xyz": [3.8530395738150007, 3.8530395738150007, 6.678745160290001]
      },
      {
        "species": [{ "element": "Se", "occu": 1 }],
        "abc": [0.634151, 0.097546, 0.634151],
        "properties": { "magmom": 0.009000000000000001 },
        "label": "Se",
        "xyz": [3.8530395738150007, 6.678745160290001, 3.8530395738150007]
      },
      {
        "species": [{ "element": "Se", "occu": 1 }],
        "abc": [0.097546, 0.634151, 0.634151],
        "properties": { "magmom": 0.016 },
        "label": "Se",
        "xyz": [6.678745160290001, 3.8530395738150007, 3.8530395738150007]
      },
      {
        "species": [{ "element": "Se", "occu": 1 }],
        "abc": [0.634151, 0.634151, 0.634151],
        "properties": { "magmom": 0.006 },
        "label": "Se",
        "xyz": [6.678745160290001, 6.678745160290001, 6.678745160290001]
      }
    ]
  },
  "task_ids": null,
  "uncorrected_energy_per_atom": null,
  "energy_per_atom": -12.323282847818511,
  "formation_energy_per_atom": -0.9269002710877421,
  "energy_above_hull": 0.043122360102163006,
  "is_stable": false,
  "equilibrium_reaction_energy_per_atom": null,
  "decomposes_to": null,
  "xas": null,
  "grain_boundaries": null,
  "band_gap": 0.0,
  "cbm": null,
  "vbm": null,
  "efermi": 3.5768352500000002,
  "is_gap_direct": null,
  "is_metal": null,
  "es_source_calc_id": null,
  "bandstructure": null,
  "dos": null,
  "dos_energy_up": null,
  "dos_energy_down": null,
  "is_magnetic": null,
  "ordering": null,
  "total_magnetization": 0.2957126,
  "total_magnetization_normalized_vol": null,
  "total_magnetization_normalized_formula_units": null,
  "num_magnetic_sites": null,
  "num_unique_magnetic_sites": null,
  "types_of_magnetic_species": null,
  "bulk_modulus": null,
  "shear_modulus": null,
  "universal_anisotropy": null,
  "homogeneous_poisson": null,
  "e_total": null,
  "e_ionic": null,
  "e_electronic": null,
  "n": null,
  "e_ij_max": null,
  "weighted_surface_energy_EV_PER_ANG2": null,
  "weighted_surface_energy": null,
  "weighted_work_function": null,
  "surface_anisotropy": null,
  "shape_factor": null,
  "has_reconstructed": null,
  "possible_species": null,
  "has_props": null,
  "theoretical": null,
  "database_IDs": null,
  "fields_not_requested": [
    "builder_meta",
    "nsites",
    "elements",
    "nelements",
    "composition",
    "composition_reduced",
    "chemsys",
    "symmetry",
    "property_name",
    "deprecated",
    "deprecation_reasons",
    "last_updated",
    "origins",
    "warnings",
    "task_ids",
    "uncorrected_energy_per_atom",
    "equilibrium_reaction_energy_per_atom",
    "decomposes_to",
    "xas",
    "grain_boundaries",
    "cbm",
    "vbm",
    "is_gap_direct",
    "is_metal",
    "es_source_calc_id",
    "bandstructure",
    "dos",
    "dos_energy_up",
    "dos_energy_down",
    "is_magnetic",
    "ordering",
    "total_magnetization_normalized_vol",
    "total_magnetization_normalized_formula_units",
    "num_magnetic_sites",
    "num_unique_magnetic_sites",
    "types_of_magnetic_species",
    "bulk_modulus",
    "shear_modulus",
    "universal_anisotropy",
    "homogeneous_poisson",
    "e_total",
    "e_ionic",
    "e_electronic",
    "n",
    "e_ij_max",
    "weighted_surface_energy_EV_PER_ANG2",
    "weighted_surface_energy",
    "weighted_work_function",
    "surface_anisotropy",
    "shape_factor",
    "has_reconstructed",
    "possible_species",
    "has_props",
    "theoretical",
    "database_IDs"
  ]
}
