{"builder_meta": null, "nsites": null, "elements": null, "nelements": null, "composition": null, "composition_reduced": null, "formula_pretty": "Al5S8", "formula_anonymous": "A5B8", "chemsys": null, "volume": 240.6031916625654, "density": 2.7014644796864493, "density_atomic": 18.507937820197338, "symmetry": null, "property_name": null, "material_id": "mp-1228158", "deprecated": null, "deprecation_reasons": null, "last_updated": null, "origins": null, "warnings": null, "structure": {"@module": "pymatgen.core.structure", "@class": "Structure", "charge": 0, "lattice": {"matrix": [[4.1840000000000006e-05, 4.93654628, 4.93656414], [4.93654729, 3.981e-05, 4.93656516], [4.93658711, 4.93658812, -1.009999999999998e-06]], "pbc": [true, true, true], "a": 6.98134332952236, "b": 6.981344764937268, "c": 6.98138915697616, "alpha": 59.99980325972221, "beta": 59.999782855336655, "gamma": 59.99933315240785, "volume": 240.6031916625654}, "properties": {}, "sites": [{"species": [{"element": "Al", "occu": 1}], "abc": [0.63310574, 0.63310474, 0.10070335], "properties": {"magmom": 0.0}, "label": "Al", "xyz": [3.6225088372211354, 3.622511950797548, 6.250729793316639]}, {"species": [{"element": "Al", "occu": 1}], "abc": [0.63311149, 0.100699199999999, 0.63309515], "properties": {"magmom": 0.0}, "label": "Al", "xyz": [3.622462209143421, 6.250718175939527, 3.622503001089734]}, {"species": [{"element": "Al", "occu": 1}], "abc": [0.1006982, 0.63311149, 0.63309515], "properties": {"magmom": 0.0}, "label": "Al", "xyz": [6.250718380333566, 3.622456525100731, 3.6224986075861345]}, {"species": [{"element": "Al", "occu": 1}], "abc": [0.63310474, 0.63310474, 0.63308517], "properties": {"magmom": 0.0}, "label": "Al", "xyz": [6.250658067389635, 6.250656782167248, 6.250724319046861]}, {"species": [{"element": "Al", "occu": 1}], "abc": [0.25000606000000003, 0.25000606000000003, 0.24999394], "properties": {"magmom": 0.0}, "label": "Al", "xyz": [2.468294060012241, 2.4682935524876983, 2.4683419036696788]}, {"species": [{"element": "S", "occu": 1}], "abc": [0.87100316, 0.87100316, 0.38699202], "properties": {"magmom": 0.001}, "label": "S", "xyz": [6.210204549456512, 6.210202292468847, 8.599526428526648]}, {"species": [{"element": "S", "occu": 1}], "abc": [0.87100306, 0.38700316, 0.87099689], "properties": {"magmom": 0.001}, "label": "S", "xyz": [6.2102478635115546, 8.599515222038363, 6.210227908585315]}, {"species": [{"element": "S", "occu": 1}], "abc": [0.38700416, 0.87100206, 0.87099689], "properties": {"magmom": 0.001}, "label": "S", "xyz": [8.59951107115556, 6.21025152071548, 6.210228402264193]}, {"species": [{"element": "S", "occu": 1}], "abc": [0.87100316, 0.87100416, 0.8710016500000001], "properties": {"magmom": 0.001}, "label": "S", "xyz": [8.59956518657767, 8.599558481932252, 8.599530876242081]}, {"species": [{"element": "S", "occu": 1}], "abc": [0.38340522, 0.38340522, 0.84975355], "properties": {"magmom": 0.0}, "label": "S", "xyz": [6.087596463043999, 6.087596155743215, 3.7854084531038605]}, {"species": [{"element": "S", "occu": 1}], "abc": [0.38339206000000003, 0.84975773, 0.38342461], "properties": {"magmom": 0.0}, "label": "S", "xyz": [6.0876942476946185, 3.7854758510714013, 6.087523512056558]}, {"species": [{"element": "S", "occu": 1}], "abc": [0.84975773, 0.38339206000000003, 0.38342461], "properties": {"magmom": 0.0}, "label": "S", "xyz": [3.7854775760467176, 6.087692998412286, 6.087523036363575]}, {"species": [{"element": "S", "occu": 1}], "abc": [0.38340522, 0.38340522, 0.38343602], "properties": {"magmom": 0.0}, "label": "S", "xyz": [3.7855793552789603, 3.785578576997472, 3.7854089240845656]}]}, "task_ids": null, "uncorrected_energy_per_atom": null, "energy_per_atom": -8.642650993846154, "formation_energy_per_atom": -1.108767585576922, "energy_above_hull": 0.080058482391827, "is_stable": false, "equilibrium_reaction_energy_per_atom": null, "decomposes_to": null, "xas": null, "grain_boundaries": null, "band_gap": 0.0, "cbm": null, "vbm": null, "efermi": 4.53352542, "is_gap_direct": null, "is_metal": null, "es_source_calc_id": null, "bandstructure": null, "dos": null, "dos_energy_up": null, "dos_energy_down": null, "is_magnetic": null, "ordering": null, "total_magnetization": 0.0085645, "total_magnetization_normalized_vol": null, "total_magnetization_normalized_formula_units": null, "num_magnetic_sites": null, "num_unique_magnetic_sites": null, "types_of_magnetic_species": null, "bulk_modulus": null, "shear_modulus": null, "universal_anisotropy": null, "homogeneous_poisson": null, "e_total": null, "e_ionic": null, "e_electronic": null, "n": null, "e_ij_max": null, "weighted_surface_energy_EV_PER_ANG2": null, "weighted_surface_energy": null, "weighted_work_function": null, "surface_anisotropy": null, "shape_factor": null, "has_reconstructed": null, "possible_species": null, "has_props": null, "theoretical": null, "database_IDs": null, "fields_not_requested": ["builder_meta", "nsites", "elements", "nelements", "composition", "composition_reduced", "chemsys", "symmetry", "property_name", "deprecated", "deprecation_reasons", "last_updated", "origins", "warnings", "task_ids", "uncorrected_energy_per_atom", "equilibrium_reaction_energy_per_atom", "decomposes_to", "xas", "grain_boundaries", "cbm", "vbm", "is_gap_direct", "is_metal", "es_source_calc_id", "bandstructure", "dos", "dos_energy_up", "dos_energy_down", "is_magnetic", "ordering", "total_magnetization_normalized_vol", "total_magnetization_normalized_formula_units", "num_magnetic_sites", "num_unique_magnetic_sites", "types_of_magnetic_species", "bulk_modulus", "shear_modulus", "universal_anisotropy", "homogeneous_poisson", "e_total", "e_ionic", "e_electronic", "n", "e_ij_max", "weighted_surface_energy_EV_PER_ANG2", "weighted_surface_energy", "weighted_work_function", "surface_anisotropy", "shape_factor", "has_reconstructed", "possible_species", "has_props", "theoretical", "database_IDs"]}