{"builder_meta": null, "nsites": null, "elements": null, "nelements": null, "composition": null, "composition_reduced": null, "formula_pretty": "Al5W", "formula_anonymous": "AB5", "chemsys": null, "volume": 180.93954353391507, "density": 5.850495544285634, "density_atomic": 15.078295294492923, "symmetry": null, "property_name": null, "material_id": "mp-30337", "deprecated": null, "deprecation_reasons": null, "last_updated": null, "origins": null, "warnings": null, "structure": {"@module": "pymatgen.core.structure", "@class": "Structure", "charge": 0, "lattice": {"matrix": [[4.86370942, 0.0, -0.0], [-2.43185521, 4.21209635, 0.0], [-0.0, 0.0, 8.83217312]], "pbc": [true, true, true], "a": 4.86370942, "b": 4.863710047287715, "c": 8.83217312, "alpha": 90.0, "beta": 90.0, "gamma": 120.0000025349421, "volume": 180.93954353391507}, "properties": {}, "sites": [{"species": [{"element": "Al", "occu": 1}], "abc": [-0.0, -0.0, 0.0], "properties": {"magmom": -0.0}, "label": "Al", "xyz": [0.0, 0.0, 0.0]}, {"species": [{"element": "Al", "occu": 1}], "abc": [-0.0, -0.0, 0.5], "properties": {"magmom": -0.0}, "label": "Al", "xyz": [0.0, 0.0, 4.41608656]}, {"species": [{"element": "Al", "occu": 1}], "abc": [0.333333, 0.666667, 0.0], "properties": {"magmom": -0.0}, "label": "Al", "xyz": [-2.765188210185343e-06, 2.8080656373654502, 0.0]}, {"species": [{"element": "Al", "occu": 1}], "abc": [0.666667, 0.333333, 0.5], "properties": {"magmom": -0.0}, "label": "Al", "xyz": [2.43185697518821, 1.4040307126345501, 4.41608656]}, {"species": [{"element": "Al", "occu": 1}], "abc": [0.33748744, 0.33748744, 0.25], "properties": {"magmom": 0.0}, "label": "Al", "xyz": [0.8207202517861225, 1.4215296141948441, 2.20804328]}, {"species": [{"element": "Al", "occu": 1}], "abc": [0.0, 0.33748744, 0.75], "properties": {"magmom": 0.0}, "label": "Al", "xyz": [-0.8207205892735625, 1.4215296141948441, 6.62412984]}, {"species": [{"element": "Al", "occu": 1}], "abc": [0.33748744, -0.0, 0.75], "properties": {"magmom": 0.0}, "label": "Al", "xyz": [1.641440841059685, 0.0, 6.62412984]}, {"species": [{"element": "Al", "occu": 1}], "abc": [0.66251256, 0.0, 0.25], "properties": {"magmom": 0.0}, "label": "Al", "xyz": [3.2222685789403154, 0.0, 2.20804328]}, {"species": [{"element": "Al", "occu": 1}], "abc": [-0.0, 0.66251256, 0.25], "properties": {"magmom": 0.0}, "label": "Al", "xyz": [-1.6111346207264379, 2.7905667358051565, 2.20804328]}, {"species": [{"element": "Al", "occu": 1}], "abc": [0.66251256, 0.66251256, 0.75], "properties": {"magmom": 0.0}, "label": "Al", "xyz": [1.6111339582138775, 2.7905667358051565, 6.62412984]}, {"species": [{"element": "W", "occu": 1}], "abc": [0.333333, 0.666667, 0.5], "properties": {"magmom": -0.0}, "label": "W", "xyz": [-2.765188210185343e-06, 2.8080656373654502, 4.41608656]}, {"species": [{"element": "W", "occu": 1}], "abc": [0.666667, 0.333333, -0.0], "properties": {"magmom": -0.0}, "label": "W", "xyz": [2.43185697518821, 1.4040307126345501, 0.0]}]}, "task_ids": null, "uncorrected_energy_per_atom": null, "energy_per_atom": -14.36054792, "formation_energy_per_atom": -0.18916691499999802, "energy_above_hull": 0.0, "is_stable": true, "equilibrium_reaction_energy_per_atom": null, "decomposes_to": null, "xas": null, "grain_boundaries": null, "band_gap": 0.0, "cbm": null, "vbm": null, "efermi": 8.19326963, "is_gap_direct": null, "is_metal": null, "es_source_calc_id": null, "bandstructure": null, "dos": null, "dos_energy_up": null, "dos_energy_down": null, "is_magnetic": null, "ordering": null, "total_magnetization": 0.0, "total_magnetization_normalized_vol": null, "total_magnetization_normalized_formula_units": null, "num_magnetic_sites": null, "num_unique_magnetic_sites": null, "types_of_magnetic_species": null, "bulk_modulus": null, "shear_modulus": null, "universal_anisotropy": null, "homogeneous_poisson": null, "e_total": null, "e_ionic": null, "e_electronic": null, "n": null, "e_ij_max": null, "weighted_surface_energy_EV_PER_ANG2": null, "weighted_surface_energy": null, "weighted_work_function": null, "surface_anisotropy": null, "shape_factor": null, "has_reconstructed": null, "possible_species": null, "has_props": null, "theoretical": null, "database_IDs": null, "fields_not_requested": ["builder_meta", "nsites", "elements", "nelements", "composition", "composition_reduced", "chemsys", "symmetry", "property_name", "deprecated", "deprecation_reasons", "last_updated", "origins", "warnings", "task_ids", "uncorrected_energy_per_atom", "equilibrium_reaction_energy_per_atom", "decomposes_to", "xas", "grain_boundaries", "cbm", "vbm", "is_gap_direct", "is_metal", "es_source_calc_id", "bandstructure", "dos", "dos_energy_up", "dos_energy_down", "is_magnetic", "ordering", "total_magnetization_normalized_vol", "total_magnetization_normalized_formula_units", "num_magnetic_sites", "num_unique_magnetic_sites", "types_of_magnetic_species", "bulk_modulus", "shear_modulus", "universal_anisotropy", "homogeneous_poisson", "e_total", "e_ionic", "e_electronic", "n", "e_ij_max", "weighted_surface_energy_EV_PER_ANG2", "weighted_surface_energy", "weighted_work_function", "surface_anisotropy", "shape_factor", "has_reconstructed", "possible_species", "has_props", "theoretical", "database_IDs"]}