{
  "builder_meta": null,
  "nsites": null,
  "elements": null,
  "nelements": null,
  "composition": null,
  "composition_reduced": null,
  "formula_pretty": "Al6Fe",
  "formula_anonymous": "AB6",
  "chemsys": null,
  "volume": 204.4861113230854,
  "density": 3.536242098483433,
  "density_atomic": 14.606150808791813,
  "symmetry": null,
  "property_name": null,
  "material_id": "mp-570001",
  "deprecated": null,
  "deprecation_reasons": null,
  "last_updated": null,
  "origins": null,
  "warnings": null,
  "structure": {
    "@module": "pymatgen.core.structure",
    "@class": "Structure",
    "charge": 0,
    "lattice": {
      "matrix": [
        [4.875544, -0.00113116, 0.0],
        [-0.6822479, 4.82757385, -0.0],
        [0.0, 0.0, 8.68812478]
      ],
      "pbc": [true, true, true],
      "a": 4.8755441312184775,
      "b": 4.8755442233927315,
      "c": 8.68812478,
      "alpha": 90.0,
      "beta": 90.0,
      "gamma": 98.0572429403998,
      "volume": 204.4861113230854
    },
    "properties": {},
    "sites": [
      {
        "species": [{ "element": "Al", "occu": 1 }],
        "abc": [0.67671808, 0.32322525, 0.50000247],
        "properties": { "magmom": -0.0 },
        "label": "Al",
        "xyz": [3.0788490265960444, 1.55962828813634, 4.344083849668206]
      },
      {
        "species": [{ "element": "Al", "occu": 1 }],
        "abc": [0.14726867, 0.14726867, 0.09882696],
        "properties": { "magmom": -0.0 },
        "label": "Al",
        "xyz": [0.6175411395631869, 0.7107837957875224, 0.8586209601080689]
      },
      {
        "species": [{ "element": "Al", "occu": 1 }],
        "abc": [0.67677475, 0.32328292000000003, 2.47e-6],
        "properties": { "magmom": -0.0 },
        "label": "Al",
        "xyz": [3.0790859784381315, 1.5599066302174323, 2.1459668206600002e-5]
      },
      {
        "species": [{ "element": "Al", "occu": 1 }],
        "abc": [0.85278106, 0.85278106, 0.90115774],
        "properties": { "magmom": 0.0 },
        "label": "Al",
        "xyz": [3.575963493051866, 4.1158989132074515, 7.829370891582799]
      },
      {
        "species": [{ "element": "Al", "occu": 1 }],
        "abc": [0.026481980000000002, 0.39070061, 0.75000185],
        "properties": { "magmom": -0.0 },
        "label": "Al",
        "xyz": [-0.13744061200409902, 1.8861060926585518, 6.516109658030843]
      },
      {
        "species": [{ "element": "Al", "occu": 1 }],
        "abc": [0.32328292000000003, 0.67677475, 2.47e-6],
        "properties": { "magmom": -0.0 },
        "label": "Al",
        "xyz": [1.114451948947955, 3.2668144007325, 2.1459668206600002e-5]
      },
      {
        "species": [{ "element": "Al", "occu": 1 }],
        "abc": [0.14721894, 0.14721894, 0.40115774],
        "properties": { "magmom": 0.0 },
        "label": "Al",
        "xyz": [0.617332606948134, 0.7105437767925487, 3.4853085015827974]
      },
      {
        "species": [{ "element": "Al", "occu": 1 }],
        "abc": [0.97351802, 0.60929939, 0.25000185],
        "properties": { "magmom": -0.0 },
        "label": "Al",
        "xyz": [4.330736712004098, 2.9403365973414486, 2.1720472680308434]
      },
      {
        "species": [{ "element": "Al", "occu": 1 }],
        "abc": [0.60929939, 0.97351802, 0.25000185],
        "properties": { "magmom": -0.0 },
        "label": "Al",
        "xyz": [2.306485360361002, 4.699040920757785, 2.1720472680308434]
      },
      {
        "species": [{ "element": "Al", "occu": 1 }],
        "abc": [0.39070061, 0.026481980000000002, 0.75000185],
        "properties": { "magmom": -0.0 },
        "label": "Al",
        "xyz": [1.886810739638998, 0.1274017692422154, 6.516109658030843]
      },
      {
        "species": [{ "element": "Al", "occu": 1 }],
        "abc": [0.85273133, 0.85273133, 0.59882696],
        "properties": { "magmom": -0.0 },
        "label": "Al",
        "xyz": [3.575754960436812, 4.115658894212478, 5.202683350108069]
      },
      {
        "species": [{ "element": "Al", "occu": 1 }],
        "abc": [0.32322525, 0.67671808, 0.50000247],
        "properties": { "magmom": -0.0 },
        "label": "Al",
        "xyz": [1.114209439313968, 3.266540887356418, 4.344083849668206]
      },
      {
        "species": [{ "element": "Fe", "occu": 1 }],
        "abc": [0.46168955, 0.46168955, 0.25000766],
        "properties": { "magmom": 0.0 },
        "label": "Fe",
        "xyz": [1.9360009894257548, 2.2283181536468897, 2.1720977460358153]
      },
      {
        "species": [{ "element": "Fe", "occu": 1 }],
        "abc": [0.53831045, 0.53831045, 0.75000766],
        "properties": { "magmom": 0.0 },
        "label": "Fe",
        "xyz": [2.257295110574245, 2.5981245363531107, 6.516160136035815]
      }
    ]
  },
  "task_ids": null,
  "uncorrected_energy_per_atom": null,
  "energy_per_atom": -4.616340670714286,
  "formation_energy_per_atom": -0.195844072142856,
  "energy_above_hull": 0.002539707857142,
  "is_stable": false,
  "equilibrium_reaction_energy_per_atom": null,
  "decomposes_to": null,
  "xas": null,
  "grain_boundaries": null,
  "band_gap": 0.0,
  "cbm": null,
  "vbm": null,
  "efermi": 8.08923742,
  "is_gap_direct": null,
  "is_metal": null,
  "es_source_calc_id": null,
  "bandstructure": null,
  "dos": null,
  "dos_energy_up": null,
  "dos_energy_down": null,
  "is_magnetic": null,
  "ordering": null,
  "total_magnetization": 3.1e-6,
  "total_magnetization_normalized_vol": null,
  "total_magnetization_normalized_formula_units": null,
  "num_magnetic_sites": null,
  "num_unique_magnetic_sites": null,
  "types_of_magnetic_species": null,
  "bulk_modulus": null,
  "shear_modulus": null,
  "universal_anisotropy": null,
  "homogeneous_poisson": null,
  "e_total": null,
  "e_ionic": null,
  "e_electronic": null,
  "n": null,
  "e_ij_max": null,
  "weighted_surface_energy_EV_PER_ANG2": null,
  "weighted_surface_energy": null,
  "weighted_work_function": null,
  "surface_anisotropy": null,
  "shape_factor": null,
  "has_reconstructed": null,
  "possible_species": null,
  "has_props": null,
  "theoretical": null,
  "database_IDs": null,
  "fields_not_requested": [
    "builder_meta",
    "nsites",
    "elements",
    "nelements",
    "composition",
    "composition_reduced",
    "chemsys",
    "symmetry",
    "property_name",
    "deprecated",
    "deprecation_reasons",
    "last_updated",
    "origins",
    "warnings",
    "task_ids",
    "uncorrected_energy_per_atom",
    "equilibrium_reaction_energy_per_atom",
    "decomposes_to",
    "xas",
    "grain_boundaries",
    "cbm",
    "vbm",
    "is_gap_direct",
    "is_metal",
    "es_source_calc_id",
    "bandstructure",
    "dos",
    "dos_energy_up",
    "dos_energy_down",
    "is_magnetic",
    "ordering",
    "total_magnetization_normalized_vol",
    "total_magnetization_normalized_formula_units",
    "num_magnetic_sites",
    "num_unique_magnetic_sites",
    "types_of_magnetic_species",
    "bulk_modulus",
    "shear_modulus",
    "universal_anisotropy",
    "homogeneous_poisson",
    "e_total",
    "e_ionic",
    "e_electronic",
    "n",
    "e_ij_max",
    "weighted_surface_energy_EV_PER_ANG2",
    "weighted_surface_energy",
    "weighted_work_function",
    "surface_anisotropy",
    "shape_factor",
    "has_reconstructed",
    "possible_species",
    "has_props",
    "theoretical",
    "database_IDs"
  ]
}
