{"builder_meta": null, "nsites": null, "elements": null, "nelements": null, "composition": null, "composition_reduced": null, "formula_pretty": "Al6Ge5", "formula_anonymous": "A5B6", "chemsys": null, "volume": 441.368555096096, "density": 3.951034447086679, "density_atomic": 20.062207049822543, "symmetry": null, "property_name": null, "material_id": "mp-1190320", "deprecated": null, "deprecation_reasons": null, "last_updated": null, "origins": null, "warnings": null, "structure": {"@module": "pymatgen.core.structure", "@class": "Structure", "charge": 0, "lattice": {"matrix": [[5.1015828, -5.72662975, -0.0027301400000000003], [5.1015828, 5.72662975, -0.0027301400000000003], [-1.3226338, -0.0, 7.55454028]], "pbc": [true, true, true], "a": 7.669448664180843, "b": 7.669448664180843, "c": 7.669448416349439, "alpha": 96.60735137685485, "beta": 96.60735137685485, "gamma": 96.60733447004824, "volume": 441.368555096096}, "properties": {}, "sites": [{"species": [{"element": "Al", "occu": 1}], "abc": [0.01518849, 0.92847709, 0.32984598], "properties": {"magmom": -0.0}, "label": "Al", "xyz": [4.3779226499379, 5.230065667095849, 2.489258402959493]}, {"species": [{"element": "Al", "occu": 1}], "abc": [0.32984598, 0.01518849, 0.92847709], "properties": {"magmom": -0.0}, "label": "Al", "xyz": [0.5321867357994741, -1.8019269432943275, 7.01327558305426]}, {"species": [{"element": "Al", "occu": 1}], "abc": [0.92847709, 0.32984598, 0.01518849], "properties": {"magmom": -0.0}, "label": "Al", "xyz": [6.399350520510234, -3.4281387238015224, 0.11130666135104741]}, {"species": [{"element": "Al", "occu": 1}], "abc": [0.82984598, 0.42847709, 0.51518849], "properties": {"magmom": -0.0}, "label": "Al", "xyz": [5.738033620510234, -2.2984910261984774, 3.8885768013510478]}, {"species": [{"element": "Al", "occu": 1}], "abc": [0.51518849, 0.82984598, 0.42847709], "properties": {"magmom": -0.0}, "label": "Al", "xyz": [6.295086435799474, 1.8019269432943275, 3.2332753030542594]}, {"species": [{"element": "Al", "occu": 1}], "abc": [0.42847709, 0.51518849, 0.82984598], "properties": {"magmom": -0.0}, "label": "Al", "xyz": [3.7166057499379, 0.49656408290415, 6.2665285429594935]}, {"species": [{"element": "Al", "occu": 1}], "abc": [0.98481151, 0.07152291, 0.67015402], "properties": {"magmom": -0.0}, "label": "Al", "xyz": [4.5026091500621, -5.230065667095849, 5.059821597040507]}, {"species": [{"element": "Al", "occu": 1}], "abc": [0.67015402, 0.98481151, 0.07152291], "properties": {"magmom": -0.0}, "label": "Al", "xyz": [8.348345064200526, 1.8019269432943275, 0.5358044169457407]}, {"species": [{"element": "Al", "occu": 1}], "abc": [0.07152291, 0.67015402, 0.98481151], "properties": {"magmom": -0.0}, "label": "Al", "xyz": [2.4811812794897663, 3.4281387238015224, 7.437773338648952]}, {"species": [{"element": "Al", "occu": 1}], "abc": [0.17015402000000002, 0.57152291, 0.48481151], "properties": {"magmom": -0.0}, "label": "Al", "xyz": [3.142498179489766, 2.2984910261984774, 3.6605031986489527]}, {"species": [{"element": "Al", "occu": 1}], "abc": [0.48481151, 0.17015402000000002, 0.57152291], "properties": {"magmom": -0.0}, "label": "Al", "xyz": [2.5854453642005257, -1.8019269432943272, 4.315804696945741]}, {"species": [{"element": "Al", "occu": 1}], "abc": [0.57152291, 0.48481151, 0.17015402000000002], "properties": {"magmom": -0.0}, "label": "Al", "xyz": [5.1639260500621, -0.49656408290415, 1.282551457040507]}, {"species": [{"element": "Ge", "occu": 1}], "abc": [0.90005855, 0.59994145, 0.25], "properties": {"magmom": -0.0}, "label": "Ge", "xyz": [7.321715750000001, -1.718659513343725, 1.88453986]}, {"species": [{"element": "Ge", "occu": 1}], "abc": [0.25, 0.90005855, 0.59994145], "properties": {"magmom": -0.0}, "label": "Ge", "xyz": [5.07361607788193, 3.722644631671862, 4.529142028816909]}, {"species": [{"element": "Ge", "occu": 1}], "abc": [0.59994145, 0.25, 0.90005855], "properties": {"magmom": -0.0}, "label": "Ge", "xyz": [3.14559882211807, -2.0039851183281376, 6.7972081111830915]}, {"species": [{"element": "Ge", "occu": 1}], "abc": [0.75, 0.09994145, 0.40005855], "properties": {"magmom": -0.0}, "label": "Ge", "xyz": [3.8069157221180703, -3.722644631671862, 3.019937971183091]}, {"species": [{"element": "Ge", "occu": 1}], "abc": [0.40005855, 0.75, 0.09994145], "properties": {"magmom": -0.0}, "label": "Ge", "xyz": [5.73493297788193, 2.003985118328137, 0.751871888816909]}, {"species": [{"element": "Ge", "occu": 1}], "abc": [0.09994145, 0.40005855, 0.75], "properties": {"magmom": -0.0}, "label": "Ge", "xyz": [1.5588160500000001, 1.718659513343725, 5.66454014]}, {"species": [{"element": "Ge", "occu": 1}], "abc": [0.35629193000000003, 0.35629193000000003, 0.35629193000000003], "properties": {"magmom": -0.0}, "label": "Ge", "xyz": [3.1640618144483743, 0.0, 2.6896762829244008]}, {"species": [{"element": "Ge", "occu": 1}], "abc": [0.85629193, 0.85629193, 0.85629193], "properties": {"magmom": -0.0}, "label": "Ge", "xyz": [7.604327714448375, 0.0, 6.464216282924401]}, {"species": [{"element": "Ge", "occu": 1}], "abc": [0.64370807, 0.64370807, 0.64370807], "properties": {"magmom": -0.0}, "label": "Ge", "xyz": [5.716469985551626, 0.0, 4.8594037170756]}, {"species": [{"element": "Ge", "occu": 1}], "abc": [0.14370807, 0.14370807, 0.14370807], "properties": {"magmom": -0.0}, "label": "Ge", "xyz": [1.2762040855516261, 0.0, 1.0848637170756]}]}, "task_ids": null, "uncorrected_energy_per_atom": null, "energy_per_atom": -9.93361386818182, "formation_energy_per_atom": 0.043884120909089004, "energy_above_hull": 0.043884120909089004, "is_stable": false, "equilibrium_reaction_energy_per_atom": null, "decomposes_to": null, "xas": null, "grain_boundaries": null, "band_gap": 0.49010000000000004, "cbm": null, "vbm": null, "efermi": 5.67136276, "is_gap_direct": null, "is_metal": null, "es_source_calc_id": null, "bandstructure": null, "dos": null, "dos_energy_up": null, "dos_energy_down": null, "is_magnetic": null, "ordering": null, "total_magnetization": 0.0, "total_magnetization_normalized_vol": null, "total_magnetization_normalized_formula_units": null, "num_magnetic_sites": null, "num_unique_magnetic_sites": null, "types_of_magnetic_species": null, "bulk_modulus": null, "shear_modulus": null, "universal_anisotropy": null, "homogeneous_poisson": null, "e_total": null, "e_ionic": null, "e_electronic": null, "n": null, "e_ij_max": null, "weighted_surface_energy_EV_PER_ANG2": null, "weighted_surface_energy": null, "weighted_work_function": null, "surface_anisotropy": null, "shape_factor": null, "has_reconstructed": null, "possible_species": null, "has_props": null, "theoretical": null, "database_IDs": null, "fields_not_requested": ["builder_meta", "nsites", "elements", "nelements", "composition", "composition_reduced", "chemsys", "symmetry", "property_name", "deprecated", "deprecation_reasons", "last_updated", "origins", "warnings", "task_ids", "uncorrected_energy_per_atom", "equilibrium_reaction_energy_per_atom", "decomposes_to", "xas", "grain_boundaries", "cbm", "vbm", "is_gap_direct", "is_metal", "es_source_calc_id", "bandstructure", "dos", "dos_energy_up", "dos_energy_down", "is_magnetic", "ordering", "total_magnetization_normalized_vol", "total_magnetization_normalized_formula_units", "num_magnetic_sites", "num_unique_magnetic_sites", "types_of_magnetic_species", "bulk_modulus", "shear_modulus", "universal_anisotropy", "homogeneous_poisson", "e_total", "e_ionic", "e_electronic", "n", "e_ij_max", "weighted_surface_energy_EV_PER_ANG2", "weighted_surface_energy", "weighted_work_function", "surface_anisotropy", "shape_factor", "has_reconstructed", "possible_species", "has_props", "theoretical", "database_IDs"]}