{"builder_meta": null, "nsites": null, "elements": null, "nelements": null, "composition": null, "composition_reduced": null, "formula_pretty": "Al6Re", "formula_anonymous": "AB6", "chemsys": null, "volume": 223.78041466443676, "density": 5.16602306215944, "density_atomic": 15.984315333174054, "symmetry": null, "property_name": null, "material_id": "mp-16528", "deprecated": null, "deprecation_reasons": null, "last_updated": null, "origins": null, "warnings": null, "structure": {"@module": "pymatgen.core.structure", "@class": "Structure", "charge": 0, "lattice": {"matrix": [[5.0105923, -0.0054451, 0.0], [-0.70480423, 4.96077836, 0.0], [-0.0, -0.0, 9.00430593]], "pbc": [true, true, true], "a": 5.010595258642759, "b": 5.010595866727847, "c": 9.00430593, "alpha": 90.0, "beta": 90.0, "gamma": 98.14846327687256, "volume": 223.78041466443676}, "properties": {}, "sites": [{"species": [{"element": "Al", "occu": 1}], "abc": [0.32462426, 0.67537574, -0.0], "properties": {"magmom": 0.0}, "label": "Al", "xyz": [1.1505521391578177, 3.3486217443028603, 0.0]}, {"species": [{"element": "Al", "occu": 1}], "abc": [0.67537574, 0.32462426, 0.5], "properties": {"magmom": 0.0}, "label": "Al", "xyz": [3.1552359308421822, 1.6067115156971397, 4.502152965]}, {"species": [{"element": "Al", "occu": 1}], "abc": [0.67537574, 0.32462426, -0.0], "properties": {"magmom": 0.0}, "label": "Al", "xyz": [3.1552359308421822, 1.6067115156971397, 0.0]}, {"species": [{"element": "Al", "occu": 1}], "abc": [0.32462426, 0.67537574, 0.5], "properties": {"magmom": 0.0}, "label": "Al", "xyz": [1.1505521391578177, 3.3486217443028603, 4.502152965]}, {"species": [{"element": "Al", "occu": 1}], "abc": [0.13243974, 0.13243974, 0.60031648], "properties": {"magmom": -0.0}, "label": "Al", "xyz": [0.5702574524859018, 0.6562830485677523, 5.405433240740726]}, {"species": [{"element": "Al", "occu": 1}], "abc": [0.86756026, 0.86756026, 0.10031648], "properties": {"magmom": -0.0}, "label": "Al", "xyz": [3.7355306175140983, 4.299050211432248, 0.9032802757407263]}, {"species": [{"element": "Al", "occu": 1}], "abc": [0.13243974, 0.13243974, 0.8996835200000001], "properties": {"magmom": -0.0}, "label": "Al", "xyz": [0.5702574524859018, 0.6562830485677523, 8.101025654259274]}, {"species": [{"element": "Al", "occu": 1}], "abc": [0.86756026, 0.86756026, 0.39968352], "properties": {"magmom": -0.0}, "label": "Al", "xyz": [3.7355306175140983, 4.299050211432248, 3.5988726892592733]}, {"species": [{"element": "Al", "occu": 1}], "abc": [0.38855231, 0.02741627, 0.25], "properties": {"magmom": -0.0}, "label": "Al", "xyz": [1.9275541095663908, 0.1338903327447362, 2.2510764825]}, {"species": [{"element": "Al", "occu": 1}], "abc": [0.61144769, 0.97258373, 0.75], "properties": {"magmom": -0.0}, "label": "Al", "xyz": [2.378233960433609, 4.821442927255264, 6.753229447499999]}, {"species": [{"element": "Al", "occu": 1}], "abc": [0.02741627, 0.38855231, 0.25], "properties": {"magmom": -0.0}, "label": "Al", "xyz": [-0.13648156030755035, 1.9273726068442347, 2.2510764825]}, {"species": [{"element": "Al", "occu": 1}], "abc": [0.97258373, 0.61144769, 0.75], "properties": {"magmom": -0.0}, "label": "Al", "xyz": [4.442269630307551, 3.0279606531557652, 6.753229447499999]}, {"species": [{"element": "Re", "occu": 1}], "abc": [0.54317222, 0.54317222, 0.25], "properties": {"magmom": 0.0}, "label": "Re", "xyz": [2.338784464831415, 2.691599367674037, 2.2510764825]}, {"species": [{"element": "Re", "occu": 1}], "abc": [0.45682778, 0.45682778, 0.75], "properties": {"magmom": 0.0}, "label": "Re", "xyz": [1.9670036051685846, 2.263733892325963, 6.753229447499999]}]}, "task_ids": null, "uncorrected_energy_per_atom": null, "energy_per_atom": -13.487699379285715, "formation_energy_per_atom": -0.23009870964285703, "energy_above_hull": 0.008331264961388, "is_stable": false, "equilibrium_reaction_energy_per_atom": null, "decomposes_to": null, "xas": null, "grain_boundaries": null, "band_gap": 0.0, "cbm": null, "vbm": null, "efermi": 7.7877043, "is_gap_direct": null, "is_metal": null, "es_source_calc_id": null, "bandstructure": null, "dos": null, "dos_energy_up": null, "dos_energy_down": null, "is_magnetic": null, "ordering": null, "total_magnetization": 3.2000000000000005e-05, "total_magnetization_normalized_vol": null, "total_magnetization_normalized_formula_units": null, "num_magnetic_sites": null, "num_unique_magnetic_sites": null, "types_of_magnetic_species": null, "bulk_modulus": null, "shear_modulus": null, "universal_anisotropy": null, "homogeneous_poisson": null, "e_total": null, "e_ionic": null, "e_electronic": null, "n": null, "e_ij_max": null, "weighted_surface_energy_EV_PER_ANG2": null, "weighted_surface_energy": null, "weighted_work_function": null, "surface_anisotropy": null, "shape_factor": null, "has_reconstructed": null, "possible_species": null, "has_props": null, "theoretical": null, "database_IDs": null, "fields_not_requested": ["builder_meta", "nsites", "elements", "nelements", "composition", "composition_reduced", "chemsys", "symmetry", "property_name", "deprecated", "deprecation_reasons", "last_updated", "origins", "warnings", "task_ids", "uncorrected_energy_per_atom", "equilibrium_reaction_energy_per_atom", "decomposes_to", "xas", "grain_boundaries", "cbm", "vbm", "is_gap_direct", "is_metal", "es_source_calc_id", "bandstructure", "dos", "dos_energy_up", "dos_energy_down", "is_magnetic", "ordering", "total_magnetization_normalized_vol", "total_magnetization_normalized_formula_units", "num_magnetic_sites", "num_unique_magnetic_sites", "types_of_magnetic_species", "bulk_modulus", "shear_modulus", "universal_anisotropy", "homogeneous_poisson", "e_total", "e_ionic", "e_electronic", "n", "e_ij_max", "weighted_surface_energy_EV_PER_ANG2", "weighted_surface_energy", "weighted_work_function", "surface_anisotropy", "shape_factor", "has_reconstructed", "possible_species", "has_props", "theoretical", "database_IDs"]}