{"builder_meta": null, "nsites": null, "elements": null, "nelements": null, "composition": null, "composition_reduced": null, "formula_pretty": "Al6Ru", "formula_anonymous": "AB6", "chemsys": null, "volume": 216.75595757090443, "density": 4.028992622747918, "density_atomic": 15.482568397921744, "symmetry": null, "property_name": null, "material_id": "mp-16529", "deprecated": null, "deprecation_reasons": null, "last_updated": null, "origins": null, "warnings": null, "structure": {"@module": "pymatgen.core.structure", "@class": "Structure", "charge": 0, "lattice": {"matrix": [[4.95374724, -0.0039711, 0.0], [-0.65874667, 4.90975452, -0.0], [0.0, 0.0, 8.91300468]], "pbc": [true, true, true], "a": 4.953748831687253, "b": 4.95374975366101, "c": 8.91300468, "alpha": 90.0, "beta": 90.0, "gamma": 97.68772489447198, "volume": 216.75595757090443}, "properties": {}, "sites": [{"species": [{"element": "Al", "occu": 1}], "abc": [0.31901488, 0.68098512, 0.0], "properties": {"magmom": 0.0}, "label": "Al", "xyz": [1.1317224011993807, 3.3422029309827743, 0.0]}, {"species": [{"element": "Al", "occu": 1}], "abc": [0.68098512, 0.31901488, 0.5], "properties": {"magmom": 0.0}, "label": "Al", "xyz": [3.1632781688006193, 1.5635804890172256, 4.45650234]}, {"species": [{"element": "Al", "occu": 1}], "abc": [0.68098512, 0.31901488, 0.0], "properties": {"magmom": 0.0}, "label": "Al", "xyz": [3.1632781688006193, 1.5635804890172256, 0.0]}, {"species": [{"element": "Al", "occu": 1}], "abc": [0.31901488, 0.68098512, 0.5], "properties": {"magmom": 0.0}, "label": "Al", "xyz": [1.1317224011993807, 3.3422029309827743, 4.45650234]}, {"species": [{"element": "Al", "occu": 1}], "abc": [0.1428006, 0.1428006, 0.09841014000000001], "properties": {"magmom": 0.0}, "label": "Al", "xyz": [0.6133286583963421, 0.700548815846052, 0.8771300383794552]}, {"species": [{"element": "Al", "occu": 1}], "abc": [0.8571994, 0.8571994, 0.59841014], "properties": {"magmom": 0.0}, "label": "Al", "xyz": [3.681671911603658, 4.205234604153948, 5.3336323783794555]}, {"species": [{"element": "Al", "occu": 1}], "abc": [0.1428006, 0.1428006, 0.40158986], "properties": {"magmom": 0.0}, "label": "Al", "xyz": [0.6133286583963421, 0.700548815846052, 3.579372301620545]}, {"species": [{"element": "Al", "occu": 1}], "abc": [0.8571994, 0.8571994, 0.90158986], "properties": {"magmom": 0.0}, "label": "Al", "xyz": [3.681671911603658, 4.205234604153948, 8.035874641620545]}, {"species": [{"element": "Al", "occu": 1}], "abc": [0.617227, 0.97895442, 0.25], "properties": {"magmom": -0.0}, "label": "Al", "xyz": [2.4127035834466986, 4.803974818329278, 2.22825117]}, {"species": [{"element": "Al", "occu": 1}], "abc": [0.382773, 0.02104558, 0.75], "properties": {"magmom": -0.0}, "label": "Al", "xyz": [1.8822969865533015, 0.1018086016707216, 6.68475351]}, {"species": [{"element": "Al", "occu": 1}], "abc": [0.97895442, 0.617227, 0.25], "properties": {"magmom": -0.0}, "label": "Al", "xyz": [4.442896525276711, 3.026545527218778, 2.22825117]}, {"species": [{"element": "Al", "occu": 1}], "abc": [0.02104558, 0.382773, 0.75], "properties": {"magmom": -0.0}, "label": "Al", "xyz": [-0.14789595527671073, 1.8792378927812217, 6.68475351]}, {"species": [{"element": "Ru", "occu": 1}], "abc": [0.46497342, 0.46497342, 0.25], "properties": {"magmom": -0.0}, "label": "Ru", "xyz": [1.9970611039348496, 2.2810588945766965, 2.22825117]}, {"species": [{"element": "Ru", "occu": 1}], "abc": [0.53502658, 0.53502658, 0.75], "properties": {"magmom": -0.0}, "label": "Ru", "xyz": [2.297939466065151, 2.624724525423304, 6.68475351]}]}, "task_ids": null, "uncorrected_energy_per_atom": null, "energy_per_atom": -9.755627120714285, "formation_energy_per_atom": -0.353180652857143, "energy_above_hull": 0.0, "is_stable": true, "equilibrium_reaction_energy_per_atom": null, "decomposes_to": null, "xas": null, "grain_boundaries": null, "band_gap": 0.0, "cbm": null, "vbm": null, "efermi": 8.16752294, "is_gap_direct": null, "is_metal": null, "es_source_calc_id": null, "bandstructure": null, "dos": null, "dos_energy_up": null, "dos_energy_down": null, "is_magnetic": null, "ordering": null, "total_magnetization": 2e-07, "total_magnetization_normalized_vol": null, "total_magnetization_normalized_formula_units": null, "num_magnetic_sites": null, "num_unique_magnetic_sites": null, "types_of_magnetic_species": null, "bulk_modulus": null, "shear_modulus": null, "universal_anisotropy": null, "homogeneous_poisson": null, "e_total": null, "e_ionic": null, "e_electronic": null, "n": null, "e_ij_max": null, "weighted_surface_energy_EV_PER_ANG2": null, "weighted_surface_energy": null, "weighted_work_function": null, "surface_anisotropy": null, "shape_factor": null, "has_reconstructed": null, "possible_species": null, "has_props": null, "theoretical": null, "database_IDs": null, "fields_not_requested": ["builder_meta", "nsites", "elements", "nelements", "composition", "composition_reduced", "chemsys", "symmetry", "property_name", "deprecated", "deprecation_reasons", "last_updated", "origins", "warnings", "task_ids", "uncorrected_energy_per_atom", "equilibrium_reaction_energy_per_atom", "decomposes_to", "xas", "grain_boundaries", "cbm", "vbm", "is_gap_direct", "is_metal", "es_source_calc_id", "bandstructure", "dos", "dos_energy_up", "dos_energy_down", "is_magnetic", "ordering", "total_magnetization_normalized_vol", "total_magnetization_normalized_formula_units", "num_magnetic_sites", "num_unique_magnetic_sites", "types_of_magnetic_species", "bulk_modulus", "shear_modulus", "universal_anisotropy", "homogeneous_poisson", "e_total", "e_ionic", "e_electronic", "n", "e_ij_max", "weighted_surface_energy_EV_PER_ANG2", "weighted_surface_energy", "weighted_work_function", "surface_anisotropy", "shape_factor", "has_reconstructed", "possible_species", "has_props", "theoretical", "database_IDs"]}