{
  "builder_meta": null,
  "nsites": null,
  "elements": null,
  "nelements": null,
  "composition": null,
  "composition_reduced": null,
  "formula_pretty": "Al6Tc",
  "formula_anonymous": "AB6",
  "chemsys": null,
  "volume": 222.11290892328958,
  "density": 3.885917519629625,
  "density_atomic": 15.86520778023497,
  "symmetry": null,
  "property_name": null,
  "material_id": "mp-16718",
  "deprecated": null,
  "deprecation_reasons": null,
  "last_updated": null,
  "origins": null,
  "warnings": null,
  "structure": {
    "@module": "pymatgen.core.structure",
    "@class": "Structure",
    "charge": 0,
    "lattice": {
      "matrix": [
        [5.00096645, -0.00306668, 0.0],
        [-0.72673842, 4.9478797100000005, -0.0],
        [-0.0, -0.0, 8.97717816]
      ],
      "pbc": [true, true, true],
      "a": 5.000967390270789,
      "b": 5.000966142230298,
      "c": 8.97717816,
      "alpha": 90.0,
      "beta": 90.0,
      "gamma": 98.39092195733244,
      "volume": 222.1129089232896
    },
    "properties": {},
    "sites": [
      {
        "species": [{ "element": "Al", "occu": 1 }],
        "abc": [0.32421934, 0.67578066, 0.0],
        "properties": { "magmom": 0.0 },
        "label": "Al",
        "xyz": [1.1302942726661858, 3.342687139058818, 0.0]
      },
      {
        "species": [{ "element": "Al", "occu": 1 }],
        "abc": [0.67578066, 0.32421934, 0.5],
        "properties": { "magmom": 0.0 },
        "label": "Al",
        "xyz": [3.143933757333814, 1.6021258909411829, 4.48858908]
      },
      {
        "species": [{ "element": "Al", "occu": 1 }],
        "abc": [0.67578066, 0.32421934, 0.0],
        "properties": { "magmom": 0.0 },
        "label": "Al",
        "xyz": [3.143933757333814, 1.6021258909411829, 0.0]
      },
      {
        "species": [{ "element": "Al", "occu": 1 }],
        "abc": [0.32421934, 0.67578066, 0.5],
        "properties": { "magmom": 0.0 },
        "label": "Al",
        "xyz": [1.1302942726661858, 3.342687139058818, 4.48858908]
      },
      {
        "species": [{ "element": "Al", "occu": 1 }],
        "abc": [0.13437207, 0.13437207, 0.6006225],
        "properties": { "magmom": -0.0 },
        "label": "Al",
        "xyz": [0.5743368680431221, 0.6644447626040723, 5.391895189404599]
      },
      {
        "species": [{ "element": "Al", "occu": 1 }],
        "abc": [0.86562793, 0.86562793, 0.100622499999999],
        "properties": { "magmom": -0.0 },
        "label": "Al",
        "xyz": [3.699891161956878, 4.280368267395929, 0.903306109404591]
      },
      {
        "species": [{ "element": "Al", "occu": 1 }],
        "abc": [0.13437207, 0.13437207, 0.899377499999999],
        "properties": { "magmom": -0.0 },
        "label": "Al",
        "xyz": [0.5743368680431221, 0.6644447626040723, 8.07387205059539]
      },
      {
        "species": [{ "element": "Al", "occu": 1 }],
        "abc": [0.86562793, 0.86562793, 0.3993775],
        "properties": { "magmom": -0.0 },
        "label": "Al",
        "xyz": [3.699891161956878, 4.280368267395929, 3.5852829705954]
      },
      {
        "species": [{ "element": "Al", "occu": 1 }],
        "abc": [0.38968594, 0.02675607, 0.25],
        "properties": { "magmom": -0.0 },
        "label": "Al",
        "xyz": [1.9293616479395035, 0.13119077379386052, 2.24429454]
      },
      {
        "species": [{ "element": "Al", "occu": 1 }],
        "abc": [0.61031406, 0.97324393, 0.75],
        "properties": { "magmom": -0.0 },
        "label": "Al",
        "xyz": [2.3448663820604962, 4.81362225620614, 6.732883619999999]
      },
      {
        "species": [{ "element": "Al", "occu": 1 }],
        "abc": [0.02675607, 0.38968594, 0.25],
        "properties": { "magmom": -0.0 },
        "label": "Al",
        "xyz": [-0.14939353592796334, 1.92803710349353, 2.24429454]
      },
      {
        "species": [{ "element": "Al", "occu": 1 }],
        "abc": [0.97324393, 0.61031406, 0.75],
        "properties": { "magmom": -0.0 },
        "label": "Al",
        "xyz": [4.423621565927963, 3.0167759265064706, 6.732883619999999]
      },
      {
        "species": [{ "element": "Tc", "occu": 1 }],
        "abc": [0.5424551400000001, 0.5424551400000001, 0.25],
        "properties": { "magmom": 0.0 },
        "label": "Tc",
        "xyz": [2.3185769644055743, 2.6823392444624745, 2.24429454]
      },
      {
        "species": [{ "element": "Tc", "occu": 1 }],
        "abc": [0.45754486, 0.45754486, 0.75],
        "properties": { "magmom": 0.0 },
        "label": "Tc",
        "xyz": [1.955651065594426, 2.262473785537526, 6.732883619999999]
      }
    ]
  },
  "task_ids": null,
  "uncorrected_energy_per_atom": null,
  "energy_per_atom": -9.766013284285714,
  "formation_energy_per_atom": -0.286405851428568,
  "energy_above_hull": 0.016028356785712003,
  "is_stable": false,
  "equilibrium_reaction_energy_per_atom": null,
  "decomposes_to": null,
  "xas": null,
  "grain_boundaries": null,
  "band_gap": 0.0,
  "cbm": null,
  "vbm": null,
  "efermi": 7.83768076,
  "is_gap_direct": null,
  "is_metal": null,
  "es_source_calc_id": null,
  "bandstructure": null,
  "dos": null,
  "dos_energy_up": null,
  "dos_energy_down": null,
  "is_magnetic": null,
  "ordering": null,
  "total_magnetization": 9e-7,
  "total_magnetization_normalized_vol": null,
  "total_magnetization_normalized_formula_units": null,
  "num_magnetic_sites": null,
  "num_unique_magnetic_sites": null,
  "types_of_magnetic_species": null,
  "bulk_modulus": null,
  "shear_modulus": null,
  "universal_anisotropy": null,
  "homogeneous_poisson": null,
  "e_total": null,
  "e_ionic": null,
  "e_electronic": null,
  "n": null,
  "e_ij_max": null,
  "weighted_surface_energy_EV_PER_ANG2": null,
  "weighted_surface_energy": null,
  "weighted_work_function": null,
  "surface_anisotropy": null,
  "shape_factor": null,
  "has_reconstructed": null,
  "possible_species": null,
  "has_props": null,
  "theoretical": null,
  "database_IDs": null,
  "fields_not_requested": [
    "builder_meta",
    "nsites",
    "elements",
    "nelements",
    "composition",
    "composition_reduced",
    "chemsys",
    "symmetry",
    "property_name",
    "deprecated",
    "deprecation_reasons",
    "last_updated",
    "origins",
    "warnings",
    "task_ids",
    "uncorrected_energy_per_atom",
    "equilibrium_reaction_energy_per_atom",
    "decomposes_to",
    "xas",
    "grain_boundaries",
    "cbm",
    "vbm",
    "is_gap_direct",
    "is_metal",
    "es_source_calc_id",
    "bandstructure",
    "dos",
    "dos_energy_up",
    "dos_energy_down",
    "is_magnetic",
    "ordering",
    "total_magnetization_normalized_vol",
    "total_magnetization_normalized_formula_units",
    "num_magnetic_sites",
    "num_unique_magnetic_sites",
    "types_of_magnetic_species",
    "bulk_modulus",
    "shear_modulus",
    "universal_anisotropy",
    "homogeneous_poisson",
    "e_total",
    "e_ionic",
    "e_electronic",
    "n",
    "e_ij_max",
    "weighted_surface_energy_EV_PER_ANG2",
    "weighted_surface_energy",
    "weighted_work_function",
    "surface_anisotropy",
    "shape_factor",
    "has_reconstructed",
    "possible_species",
    "has_props",
    "theoretical",
    "database_IDs"
  ]
}
