{"builder_meta": null, "nsites": null, "elements": null, "nelements": null, "composition": null, "composition_reduced": null, "formula_pretty": "Al8Cr5", "formula_anonymous": "A5B8", "chemsys": null, "volume": 373.35577474850936, "density": 4.232632902033681, "density_atomic": 14.359837490327283, "symmetry": null, "property_name": null, "material_id": "mp-19954", "deprecated": null, "deprecation_reasons": null, "last_updated": null, "origins": null, "warnings": null, "structure": {"@module": "pymatgen.core.structure", "@class": "Structure", "charge": 0, "lattice": {"matrix": [[4.5363109999999995, -6.441984, 0.0], [4.5363109999999995, 6.441984, 0.0], [-4.611908, 0.0, 6.388081]], "pbc": [true, true, true], "a": 7.878913335287868, "b": 7.878913335287868, "c": 7.878913266626622, "alpha": 109.6951904510753, "beta": 109.6951904510753, "gamma": 109.6951818181639, "volume": 373.3557747485093}, "properties": {}, "sites": [{"species": [{"element": "Al", "occu": 1}], "abc": [0.303545, 0.303545, 0.303545], "properties": {"magmom": 0.015}, "label": "Al", "xyz": [1.3540274311299998, 0.0, 1.939070047145]}, {"species": [{"element": "Al", "occu": 1}], "abc": [0.353437, 0.997956, 0.353437], "properties": {"magmom": -0.011}, "label": "Al", "xyz": [4.5003200034269994, 4.151981085695999, 2.257784184397]}, {"species": [{"element": "Al", "occu": 1}], "abc": [0.353437, 0.353437, 0.997956], "properties": {"magmom": -0.011}, "label": "Al", "xyz": [-1.3958809582339997, 0.0, 6.375023762435999]}, {"species": [{"element": "Al", "occu": 1}], "abc": [0.997956, 0.353437, 0.353437], "properties": {"magmom": -0.011}, "label": "Al", "xyz": [4.5003200034269994, -4.151981085695999, 2.257784184397]}, {"species": [{"element": "Al", "occu": 1}], "abc": [0.663477, 0.441430999999999, 0.663477], "properties": {"magmom": -0.025}, "label": "Al", "xyz": [1.9523114302719948, -1.4304167792640068, 4.2383448176369996]}, {"species": [{"element": "Al", "occu": 1}], "abc": [0.663477, 0.663477, 0.441430999999999], "properties": {"magmom": -0.025}, "label": "Al", "xyz": [3.9836368663460036, 0.0, 2.8198969839109935]}, {"species": [{"element": "Al", "occu": 1}], "abc": [0.441430999999999, 0.663477, 0.663477], "properties": {"magmom": -0.025}, "label": "Al", "xyz": [1.9523114302719948, 1.4304167792640068, 4.2383448176369996]}, {"species": [{"element": "Al", "occu": 1}], "abc": [0.265229, 0.616378, 0.265229], "properties": {"magmom": -0.01}, "label": "Al", "xyz": [2.7760317848449994, 2.2620962396159996, 1.694304335549]}, {"species": [{"element": "Al", "occu": 1}], "abc": [0.265229, 0.265229, 0.616378], "properties": {"magmom": -0.01}, "label": "Al", "xyz": [-0.43635616878600025, 0.0, 3.9374725906179995]}, {"species": [{"element": "Al", "occu": 1}], "abc": [0.616378, 0.265229, 0.265229], "properties": {"magmom": -0.01}, "label": "Al", "xyz": [2.7760317848449994, -2.2620962396159996, 1.694304335549]}, {"species": [{"element": "Al", "occu": 1}], "abc": [0.719202999999999, 0.333254999999999, 0.961947], "properties": {"magmom": -0.02}, "label": "Al", "xyz": [0.3378657375619909, -2.486270840832, 6.1449953537069995]}, {"species": [{"element": "Al", "occu": 1}], "abc": [0.961947, 0.719202999999999, 0.333254999999999], "properties": {"magmom": -0.02}, "label": "Al", "xyz": [6.089277837109999, -1.5637529640960066, 2.1288599336549936]}, {"species": [{"element": "Al", "occu": 1}], "abc": [0.333254999999999, 0.961947, 0.719202999999999], "properties": {"magmom": -0.02}, "label": "Al", "xyz": [2.5585410104979993, 4.050023804928006, 4.594327019442994]}, {"species": [{"element": "Al", "occu": 1}], "abc": [0.333254999999999, 0.719202999999999, 0.961947], "properties": {"magmom": -0.02}, "label": "Al", "xyz": [0.3378657375619909, 2.486270840832, 6.1449953537069995]}, {"species": [{"element": "Al", "occu": 1}], "abc": [0.961947, 0.333254999999999, 0.719202999999999], "properties": {"magmom": -0.02}, "label": "Al", "xyz": [2.5585410104979993, -4.050023804928006, 4.594327019442994]}, {"species": [{"element": "Al", "occu": 1}], "abc": [0.719202999999999, 0.961947, 0.333254999999999], "properties": {"magmom": -0.02}, "label": "Al", "xyz": [6.089277837109999, 1.5637529640960066, 2.1288599336549936]}, {"species": [{"element": "Cr", "occu": 1}], "abc": [0.848876, 0.848876, 0.848876], "properties": {"magmom": 0.616}, "label": "Cr", "xyz": [3.7865930574639997, 0.0, 5.422688646956]}, {"species": [{"element": "Cr", "occu": 1}], "abc": [0.984657, 0.202734, 0.984657], "properties": {"magmom": -0.708}, "label": "Cr", "xyz": [0.8452273590449995, -5.037135455232, 6.290068673217]}, {"species": [{"element": "Cr", "occu": 1}], "abc": [0.984657, 0.984657, 0.202734], "properties": {"magmom": -0.708}, "label": "Cr", "xyz": [7.998430204181998, 0.0, 1.295081213454]}, {"species": [{"element": "Cr", "occu": 1}], "abc": [0.202734, 0.984657, 0.984657], "properties": {"magmom": -0.708}, "label": "Cr", "xyz": [0.8452273590449995, 5.037135455232, 6.290068673217]}, {"species": [{"element": "Cr", "occu": 1}], "abc": [0.012171999999999001, 0.6663100000000001, 0.012171999999999001], "properties": {"magmom": 1.081}, "label": "Cr", "xyz": [3.021669215726, 4.213946529792007, 0.07775572193199362]}, {"species": [{"element": "Cr", "occu": 1}], "abc": [0.012171999999999001, 0.012171999999999001, 0.6663100000000001], "properties": {"magmom": 1.081}, "label": "Cr", "xyz": [-2.9625284644960095, 0.0, 4.25644225111]}, {"species": [{"element": "Cr", "occu": 1}], "abc": [0.6663100000000001, 0.012171999999999001, 0.012171999999999001], "properties": {"magmom": 1.081}, "label": "Cr", "xyz": [3.021669215726, -4.213946529792007, 0.07775572193199362]}, {"species": [{"element": "Cr", "occu": 1}], "abc": [0.634977, 0.984067999999999, 0.634977], "properties": {"magmom": 1.627}, "label": "Cr", "xyz": [4.416036136878995, 2.2488386365439936, 4.056284509137]}, {"species": [{"element": "Cr", "occu": 1}], "abc": [0.634977, 0.634977, 0.984067999999999], "properties": {"magmom": 1.627}, "label": "Cr", "xyz": [1.222475217950004, 0.0, 6.286306093507994]}, {"species": [{"element": "Cr", "occu": 1}], "abc": [0.984067999999999, 0.634977, 0.634977], "properties": {"magmom": 1.627}, "label": "Cr", "xyz": [4.416036136878995, -2.2488386365439936, 4.056284509137]}]}, "task_ids": null, "uncorrected_energy_per_atom": null, "energy_per_atom": -9.988170758384616, "formation_energy_per_atom": -0.04790163607692301, "energy_above_hull": 0.08061745315384501, "is_stable": false, "equilibrium_reaction_energy_per_atom": null, "decomposes_to": null, "xas": null, "grain_boundaries": null, "band_gap": 0.0, "cbm": null, "vbm": null, "efermi": 7.53295294, "is_gap_direct": null, "is_metal": null, "es_source_calc_id": null, "bandstructure": null, "dos": null, "dos_energy_up": null, "dos_energy_down": null, "is_magnetic": null, "ordering": null, "total_magnetization": 6.6707767, "total_magnetization_normalized_vol": null, "total_magnetization_normalized_formula_units": null, "num_magnetic_sites": null, "num_unique_magnetic_sites": null, "types_of_magnetic_species": null, "bulk_modulus": null, "shear_modulus": null, "universal_anisotropy": null, "homogeneous_poisson": null, "e_total": null, "e_ionic": null, "e_electronic": null, "n": null, "e_ij_max": null, "weighted_surface_energy_EV_PER_ANG2": null, "weighted_surface_energy": null, "weighted_work_function": null, "surface_anisotropy": null, "shape_factor": null, "has_reconstructed": null, "possible_species": null, "has_props": null, "theoretical": null, "database_IDs": null, "fields_not_requested": ["builder_meta", "nsites", "elements", "nelements", "composition", "composition_reduced", "chemsys", "symmetry", "property_name", "deprecated", "deprecation_reasons", "last_updated", "origins", "warnings", "task_ids", "uncorrected_energy_per_atom", "equilibrium_reaction_energy_per_atom", "decomposes_to", "xas", "grain_boundaries", "cbm", "vbm", "is_gap_direct", "is_metal", "es_source_calc_id", "bandstructure", "dos", "dos_energy_up", "dos_energy_down", "is_magnetic", "ordering", "total_magnetization_normalized_vol", "total_magnetization_normalized_formula_units", "num_magnetic_sites", "num_unique_magnetic_sites", "types_of_magnetic_species", "bulk_modulus", "shear_modulus", "universal_anisotropy", "homogeneous_poisson", "e_total", "e_ionic", "e_electronic", "n", "e_ij_max", "weighted_surface_energy_EV_PER_ANG2", "weighted_surface_energy", "weighted_work_function", "surface_anisotropy", "shape_factor", "has_reconstructed", "possible_species", "has_props", "theoretical", "database_IDs"]}