{"builder_meta": null, "nsites": null, "elements": null, "nelements": null, "composition": null, "composition_reduced": null, "formula_pretty": "Al8Mo3", "formula_anonymous": "A3B8", "chemsys": null, "volume": 163.88148426367061, "density": 5.103490179411473, "density_atomic": 14.898316751242783, "symmetry": null, "property_name": null, "material_id": "mp-2733", "deprecated": null, "deprecation_reasons": null, "last_updated": null, "origins": null, "warnings": null, "structure": {"@module": "pymatgen.core.structure", "@class": "Structure", "charge": 0, "lattice": {"matrix": [[3.63041885, -0.0, -0.0], [-1.81520892, 4.50347318, -0.86176246], [-0.0, -0.00944182, 10.02544937]], "pbc": [true, true, true], "a": 3.63041885, "b": 4.931418522463099, "c": 10.025453816082258, "alpha": 100.11412256704834, "beta": 90.0, "gamma": 111.59790920758684, "volume": 163.88148426367061}, "properties": {}, "sites": [{"species": [{"element": "Al", "occu": 1}], "abc": [0.27223477, 0.54446755, 0.9097367], "properties": {"magmom": -0.0}, "label": "Al", "xyz": [3.887222868592666e-06, 2.443405438636515, 8.651317530602705]}, {"species": [{"element": "Al", "occu": 1}], "abc": [0.72776523, 0.45553245000000003, 0.090263299999999], "properties": {"magmom": -0.0}, "label": "Al", "xyz": [1.8152060427771315, 2.050625921363485, 0.5123693793972841]}, {"species": [{"element": "Al", "occu": 1}], "abc": [0.46053609, 0.92107419, 0.17941434], "properties": {"magmom": -0.0}, "label": "Al", "xyz": [-3.1834284781595557e-06, 4.146338913551526, 1.0049622221050585]}, {"species": [{"element": "Al", "occu": 1}], "abc": [0.53946391, 0.07892581, 0.82058566], "properties": {"magmom": -0.0}, "label": "Al", "xyz": [1.8152131134284784, 0.34769244644847463, 8.15872468789494]}, {"species": [{"element": "Al", "occu": 1}], "abc": [0.186549599999999, 0.3730982, 0.27791493], "properties": {"magmom": 0.0}, "label": "Al", "xyz": [2.003624012480998e-06, 1.6776137144619034, 2.464700037228522]}, {"species": [{"element": "Al", "occu": 1}], "abc": [0.8134504, 0.6269018, 0.72208507], "properties": {"magmom": 0.0}, "label": "Al", "xyz": [1.815207926375984, 2.8164176455380963, 6.698986872771478]}, {"species": [{"element": "Al", "occu": 1}], "abc": [0.36803765, 0.7360753, 0.5417520100000001], "properties": {"magmom": 0.0}, "label": "Al", "xyz": [3.7171802635960205e-07, 3.3097802470473963, 4.796985286077496]}, {"species": [{"element": "Al", "occu": 1}], "abc": [0.63196235, 0.2639247, 0.45824799], "properties": {"magmom": 0.0}, "label": "Al", "xyz": [1.8152095582819734, 1.1842511129526043, 4.366701623922504]}, {"species": [{"element": "Mo", "occu": 1}], "abc": [-0.0, -0.0, 0.0], "properties": {"magmom": 0.0}, "label": "Mo", "xyz": [0.0, 0.0, 0.0]}, {"species": [{"element": "Mo", "occu": 1}], "abc": [0.09456727000000001, 0.18913455, 0.65946402], "properties": {"magmom": -0.0}, "label": "Mo", "xyz": [7.736085350096289e-08, 0.8455358327630527, 6.448434088767675]}, {"species": [{"element": "Mo", "occu": 1}], "abc": [0.90543273, 0.81086545, 0.34053598], "properties": {"magmom": -0.0}, "label": "Mo", "xyz": [1.8152098526391462, 3.6484955272369475, 2.7152528212323257]}]}, "task_ids": null, "uncorrected_energy_per_atom": null, "energy_per_atom": -12.388235275454546, "formation_energy_per_atom": -0.38162391545454605, "energy_above_hull": 0.0, "is_stable": true, "equilibrium_reaction_energy_per_atom": null, "decomposes_to": null, "xas": null, "grain_boundaries": null, "band_gap": 0.0, "cbm": null, "vbm": null, "efermi": 8.35890827, "is_gap_direct": null, "is_metal": null, "es_source_calc_id": null, "bandstructure": null, "dos": null, "dos_energy_up": null, "dos_energy_down": null, "is_magnetic": null, "ordering": null, "total_magnetization": 0.0, "total_magnetization_normalized_vol": null, "total_magnetization_normalized_formula_units": null, "num_magnetic_sites": null, "num_unique_magnetic_sites": null, "types_of_magnetic_species": null, "bulk_modulus": null, "shear_modulus": null, "universal_anisotropy": null, "homogeneous_poisson": null, "e_total": null, "e_ionic": null, "e_electronic": null, "n": null, "e_ij_max": null, "weighted_surface_energy_EV_PER_ANG2": null, "weighted_surface_energy": null, "weighted_work_function": null, "surface_anisotropy": null, "shape_factor": null, "has_reconstructed": null, "possible_species": null, "has_props": null, "theoretical": null, "database_IDs": null, "fields_not_requested": ["builder_meta", "nsites", "elements", "nelements", "composition", "composition_reduced", "chemsys", "symmetry", "property_name", "deprecated", "deprecation_reasons", "last_updated", "origins", "warnings", "task_ids", "uncorrected_energy_per_atom", "equilibrium_reaction_energy_per_atom", "decomposes_to", "xas", "grain_boundaries", "cbm", "vbm", "is_gap_direct", "is_metal", "es_source_calc_id", "bandstructure", "dos", "dos_energy_up", "dos_energy_down", "is_magnetic", "ordering", "total_magnetization_normalized_vol", "total_magnetization_normalized_formula_units", "num_magnetic_sites", "num_unique_magnetic_sites", "types_of_magnetic_species", "bulk_modulus", "shear_modulus", "universal_anisotropy", "homogeneous_poisson", "e_total", "e_ionic", "e_electronic", "n", "e_ij_max", "weighted_surface_energy_EV_PER_ANG2", "weighted_surface_energy", "weighted_work_function", "surface_anisotropy", "shape_factor", "has_reconstructed", "possible_species", "has_props", "theoretical", "database_IDs"]}