{
  "builder_meta": null,
  "nsites": null,
  "elements": null,
  "nelements": null,
  "composition": null,
  "composition_reduced": null,
  "formula_pretty": "Al8O3",
  "formula_anonymous": "A3B8",
  "chemsys": null,
  "volume": 1406.8105005317375,
  "density": 1.24575151362343,
  "density_atomic": 31.972965921175852,
  "symmetry": null,
  "property_name": null,
  "material_id": "mp-1244893",
  "deprecated": null,
  "deprecation_reasons": null,
  "last_updated": null,
  "origins": null,
  "warnings": null,
  "structure": {
    "@module": "pymatgen.core.structure",
    "@class": "Structure",
    "charge": 0,
    "lattice": {
      "matrix": [
        [5.72966074, 0.02330337, -0.07791949000000001],
        [2.8838613, 4.95997309, -0.10042228],
        [-0.67443445, -0.61830422, 49.63665153]
      ],
      "pbc": [true, true, true],
      "a": 5.7302379260788605,
      "b": 5.7382988494398095,
      "c": 49.64508371476946,
      "alpha": 92.01092030263855,
      "beta": 91.56035934944138,
      "gamma": 59.58455244211302,
      "volume": 1406.8105005317375
    },
    "properties": {},
    "sites": [
      {
        "species": [{ "element": "Al", "occu": 1 }],
        "abc": [0.49219795, 0.49957443, 0.00123052],
        "properties": {
          "selective_dynamics": [true, true, true],
          "magmom": 0.0
        },
        "label": "Al",
        "xyz": [4.260000730490629, 2.488584764485386, -0.027441324092650307]
      },
      {
        "species": [{ "element": "Al", "occu": 1 }],
        "abc": [0.99191607, 0.49927341000000003, 0.00164076],
        "properties": {
          "selective_dynamics": [true, true, true],
          "magmom": 0.0
        },
        "label": "Al",
        "xyz": [7.122071243803942, 2.4984831765086852, -0.04598593610841631]
      },
      {
        "species": [{ "element": "Al", "occu": 1 }],
        "abc": [0.49176626, 0.99922283, 0.00148942],
        "properties": {
          "selective_dynamics": [true, true, true],
          "magmom": 0.0
        },
        "label": "Al",
        "xyz": [5.698269366533593, 4.9666572441525885, -0.0647325894732472]
      },
      {
        "species": [{ "element": "Al", "occu": 1 }],
        "abc": [0.16265918000000001, 0.16638087000000001, 0.04879269],
        "properties": {
          "selective_dynamics": [true, true, true],
          "magmom": 0.0
        },
        "label": "Al",
        "xyz": [1.3788937986557537, 0.7988664188140732, 2.392523084078114]
      },
      {
        "species": [{ "element": "Al", "occu": 1 }],
        "abc": [0.16385958, 0.66825933, 0.04871318],
        "properties": {
          "selective_dynamics": [true, true, true],
          "magmom": 0.0
        },
        "label": "Al",
        "xyz": [2.8331731757887675, 3.2882472095985955, 2.338083160123079]
      },
      {
        "species": [{ "element": "Al", "occu": 1 }],
        "abc": [0.66286283, 0.666164699999999, 0.048773620000000004],
        "properties": {
          "selective_dynamics": [true, true, true],
          "magmom": 0.0
        },
        "label": "Al",
        "xyz": [5.6862111212331925, 3.2894489882239792, 2.3024114681135663]
      },
      {
        "species": [{ "element": "Al", "occu": 1 }],
        "abc": [0.66419914, 0.16820047, 0.04872459],
        "properties": {
          "selective_dynamics": [true, true, true],
          "magmom": 0.0
        },
        "label": "Al",
        "xyz": [4.257841020016449, 0.8196212636236843, 2.3498803618304125]
      },
      {
        "species": [{ "element": "Al", "occu": 1 }],
        "abc": [0.333325, 0.33335000000000004, 0.095238999999999],
        "properties": {
          "selective_dynamics": [false, false, false],
          "magmom": 0.0
        },
        "label": "Al",
        "xyz": [2.806941867931951, 1.602287949748171, 4.667896774023371]
      },
      {
        "species": [{ "element": "Al", "occu": 1 }],
        "abc": [0.333325, 0.83335, 0.095238999999999],
        "properties": {
          "selective_dynamics": [false, false, false],
          "magmom": 0.0
        },
        "label": "Al",
        "xyz": [4.24887251793195, 4.082274494748171, 4.617685634023371]
      },
      {
        "species": [{ "element": "Al", "occu": 1 }],
        "abc": [0.833325, 0.83335, 0.095238999999999],
        "properties": {
          "selective_dynamics": [false, false, false],
          "magmom": 0.0
        },
        "label": "Al",
        "xyz": [7.113702887931951, 4.093926179748172, 4.578725889023371]
      },
      {
        "species": [{ "element": "Al", "occu": 1 }],
        "abc": [0.833325, 0.33335000000000004, 0.095238999999999],
        "properties": {
          "selective_dynamics": [false, false, false],
          "magmom": 0.0
        },
        "label": "Al",
        "xyz": [5.67177223793195, 1.613939634748171, 4.628937029023371]
      },
      {
        "species": [{ "element": "Al", "occu": 1 }],
        "abc": [0.499992, 1.7000000000000003e-5, 0.142857999999999],
        "properties": {
          "selective_dynamics": [false, false, false],
          "magmom": 0.0
        },
        "label": "Al",
        "xyz": [2.7684852016980805, -0.07659388614518939, 7.052031935449851]
      },
      {
        "species": [{ "element": "Al", "occu": 1 }],
        "abc": [0.499992, 0.500016999999999, 0.142857999999999],
        "properties": {
          "selective_dynamics": [false, false, false],
          "magmom": 0.0
        },
        "label": "Al",
        "xyz": [4.210415851698078, 2.4033926588548056, 7.001820795449851]
      },
      {
        "species": [{ "element": "Al", "occu": 1 }],
        "abc": [0.999992, 0.500016999999999, 0.142857999999999],
        "properties": {
          "selective_dynamics": [false, false, false],
          "magmom": 0.0
        },
        "label": "Al",
        "xyz": [7.0752462216980785, 2.415044343854806, 6.962861050449852]
      },
      {
        "species": [{ "element": "Al", "occu": 1 }],
        "abc": [0.999992, 1.7000000000000003e-5, 0.142857999999999],
        "properties": {
          "selective_dynamics": [false, false, false],
          "magmom": 0.0
        },
        "label": "Al",
        "xyz": [5.6333155716980805, -0.06494220114518938, 7.013072190449852]
      },
      {
        "species": [{ "element": "Al", "occu": 1 }],
        "abc": [0.17846557, 0.16669371, 0.18919885],
        "properties": {
          "selective_dynamics": [true, true, true],
          "magmom": 0.0
        },
        "label": "Al",
        "xyz": [1.3756664867527624, 0.7139727177080878, 9.360551678709923]
      },
      {
        "species": [{ "element": "Al", "occu": 1 }],
        "abc": [0.6711496, 0.16425973, 0.18900593000000002],
        "properties": {
          "selective_dynamics": [true, true, true],
          "magmom": 0.0
        },
        "label": "Al",
        "xyz": [4.191689681835864, 0.7135007239007931, 9.312830513369084]
      },
      {
        "species": [{ "element": "Al", "occu": 1 }],
        "abc": [0.6787917, 0.66910929, 0.18963093],
        "properties": {
          "selective_dynamics": [true, true, true],
          "magmom": 0.0
        },
        "label": "Al",
        "xyz": [5.690970909051797, 3.2173326025455107, 9.292559808168608]
      },
      {
        "species": [{ "element": "Al", "occu": 1 }],
        "abc": [0.17273488, 0.66467559, 0.1895142],
        "properties": {
          "selective_dynamics": [true, true, true],
          "magmom": 0.0
        },
        "label": "Al",
        "xyz": [2.778729566176088, 3.183620915190495, 9.32664265342377]
      },
      {
        "species": [{ "element": "Al", "occu": 1 }],
        "abc": [0.85091824, 0.32887898, 0.23359274],
        "properties": {
          "selective_dynamics": [true, true, true],
          "magmom": 0.0
        },
        "label": "Al",
        "xyz": [5.666371204357479, 1.5066287763497543, 11.49543154300972]
      },
      {
        "species": [{ "element": "Al", "occu": 1 }],
        "abc": [0.34966241000000003, 0.83842105, 0.23417679],
        "properties": {
          "selective_dynamics": [true, true, true],
          "magmom": -0.0
        },
        "label": "Al",
        "xyz": [4.263400107464733, 4.021901661121812, 11.512310051543624]
      },
      {
        "species": [{ "element": "Al", "occu": 1 }],
        "abc": [0.35740653, 0.3404831, 0.23990156],
        "properties": {
          "selective_dynamics": [true, true, true],
          "magmom": -0.0
        },
        "label": "Al",
        "xyz": [2.86792632188192, 1.5487836432762019, 11.845869111479649]
      },
      {
        "species": [{ "element": "Al", "occu": 1 }],
        "abc": [0.85127927, 0.84402225, 0.24105597],
        "properties": {
          "selective_dynamics": [true, true, true],
          "magmom": -0.0
        },
        "label": "Al",
        "xyz": [7.149008064662618, 4.057119399656198, 11.814121296834433]
      },
      {
        "species": [{ "element": "Al", "occu": 1 }],
        "abc": [0.95619148, 0.43999599, 0.28260513],
        "properties": {
          "selective_dynamics": [true, true, true],
          "magmom": -0.0
        },
        "label": "Al",
        "xyz": [6.556941555175953, 2.029914809484548, 13.908881005429746]
      },
      {
        "species": [{ "element": "Al", "occu": 1 }],
        "abc": [0.50933311, 0.96663005, 0.29458748],
        "properties": {
          "selective_dynamics": [true, true, true],
          "magmom": -0.0
        },
        "label": "Al",
        "xyz": [5.50725297151048, 4.624183531857771, 14.485577920152016]
      },
      {
        "species": [{ "element": "Al", "occu": 1 }],
        "abc": [0.43760971, 0.46174015, 0.3103476],
        "properties": {
          "selective_dynamics": [true, true, true],
          "magmom": -0.0
        },
        "label": "Al",
        "xyz": [3.6296406111561605, 2.1085272688134142, 15.324148350319039]
      },
      {
        "species": [{ "element": "Al", "occu": 1 }],
        "abc": [0.98025834, 0.00374356, 0.32453927],
        "properties": {
          "selective_dynamics": [true, true, true],
          "magmom": -0.0
        },
        "label": "Al",
        "xyz": [5.4084631694979475, -0.1592527205433132, 16.032285486039022]
      },
      {
        "species": [{ "element": "Al", "occu": 1 }],
        "abc": [0.24482073000000001, 0.74649807, 0.37079463],
        "properties": {
          "selective_dynamics": [true, true, true],
          "magmom": -0.0
        },
        "label": "Al",
        "xyz": [3.305459947269828, 3.479051602509458, 18.310962493877255]
      },
      {
        "species": [{ "element": "Al", "occu": 1 }],
        "abc": [0.75186134, 0.26758049, 0.38140862000000003],
        "properties": {
          "selective_dynamics": [true, true, true],
          "magmom": -0.0
        },
        "label": "Al",
        "xyz": [4.82234030861287, 1.1088863735133536, 18.846391066425358]
      },
      {
        "species": [{ "element": "Al", "occu": 1 }],
        "abc": [0.70430368, 0.73256178, 0.39335011000000003],
        "properties": {
          "selective_dynamics": [true, true, true],
          "magmom": -0.0
        },
        "label": "Al",
        "xyz": [5.882738846439348, 3.406689331859438, 19.396137831617988]
      },
      {
        "species": [{ "element": "Al", "occu": 1 }],
        "abc": [0.21761731, 0.23972846, 0.39660537],
        "properties": {
          "selective_dynamics": [true, true, true],
          "magmom": -0.0
        },
        "label": "Al",
        "xyz": [1.670732661171011, 0.9488951532548147, 19.645131837272256]
      },
      {
        "species": [{ "element": "Al", "occu": 1 }],
        "abc": [0.99219027, 0.99963325, 0.00133153],
        "properties": {
          "selective_dynamics": [true, true, true],
          "magmom": 0.0
        },
        "label": "Al",
        "xyz": [8.566819250794017, 4.980452106223396, -0.11160371933843143]
      },
      {
        "species": [{ "element": "O", "occu": 1 }],
        "abc": [0.3329896, 0.34398135, 0.28071263],
        "properties": {
          "selective_dynamics": [true, true, true],
          "magmom": -0.0
        },
        "label": "O",
        "xyz": [2.7105896729129557, 1.540332215580525, 13.873145224128045]
      },
      {
        "species": [{ "element": "O", "occu": 1 }],
        "abc": [0.84531331, 0.810657299999999, 0.2784506],
        "properties": {
          "selective_dynamics": [true, true, true],
          "magmom": 0.0
        },
        "label": "O",
        "xyz": [6.993385023075767, 3.8683698609993753, 13.674080964149361]
      },
      {
        "species": [{ "element": "O", "occu": 1 }],
        "abc": [0.63182154, 0.6059756900000001, 0.3026326],
        "properties": {
          "selective_dynamics": [true, true, true],
          "magmom": 0.0
        },
        "label": "O",
        "xyz": [5.163567062423067, 2.8332276730252004, 14.91158423523569]
      },
      {
        "species": [{ "element": "O", "occu": 1 }],
        "abc": [0.13923983, 0.11493918, 0.30310663],
        "properties": {
          "selective_dynamics": [true, true, true],
          "magmom": 0.0
        },
        "label": "O",
        "xyz": [0.9248400871556047, 0.3859278886249147, 15.022806218684426]
      },
      {
        "species": [{ "element": "O", "occu": 1 }],
        "abc": [0.63066677, 0.12545845, 0.32249273],
        "properties": {
          "selective_dynamics": [true, true, true],
          "magmom": 0.0
        },
        "label": "O",
        "xyz": [3.7578111938180463, 0.4375685811228049, 15.945719203295765]
      },
      {
        "species": [{ "element": "O", "occu": 1 }],
        "abc": [0.18003144000000001, 0.66206925, 0.33324675],
        "properties": {
          "selective_dynamics": [true, true, true],
          "magmom": 0.0
        },
        "label": "O",
        "xyz": [2.7160818731781537, 3.081993131148151, 16.460738341663372]
      },
      {
        "species": [{ "element": "O", "occu": 1 }],
        "abc": [0.03556178, 0.08987118, 0.36035068000000003],
        "properties": {
          "selective_dynamics": [true, true, true],
          "magmom": 0.0
        },
        "label": "O",
        "xyz": [0.21990004002492514, 0.22378099755987516, 17.87480510719556]
      },
      {
        "species": [{ "element": "O", "occu": 1 }],
        "abc": [0.59727497, 0.5779383, 0.36503104000000003],
        "properties": {
          "selective_dynamics": [true, true, true],
          "magmom": 0.0
        },
        "label": "O",
        "xyz": [4.84268733505614, 2.654776702835007, 18.014341287276004]
      },
      {
        "species": [{ "element": "O", "occu": 1 }],
        "abc": [0.08168784, 0.59496631, 0.38692775],
        "properties": {
          "selective_dynamics": [true, true, true],
          "magmom": 0.0
        },
        "label": "O",
        "xyz": [1.9228865217352171, 2.713681428356514, 19.13968494583157]
      },
      {
        "species": [{ "element": "O", "occu": 1 }],
        "abc": [0.58193538, 0.10166583, 0.38929134],
        "properties": {
          "selective_dynamics": [true, true, true],
          "magmom": 0.0
        },
        "label": "O",
        "xyz": [3.364930961889697, 0.2771203581172905, 19.267564964757504]
      },
      {
        "species": [{ "element": "O", "occu": 1 }],
        "abc": [0.34021748, 0.88884348, 0.40312393],
        "properties": {
          "selective_dynamics": [true, true, true],
          "magmom": 0.0
        },
        "label": "O",
        "xyz": [4.2407513859356705, 4.167314728736876, 19.893952775458693]
      },
      {
        "species": [{ "element": "O", "occu": 1 }],
        "abc": [0.86978391, 0.38699676, 0.40910087],
        "properties": {
          "selective_dynamics": [true, true, true],
          "magmom": 0.0
        },
        "label": "O",
        "xyz": [5.82369998054711, 1.686813617465294, 20.199761109140614]
      }
    ]
  },
  "task_ids": null,
  "uncorrected_energy_per_atom": null,
  "energy_per_atom": -5.463186024090909,
  "formation_energy_per_atom": -1.389686964545454,
  "energy_above_hull": 0.167836220909091,
  "is_stable": false,
  "equilibrium_reaction_energy_per_atom": null,
  "decomposes_to": null,
  "xas": null,
  "grain_boundaries": null,
  "band_gap": 0.0,
  "cbm": null,
  "vbm": null,
  "efermi": 1.47994336,
  "is_gap_direct": null,
  "is_metal": null,
  "es_source_calc_id": null,
  "bandstructure": null,
  "dos": null,
  "dos_energy_up": null,
  "dos_energy_down": null,
  "is_magnetic": null,
  "ordering": null,
  "total_magnetization": 0.0147385,
  "total_magnetization_normalized_vol": null,
  "total_magnetization_normalized_formula_units": null,
  "num_magnetic_sites": null,
  "num_unique_magnetic_sites": null,
  "types_of_magnetic_species": null,
  "bulk_modulus": null,
  "shear_modulus": null,
  "universal_anisotropy": null,
  "homogeneous_poisson": null,
  "e_total": null,
  "e_ionic": null,
  "e_electronic": null,
  "n": null,
  "e_ij_max": null,
  "weighted_surface_energy_EV_PER_ANG2": null,
  "weighted_surface_energy": null,
  "weighted_work_function": null,
  "surface_anisotropy": null,
  "shape_factor": null,
  "has_reconstructed": null,
  "possible_species": null,
  "has_props": null,
  "theoretical": null,
  "database_IDs": null,
  "fields_not_requested": [
    "builder_meta",
    "nsites",
    "elements",
    "nelements",
    "composition",
    "composition_reduced",
    "chemsys",
    "symmetry",
    "property_name",
    "deprecated",
    "deprecation_reasons",
    "last_updated",
    "origins",
    "warnings",
    "task_ids",
    "uncorrected_energy_per_atom",
    "equilibrium_reaction_energy_per_atom",
    "decomposes_to",
    "xas",
    "grain_boundaries",
    "cbm",
    "vbm",
    "is_gap_direct",
    "is_metal",
    "es_source_calc_id",
    "bandstructure",
    "dos",
    "dos_energy_up",
    "dos_energy_down",
    "is_magnetic",
    "ordering",
    "total_magnetization_normalized_vol",
    "total_magnetization_normalized_formula_units",
    "num_magnetic_sites",
    "num_unique_magnetic_sites",
    "types_of_magnetic_species",
    "bulk_modulus",
    "shear_modulus",
    "universal_anisotropy",
    "homogeneous_poisson",
    "e_total",
    "e_ionic",
    "e_electronic",
    "n",
    "e_ij_max",
    "weighted_surface_energy_EV_PER_ANG2",
    "weighted_surface_energy",
    "weighted_work_function",
    "surface_anisotropy",
    "shape_factor",
    "has_reconstructed",
    "possible_species",
    "has_props",
    "theoretical",
    "database_IDs"
  ]
}
