{
  "builder_meta": null,
  "nsites": null,
  "elements": null,
  "nelements": null,
  "composition": null,
  "composition_reduced": null,
  "formula_pretty": "Al8V5",
  "formula_anonymous": "A5B8",
  "chemsys": null,
  "volume": 389.21502288460835,
  "density": 4.015173617365151,
  "density_atomic": 14.969808572484936,
  "symmetry": null,
  "property_name": null,
  "material_id": "mp-1214872",
  "deprecated": null,
  "deprecation_reasons": null,
  "last_updated": null,
  "origins": null,
  "warnings": null,
  "structure": {
    "@module": "pymatgen.core.structure",
    "@class": "Structure",
    "charge": 0,
    "lattice": {
      "matrix": [
        [-4.599492, 4.599492, 4.599492],
        [4.599492, -4.599492, 4.599492],
        [4.599492, 4.599492, -4.599492]
      ],
      "pbc": [true, true, true],
      "a": 7.96655383300659,
      "b": 7.96655383300659,
      "c": 7.96655383300659,
      "alpha": 109.47122063449069,
      "beta": 109.47122063449069,
      "gamma": 109.47122063449069,
      "volume": 389.21502288460835
    },
    "properties": {},
    "sites": [
      {
        "species": [{ "element": "Al", "occu": 1 }],
        "abc": [0.777335, 0.777335, 0.777335],
        "properties": { "magmom": 0.008 },
        "label": "Al",
        "xyz": [3.57534611382, 3.57534611382, 3.57534611382]
      },
      {
        "species": [{ "element": "Al", "occu": 1 }],
        "abc": [0.222665, 0.0, 0.0],
        "properties": { "magmom": 0.008 },
        "label": "Al",
        "xyz": [-1.02414588618, 1.02414588618, 1.02414588618]
      },
      {
        "species": [{ "element": "Al", "occu": 1 }],
        "abc": [0.0, 0.222665, 0.0],
        "properties": { "magmom": 0.011 },
        "label": "Al",
        "xyz": [1.02414588618, -1.02414588618, 1.02414588618]
      },
      {
        "species": [{ "element": "Al", "occu": 1 }],
        "abc": [0.0, 0.0, 0.222665],
        "properties": { "magmom": 0.013000000000000001 },
        "label": "Al",
        "xyz": [1.02414588618, 1.02414588618, -1.02414588618]
      },
      {
        "species": [{ "element": "Al", "occu": 1 }],
        "abc": [0.362670999999999, 0.656945999999999, 0.656945999999999],
        "properties": { "magmom": -0.011 },
        "label": "Al",
        "xyz": [4.375133379731995, 1.6681023631319953, 1.6681023631319953]
      },
      {
        "species": [{ "element": "Al", "occu": 1 }],
        "abc": [0.637328999999999, 0.294275, 0.294275],
        "properties": { "magmom": -0.011 },
        "label": "Al",
        "xyz": [-0.2243586202679957, 2.9313896368679955, 2.931389636867995]
      },
      {
        "species": [{ "element": "Al", "occu": 1 }],
        "abc": [0.0, 0.343053999999999, 0.705724999999999],
        "properties": { "magmom": -0.005 },
        "label": "Al",
        "xyz": [4.823850620267991, 1.6681023631320002, -1.6681023631320002]
      },
      {
        "species": [{ "element": "Al", "occu": 1 }],
        "abc": [0.656945999999999, 0.656945999999999, 0.362670999999999],
        "properties": { "magmom": -0.006 },
        "label": "Al",
        "xyz": [1.6681023631319953, 1.6681023631319953, 4.375133379731995]
      },
      {
        "species": [{ "element": "Al", "occu": 1 }],
        "abc": [0.0, 0.705724999999999, 0.343053999999999],
        "properties": { "magmom": -0.005 },
        "label": "Al",
        "xyz": [4.823850620267991, -1.6681023631320002, 1.6681023631320002]
      },
      {
        "species": [{ "element": "Al", "occu": 1 }],
        "abc": [0.294275, 0.294275, 0.637328999999999],
        "properties": { "magmom": -0.005 },
        "label": "Al",
        "xyz": [2.9313896368679955, 2.9313896368679955, -0.2243586202679957]
      },
      {
        "species": [{ "element": "Al", "occu": 1 }],
        "abc": [0.343053999999999, 0.705724999999999, 0.0],
        "properties": { "magmom": -0.008 },
        "label": "Al",
        "xyz": [1.6681023631320002, -1.6681023631320002, 4.823850620267991]
      },
      {
        "species": [{ "element": "Al", "occu": 1 }],
        "abc": [0.705724999999999, 0.343053999999999, 0.0],
        "properties": { "magmom": -0.007 },
        "label": "Al",
        "xyz": [-1.6681023631320002, 1.6681023631320002, 4.823850620267991]
      },
      {
        "species": [{ "element": "Al", "occu": 1 }],
        "abc": [0.656945999999999, 0.362670999999999, 0.656945999999999],
        "properties": { "magmom": -0.008 },
        "label": "Al",
        "xyz": [1.6681023631319953, 4.375133379731995, 1.6681023631319953]
      },
      {
        "species": [{ "element": "Al", "occu": 1 }],
        "abc": [0.705724999999999, 0.0, 0.343053999999999],
        "properties": { "magmom": -0.005 },
        "label": "Al",
        "xyz": [-1.6681023631320002, 4.823850620267991, 1.6681023631320002]
      },
      {
        "species": [{ "element": "Al", "occu": 1 }],
        "abc": [0.343053999999999, 0.0, 0.705724999999999],
        "properties": { "magmom": -0.006 },
        "label": "Al",
        "xyz": [1.6681023631320002, 4.823850620267991, -1.6681023631320002]
      },
      {
        "species": [{ "element": "Al", "occu": 1 }],
        "abc": [0.294275, 0.637328999999999, 0.294275],
        "properties": { "magmom": -0.007 },
        "label": "Al",
        "xyz": [2.9313896368679955, -0.2243586202679957, 2.931389636867995]
      },
      {
        "species": [{ "element": "V", "occu": 1 }],
        "abc": [0.653586, 0.653586, 0.0],
        "properties": { "magmom": 1.068 },
        "label": "V",
        "xyz": [0.0, 0.0, 6.012327156624]
      },
      {
        "species": [{ "element": "V", "occu": 1 }],
        "abc": [0.346414, 0.346414, 0.0],
        "properties": { "magmom": 1.096 },
        "label": "V",
        "xyz": [0.0, 0.0, 3.186656843376]
      },
      {
        "species": [{ "element": "V", "occu": 1 }],
        "abc": [0.653586, 0.0, 0.653586],
        "properties": { "magmom": 1.096 },
        "label": "V",
        "xyz": [0.0, 6.012327156624, 0.0]
      },
      {
        "species": [{ "element": "V", "occu": 1 }],
        "abc": [0.346414, 0.0, 0.346414],
        "properties": { "magmom": 1.068 },
        "label": "V",
        "xyz": [0.0, 3.186656843376, 0.0]
      },
      {
        "species": [{ "element": "V", "occu": 1 }],
        "abc": [0.0, 0.653586, 0.653586],
        "properties": { "magmom": 1.18 },
        "label": "V",
        "xyz": [6.012327156624, 0.0, 0.0]
      },
      {
        "species": [{ "element": "V", "occu": 1 }],
        "abc": [0.0, 0.346414, 0.346414],
        "properties": { "magmom": 0.987 },
        "label": "V",
        "xyz": [3.186656843376, 0.0, 0.0]
      },
      {
        "species": [{ "element": "V", "occu": 1 }],
        "abc": [0.346497, 0.346497, 0.346497],
        "properties": { "magmom": -0.765 },
        "label": "V",
        "xyz": [1.5937101795239998, 1.5937101795239998, 1.5937101795239998]
      },
      {
        "species": [{ "element": "V", "occu": 1 }],
        "abc": [0.653503, 0.0, 0.0],
        "properties": { "magmom": -0.765 },
        "label": "V",
        "xyz": [-3.0057818204759994, 3.0057818204759994, 3.0057818204759994]
      },
      {
        "species": [{ "element": "V", "occu": 1 }],
        "abc": [0.0, 0.653503, 0.0],
        "properties": { "magmom": -0.73 },
        "label": "V",
        "xyz": [3.0057818204759994, -3.0057818204759994, 3.0057818204759994]
      },
      {
        "species": [{ "element": "V", "occu": 1 }],
        "abc": [0.0, 0.0, 0.653503],
        "properties": { "magmom": -0.704 },
        "label": "V",
        "xyz": [3.0057818204759994, 3.0057818204759994, -3.0057818204759994]
      }
    ]
  },
  "task_ids": null,
  "uncorrected_energy_per_atom": null,
  "energy_per_atom": -9.822415514615384,
  "formation_energy_per_atom": -0.260518184615383,
  "energy_above_hull": 0.05240843653846201,
  "is_stable": false,
  "equilibrium_reaction_energy_per_atom": null,
  "decomposes_to": null,
  "xas": null,
  "grain_boundaries": null,
  "band_gap": 0.0,
  "cbm": null,
  "vbm": null,
  "efermi": 7.35402424,
  "is_gap_direct": null,
  "is_metal": null,
  "es_source_calc_id": null,
  "bandstructure": null,
  "dos": null,
  "dos_energy_up": null,
  "dos_energy_down": null,
  "is_magnetic": null,
  "ordering": null,
  "total_magnetization": 4.1355856,
  "total_magnetization_normalized_vol": null,
  "total_magnetization_normalized_formula_units": null,
  "num_magnetic_sites": null,
  "num_unique_magnetic_sites": null,
  "types_of_magnetic_species": null,
  "bulk_modulus": null,
  "shear_modulus": null,
  "universal_anisotropy": null,
  "homogeneous_poisson": null,
  "e_total": null,
  "e_ionic": null,
  "e_electronic": null,
  "n": null,
  "e_ij_max": null,
  "weighted_surface_energy_EV_PER_ANG2": null,
  "weighted_surface_energy": null,
  "weighted_work_function": null,
  "surface_anisotropy": null,
  "shape_factor": null,
  "has_reconstructed": null,
  "possible_species": null,
  "has_props": null,
  "theoretical": null,
  "database_IDs": null,
  "fields_not_requested": [
    "builder_meta",
    "nsites",
    "elements",
    "nelements",
    "composition",
    "composition_reduced",
    "chemsys",
    "symmetry",
    "property_name",
    "deprecated",
    "deprecation_reasons",
    "last_updated",
    "origins",
    "warnings",
    "task_ids",
    "uncorrected_energy_per_atom",
    "equilibrium_reaction_energy_per_atom",
    "decomposes_to",
    "xas",
    "grain_boundaries",
    "cbm",
    "vbm",
    "is_gap_direct",
    "is_metal",
    "es_source_calc_id",
    "bandstructure",
    "dos",
    "dos_energy_up",
    "dos_energy_down",
    "is_magnetic",
    "ordering",
    "total_magnetization_normalized_vol",
    "total_magnetization_normalized_formula_units",
    "num_magnetic_sites",
    "num_unique_magnetic_sites",
    "types_of_magnetic_species",
    "bulk_modulus",
    "shear_modulus",
    "universal_anisotropy",
    "homogeneous_poisson",
    "e_total",
    "e_ionic",
    "e_electronic",
    "n",
    "e_ij_max",
    "weighted_surface_energy_EV_PER_ANG2",
    "weighted_surface_energy",
    "weighted_work_function",
    "surface_anisotropy",
    "shape_factor",
    "has_reconstructed",
    "possible_species",
    "has_props",
    "theoretical",
    "database_IDs"
  ]
}
