{"builder_meta": null, "nsites": null, "elements": null, "nelements": null, "composition": null, "composition_reduced": null, "formula_pretty": "AlAg4", "formula_anonymous": "AB4", "chemsys": null, "volume": 87.7937743123103, "density": 8.671245147627953, "density_atomic": 17.55875486246206, "symmetry": null, "property_name": null, "material_id": "mp-1228947", "deprecated": null, "deprecation_reasons": null, "last_updated": null, "origins": null, "warnings": null, "structure": {"@module": "pymatgen.core.structure", "@class": "Structure", "charge": 0, "lattice": {"matrix": [[11.712989, -1.472910999999999, 0.0], [11.712989, 1.472910999999999, 0.0], [11.52777, 0.0, 2.5444240000000002]], "pbc": [true, true, true], "a": 11.805235200030621, "b": 11.805235200030621, "c": 11.805235053342903, "alpha": 14.334671057232613, "beta": 14.334671057232613, "gamma": 14.33467169172179, "volume": 87.79377431231025}, "properties": {}, "sites": [{"species": [{"element": "Al", "occu": 1}], "abc": [0.0, 0.0, 0.0], "properties": {"magmom": 0.0}, "label": "Al", "xyz": [0.0, 0.0, 0.0]}, {"species": [{"element": "Ag", "occu": 1}], "abc": [0.603645, 0.603645, 0.603645], "properties": {"magmom": 0.0}, "label": "Ag", "xyz": [21.09965521146, 0.0, 1.53592882548]}, {"species": [{"element": "Ag", "occu": 1}], "abc": [0.20119, 0.20119, 0.20119], "properties": {"magmom": 0.0}, "label": "Ag", "xyz": [7.03234456012, 0.0, 0.5119126645600001]}, {"species": [{"element": "Ag", "occu": 1}], "abc": [0.79881, 0.79881, 0.79881], "properties": {"magmom": 0.0}, "label": "Ag", "xyz": [27.921403439880002, 0.0, 2.03251133544]}, {"species": [{"element": "Ag", "occu": 1}], "abc": [0.396354999999999, 0.396354999999999, 0.396354999999999], "properties": {"magmom": 0.0}, "label": "Ag", "xyz": [13.854092788539965, 0.0, 1.0084951745199975]}]}, "task_ids": null, "uncorrected_energy_per_atom": null, "energy_per_atom": -18.415523627933332, "formation_energy_per_atom": 0.015597754066666001, "energy_above_hull": 0.073577378266669, "is_stable": false, "equilibrium_reaction_energy_per_atom": null, "decomposes_to": null, "xas": null, "grain_boundaries": null, "band_gap": 0.0, "cbm": null, "vbm": null, "efermi": 4.07520787, "is_gap_direct": null, "is_metal": null, "es_source_calc_id": null, "bandstructure": null, "dos": null, "dos_energy_up": null, "dos_energy_down": null, "is_magnetic": null, "ordering": null, "total_magnetization": 0.000538, "total_magnetization_normalized_vol": null, "total_magnetization_normalized_formula_units": null, "num_magnetic_sites": null, "num_unique_magnetic_sites": null, "types_of_magnetic_species": null, "bulk_modulus": null, "shear_modulus": null, "universal_anisotropy": null, "homogeneous_poisson": null, "e_total": null, "e_ionic": null, "e_electronic": null, "n": null, "e_ij_max": null, "weighted_surface_energy_EV_PER_ANG2": null, "weighted_surface_energy": null, "weighted_work_function": null, "surface_anisotropy": null, "shape_factor": null, "has_reconstructed": null, "possible_species": null, "has_props": null, "theoretical": null, "database_IDs": null, "fields_not_requested": ["builder_meta", "nsites", "elements", "nelements", "composition", "composition_reduced", "chemsys", "symmetry", "property_name", "deprecated", "deprecation_reasons", "last_updated", "origins", "warnings", "task_ids", "uncorrected_energy_per_atom", "equilibrium_reaction_energy_per_atom", "decomposes_to", "xas", "grain_boundaries", "cbm", "vbm", "is_gap_direct", "is_metal", "es_source_calc_id", "bandstructure", "dos", "dos_energy_up", "dos_energy_down", "is_magnetic", "ordering", "total_magnetization_normalized_vol", "total_magnetization_normalized_formula_units", "num_magnetic_sites", "num_unique_magnetic_sites", "types_of_magnetic_species", "bulk_modulus", "shear_modulus", "universal_anisotropy", "homogeneous_poisson", "e_total", "e_ionic", "e_electronic", "n", "e_ij_max", "weighted_surface_energy_EV_PER_ANG2", "weighted_surface_energy", "weighted_work_function", "surface_anisotropy", "shape_factor", "has_reconstructed", "possible_species", "has_props", "theoretical", "database_IDs"]}