{
  "builder_meta": null,
  "nsites": null,
  "elements": null,
  "nelements": null,
  "composition": null,
  "composition_reduced": null,
  "formula_pretty": "AlAg2",
  "formula_anonymous": "AB2",
  "chemsys": null,
  "volume": 98.65315792948888,
  "density": 8.170901523456344,
  "density_atomic": 16.44219298824815,
  "symmetry": null,
  "property_name": null,
  "material_id": "mp-985805",
  "deprecated": null,
  "deprecation_reasons": null,
  "last_updated": null,
  "origins": null,
  "warnings": null,
  "structure": {
    "@module": "pymatgen.core.structure",
    "@class": "Structure",
    "charge": 0,
    "lattice": {
      "matrix": [
        [5.00690877, -0.03836431, 0.0],
        [-2.53667874, 4.31692789, 0.0],
        [0.0, 0.0, 4.58486256]
      ],
      "pbc": [true, true, true],
      "a": 5.007055746782203,
      "b": 5.007055565642131,
      "c": 4.58486256,
      "alpha": 90.0,
      "beta": 90.0,
      "gamma": 120.87801454265175,
      "volume": 98.65315792948888
    },
    "properties": {},
    "sites": [
      {
        "species": [{ "element": "Al", "occu": 1 }],
        "abc": [0.010895, 0.010895, 0.0],
        "properties": { "magmom": 0.0 },
        "label": "Al",
        "xyz": [0.02691315617685, 0.046614950204099996, 0.0]
      },
      {
        "species": [{ "element": "Al", "occu": 1 }],
        "abc": [0.6558301400000001, 0.6558301400000001, 0.5],
        "properties": { "magmom": 0.0 },
        "label": "Al",
        "xyz": [1.6200513064071043, 2.806010951670301, 2.29243128]
      },
      {
        "species": [{ "element": "Ag", "occu": 1 }],
        "abc": [0.67970649, 0.3577015, 0.0],
        "properties": { "magmom": 0.0 },
        "label": "Ag",
        "xyz": [2.4958545954908073, 1.518095111153463, 0.0]
      },
      {
        "species": [{ "element": "Ag", "occu": 1 }],
        "abc": [0.3577015, 0.67970649, 0.0],
        "properties": { "magmom": 0.0 },
        "label": "Ag",
        "xyz": [0.06678177476913216, 2.9205209324615407, 0.0]
      },
      {
        "species": [{ "element": "Ag", "occu": 1 }],
        "abc": [0.30910713, 0.9870917300000001, 0.5],
        "properties": { "magmom": 0.0 },
        "label": "Ag",
        "xyz": [-0.9562634058542903, 4.249345137466819, 2.29243128]
      },
      {
        "species": [{ "element": "Ag", "occu": 1 }],
        "abc": [0.9870917300000001, 0.30910713, 0.5],
        "properties": { "magmom": 0.0 },
        "label": "Ag",
        "xyz": [4.158172754678056, 1.2965240973666994, 2.29243128]
      }
    ]
  },
  "task_ids": null,
  "uncorrected_energy_per_atom": null,
  "energy_per_atom": -16.538049853333334,
  "formation_energy_per_atom": -0.056765646666666,
  "energy_above_hull": 0.0076561579999990005,
  "is_stable": false,
  "equilibrium_reaction_energy_per_atom": null,
  "decomposes_to": null,
  "xas": null,
  "grain_boundaries": null,
  "band_gap": 0.0,
  "cbm": null,
  "vbm": null,
  "efermi": 5.60404494,
  "is_gap_direct": null,
  "is_metal": null,
  "es_source_calc_id": null,
  "bandstructure": null,
  "dos": null,
  "dos_energy_up": null,
  "dos_energy_down": null,
  "is_magnetic": null,
  "ordering": null,
  "total_magnetization": 0.000106199999999,
  "total_magnetization_normalized_vol": null,
  "total_magnetization_normalized_formula_units": null,
  "num_magnetic_sites": null,
  "num_unique_magnetic_sites": null,
  "types_of_magnetic_species": null,
  "bulk_modulus": null,
  "shear_modulus": null,
  "universal_anisotropy": null,
  "homogeneous_poisson": null,
  "e_total": null,
  "e_ionic": null,
  "e_electronic": null,
  "n": null,
  "e_ij_max": null,
  "weighted_surface_energy_EV_PER_ANG2": null,
  "weighted_surface_energy": null,
  "weighted_work_function": null,
  "surface_anisotropy": null,
  "shape_factor": null,
  "has_reconstructed": null,
  "possible_species": null,
  "has_props": null,
  "theoretical": null,
  "database_IDs": null,
  "fields_not_requested": [
    "builder_meta",
    "nsites",
    "elements",
    "nelements",
    "composition",
    "composition_reduced",
    "chemsys",
    "symmetry",
    "property_name",
    "deprecated",
    "deprecation_reasons",
    "last_updated",
    "origins",
    "warnings",
    "task_ids",
    "uncorrected_energy_per_atom",
    "equilibrium_reaction_energy_per_atom",
    "decomposes_to",
    "xas",
    "grain_boundaries",
    "cbm",
    "vbm",
    "is_gap_direct",
    "is_metal",
    "es_source_calc_id",
    "bandstructure",
    "dos",
    "dos_energy_up",
    "dos_energy_down",
    "is_magnetic",
    "ordering",
    "total_magnetization_normalized_vol",
    "total_magnetization_normalized_formula_units",
    "num_magnetic_sites",
    "num_unique_magnetic_sites",
    "types_of_magnetic_species",
    "bulk_modulus",
    "shear_modulus",
    "universal_anisotropy",
    "homogeneous_poisson",
    "e_total",
    "e_ionic",
    "e_electronic",
    "n",
    "e_ij_max",
    "weighted_surface_energy_EV_PER_ANG2",
    "weighted_surface_energy",
    "weighted_work_function",
    "surface_anisotropy",
    "shape_factor",
    "has_reconstructed",
    "possible_species",
    "has_props",
    "theoretical",
    "database_IDs"
  ]
}
