{"builder_meta": null, "nsites": null, "elements": null, "nelements": null, "composition": null, "composition_reduced": null, "formula_pretty": "AlAg3", "formula_anonymous": "AB3", "chemsys": null, "volume": 335.1948472906604, "density": 8.683933897840129, "density_atomic": 16.759742364533018, "symmetry": null, "property_name": null, "material_id": "mp-1228988", "deprecated": null, "deprecation_reasons": null, "last_updated": null, "origins": null, "warnings": null, "structure": {"@module": "pymatgen.core.structure", "@class": "Structure", "charge": 0, "lattice": {"matrix": [[-0.01473576, 6.94652703, 0.01469738], [0.01469738, 0.01473576, 6.94652703], [6.94652703, -0.01469738, 0.01473576]], "pbc": [true, true, true], "a": 6.946558207783354, "b": 6.946558207783353, "c": 6.946558207783354, "alpha": 89.75749057805785, "beta": 90.24250942194216, "gamma": 89.75749057805785, "volume": 335.1948472906604}, "properties": {}, "sites": [{"species": [{"element": "Al", "occu": 1}], "abc": [0.30920808, 0.19079192, 0.80920808], "properties": {"magmom": -0.0}, "label": "Al", "xyz": [5.619433525906632, 2.1388405109066317, 1.341810074093369]}, {"species": [{"element": "Al", "occu": 1}], "abc": [0.197076199999999, 0.81751891, 0.30728307], "properties": {"magmom": -0.0}, "label": "Al", "xyz": [2.143661470108926, 1.3765256566755442, 5.686341759223076]}, {"species": [{"element": "Al", "occu": 1}], "abc": [0.80728307, 0.302923799999999, 0.18248109], "properties": {"magmom": -0.0}, "label": "Al", "xyz": [1.2601660807769237, 5.609595485108927, 2.1188223083244426]}, {"species": [{"element": "Al", "occu": 1}], "abc": [0.68248109, 0.69271693, 0.697076199999999], "properties": {"magmom": -0.0}, "label": "Al", "xyz": [4.842382911675545, 4.740835855776925, 4.832279509891074]}, {"species": [{"element": "Al", "occu": 1}], "abc": [0.94114308, 0.55885692, 0.44114308], "properties": {"magmom": 0.0}, "label": "Al", "xyz": [3.0587576032837815, 6.539427378283781, 3.902447616716219]}, {"species": [{"element": "Ag", "occu": 1}], "abc": [0.87141757, 0.69897684, 0.05065262], "properties": {"magmom": 0.0}, "label": "Ag", "xyz": [0.34929192202769466, 6.06288119857758, 4.869015472420644]}, {"species": [{"element": "Ag", "occu": 1}], "abc": [0.55065262, 0.62858243, 0.30102316], "properties": {"magmom": 0.0}, "label": "Ag", "xyz": [2.092189747579357, 3.829961697027695, 4.378993796422421]}, {"species": [{"element": "Ag", "occu": 1}], "abc": [0.8010231600000001, 0.9493473800000001, 0.37141757000000003], "properties": {"magmom": 0.0}, "label": "Ag", "xyz": [2.58221142357758, 5.572859522579358, 6.611913297972307]}, {"species": [{"element": "Ag", "occu": 1}], "abc": [0.64063133, 0.30188145, 0.53927686], "properties": {"magmom": 0.0}, "label": "Ag", "xyz": [3.741097961501766, 4.446685345768875, 2.114389908760023]}, {"species": [{"element": "Ag", "occu": 1}], "abc": [0.95982434, 0.382731899999999, 0.799101899999999], "properties": {"magmom": 0.0}, "label": "Ag", "xyz": [5.5424643631303745, 6.661340863001632, 2.684539765465423]}, {"species": [{"element": "Ag", "occu": 1}], "abc": [0.70151969, 0.04503545, 0.8700118800000001], "properties": {"magmom": -0.0}, "label": "Ag", "xyz": [6.033885518176124, 4.861002225040039, 0.33597075845545454]}, {"species": [{"element": "Ag", "occu": 1}], "abc": [0.37001188, 0.79848031, 0.95496455], "properties": {"magmom": -0.0}, "label": "Ag", "xyz": [6.639970221544546, 2.568028263176123, 5.566175389959962]}, {"species": [{"element": "Ag", "occu": 1}], "abc": [0.039276860000000004, 0.8593686700000001, 0.69811855], "properties": {"magmom": 0.0}, "label": "Ag", "xyz": [4.861551071239978, 0.2752407065017661, 5.980492269231125]}, {"species": [{"element": "Ag", "occu": 1}], "abc": [0.2991019, 0.5401756600000001, 0.6172681], "properties": {"magmom": 0.0}, "label": "Ag", "xyz": [4.29140121453457, 2.0766071081303807, 3.7658367519983686]}, {"species": [{"element": "Ag", "occu": 1}], "abc": [0.1172681, 0.2008981, 0.45982434], "properties": {"magmom": 0.0}, "label": "Ag", "xyz": [3.195406848001632, 0.8108081995345698, 1.4040434768696195]}, {"species": [{"element": "Ag", "occu": 1}], "abc": [0.45496455, 0.12998812, 0.20152069], "properties": {"magmom": -0.0}, "label": "Ag", "xyz": [1.3950751565670683, 3.1593771918471663, 0.9126223365596372]}, {"species": [{"element": "Ag", "occu": 1}], "abc": [0.19811855, 0.46072314000000003, 0.14063233], "properties": {"magmom": 0.0}, "label": "Ag", "xyz": [0.9807582772959051, 1.3809580415425977, 3.2054098932339943]}, {"species": [{"element": "Ag", "occu": 1}], "abc": [0.55933864, 0.43530142, 0.93495869], "properties": {"magmom": 0.0}, "label": "Ag", "xyz": [6.492871322444904, 3.8781340357849867, 3.0458312196339006]}, {"species": [{"element": "Ag", "occu": 1}], "abc": [0.43495869000000004, 0.94066136, 0.5646985800000001], "properties": {"magmom": 0.0}, "label": "Ag", "xyz": [3.9301097603661006, 3.0270140674449046, 6.549043579215014]}, {"species": [{"element": "Ag", "occu": 1}], "abc": [0.06469858, 0.06504131, 0.05933864], "properties": {"magmom": 0.0}, "label": "Ag", "xyz": [0.4122000207849862, 0.44951674536609987, 0.45363651755509615]}]}, "task_ids": null, "uncorrected_energy_per_atom": null, "energy_per_atom": -17.7724069715, "formation_energy_per_atom": -0.072474530250002, "energy_above_hull": 0.0, "is_stable": true, "equilibrium_reaction_energy_per_atom": null, "decomposes_to": null, "xas": null, "grain_boundaries": null, "band_gap": 0.0, "cbm": null, "vbm": null, "efermi": 4.54067521, "is_gap_direct": null, "is_metal": null, "es_source_calc_id": null, "bandstructure": null, "dos": null, "dos_energy_up": null, "dos_energy_down": null, "is_magnetic": null, "ordering": null, "total_magnetization": 0.0, "total_magnetization_normalized_vol": null, "total_magnetization_normalized_formula_units": null, "num_magnetic_sites": null, "num_unique_magnetic_sites": null, "types_of_magnetic_species": null, "bulk_modulus": null, "shear_modulus": null, "universal_anisotropy": null, "homogeneous_poisson": null, "e_total": null, "e_ionic": null, "e_electronic": null, "n": null, "e_ij_max": null, "weighted_surface_energy_EV_PER_ANG2": null, "weighted_surface_energy": null, "weighted_work_function": null, "surface_anisotropy": null, "shape_factor": null, "has_reconstructed": null, "possible_species": null, "has_props": null, "theoretical": null, "database_IDs": null, "fields_not_requested": ["builder_meta", "nsites", "elements", "nelements", "composition", "composition_reduced", "chemsys", "symmetry", "property_name", "deprecated", "deprecation_reasons", "last_updated", "origins", "warnings", "task_ids", "uncorrected_energy_per_atom", "equilibrium_reaction_energy_per_atom", "decomposes_to", "xas", "grain_boundaries", "cbm", "vbm", "is_gap_direct", "is_metal", "es_source_calc_id", "bandstructure", "dos", "dos_energy_up", "dos_energy_down", "is_magnetic", "ordering", "total_magnetization_normalized_vol", "total_magnetization_normalized_formula_units", "num_magnetic_sites", "num_unique_magnetic_sites", "types_of_magnetic_species", "bulk_modulus", "shear_modulus", "universal_anisotropy", "homogeneous_poisson", "e_total", "e_ionic", "e_electronic", "n", "e_ij_max", "weighted_surface_energy_EV_PER_ANG2", "weighted_surface_energy", "weighted_work_function", "surface_anisotropy", "shape_factor", "has_reconstructed", "possible_species", "has_props", "theoretical", "database_IDs"]}