{
  "builder_meta": null,
  "nsites": null,
  "elements": null,
  "nelements": null,
  "composition": null,
  "composition_reduced": null,
  "formula_pretty": "AlAs2",
  "formula_anonymous": "AB2",
  "chemsys": null,
  "volume": 528.2657199530134,
  "density": 4.446616546123786,
  "density_atomic": 22.011071664708894,
  "symmetry": null,
  "property_name": null,
  "material_id": "mp-1182888",
  "deprecated": null,
  "deprecation_reasons": null,
  "last_updated": null,
  "origins": null,
  "warnings": null,
  "structure": {
    "@module": "pymatgen.core.structure",
    "@class": "Structure",
    "charge": 0,
    "lattice": {
      "matrix": [
        [-3.937243999999999, 4.608614, 7.278297],
        [3.937243999999999, -4.608614, 7.278297],
        [3.937243999999999, 4.608614, -7.278297]
      ],
      "pbc": [true, true, true],
      "a": 9.47179077771152,
      "b": 9.47179077771152,
      "c": 9.47179077771152,
      "alpha": 130.87557361063597,
      "beta": 121.77027023090997,
      "gamma": 79.57587640827839,
      "volume": 528.2657199530132
    },
    "properties": {},
    "sites": [
      {
        "species": [{ "element": "Al", "occu": 1 }],
        "abc": [0.502097999999999, 0.551744, 0.300884],
        "properties": { "magmom": 0.0 },
        "label": "Al",
        "xyz": [1.3801221393200034, 1.1578589641319954, 5.480251952525994]
      },
      {
        "species": [{ "element": "Al", "occu": 1 }],
        "abc": [0.997902, 0.298786, 0.049647],
        "properties": { "magmom": 0.0 },
        "label": "Al",
        "xyz": [-2.557117923435999, 3.450759644482, 9.076334769176999]
      },
      {
        "species": [{ "element": "Al", "occu": 1 }],
        "abc": [0.749139, 0.948256, 0.450353],
        "properties": { "magmom": 0.0 },
        "label": "Al",
        "xyz": [2.557121860679999, 1.157849746904, 9.076342047473998]
      },
      {
        "species": [{ "element": "Al", "occu": 1 }],
        "abc": [0.750861, 0.201214, 0.199116],
        "properties": { "magmom": 0.0 },
        "label": "Al",
        "xyz": [-1.3801260765639995, 3.4507596444820003, 5.480259230823002]
      },
      {
        "species": [{ "element": "Al", "occu": 1 }],
        "abc": [0.497901999999999, 0.448256, 0.699116],
        "properties": { "magmom": 0.0 },
        "label": "Al",
        "xyz": [2.557121860680003, 3.4507550358679957, 1.7980450474739937]
      },
      {
        "species": [{ "element": "Al", "occu": 1 }],
        "abc": [0.002098, 0.701214, 0.950353],
        "properties": { "magmom": 0.0 },
        "label": "Al",
        "xyz": [6.494361923435998, 1.1578543555179999, -1.7980377691770002]
      },
      {
        "species": [{ "element": "Al", "occu": 1 }],
        "abc": [0.250861, 0.051744, 0.549647],
        "properties": { "magmom": 0.0 },
        "label": "Al",
        "xyz": [1.3801221393199996, 3.450764253096, -1.798045047474]
      },
      {
        "species": [{ "element": "Al", "occu": 1 }],
        "abc": [0.249139, 0.798786, 0.800883999999999],
        "properties": { "magmom": 0.0 },
        "label": "Al",
        "xyz": [5.317370076563995, 1.1578543555179963, 1.7980377691770082]
      },
      {
        "species": [{ "element": "As", "occu": 1 }],
        "abc": [0.5, 0.5, 0.0],
        "properties": { "magmom": 0.0 },
        "label": "As",
        "xyz": [0.0, 0.0, 7.278297]
      },
      {
        "species": [{ "element": "As", "occu": 1 }],
        "abc": [0.0, 0.0, 0.0],
        "properties": { "magmom": 0.0 },
        "label": "As",
        "xyz": [0.0, 0.0, 0.0]
      },
      {
        "species": [{ "element": "As", "occu": 1 }],
        "abc": [0.5, 0.0, 0.5],
        "properties": { "magmom": 0.0 },
        "label": "As",
        "xyz": [0.0, 4.608614, 0.0]
      },
      {
        "species": [{ "element": "As", "occu": 1 }],
        "abc": [0.0, 0.5, 0.5],
        "properties": { "magmom": 0.0 },
        "label": "As",
        "xyz": [3.937243999999999, 0.0, 0.0]
      },
      {
        "species": [{ "element": "As", "occu": 1 }],
        "abc": [0.25, 0.583379, 0.333379],
        "properties": { "magmom": 0.0 },
        "label": "As",
        "xyz": [2.625188934951999, 0.0, 3.6391484999999997]
      },
      {
        "species": [{ "element": "As", "occu": 1 }],
        "abc": [0.75, 0.916620999999999, 0.166621],
        "properties": { "magmom": 0.0 },
        "label": "As",
        "xyz": [1.3120550650479963, 4.9960036108132044e-15, 10.917445499999992]
      },
      {
        "species": [{ "element": "As", "occu": 1 }],
        "abc": [0.75, 0.416620999999999, 0.666621],
        "properties": { "magmom": 0.0 },
        "label": "As",
        "xyz": [1.312055065047996, 4.6086140000000055, 3.639148499999992]
      },
      {
        "species": [{ "element": "As", "occu": 1 }],
        "abc": [0.25, 0.083379, 0.833379],
        "properties": { "magmom": 0.0 },
        "label": "As",
        "xyz": [2.625188934951999, 4.608614, -3.6391485]
      },
      {
        "species": [{ "element": "As", "occu": 1 }],
        "abc": [0.801033, 0.75, 0.551033],
        "properties": { "magmom": 0.0 },
        "label": "As",
        "xyz": [1.968621999999999, 2.774689796524, 7.278297]
      },
      {
        "species": [{ "element": "As", "occu": 1 }],
        "abc": [0.698967, 0.25, 0.948967],
        "properties": { "magmom": 0.0 },
        "label": "As",
        "xyz": [1.9686219999999996, 6.442538203476, -8.881784197001252e-16]
      },
      {
        "species": [{ "element": "As", "occu": 1 }],
        "abc": [0.198966999999999, 0.25, 0.448967],
        "properties": { "magmom": 0.0 },
        "label": "As",
        "xyz": [1.9686220000000034, 1.8339242034759953, -7.105427357601002e-15]
      },
      {
        "species": [{ "element": "As", "occu": 1 }],
        "abc": [0.301033, 0.75, 0.051032999999999],
        "properties": { "magmom": 0.0 },
        "label": "As",
        "xyz": [1.9686219999999954, -1.833924203476005, 7.278297000000007]
      },
      {
        "species": [{ "element": "As", "occu": 1 }],
        "abc": [0.506321, 0.256320999999999, 0.25],
        "properties": { "magmom": 0.0 },
        "label": "As",
        "xyz": [-3.774758283725532e-15, 2.3043070000000045, 3.731160730673993]
      },
      {
        "species": [{ "element": "As", "occu": 1 }],
        "abc": [0.993679, 0.243678999999999, 0.75],
        "properties": { "magmom": 0.0 },
        "label": "As",
        "xyz": [-3.9968028886505635e-15, 6.912921000000004, 3.5471362693259927]
      },
      {
        "species": [{ "element": "As", "occu": 1 }],
        "abc": [0.493679, 0.743679, 0.75],
        "properties": { "magmom": 0.0 },
        "label": "As",
        "xyz": [3.937243999999999, 2.3043070000000005, 3.547136269326]
      },
      {
        "species": [{ "element": "As", "occu": 1 }],
        "abc": [0.006320999999999, 0.756321, 0.25],
        "properties": { "magmom": 0.0 },
        "label": "As",
        "xyz": [3.9372440000000024, -2.304307000000005, 3.731160730673993]
      }
    ]
  },
  "task_ids": null,
  "uncorrected_energy_per_atom": null,
  "energy_per_atom": -12.107495099583332,
  "formation_energy_per_atom": -0.058441664583331006,
  "energy_above_hull": 0.35958685291666703,
  "is_stable": false,
  "equilibrium_reaction_energy_per_atom": null,
  "decomposes_to": null,
  "xas": null,
  "grain_boundaries": null,
  "band_gap": 0.0,
  "cbm": null,
  "vbm": null,
  "efermi": 4.5762661300000005,
  "is_gap_direct": null,
  "is_metal": null,
  "es_source_calc_id": null,
  "bandstructure": null,
  "dos": null,
  "dos_energy_up": null,
  "dos_energy_down": null,
  "is_magnetic": null,
  "ordering": null,
  "total_magnetization": 0.002376199999999,
  "total_magnetization_normalized_vol": null,
  "total_magnetization_normalized_formula_units": null,
  "num_magnetic_sites": null,
  "num_unique_magnetic_sites": null,
  "types_of_magnetic_species": null,
  "bulk_modulus": null,
  "shear_modulus": null,
  "universal_anisotropy": null,
  "homogeneous_poisson": null,
  "e_total": null,
  "e_ionic": null,
  "e_electronic": null,
  "n": null,
  "e_ij_max": null,
  "weighted_surface_energy_EV_PER_ANG2": null,
  "weighted_surface_energy": null,
  "weighted_work_function": null,
  "surface_anisotropy": null,
  "shape_factor": null,
  "has_reconstructed": null,
  "possible_species": null,
  "has_props": null,
  "theoretical": null,
  "database_IDs": null,
  "fields_not_requested": [
    "builder_meta",
    "nsites",
    "elements",
    "nelements",
    "composition",
    "composition_reduced",
    "chemsys",
    "symmetry",
    "property_name",
    "deprecated",
    "deprecation_reasons",
    "last_updated",
    "origins",
    "warnings",
    "task_ids",
    "uncorrected_energy_per_atom",
    "equilibrium_reaction_energy_per_atom",
    "decomposes_to",
    "xas",
    "grain_boundaries",
    "cbm",
    "vbm",
    "is_gap_direct",
    "is_metal",
    "es_source_calc_id",
    "bandstructure",
    "dos",
    "dos_energy_up",
    "dos_energy_down",
    "is_magnetic",
    "ordering",
    "total_magnetization_normalized_vol",
    "total_magnetization_normalized_formula_units",
    "num_magnetic_sites",
    "num_unique_magnetic_sites",
    "types_of_magnetic_species",
    "bulk_modulus",
    "shear_modulus",
    "universal_anisotropy",
    "homogeneous_poisson",
    "e_total",
    "e_ionic",
    "e_electronic",
    "n",
    "e_ij_max",
    "weighted_surface_energy_EV_PER_ANG2",
    "weighted_surface_energy",
    "weighted_work_function",
    "surface_anisotropy",
    "shape_factor",
    "has_reconstructed",
    "possible_species",
    "has_props",
    "theoretical",
    "database_IDs"
  ]
}
