{
  "builder_meta": null,
  "nsites": null,
  "elements": null,
  "nelements": null,
  "composition": null,
  "composition_reduced": null,
  "formula_pretty": "AlAu4",
  "formula_anonymous": "AB4",
  "chemsys": null,
  "volume": 339.8150231225442,
  "density": 15.9273314880959,
  "density_atomic": 16.99075115612721,
  "symmetry": null,
  "property_name": null,
  "material_id": "mp-1490",
  "deprecated": null,
  "deprecation_reasons": null,
  "last_updated": null,
  "origins": null,
  "warnings": null,
  "structure": {
    "@module": "pymatgen.core.structure",
    "@class": "Structure",
    "charge": 0,
    "lattice": {
      "matrix": [
        [6.97826608, -0.0, -0.0],
        [0.0, 6.97826608, 0.0],
        [0.0, 0.0, 6.97826608]
      ],
      "pbc": [true, true, true],
      "a": 6.97826608,
      "b": 6.97826608,
      "c": 6.97826608,
      "alpha": 90.0,
      "beta": 90.0,
      "gamma": 90.0,
      "volume": 339.8150231225442
    },
    "properties": {},
    "sites": [
      {
        "species": [{ "element": "Al", "occu": 1 }],
        "abc": [0.06384002, 0.06384002, 0.06384002],
        "properties": { "magmom": 0.0 },
        "label": "Al",
        "xyz": [0.4454926461125216, 0.4454926461125216, 0.4454926461125216]
      },
      {
        "species": [{ "element": "Al", "occu": 1 }],
        "abc": [0.43615998, 0.93615998, 0.56384002],
        "properties": { "magmom": 0.0 },
        "label": "Al",
        "xyz": [3.0436403938874785, 6.5327734338874786, 3.9346256861125215]
      },
      {
        "species": [{ "element": "Al", "occu": 1 }],
        "abc": [0.56384002, 0.43615998, 0.93615998],
        "properties": { "magmom": 0.0 },
        "label": "Al",
        "xyz": [3.9346256861125215, 3.0436403938874785, 6.5327734338874786]
      },
      {
        "species": [{ "element": "Al", "occu": 1 }],
        "abc": [0.93615998, 0.56384002, 0.43615998],
        "properties": { "magmom": 0.0 },
        "label": "Al",
        "xyz": [6.5327734338874786, 3.9346256861125215, 3.0436403938874785]
      },
      {
        "species": [{ "element": "Au", "occu": 1 }],
        "abc": [0.68242053, 0.68242053, 0.68242053],
        "properties": { "magmom": 0.0 },
        "label": "Au",
        "xyz": [4.762112036794623, 4.762112036794623, 4.762112036794623]
      },
      {
        "species": [{ "element": "Au", "occu": 1 }],
        "abc": [0.81757947, 0.31757947000000003, 0.18242053],
        "properties": { "magmom": 0.0 },
        "label": "Au",
        "xyz": [5.705287083205377, 2.216154043205378, 1.2729789967946223]
      },
      {
        "species": [{ "element": "Au", "occu": 1 }],
        "abc": [0.18242053, 0.81757947, 0.31757947000000003],
        "properties": { "magmom": 0.0 },
        "label": "Au",
        "xyz": [1.2729789967946223, 5.705287083205377, 2.216154043205378]
      },
      {
        "species": [{ "element": "Au", "occu": 1 }],
        "abc": [0.31757947000000003, 0.18242053, 0.81757947],
        "properties": { "magmom": 0.0 },
        "label": "Au",
        "xyz": [2.216154043205378, 1.2729789967946223, 5.705287083205377]
      },
      {
        "species": [{ "element": "Au", "occu": 1 }],
        "abc": [0.78460692, 0.94867446, 0.38714184],
        "properties": { "magmom": -0.0 },
        "label": "Au",
        "xyz": [5.4751958559692735, 6.620102805180317, 2.701578770220787]
      },
      {
        "species": [{ "element": "Au", "occu": 1 }],
        "abc": [0.38714184, 0.78460692, 0.94867446],
        "properties": { "magmom": -0.0 },
        "label": "Au",
        "xyz": [2.701578770220787, 5.4751958559692735, 6.620102805180317]
      },
      {
        "species": [{ "element": "Au", "occu": 1 }],
        "abc": [0.94867446, 0.38714184, 0.78460692],
        "properties": { "magmom": -0.0 },
        "label": "Au",
        "xyz": [6.620102805180317, 2.701578770220787, 5.4751958559692735]
      },
      {
        "species": [{ "element": "Au", "occu": 1 }],
        "abc": [0.55132554, 0.61285816, 0.28460692],
        "properties": { "magmom": -0.0 },
        "label": "Au",
        "xyz": [3.8472963148196833, 4.276687309779213, 1.9860628159692735]
      },
      {
        "species": [{ "element": "Au", "occu": 1 }],
        "abc": [0.8871418400000001, 0.71539308, 0.05132554],
        "properties": { "magmom": -0.0 },
        "label": "Au",
        "xyz": [6.190711810220788, 4.992203264030726, 0.35816327481968324]
      },
      {
        "species": [{ "element": "Au", "occu": 1 }],
        "abc": [0.05132554, 0.8871418400000001, 0.71539308],
        "properties": { "magmom": -0.0 },
        "label": "Au",
        "xyz": [0.35816327481968324, 6.190711810220788, 4.992203264030726]
      },
      {
        "species": [{ "element": "Au", "occu": 1 }],
        "abc": [0.11285816, 0.21539308000000001, 0.44867446],
        "properties": { "magmom": -0.0 },
        "label": "Au",
        "xyz": [0.7875542697792128, 1.5030702240307265, 3.1309697651803168]
      },
      {
        "species": [{ "element": "Au", "occu": 1 }],
        "abc": [0.61285816, 0.28460692, 0.55132554],
        "properties": { "magmom": -0.0 },
        "label": "Au",
        "xyz": [4.276687309779213, 1.9860628159692735, 3.8472963148196833]
      },
      {
        "species": [{ "element": "Au", "occu": 1 }],
        "abc": [0.44867446, 0.11285816, 0.21539308000000001],
        "properties": { "magmom": -0.0 },
        "label": "Au",
        "xyz": [3.1309697651803168, 0.7875542697792128, 1.5030702240307265]
      },
      {
        "species": [{ "element": "Au", "occu": 1 }],
        "abc": [0.28460692, 0.55132554, 0.61285816],
        "properties": { "magmom": -0.0 },
        "label": "Au",
        "xyz": [1.9860628159692735, 3.8472963148196833, 4.276687309779213]
      },
      {
        "species": [{ "element": "Au", "occu": 1 }],
        "abc": [0.21539308000000001, 0.44867446, 0.11285816],
        "properties": { "magmom": -0.0 },
        "label": "Au",
        "xyz": [1.5030702240307265, 3.1309697651803168, 0.7875542697792128]
      },
      {
        "species": [{ "element": "Au", "occu": 1 }],
        "abc": [0.71539308, 0.05132554, 0.8871418400000001],
        "properties": { "magmom": -0.0 },
        "label": "Au",
        "xyz": [4.992203264030726, 0.35816327481968324, 6.190711810220788]
      }
    ]
  },
  "task_ids": null,
  "uncorrected_energy_per_atom": null,
  "energy_per_atom": -42.038732592500004,
  "formation_energy_per_atom": -0.22434480649999902,
  "energy_above_hull": 0.0,
  "is_stable": true,
  "equilibrium_reaction_energy_per_atom": null,
  "decomposes_to": null,
  "xas": null,
  "grain_boundaries": null,
  "band_gap": 0.0,
  "cbm": null,
  "vbm": null,
  "efermi": 6.10231464,
  "is_gap_direct": null,
  "is_metal": null,
  "es_source_calc_id": null,
  "bandstructure": null,
  "dos": null,
  "dos_energy_up": null,
  "dos_energy_down": null,
  "is_magnetic": null,
  "ordering": null,
  "total_magnetization": 0.0,
  "total_magnetization_normalized_vol": null,
  "total_magnetization_normalized_formula_units": null,
  "num_magnetic_sites": null,
  "num_unique_magnetic_sites": null,
  "types_of_magnetic_species": null,
  "bulk_modulus": null,
  "shear_modulus": null,
  "universal_anisotropy": null,
  "homogeneous_poisson": null,
  "e_total": null,
  "e_ionic": null,
  "e_electronic": null,
  "n": null,
  "e_ij_max": null,
  "weighted_surface_energy_EV_PER_ANG2": null,
  "weighted_surface_energy": null,
  "weighted_work_function": null,
  "surface_anisotropy": null,
  "shape_factor": null,
  "has_reconstructed": null,
  "possible_species": null,
  "has_props": null,
  "theoretical": null,
  "database_IDs": null,
  "fields_not_requested": [
    "builder_meta",
    "nsites",
    "elements",
    "nelements",
    "composition",
    "composition_reduced",
    "chemsys",
    "symmetry",
    "property_name",
    "deprecated",
    "deprecation_reasons",
    "last_updated",
    "origins",
    "warnings",
    "task_ids",
    "uncorrected_energy_per_atom",
    "equilibrium_reaction_energy_per_atom",
    "decomposes_to",
    "xas",
    "grain_boundaries",
    "cbm",
    "vbm",
    "is_gap_direct",
    "is_metal",
    "es_source_calc_id",
    "bandstructure",
    "dos",
    "dos_energy_up",
    "dos_energy_down",
    "is_magnetic",
    "ordering",
    "total_magnetization_normalized_vol",
    "total_magnetization_normalized_formula_units",
    "num_magnetic_sites",
    "num_unique_magnetic_sites",
    "types_of_magnetic_species",
    "bulk_modulus",
    "shear_modulus",
    "universal_anisotropy",
    "homogeneous_poisson",
    "e_total",
    "e_ionic",
    "e_electronic",
    "n",
    "e_ij_max",
    "weighted_surface_energy_EV_PER_ANG2",
    "weighted_surface_energy",
    "weighted_work_function",
    "surface_anisotropy",
    "shape_factor",
    "has_reconstructed",
    "possible_species",
    "has_props",
    "theoretical",
    "database_IDs"
  ]
}
