{"builder_meta": null, "nsites": null, "elements": null, "nelements": null, "composition": null, "composition_reduced": null, "formula_pretty": "AlAu", "formula_anonymous": "AB", "chemsys": null, "volume": 137.65589293772447, "density": 10.805918253835348, "density_atomic": 17.20698661721556, "symmetry": null, "property_name": null, "material_id": "mp-1399", "deprecated": null, "deprecation_reasons": null, "last_updated": null, "origins": null, "warnings": null, "structure": {"@module": "pymatgen.core.structure", "@class": "Structure", "charge": 0, "lattice": {"matrix": [[3.50319356, 0.0, 0.0], [0.0, 6.26429281, -0.25320959], [0.0, 0.08716368000000001, 6.26923607]], "pbc": [true, true, true], "a": 3.50319356, "b": 6.269408226131527, "c": 6.269841976357951, "alpha": 91.51814353554566, "beta": 90.0, "gamma": 90.0, "volume": 137.65589293772445}, "properties": {}, "sites": [{"species": [{"element": "Al", "occu": 1}], "abc": [0.25, 0.56215558, 0.8235219500000001], "properties": {"magmom": -0.0}, "label": "Al", "xyz": [0.87579839, 3.5932883616181557, 5.020510329448725]}, {"species": [{"element": "Al", "occu": 1}], "abc": [0.75, 0.43784442, 0.17647805], "properties": {"magmom": -0.0}, "label": "Al", "xyz": [2.6273951700000002, 2.758168128381844, 0.9955161505512756]}, {"species": [{"element": "Al", "occu": 1}], "abc": [0.25, 0.92165436, 0.32204925], "properties": {"magmom": 0.0}, "label": "Al", "xyz": [0.87579839, 5.8015837784243915, 1.785631051799135]}, {"species": [{"element": "Al", "occu": 1}], "abc": [0.75, 0.07834564000000001, 0.67795075], "properties": {"magmom": 0.0}, "label": "Al", "xyz": [2.6273951700000002, 0.5498727115756085, 4.230395428200866]}, {"species": [{"element": "Au", "occu": 1}], "abc": [0.25, 0.31108381, 0.4852491], "properties": {"magmom": -0.0}, "label": "Au", "xyz": [0.87579839, 1.991016171563094, 2.9633717566692988]}, {"species": [{"element": "Au", "occu": 1}], "abc": [0.75, 0.68891619, 0.5147509], "properties": {"magmom": -0.0}, "label": "Au", "xyz": [2.6273951700000002, 4.360440318436906, 3.052654723330701]}, {"species": [{"element": "Au", "occu": 1}], "abc": [0.25, 0.18680419, -9.595000000000001e-05], "properties": {"magmom": 0.0}, "label": "Au", "xyz": [0.87579839, 1.1701877809397778, -0.0479021455610986]}, {"species": [{"element": "Au", "occu": 1}], "abc": [0.75, 0.81319581, 9.595000000000001e-05], "properties": {"magmom": 0.0}, "label": "Au", "xyz": [2.6273951700000002, 5.094105029060221, -0.2053074444389014]}]}, "task_ids": null, "uncorrected_energy_per_atom": null, "energy_per_atom": -29.0815104525, "formation_energy_per_atom": -0.42298121250000104, "energy_above_hull": 0.0, "is_stable": true, "equilibrium_reaction_energy_per_atom": null, "decomposes_to": null, "xas": null, "grain_boundaries": null, "band_gap": 0.0, "cbm": null, "vbm": null, "efermi": 6.82747208, "is_gap_direct": null, "is_metal": null, "es_source_calc_id": null, "bandstructure": null, "dos": null, "dos_energy_up": null, "dos_energy_down": null, "is_magnetic": null, "ordering": null, "total_magnetization": 0.0, "total_magnetization_normalized_vol": null, "total_magnetization_normalized_formula_units": null, "num_magnetic_sites": null, "num_unique_magnetic_sites": null, "types_of_magnetic_species": null, "bulk_modulus": null, "shear_modulus": null, "universal_anisotropy": null, "homogeneous_poisson": null, "e_total": null, "e_ionic": null, "e_electronic": null, "n": null, "e_ij_max": null, "weighted_surface_energy_EV_PER_ANG2": null, "weighted_surface_energy": null, "weighted_work_function": null, "surface_anisotropy": null, "shape_factor": null, "has_reconstructed": null, "possible_species": null, "has_props": null, "theoretical": null, "database_IDs": null, "fields_not_requested": ["builder_meta", "nsites", "elements", "nelements", "composition", "composition_reduced", "chemsys", "symmetry", "property_name", "deprecated", "deprecation_reasons", "last_updated", "origins", "warnings", "task_ids", "uncorrected_energy_per_atom", "equilibrium_reaction_energy_per_atom", "decomposes_to", "xas", "grain_boundaries", "cbm", "vbm", "is_gap_direct", "is_metal", "es_source_calc_id", "bandstructure", "dos", "dos_energy_up", "dos_energy_down", "is_magnetic", "ordering", "total_magnetization_normalized_vol", "total_magnetization_normalized_formula_units", "num_magnetic_sites", "num_unique_magnetic_sites", "types_of_magnetic_species", "bulk_modulus", "shear_modulus", "universal_anisotropy", "homogeneous_poisson", "e_total", "e_ionic", "e_electronic", "n", "e_ij_max", "weighted_surface_energy_EV_PER_ANG2", "weighted_surface_energy", "weighted_work_function", "surface_anisotropy", "shape_factor", "has_reconstructed", "possible_species", "has_props", "theoretical", "database_IDs"]}