{"builder_meta": null, "nsites": null, "elements": null, "nelements": null, "composition": null, "composition_reduced": null, "formula_pretty": "AlAu2", "formula_anonymous": "AB2", "chemsys": null, "volume": 197.5750765689593, "density": 14.150474368271912, "density_atomic": 16.464589714079942, "symmetry": null, "property_name": null, "material_id": "mp-569558", "deprecated": null, "deprecation_reasons": null, "last_updated": null, "origins": null, "warnings": null, "structure": {"@module": "pymatgen.core.structure", "@class": "Structure", "charge": 0, "lattice": {"matrix": [[3.23188208, -0.0, 0.0], [-0.0, 6.84537976, 0.0], [0.0, 0.0, 8.9305685]], "pbc": [true, true, true], "a": 3.23188208, "b": 6.84537976, "c": 8.9305685, "alpha": 90.0, "beta": 90.0, "gamma": 90.0, "volume": 197.5750765689593}, "properties": {}, "sites": [{"species": [{"element": "Al", "occu": 1}], "abc": [0.75, 0.36680575, 0.72276392], "properties": {"magmom": 0.0}, "label": "Al", "xyz": [2.42391156, 2.51092465690162, 6.45469269688852]}, {"species": [{"element": "Al", "occu": 1}], "abc": [0.25, 0.63319425, 0.27723608], "properties": {"magmom": 0.0}, "label": "Al", "xyz": [0.80797052, 4.33445510309838, 2.47587580311148]}, {"species": [{"element": "Al", "occu": 1}], "abc": [0.25, 0.13319425000000001, 0.22276392], "properties": {"magmom": 0.0}, "label": "Al", "xyz": [0.80797052, 0.9117652230983802, 1.98940844688852]}, {"species": [{"element": "Al", "occu": 1}], "abc": [0.75, 0.86680575, 0.77723608], "properties": {"magmom": 0.0}, "label": "Al", "xyz": [2.42391156, 5.93361453690162, 6.94116005311148]}, {"species": [{"element": "Au", "occu": 1}], "abc": [0.75, 0.85076253, 0.07673052], "properties": {"magmom": 0.0}, "label": "Au", "xyz": [2.42391156, 5.823792603428393, 0.68524716490062]}, {"species": [{"element": "Au", "occu": 1}], "abc": [0.75, 0.41459118, 0.11554183], "properties": {"magmom": -0.0}, "label": "Au", "xyz": [2.42391156, 2.8380340722465167, 1.031854227430355]}, {"species": [{"element": "Au", "occu": 1}], "abc": [0.25, 0.58540882, 0.88445817], "properties": {"magmom": -0.0}, "label": "Au", "xyz": [0.80797052, 4.007345687753483, 7.898714272569645]}, {"species": [{"element": "Au", "occu": 1}], "abc": [0.25, 0.08540882, 0.6155418300000001], "properties": {"magmom": -0.0}, "label": "Au", "xyz": [0.80797052, 0.5846558077534831, 5.497138477430355]}, {"species": [{"element": "Au", "occu": 1}], "abc": [0.75, 0.35076253, 0.42326948000000003], "properties": {"magmom": 0.0}, "label": "Au", "xyz": [2.42391156, 2.401102723428393, 3.78003708509938]}, {"species": [{"element": "Au", "occu": 1}], "abc": [0.25, 0.64923747, 0.57673052], "properties": {"magmom": 0.0}, "label": "Au", "xyz": [0.80797052, 4.4442770365716076, 5.15053141490062]}, {"species": [{"element": "Au", "occu": 1}], "abc": [0.75, 0.9145911800000001, 0.38445817], "properties": {"magmom": -0.0}, "label": "Au", "xyz": [2.42391156, 6.260723952246518, 3.433430022569645]}, {"species": [{"element": "Au", "occu": 1}], "abc": [0.25, 0.14923747, 0.92326948], "properties": {"magmom": 0.0}, "label": "Au", "xyz": [0.80797052, 1.0215871565716073, 8.24532133509938]}]}, "task_ids": null, "uncorrected_energy_per_atom": null, "energy_per_atom": -36.30065281416667, "formation_energy_per_atom": -0.333313270833334, "energy_above_hull": 0.0, "is_stable": true, "equilibrium_reaction_energy_per_atom": null, "decomposes_to": null, "xas": null, "grain_boundaries": null, "band_gap": 0.0, "cbm": null, "vbm": null, "efermi": 6.64562572, "is_gap_direct": null, "is_metal": null, "es_source_calc_id": null, "bandstructure": null, "dos": null, "dos_energy_up": null, "dos_energy_down": null, "is_magnetic": null, "ordering": null, "total_magnetization": 0.0, "total_magnetization_normalized_vol": null, "total_magnetization_normalized_formula_units": null, "num_magnetic_sites": null, "num_unique_magnetic_sites": null, "types_of_magnetic_species": null, "bulk_modulus": null, "shear_modulus": null, "universal_anisotropy": null, "homogeneous_poisson": null, "e_total": null, "e_ionic": null, "e_electronic": null, "n": null, "e_ij_max": null, "weighted_surface_energy_EV_PER_ANG2": null, "weighted_surface_energy": null, "weighted_work_function": null, "surface_anisotropy": null, "shape_factor": null, "has_reconstructed": null, "possible_species": null, "has_props": null, "theoretical": null, "database_IDs": null, "fields_not_requested": ["builder_meta", "nsites", "elements", "nelements", "composition", "composition_reduced", "chemsys", "symmetry", "property_name", "deprecated", "deprecation_reasons", "last_updated", "origins", "warnings", "task_ids", "uncorrected_energy_per_atom", "equilibrium_reaction_energy_per_atom", "decomposes_to", "xas", "grain_boundaries", "cbm", "vbm", "is_gap_direct", "is_metal", "es_source_calc_id", "bandstructure", "dos", "dos_energy_up", "dos_energy_down", "is_magnetic", "ordering", "total_magnetization_normalized_vol", "total_magnetization_normalized_formula_units", "num_magnetic_sites", "num_unique_magnetic_sites", "types_of_magnetic_species", "bulk_modulus", "shear_modulus", "universal_anisotropy", "homogeneous_poisson", "e_total", "e_ionic", "e_electronic", "n", "e_ij_max", "weighted_surface_energy_EV_PER_ANG2", "weighted_surface_energy", "weighted_work_function", "surface_anisotropy", "shape_factor", "has_reconstructed", "possible_species", "has_props", "theoretical", "database_IDs"]}