{"builder_meta": null, "nsites": null, "elements": null, "nelements": null, "composition": null, "composition_reduced": null, "formula_pretty": "AlBr3", "formula_anonymous": "AB3", "chemsys": null, "volume": 563.9352311657797, "density": 3.141176611644674, "density_atomic": 35.24595194786123, "symmetry": null, "property_name": null, "material_id": "mp-23288", "deprecated": null, "deprecation_reasons": null, "last_updated": null, "origins": null, "warnings": null, "structure": {"@module": "pymatgen.core.structure", "@class": "Structure", "charge": 0, "lattice": {"matrix": [[7.19501765, 0.0, 0.0], [0.0, 7.5247052, -0.88882225], [0.0, -0.04267004, 10.42120576]], "pbc": [true, true, true], "a": 7.19501765, "b": 7.5770174434933235, "c": 10.421293116718806, "alpha": 96.97119204651702, "beta": 90.0, "gamma": 90.0, "volume": 563.9352311657796}, "properties": {}, "sites": [{"species": [{"element": "Al", "occu": 1}], "abc": [0.09174784, 0.8028363, 0.44906921], "properties": {"magmom": -0.0}, "label": "Al", "xyz": [0.6601273281493759, 6.021944680205291, 3.9662638713429743]}, {"species": [{"element": "Al", "occu": 1}], "abc": [0.59174784, 0.1971637, 0.050930790000000004], "properties": {"magmom": -0.0}, "label": "Al", "xyz": [4.257636153149376, 1.4814254997947083, 0.35551675865702537]}, {"species": [{"element": "Al", "occu": 1}], "abc": [0.90825216, 0.1971637, 0.55093079], "properties": {"magmom": -0.0}, "label": "Al", "xyz": [6.534890321850623, 1.4600904797947083, 5.566119638657025]}, {"species": [{"element": "Al", "occu": 1}], "abc": [0.40825216000000003, 0.8028363, 0.94906921], "properties": {"magmom": -0.0}, "label": "Al", "xyz": [2.937381496850624, 6.000609660205291, 9.176866751342974]}, {"species": [{"element": "Br", "occu": 1}], "abc": [0.91760631, 0.59675709, 0.33235413], "properties": {"magmom": 0.0}, "label": "Br", "xyz": [6.602193596201372, 4.476239614238603, 2.9331197944785363]}, {"species": [{"element": "Br", "occu": 1}], "abc": [0.41760631000000004, 0.40324291, 0.16764587], "properties": {"magmom": 0.0}, "label": "Br", "xyz": [3.004684771201372, 3.027130565761397, 1.3886608355214636]}, {"species": [{"element": "Br", "occu": 1}], "abc": [0.08239369, 0.40324291, 0.66764587], "properties": {"magmom": 0.0}, "label": "Br", "xyz": [0.5928240537986285, 3.005795545761397, 6.599263715521463]}, {"species": [{"element": "Br", "occu": 1}], "abc": [0.58239369, 0.59675709, 0.83235413], "properties": {"magmom": 0.0}, "label": "Br", "xyz": [4.190332878798628, 4.454904594238602, 8.143722674478536]}, {"species": [{"element": "Br", "occu": 1}], "abc": [0.39058598, 0.7502664, 0.48999463], "properties": {"magmom": 0.0}, "label": "Br", "xyz": [2.8102730199425467, 5.624625391003394, 4.439481390777669]}, {"species": [{"element": "Br", "occu": 1}], "abc": [0.89058598, 0.2497336, 0.01000537], "properties": {"magmom": 0.0}, "label": "Br", "xyz": [6.407781844942547, 1.8787447889966051, -0.1177007607776688]}, {"species": [{"element": "Br", "occu": 1}], "abc": [0.60941402, 0.2497336, 0.51000537], "properties": {"magmom": 0.0}, "label": "Br", "xyz": [4.384744630057453, 1.8574097689966051, 5.092902119222331]}, {"species": [{"element": "Br", "occu": 1}], "abc": [0.10941402, 0.7502664, 0.98999463], "properties": {"magmom": 0.0}, "label": "Br", "xyz": [0.7872358050574529, 5.6032903710033946, 9.650084270777668]}, {"species": [{"element": "Br", "occu": 1}], "abc": [0.0667137, 0.07982016, 0.35403892000000003], "properties": {"magmom": -0.0}, "label": "Br", "xyz": [0.480006248996805, 0.5855163181388752, 3.618566498161619]}, {"species": [{"element": "Br", "occu": 1}], "abc": [0.5667137, 0.92017984, 0.14596108], "properties": {"magmom": -0.0}, "label": "Br", "xyz": [4.077515073996804, 6.917853861861124, 0.7032141318383806]}, {"species": [{"element": "Br", "occu": 1}], "abc": [0.9332863, 0.92017984, 0.64596108], "properties": {"magmom": -0.0}, "label": "Br", "xyz": [6.715011401003195, 6.896518841861124, 5.91381701183838]}, {"species": [{"element": "Br", "occu": 1}], "abc": [0.433286299999999, 0.07982016, 0.85403892], "properties": {"magmom": -0.0}, "label": "Br", "xyz": [3.117502576003188, 0.5641812981388752, 8.82916937816162]}]}, "task_ids": null, "uncorrected_energy_per_atom": null, "energy_per_atom": -3.682154145624999, "formation_energy_per_atom": -1.518050286874999, "energy_above_hull": 0.0, "is_stable": true, "equilibrium_reaction_energy_per_atom": null, "decomposes_to": null, "xas": null, "grain_boundaries": null, "band_gap": 4.0992, "cbm": null, "vbm": null, "efermi": -1.98872775, "is_gap_direct": null, "is_metal": null, "es_source_calc_id": null, "bandstructure": null, "dos": null, "dos_energy_up": null, "dos_energy_down": null, "is_magnetic": null, "ordering": null, "total_magnetization": 0.0, "total_magnetization_normalized_vol": null, "total_magnetization_normalized_formula_units": null, "num_magnetic_sites": null, "num_unique_magnetic_sites": null, "types_of_magnetic_species": null, "bulk_modulus": null, "shear_modulus": null, "universal_anisotropy": null, "homogeneous_poisson": null, "e_total": null, "e_ionic": null, "e_electronic": null, "n": null, "e_ij_max": null, "weighted_surface_energy_EV_PER_ANG2": null, "weighted_surface_energy": null, "weighted_work_function": null, "surface_anisotropy": null, "shape_factor": null, "has_reconstructed": null, "possible_species": null, "has_props": null, "theoretical": null, "database_IDs": null, "fields_not_requested": ["builder_meta", "nsites", "elements", "nelements", "composition", "composition_reduced", "chemsys", "symmetry", "property_name", "deprecated", "deprecation_reasons", "last_updated", "origins", "warnings", "task_ids", "uncorrected_energy_per_atom", "equilibrium_reaction_energy_per_atom", "decomposes_to", "xas", "grain_boundaries", "cbm", "vbm", "is_gap_direct", "is_metal", "es_source_calc_id", "bandstructure", "dos", "dos_energy_up", "dos_energy_down", "is_magnetic", "ordering", "total_magnetization_normalized_vol", "total_magnetization_normalized_formula_units", "num_magnetic_sites", "num_unique_magnetic_sites", "types_of_magnetic_species", "bulk_modulus", "shear_modulus", "universal_anisotropy", "homogeneous_poisson", "e_total", "e_ionic", "e_electronic", "n", "e_ij_max", "weighted_surface_energy_EV_PER_ANG2", "weighted_surface_energy", "weighted_work_function", "surface_anisotropy", "shape_factor", "has_reconstructed", "possible_species", "has_props", "theoretical", "database_IDs"]}