{
  "builder_meta": null,
  "nsites": null,
  "elements": null,
  "nelements": null,
  "composition": null,
  "composition_reduced": null,
  "formula_pretty": "AlBr4",
  "formula_anonymous": "AB4",
  "chemsys": null,
  "volume": 1710.474625184601,
  "density": 2.018873866090543,
  "density_atomic": 57.0158208394867,
  "symmetry": null,
  "property_name": null,
  "material_id": "mp-39008",
  "deprecated": null,
  "deprecation_reasons": null,
  "last_updated": null,
  "origins": null,
  "warnings": null,
  "structure": {
    "@module": "pymatgen.core.structure",
    "@class": "Structure",
    "charge": 0,
    "lattice": {
      "matrix": [
        [0.0, 9.492098, 9.492098],
        [9.492098, 0.0, 9.492098],
        [9.492098, 9.492098, 0.0]
      ],
      "pbc": [true, true, true],
      "a": 13.423853726974531,
      "b": 13.423853726974531,
      "c": 13.423853726974531,
      "alpha": 59.99999999999999,
      "beta": 59.99999999999999,
      "gamma": 59.99999999999999,
      "volume": 1710.474625184601
    },
    "properties": {},
    "sites": [
      {
        "species": [{ "element": "Al", "occu": 1 }],
        "abc": [0.75, 0.25, 0.25],
        "properties": { "magmom": -0.007 },
        "label": "Al",
        "xyz": [4.746049, 9.492098, 9.492098]
      },
      {
        "species": [{ "element": "Al", "occu": 1 }],
        "abc": [0.75, 0.75, 0.25],
        "properties": { "magmom": -0.007 },
        "label": "Al",
        "xyz": [9.492098, 9.492098, 14.238147000000001]
      },
      {
        "species": [{ "element": "Al", "occu": 1 }],
        "abc": [0.25, 0.75, 0.75],
        "properties": { "magmom": -0.007 },
        "label": "Al",
        "xyz": [14.238147000000001, 9.492098, 9.492098]
      },
      {
        "species": [{ "element": "Al", "occu": 1 }],
        "abc": [0.75, 0.25, 0.75],
        "properties": { "magmom": -0.007 },
        "label": "Al",
        "xyz": [9.492098, 14.238147000000001, 9.492098]
      },
      {
        "species": [{ "element": "Al", "occu": 1 }],
        "abc": [0.25, 0.25, 0.75],
        "properties": { "magmom": -0.007 },
        "label": "Al",
        "xyz": [9.492098, 9.492098, 4.746049]
      },
      {
        "species": [{ "element": "Al", "occu": 1 }],
        "abc": [0.25, 0.75, 0.25],
        "properties": { "magmom": -0.007 },
        "label": "Al",
        "xyz": [9.492098, 4.746049, 9.492098]
      },
      {
        "species": [{ "element": "Br", "occu": 1 }],
        "abc": [0.28197, 0.919748999999999, 0.080251],
        "properties": { "magmom": 0.215 },
        "label": "Br",
        "xyz": [9.492097999999991, 3.438237229658, 11.406834516461991]
      },
      {
        "species": [{ "element": "Br", "occu": 1 }],
        "abc": [0.080251, 0.919748999999999, 0.7180300000000001],
        "properties": { "magmom": 0.184 },
        "label": "Br",
        "xyz": [15.545958770341992, 7.5773614835380005, 9.492097999999991]
      },
      {
        "species": [{ "element": "Br", "occu": 1 }],
        "abc": [0.7180300000000001, 0.919748999999999, 0.28197],
        "properties": { "magmom": 0.166 },
        "label": "Br",
        "xyz": [11.406834516461991, 9.492098, 15.545958770341992]
      },
      {
        "species": [{ "element": "Br", "occu": 1 }],
        "abc": [0.919748999999999, 0.080251, 0.28197],
        "properties": { "magmom": 0.184 },
        "label": "Br",
        "xyz": [3.438237229658, 11.406834516461991, 9.492097999999991]
      },
      {
        "species": [{ "element": "Br", "occu": 1 }],
        "abc": [0.080251, 0.28197, 0.919748999999999],
        "properties": { "magmom": 0.136 },
        "label": "Br",
        "xyz": [11.406834516461991, 9.492097999999991, 3.438237229658]
      },
      {
        "species": [{ "element": "Br", "occu": 1 }],
        "abc": [0.7180300000000001, 0.080251, 0.919748999999999],
        "properties": { "magmom": 0.215 },
        "label": "Br",
        "xyz": [9.492097999999991, 15.545958770341992, 7.5773614835380005]
      },
      {
        "species": [{ "element": "Br", "occu": 1 }],
        "abc": [0.919748999999999, 0.28197, 0.7180300000000001],
        "properties": { "magmom": 0.185 },
        "label": "Br",
        "xyz": [9.492098, 15.545958770341992, 11.406834516461991]
      },
      {
        "species": [{ "element": "Br", "occu": 1 }],
        "abc": [0.21803000000000003, 0.78197, 0.419749],
        "properties": { "magmom": 0.215 },
        "label": "Br",
        "xyz": [11.406834516462002, 6.053860770342, 9.492098000000002]
      },
      {
        "species": [{ "element": "Br", "occu": 1 }],
        "abc": [0.919748999999999, 0.7180300000000001, 0.080251],
        "properties": { "magmom": 0.136 },
        "label": "Br",
        "xyz": [7.5773614835380005, 9.492097999999991, 15.545958770341992]
      },
      {
        "species": [{ "element": "Br", "occu": 1 }],
        "abc": [0.28197, 0.7180300000000001, 0.919748999999999],
        "properties": { "magmom": 0.215 },
        "label": "Br",
        "xyz": [15.545958770341992, 11.406834516461991, 9.492098]
      },
      {
        "species": [{ "element": "Br", "occu": 1 }],
        "abc": [0.419749, 0.21803000000000003, 0.78197],
        "properties": { "magmom": 0.136 },
        "label": "Br",
        "xyz": [9.492098000000002, 11.406834516462002, 6.053860770342]
      },
      {
        "species": [{ "element": "Br", "occu": 1 }],
        "abc": [0.78197, 0.419749, 0.21803000000000003],
        "properties": { "magmom": 0.215 },
        "label": "Br",
        "xyz": [6.053860770342, 9.492098000000002, 11.406834516462002]
      },
      {
        "species": [{ "element": "Br", "occu": 1 }],
        "abc": [0.28197, 0.080251, 0.7180300000000001],
        "properties": { "magmom": 0.166 },
        "label": "Br",
        "xyz": [7.5773614835380005, 9.492098, 3.438237229658]
      },
      {
        "species": [{ "element": "Br", "occu": 1 }],
        "abc": [0.7180300000000001, 0.28197, 0.080251],
        "properties": { "magmom": 0.215 },
        "label": "Br",
        "xyz": [3.438237229658, 7.5773614835380005, 9.492098]
      },
      {
        "species": [{ "element": "Br", "occu": 1 }],
        "abc": [0.580251, 0.78197, 0.21803000000000003],
        "properties": { "magmom": 0.136 },
        "label": "Br",
        "xyz": [9.492098000000002, 7.577361483538, 12.930335229658]
      },
      {
        "species": [{ "element": "Br", "occu": 1 }],
        "abc": [0.419749, 0.78197, 0.580251],
        "properties": { "magmom": 0.185 },
        "label": "Br",
        "xyz": [12.930335229658, 9.492097999999999, 11.406834516462002]
      },
      {
        "species": [{ "element": "Br", "occu": 1 }],
        "abc": [0.080251, 0.7180300000000001, 0.28197],
        "properties": { "magmom": 0.185 },
        "label": "Br",
        "xyz": [9.492098, 3.438237229658, 7.5773614835380005]
      },
      {
        "species": [{ "element": "Br", "occu": 1 }],
        "abc": [0.78197, 0.21803000000000003, 0.580251],
        "properties": { "magmom": 0.215 },
        "label": "Br",
        "xyz": [7.577361483538, 12.930335229658, 9.492098000000002]
      },
      {
        "species": [{ "element": "Br", "occu": 1 }],
        "abc": [0.580251, 0.419749, 0.78197],
        "properties": { "magmom": 0.184 },
        "label": "Br",
        "xyz": [11.406834516462002, 12.930335229658, 9.492097999999999]
      },
      {
        "species": [{ "element": "Br", "occu": 1 }],
        "abc": [0.580251, 0.21803000000000003, 0.419749],
        "properties": { "magmom": 0.185 },
        "label": "Br",
        "xyz": [6.053860770342, 9.492097999999999, 7.577361483538]
      },
      {
        "species": [{ "element": "Br", "occu": 1 }],
        "abc": [0.21803000000000003, 0.419749, 0.580251],
        "properties": { "magmom": 0.166 },
        "label": "Br",
        "xyz": [9.492097999999999, 7.577361483538, 6.053860770342]
      },
      {
        "species": [{ "element": "Br", "occu": 1 }],
        "abc": [0.21803000000000003, 0.580251, 0.78197],
        "properties": { "magmom": 0.215 },
        "label": "Br",
        "xyz": [12.930335229658, 9.492098000000002, 7.577361483538]
      },
      {
        "species": [{ "element": "Br", "occu": 1 }],
        "abc": [0.78197, 0.580251, 0.419749],
        "properties": { "magmom": 0.166 },
        "label": "Br",
        "xyz": [9.492097999999999, 11.406834516462002, 12.930335229658]
      },
      {
        "species": [{ "element": "Br", "occu": 1 }],
        "abc": [0.419749, 0.580251, 0.21803000000000003],
        "properties": { "magmom": 0.184 },
        "label": "Br",
        "xyz": [7.577361483538, 6.053860770342, 9.492097999999999]
      }
    ]
  },
  "task_ids": null,
  "uncorrected_energy_per_atom": null,
  "energy_per_atom": -3.2383247049999992,
  "formation_energy_per_atom": -1.179652310999999,
  "energy_above_hull": 0.0347879185,
  "is_stable": false,
  "equilibrium_reaction_energy_per_atom": null,
  "decomposes_to": null,
  "xas": null,
  "grain_boundaries": null,
  "band_gap": 0.0,
  "cbm": null,
  "vbm": null,
  "efermi": -3.66755224,
  "is_gap_direct": null,
  "is_metal": null,
  "es_source_calc_id": null,
  "bandstructure": null,
  "dos": null,
  "dos_energy_up": null,
  "dos_energy_down": null,
  "is_magnetic": null,
  "ordering": null,
  "total_magnetization": 5.9616929,
  "total_magnetization_normalized_vol": null,
  "total_magnetization_normalized_formula_units": null,
  "num_magnetic_sites": null,
  "num_unique_magnetic_sites": null,
  "types_of_magnetic_species": null,
  "bulk_modulus": null,
  "shear_modulus": null,
  "universal_anisotropy": null,
  "homogeneous_poisson": null,
  "e_total": null,
  "e_ionic": null,
  "e_electronic": null,
  "n": null,
  "e_ij_max": null,
  "weighted_surface_energy_EV_PER_ANG2": null,
  "weighted_surface_energy": null,
  "weighted_work_function": null,
  "surface_anisotropy": null,
  "shape_factor": null,
  "has_reconstructed": null,
  "possible_species": null,
  "has_props": null,
  "theoretical": null,
  "database_IDs": null,
  "fields_not_requested": [
    "builder_meta",
    "nsites",
    "elements",
    "nelements",
    "composition",
    "composition_reduced",
    "chemsys",
    "symmetry",
    "property_name",
    "deprecated",
    "deprecation_reasons",
    "last_updated",
    "origins",
    "warnings",
    "task_ids",
    "uncorrected_energy_per_atom",
    "equilibrium_reaction_energy_per_atom",
    "decomposes_to",
    "xas",
    "grain_boundaries",
    "cbm",
    "vbm",
    "is_gap_direct",
    "is_metal",
    "es_source_calc_id",
    "bandstructure",
    "dos",
    "dos_energy_up",
    "dos_energy_down",
    "is_magnetic",
    "ordering",
    "total_magnetization_normalized_vol",
    "total_magnetization_normalized_formula_units",
    "num_magnetic_sites",
    "num_unique_magnetic_sites",
    "types_of_magnetic_species",
    "bulk_modulus",
    "shear_modulus",
    "universal_anisotropy",
    "homogeneous_poisson",
    "e_total",
    "e_ionic",
    "e_electronic",
    "n",
    "e_ij_max",
    "weighted_surface_energy_EV_PER_ANG2",
    "weighted_surface_energy",
    "weighted_work_function",
    "surface_anisotropy",
    "shape_factor",
    "has_reconstructed",
    "possible_species",
    "has_props",
    "theoretical",
    "database_IDs"
  ]
}
