{
  "builder_meta": null,
  "nsites": null,
  "elements": null,
  "nelements": null,
  "composition": null,
  "composition_reduced": null,
  "formula_pretty": "AlC",
  "formula_anonymous": "AB",
  "chemsys": null,
  "volume": 1959.7385122292021,
  "density": 0.9911751249278271,
  "density_atomic": 32.66230853715337,
  "symmetry": null,
  "property_name": null,
  "material_id": "mp-1120783",
  "deprecated": null,
  "deprecation_reasons": null,
  "last_updated": null,
  "origins": null,
  "warnings": null,
  "structure": {
    "@module": "pymatgen.core.structure",
    "@class": "Structure",
    "charge": 0,
    "lattice": {
      "matrix": [
        [29.969771, 0.0, 0.0],
        [0.0, 8.06643, 0.0],
        [0.0, 0.051463999999999004, 8.106499]
      ],
      "pbc": [true, true, true],
      "a": 29.969771,
      "b": 8.06643,
      "c": 8.106662357610375,
      "alpha": 89.63626340000454,
      "beta": 90.0,
      "gamma": 90.0,
      "volume": 1959.7385122292021
    },
    "properties": {},
    "sites": [
      {
        "species": [{ "element": "Al", "occu": 1 }],
        "abc": [0.302548, 0.5, 0.5],
        "properties": { "magmom": 0.001 },
        "label": "Al",
        "xyz": [9.067294276508, 4.058947, 4.0532495]
      },
      {
        "species": [{ "element": "Al", "occu": 1 }],
        "abc": [0.304087999999999, 0.169093, 0.497384999999999],
        "properties": { "magmom": 0.002 },
        "label": "Al",
        "xyz": [9.11344772384797, 1.3895742696299995, 4.032051005114992]
      },
      {
        "species": [{ "element": "Al", "occu": 1 }],
        "abc": [0.304087999999999, 0.830907, 0.502614999999999],
        "properties": { "magmom": 0.002 },
        "label": "Al",
        "xyz": [9.11344772384797, 6.72831973037, 4.074447994884992]
      },
      {
        "species": [{ "element": "Al", "occu": 1 }],
        "abc": [0.30303599999999903, 0.5, 0.0],
        "properties": { "magmom": 0.005 },
        "label": "Al",
        "xyz": [9.081919524755971, 4.033215, 0.0]
      },
      {
        "species": [{ "element": "Al", "occu": 1 }],
        "abc": [0.303513, 0.165823, 0.997764],
        "properties": { "magmom": 0.002 },
        "label": "Al",
        "xyz": [9.096215105523, 1.3889485483859991, 8.088372868236]
      },
      {
        "species": [{ "element": "Al", "occu": 1 }],
        "abc": [0.303513, 0.834177, 0.002235999999999],
        "properties": { "magmom": 0.002 },
        "label": "Al",
        "xyz": [9.096215105523, 6.728945451614, 0.018126131763991894]
      },
      {
        "species": [{ "element": "Al", "occu": 1 }],
        "abc": [0.346916, 0.332716, 0.745537999999999],
        "properties": { "magmom": -0.0 },
        "label": "Al",
        "xyz": [10.396993076236, 2.7221986915119993, 6.043703051461992]
      },
      {
        "species": [{ "element": "Al", "occu": 1 }],
        "abc": [0.347576999999999, 0.999555, 0.748311],
        "properties": { "magmom": -0.001 },
        "label": "Al",
        "xyz": [10.416803094866971, 8.101351515953999, 6.066182373188999]
      },
      {
        "species": [{ "element": "Al", "occu": 1 }],
        "abc": [0.351251, 0.663315, 0.748000999999999],
        "properties": { "magmom": -0.001 },
        "label": "Al",
        "xyz": [10.526912033521, 5.389079138913999, 6.063669358498991]
      },
      {
        "species": [{ "element": "Al", "occu": 1 }],
        "abc": [0.351251, 0.336685, 0.251999],
        "properties": { "magmom": -0.001 },
        "label": "Al",
        "xyz": [10.526912033521, 2.7288148610859997, 2.0428296415009997]
      },
      {
        "species": [{ "element": "Al", "occu": 1 }],
        "abc": [0.347576999999999, 0.000445, 0.251689],
        "properties": { "magmom": -0.001 },
        "label": "Al",
        "xyz": [10.416803094866971, 0.01654248404599975, 2.040316626811]
      },
      {
        "species": [{ "element": "Al", "occu": 1 }],
        "abc": [0.346916, 0.667284, 0.254461999999999],
        "properties": { "magmom": -0.0 },
        "label": "Al",
        "xyz": [10.396993076236, 5.3956953084879995, 2.062795948537992]
      },
      {
        "species": [{ "element": "Al", "occu": 1 }],
        "abc": [0.399171999999999, 0.5, 0.5],
        "properties": { "magmom": -0.001 },
        "label": "Al",
        "xyz": [11.963093429611972, 4.058947, 4.0532495]
      },
      {
        "species": [{ "element": "Al", "occu": 1 }],
        "abc": [0.400661999999999, 0.16924, 0.498506],
        "properties": { "magmom": 0.0 },
        "label": "Al",
        "xyz": [12.007748388401971, 1.3908177259839996, 4.041138390494]
      },
      {
        "species": [{ "element": "Al", "occu": 1 }],
        "abc": [0.400661999999999, 0.83076, 0.501494],
        "properties": { "magmom": 0.0 },
        "label": "Al",
        "xyz": [12.007748388401971, 6.727076274016, 4.0653606095059995]
      },
      {
        "species": [{ "element": "Al", "occu": 1 }],
        "abc": [0.396920999999999, 0.5, 0.0],
        "properties": { "magmom": 0.002 },
        "label": "Al",
        "xyz": [11.89563147509097, 4.033215, 0.0]
      },
      {
        "species": [{ "element": "Al", "occu": 1 }],
        "abc": [0.394648, 0.168143, 0.000432],
        "properties": { "magmom": 0.0 },
        "label": "Al",
        "xyz": [11.827510185608, 1.356335971938, 0.0035020075679999996]
      },
      {
        "species": [{ "element": "Al", "occu": 1 }],
        "abc": [0.394648, 0.831857, 0.9995679999999991],
        "properties": { "magmom": 0.0 },
        "label": "Al",
        "xyz": [11.827510185608, 6.761558028062, 8.102996992431992]
      },
      {
        "species": [{ "element": "Al", "occu": 1 }],
        "abc": [0.441646999999999, 0.342543999999999, 0.765488],
        "properties": { "magmom": -0.001 },
        "label": "Al",
        "xyz": [13.23605945283697, 2.8025022723519912, 6.205427706511999]
      },
      {
        "species": [{ "element": "Al", "occu": 1 }],
        "abc": [0.441758999999999, 0.997204, 0.758636],
        "properties": { "magmom": -0.0 },
        "label": "Al",
        "xyz": [13.239416067188971, 8.082918704824, 6.149881975363999]
      },
      {
        "species": [{ "element": "Al", "occu": 1 }],
        "abc": [0.458563, 0.673759, 0.736174],
        "properties": { "magmom": -0.001 },
        "label": "Al",
        "xyz": [13.743028099073001, 5.472716269105999, 5.967793794825999]
      },
      {
        "species": [{ "element": "Al", "occu": 1 }],
        "abc": [0.458563, 0.326241, 0.263826],
        "properties": { "magmom": -0.001 },
        "label": "Al",
        "xyz": [13.743028099073001, 2.645177730894, 2.138705205174]
      },
      {
        "species": [{ "element": "Al", "occu": 1 }],
        "abc": [0.441758999999999, 0.002796, 0.241364],
        "properties": { "magmom": -0.0 },
        "label": "Al",
        "xyz": [13.239416067188971, 0.03497529517599976, 1.9566170246359997]
      },
      {
        "species": [{ "element": "Al", "occu": 1 }],
        "abc": [0.441646999999999, 0.657455999999999, 0.234512],
        "properties": { "magmom": -0.001 },
        "label": "Al",
        "xyz": [13.23605945283697, 5.315391727647992, 1.9010712934879999]
      },
      {
        "species": [{ "element": "Al", "occu": 1 }],
        "abc": [0.499621999999999, 0.5, 0.5],
        "properties": { "magmom": -0.001 },
        "label": "Al",
        "xyz": [14.97355692656197, 4.058947, 4.0532495]
      },
      {
        "species": [{ "element": "Al", "occu": 1 }],
        "abc": [0.500037, 0.175770999999999, 0.57535],
        "properties": { "magmom": 0.0 },
        "label": "Al",
        "xyz": [14.985994381527, 1.4474542799299916, 4.66407419965]
      },
      {
        "species": [{ "element": "Al", "occu": 1 }],
        "abc": [0.500037, 0.824229, 0.42465],
        "properties": { "magmom": 0.0 },
        "label": "Al",
        "xyz": [14.985994381527, 6.67043972007, 3.44242480035]
      },
      {
        "species": [{ "element": "Al", "occu": 1 }],
        "abc": [0.507622999999999, 0.5, 0.0],
        "properties": { "magmom": 0.003 },
        "label": "Al",
        "xyz": [15.213345064332973, 4.033215, 0.0]
      },
      {
        "species": [{ "element": "Al", "occu": 1 }],
        "abc": [0.491758, 0.167353, 0.000967],
        "properties": { "magmom": 0.0 },
        "label": "Al",
        "xyz": [14.737874647418, 1.349991025478, 0.007838984532999999]
      },
      {
        "species": [{ "element": "Al", "occu": 1 }],
        "abc": [0.491758, 0.832646999999999, 0.999033],
        "properties": { "magmom": 0.0 },
        "label": "Al",
        "xyz": [14.737874647418, 6.767902974521992, 8.098660015466999]
      },
      {
        "species": [{ "element": "C", "occu": 1 }],
        "abc": [0.556024, 0.031145, 0.588345999999999],
        "properties": { "magmom": 0.0 },
        "label": "C",
        "xyz": [16.663911950504, 0.2815076008939994, 4.769426260653992]
      },
      {
        "species": [{ "element": "C", "occu": 1 }],
        "abc": [0.55693, 0.431477, 0.799964999999999],
        "properties": { "magmom": 0.0 },
        "label": "C",
        "xyz": [16.69106456303, 3.521648415869999, 6.484915472534992]
      },
      {
        "species": [{ "element": "C", "occu": 1 }],
        "abc": [0.560647999999999, 0.828523999999999, 0.987022],
        "properties": { "magmom": -0.001 },
        "label": "C",
        "xyz": [16.802492171607973, 6.734026949527992, 8.001292855977999]
      },
      {
        "species": [{ "element": "C", "occu": 1 }],
        "abc": [0.560404, 0.227581999999999, 0.181926],
        "properties": { "magmom": 0.028 },
        "label": "C",
        "xyz": [16.795179547484, 1.845136911923992, 1.474782937074]
      },
      {
        "species": [{ "element": "C", "occu": 1 }],
        "abc": [0.554565, 0.627081999999999, 0.379498],
        "properties": { "magmom": 0.001 },
        "label": "C",
        "xyz": [16.620186054615, 5.077843542331992, 3.076400157502]
      },
      {
        "species": [{ "element": "C", "occu": 1 }],
        "abc": [0.554565, 0.37291799999999903, 0.620502],
        "properties": { "magmom": 0.001 },
        "label": "C",
        "xyz": [16.620186054615, 3.040050457667992, 5.030098842498]
      },
      {
        "species": [{ "element": "C", "occu": 1 }],
        "abc": [0.560404, 0.772417999999999, 0.818074],
        "properties": { "magmom": 0.028 },
        "label": "C",
        "xyz": [16.795179547484, 6.272757088075991, 6.6317160629259995]
      },
      {
        "species": [{ "element": "C", "occu": 1 }],
        "abc": [0.560647999999999, 0.171476, 0.012978],
        "properties": { "magmom": -0.001 },
        "label": "C",
        "xyz": [16.802492171607973, 1.383867050472, 0.10520614402199999]
      },
      {
        "species": [{ "element": "C", "occu": 1 }],
        "abc": [0.55693, 0.568523, 0.200035],
        "properties": { "magmom": 0.0 },
        "label": "C",
        "xyz": [16.69106456303, 4.59624558413, 1.621583527465]
      },
      {
        "species": [{ "element": "C", "occu": 1 }],
        "abc": [0.556024, 0.968854999999999, 0.411653999999999],
        "properties": { "magmom": 0.001 },
        "label": "C",
        "xyz": [16.663911950504, 7.836386399105992, 3.337072739345992]
      },
      {
        "species": [{ "element": "C", "occu": 1 }],
        "abc": [0.581576, 0.5, 0.5],
        "properties": { "magmom": -0.001 },
        "label": "C",
        "xyz": [17.429699539096, 4.058947, 4.0532495]
      },
      {
        "species": [{ "element": "C", "occu": 1 }],
        "abc": [0.5815, 0.900694999999999, 0.699923],
        "properties": { "magmom": -0.002 },
        "label": "C",
        "xyz": [17.427421836500002, 7.301414006121991, 5.673925099577]
      },
      {
        "species": [{ "element": "C", "occu": 1 }],
        "abc": [0.585177, 0.300435, 0.900554],
        "properties": { "magmom": 0.0 },
        "label": "C",
        "xyz": [17.537620684467, 2.4697840081059996, 7.300340100445999]
      },
      {
        "species": [{ "element": "C", "occu": 1 }],
        "abc": [0.585177, 0.699565, 0.09944599999999901],
        "properties": { "magmom": 0.001 },
        "label": "C",
        "xyz": [17.537620684467, 5.648109991894, 0.8061588995539919]
      },
      {
        "species": [{ "element": "C", "occu": 1 }],
        "abc": [0.5815, 0.099304999999999, 0.300077],
        "properties": { "magmom": -0.002 },
        "label": "C",
        "xyz": [17.427421836500002, 0.8164799938779917, 2.432573900423]
      },
      {
        "species": [{ "element": "C", "occu": 1 }],
        "abc": [0.582923, 0.201652, 0.601823],
        "properties": { "magmom": -0.001 },
        "label": "C",
        "xyz": [17.470068820633, 1.6575839612319996, 4.8786775476769995]
      },
      {
        "species": [{ "element": "C", "occu": 1 }],
        "abc": [0.583899, 0.600626, 0.801281999999999],
        "properties": { "magmom": -0.002 },
        "label": "C",
        "xyz": [17.499319317129, 4.886144762028, 6.495591731717992]
      },
      {
        "species": [{ "element": "C", "occu": 1 }],
        "abc": [0.585185, 0.0, 0.0],
        "properties": { "magmom": 0.001 },
        "label": "C",
        "xyz": [17.537860442635, 0.0, 0.0]
      },
      {
        "species": [{ "element": "C", "occu": 1 }],
        "abc": [0.583899, 0.399374, 0.198717999999999],
        "properties": { "magmom": -0.002 },
        "label": "C",
        "xyz": [17.499319317129, 3.231749237972, 1.6109072682819918]
      },
      {
        "species": [{ "element": "C", "occu": 1 }],
        "abc": [0.582923, 0.798348, 0.398177],
        "properties": { "magmom": -0.001 },
        "label": "C",
        "xyz": [17.470068820633, 6.460310038767999, 3.227821452323]
      },
      {
        "species": [{ "element": "C", "occu": 1 }],
        "abc": [0.601714, 0.620064, 0.62595],
        "properties": { "magmom": -0.0 },
        "label": "C",
        "xyz": [18.033230787494, 5.03391674232, 5.07426304905]
      },
      {
        "species": [{ "element": "C", "occu": 1 }],
        "abc": [0.603638, 0.021922, 0.824496999999999],
        "properties": { "magmom": 0.002 },
        "label": "C",
        "xyz": [18.090892626898, 0.21926419206799916, 6.683784106002991]
      },
      {
        "species": [{ "element": "C", "occu": 1 }],
        "abc": [0.605924999999999, 0.420222, 0.026941],
        "properties": { "magmom": 0.001 },
        "label": "C",
        "xyz": [18.159433493174973, 3.3910778390839997, 0.21839718955899998]
      },
      {
        "species": [{ "element": "C", "occu": 1 }],
        "abc": [0.603861, 0.818275, 0.22932000000000002],
        "properties": { "magmom": -0.001 },
        "label": "C",
        "xyz": [18.097575885831, 6.61235973273, 1.85898235068]
      },
      {
        "species": [{ "element": "C", "occu": 1 }],
        "abc": [0.601494, 0.220784999999999, 0.42854000000000003],
        "properties": { "magmom": -0.001 },
        "label": "C",
        "xyz": [18.026637437874, 1.8030011301099915, 3.47395908146]
      },
      {
        "species": [{ "element": "C", "occu": 1 }],
        "abc": [0.601494, 0.779215, 0.5714600000000001],
        "properties": { "magmom": -0.001 },
        "label": "C",
        "xyz": [18.026637437874, 6.31489286989, 4.63253991854]
      },
      {
        "species": [{ "element": "C", "occu": 1 }],
        "abc": [0.603861, 0.181725, 0.77068],
        "properties": { "magmom": -0.001 },
        "label": "C",
        "xyz": [18.097575885831, 1.5055342672699994, 6.24751664932]
      },
      {
        "species": [{ "element": "C", "occu": 1 }],
        "abc": [0.605924999999999, 0.579778, 0.973059],
        "properties": { "magmom": 0.001 },
        "label": "C",
        "xyz": [18.159433493174973, 4.726816160915999, 7.8881018104409995]
      },
      {
        "species": [{ "element": "C", "occu": 1 }],
        "abc": [0.603638, 0.978078, 0.175503],
        "properties": { "magmom": 0.001 },
        "label": "C",
        "xyz": [18.090892626898, 7.898629807932, 1.4227148939969998]
      },
      {
        "species": [{ "element": "C", "occu": 1 }],
        "abc": [0.601714, 0.379936, 0.37405000000000005],
        "properties": { "magmom": -0.0 },
        "label": "C",
        "xyz": [18.033230787494, 3.08397725768, 3.03223595095]
      }
    ]
  },
  "task_ids": null,
  "uncorrected_energy_per_atom": null,
  "energy_per_atom": -5.947493436333334,
  "formation_energy_per_atom": 0.539627224916665,
  "energy_above_hull": 0.619492242729167,
  "is_stable": false,
  "equilibrium_reaction_energy_per_atom": null,
  "decomposes_to": null,
  "xas": null,
  "grain_boundaries": null,
  "band_gap": 0.0,
  "cbm": null,
  "vbm": null,
  "efermi": 0.07192782,
  "is_gap_direct": null,
  "is_metal": null,
  "es_source_calc_id": null,
  "bandstructure": null,
  "dos": null,
  "dos_energy_up": null,
  "dos_energy_down": null,
  "is_magnetic": null,
  "ordering": null,
  "total_magnetization": 0.1126311,
  "total_magnetization_normalized_vol": null,
  "total_magnetization_normalized_formula_units": null,
  "num_magnetic_sites": null,
  "num_unique_magnetic_sites": null,
  "types_of_magnetic_species": null,
  "bulk_modulus": null,
  "shear_modulus": null,
  "universal_anisotropy": null,
  "homogeneous_poisson": null,
  "e_total": null,
  "e_ionic": null,
  "e_electronic": null,
  "n": null,
  "e_ij_max": null,
  "weighted_surface_energy_EV_PER_ANG2": null,
  "weighted_surface_energy": null,
  "weighted_work_function": null,
  "surface_anisotropy": null,
  "shape_factor": null,
  "has_reconstructed": null,
  "possible_species": null,
  "has_props": null,
  "theoretical": null,
  "database_IDs": null,
  "fields_not_requested": [
    "builder_meta",
    "nsites",
    "elements",
    "nelements",
    "composition",
    "composition_reduced",
    "chemsys",
    "symmetry",
    "property_name",
    "deprecated",
    "deprecation_reasons",
    "last_updated",
    "origins",
    "warnings",
    "task_ids",
    "uncorrected_energy_per_atom",
    "equilibrium_reaction_energy_per_atom",
    "decomposes_to",
    "xas",
    "grain_boundaries",
    "cbm",
    "vbm",
    "is_gap_direct",
    "is_metal",
    "es_source_calc_id",
    "bandstructure",
    "dos",
    "dos_energy_up",
    "dos_energy_down",
    "is_magnetic",
    "ordering",
    "total_magnetization_normalized_vol",
    "total_magnetization_normalized_formula_units",
    "num_magnetic_sites",
    "num_unique_magnetic_sites",
    "types_of_magnetic_species",
    "bulk_modulus",
    "shear_modulus",
    "universal_anisotropy",
    "homogeneous_poisson",
    "e_total",
    "e_ionic",
    "e_electronic",
    "n",
    "e_ij_max",
    "weighted_surface_energy_EV_PER_ANG2",
    "weighted_surface_energy",
    "weighted_work_function",
    "surface_anisotropy",
    "shape_factor",
    "has_reconstructed",
    "possible_species",
    "has_props",
    "theoretical",
    "database_IDs"
  ]
}
