{"builder_meta": null, "nsites": null, "elements": null, "nelements": null, "composition": null, "composition_reduced": null, "formula_pretty": "AlC6", "formula_anonymous": "AB6", "chemsys": null, "volume": 153.2701239132273, "density": 1.073068345783191, "density_atomic": 21.895731987603902, "symmetry": null, "property_name": null, "material_id": "mp-1214819", "deprecated": null, "deprecation_reasons": null, "last_updated": null, "origins": null, "warnings": null, "structure": {"@module": "pymatgen.core.structure", "@class": "Structure", "charge": 0, "lattice": {"matrix": [[5.351627, 0.0, 0.0], [0.0, 5.351627, 0.0], [0.0, 0.0, 5.351627]], "pbc": [true, true, true], "a": 5.351627, "b": 5.351627, "c": 5.351627, "alpha": 90.0, "beta": 90.0, "gamma": 90.0, "volume": 153.2701239132273}, "properties": {}, "sites": [{"species": [{"element": "Al", "occu": 1}], "abc": [0.0, 0.0, 0.0], "properties": {"magmom": -0.007}, "label": "Al", "xyz": [0.0, 0.0, 0.0]}, {"species": [{"element": "C", "occu": 1}], "abc": [0.380465999999999, 0.0, 0.0], "properties": {"magmom": 0.298}, "label": "C", "xyz": [2.0361121181819946, 0.0, 0.0]}, {"species": [{"element": "C", "occu": 1}], "abc": [0.619533999999999, 0.0, 0.0], "properties": {"magmom": 0.298}, "label": "C", "xyz": [3.3155148818179945, 0.0, 0.0]}, {"species": [{"element": "C", "occu": 1}], "abc": [0.0, 0.380465999999999, 0.0], "properties": {"magmom": 0.298}, "label": "C", "xyz": [0.0, 2.0361121181819946, 0.0]}, {"species": [{"element": "C", "occu": 1}], "abc": [0.0, 0.619533999999999, 0.0], "properties": {"magmom": 0.298}, "label": "C", "xyz": [0.0, 3.3155148818179945, 0.0]}, {"species": [{"element": "C", "occu": 1}], "abc": [0.0, 0.0, 0.380465999999999], "properties": {"magmom": 0.298}, "label": "C", "xyz": [0.0, 0.0, 2.0361121181819946]}, {"species": [{"element": "C", "occu": 1}], "abc": [0.0, 0.0, 0.619533999999999], "properties": {"magmom": 0.298}, "label": "C", "xyz": [0.0, 0.0, 3.3155148818179945]}]}, "task_ids": null, "uncorrected_energy_per_atom": null, "energy_per_atom": -6.46535662, "formation_energy_per_atom": 1.980010349285713, "energy_above_hull": 2.00282892580357, "is_stable": false, "equilibrium_reaction_energy_per_atom": null, "decomposes_to": null, "xas": null, "grain_boundaries": null, "band_gap": 0.0, "cbm": null, "vbm": null, "efermi": -2.70436129, "is_gap_direct": null, "is_metal": null, "es_source_calc_id": null, "bandstructure": null, "dos": null, "dos_energy_up": null, "dos_energy_down": null, "is_magnetic": null, "ordering": null, "total_magnetization": 3.0000718, "total_magnetization_normalized_vol": null, "total_magnetization_normalized_formula_units": null, "num_magnetic_sites": null, "num_unique_magnetic_sites": null, "types_of_magnetic_species": null, "bulk_modulus": null, "shear_modulus": null, "universal_anisotropy": null, "homogeneous_poisson": null, "e_total": null, "e_ionic": null, "e_electronic": null, "n": null, "e_ij_max": null, "weighted_surface_energy_EV_PER_ANG2": null, "weighted_surface_energy": null, "weighted_work_function": null, "surface_anisotropy": null, "shape_factor": null, "has_reconstructed": null, "possible_species": null, "has_props": null, "theoretical": null, "database_IDs": null, "fields_not_requested": ["builder_meta", "nsites", "elements", "nelements", "composition", "composition_reduced", "chemsys", "symmetry", "property_name", "deprecated", "deprecation_reasons", "last_updated", "origins", "warnings", "task_ids", "uncorrected_energy_per_atom", "equilibrium_reaction_energy_per_atom", "decomposes_to", "xas", "grain_boundaries", "cbm", "vbm", "is_gap_direct", "is_metal", "es_source_calc_id", "bandstructure", "dos", "dos_energy_up", "dos_energy_down", "is_magnetic", "ordering", "total_magnetization_normalized_vol", "total_magnetization_normalized_formula_units", "num_magnetic_sites", "num_unique_magnetic_sites", "types_of_magnetic_species", "bulk_modulus", "shear_modulus", "universal_anisotropy", "homogeneous_poisson", "e_total", "e_ionic", "e_electronic", "n", "e_ij_max", "weighted_surface_energy_EV_PER_ANG2", "weighted_surface_energy", "weighted_work_function", "surface_anisotropy", "shape_factor", "has_reconstructed", "possible_species", "has_props", "theoretical", "database_IDs"]}