{"builder_meta": null, "nsites": null, "elements": null, "nelements": null, "composition": null, "composition_reduced": null, "formula_pretty": "AlCl3", "formula_anonymous": "AB3", "chemsys": null, "volume": 184.0227837044055, "density": 2.40641043516053, "density_atomic": 23.002847963050687, "symmetry": null, "property_name": null, "material_id": "mp-25469", "deprecated": null, "deprecation_reasons": null, "last_updated": null, "origins": null, "warnings": null, "structure": {"@module": "pymatgen.core.structure", "@class": "Structure", "charge": 0, "lattice": {"matrix": [[5.88093768, 0.00059775, -0.92763513], [-3.15786394, 4.96118241, -0.92763513], [0.02183025, 0.03977624, 6.29196582]], "pbc": [true, true, true], "a": 5.953648905315038, "b": 5.953649511287665, "c": 6.292129416114379, "alpha": 98.76475379775628, "beta": 98.76474557705525, "gamma": 119.97155710496942, "volume": 184.02278370440553}, "properties": {}, "sites": [{"species": [{"element": "Al", "occu": 1}], "abc": [0.83339891, 0.16660109, 0.0], "properties": {"magmom": -0.0}, "label": "Al", "xyz": [4.375063477814234, 0.8270365613932794, -0.92763513]}, {"species": [{"element": "Al", "occu": 1}], "abc": [0.16660109, 0.83339891, -0.0], "properties": {"magmom": -0.0}, "label": "Al", "xyz": [-1.651989737814234, 4.134743598606721, -0.92763513]}, {"species": [{"element": "Cl", "occu": 1}], "abc": [0.7888121, 0.7888121, 0.77849366], "properties": {"magmom": -0.0}, "label": "Cl", "xyz": [2.164988226525469, 3.9448777784065747, 3.434795869948555]}, {"species": [{"element": "Cl", "occu": 1}], "abc": [0.211187899999999, 0.211187899999999, 0.22150634], "properties": {"magmom": -0.0}, "label": "Cl", "xyz": [0.5799157634745282, 1.0566786215934207, 1.0018996900514465]}, {"species": [{"element": "Cl", "occu": 1}], "abc": [0.57096181, 0.93030843, 0.22057693], "properties": {"magmom": -0.0}, "label": "Cl", "xyz": [0.42481862762111927, 4.6245448321187865, -0.0047685100069987385]}, {"species": [{"element": "Cl", "occu": 1}], "abc": [0.06969157000000001, 0.42903819, 0.77942307], "properties": {"magmom": -0.0}, "label": "Cl", "xyz": [-0.9279774486186433, 2.159580898676062, 4.441464070006999]}, {"species": [{"element": "Cl", "occu": 1}], "abc": [0.42903819, 0.06969157000000001, 0.77942307], "properties": {"magmom": -0.0}, "label": "Cl", "xyz": [2.320085362378881, 0.3770115678812131, 4.441464070006999]}, {"species": [{"element": "Cl", "occu": 1}], "abc": [0.93030843, 0.57096181, 0.22057693], "properties": {"magmom": -0.0}, "label": "Cl", "xyz": [3.6728814386186435, 2.841975501323938, -0.0047685100069987385]}]}, "task_ids": null, "uncorrected_energy_per_atom": null, "energy_per_atom": -7.990160025, "formation_energy_per_atom": -1.692806269374999, "energy_above_hull": 0.0, "is_stable": true, "equilibrium_reaction_energy_per_atom": null, "decomposes_to": null, "xas": null, "grain_boundaries": null, "band_gap": 5.263, "cbm": null, "vbm": null, "efermi": 0.058886890000000004, "is_gap_direct": null, "is_metal": null, "es_source_calc_id": null, "bandstructure": null, "dos": null, "dos_energy_up": null, "dos_energy_down": null, "is_magnetic": null, "ordering": null, "total_magnetization": 0.0, "total_magnetization_normalized_vol": null, "total_magnetization_normalized_formula_units": null, "num_magnetic_sites": null, "num_unique_magnetic_sites": null, "types_of_magnetic_species": null, "bulk_modulus": null, "shear_modulus": null, "universal_anisotropy": null, "homogeneous_poisson": null, "e_total": null, "e_ionic": null, "e_electronic": null, "n": null, "e_ij_max": null, "weighted_surface_energy_EV_PER_ANG2": null, "weighted_surface_energy": null, "weighted_work_function": null, "surface_anisotropy": null, "shape_factor": null, "has_reconstructed": null, "possible_species": null, "has_props": null, "theoretical": null, "database_IDs": null, "fields_not_requested": ["builder_meta", "nsites", "elements", "nelements", "composition", "composition_reduced", "chemsys", "symmetry", "property_name", "deprecated", "deprecation_reasons", "last_updated", "origins", "warnings", "task_ids", "uncorrected_energy_per_atom", "equilibrium_reaction_energy_per_atom", "decomposes_to", "xas", "grain_boundaries", "cbm", "vbm", "is_gap_direct", "is_metal", "es_source_calc_id", "bandstructure", "dos", "dos_energy_up", "dos_energy_down", "is_magnetic", "ordering", "total_magnetization_normalized_vol", "total_magnetization_normalized_formula_units", "num_magnetic_sites", "num_unique_magnetic_sites", "types_of_magnetic_species", "bulk_modulus", "shear_modulus", "universal_anisotropy", "homogeneous_poisson", "e_total", "e_ionic", "e_electronic", "n", "e_ij_max", "weighted_surface_energy_EV_PER_ANG2", "weighted_surface_energy", "weighted_work_function", "surface_anisotropy", "shape_factor", "has_reconstructed", "possible_species", "has_props", "theoretical", "database_IDs"]}