{
  "builder_meta": null,
  "nsites": null,
  "elements": null,
  "nelements": null,
  "composition": null,
  "composition_reduced": null,
  "formula_pretty": "AlCo3",
  "formula_anonymous": "AB3",
  "chemsys": null,
  "volume": 91.1076286600527,
  "density": 7.428280633580205,
  "density_atomic": 11.388453582506587,
  "symmetry": null,
  "property_name": null,
  "material_id": "mp-1080667",
  "deprecated": null,
  "deprecation_reasons": null,
  "last_updated": null,
  "origins": null,
  "warnings": null,
  "structure": {
    "@module": "pymatgen.core.structure",
    "@class": "Structure",
    "charge": 0,
    "lattice": {
      "matrix": [
        [2.537181, -4.394527, 0.0],
        [2.537181, 4.394527, 0.0],
        [0.0, 0.0, 4.08565]
      ],
      "pbc": [true, true, true],
      "a": 5.074362519616627,
      "b": 5.074362519616627,
      "c": 4.08565,
      "alpha": 90.0,
      "beta": 90.0,
      "gamma": 120.00000677475421,
      "volume": 91.1076286600527
    },
    "properties": {},
    "sites": [
      {
        "species": [{ "element": "Al", "occu": 1 }],
        "abc": [0.333333, 0.666667, 0.75],
        "properties": { "magmom": -0.046 },
        "label": "Al",
        "xyz": [2.537181, 1.464845263018, 3.0642375]
      },
      {
        "species": [{ "element": "Al", "occu": 1 }],
        "abc": [0.666667, 0.333333, 0.25],
        "properties": { "magmom": -0.046 },
        "label": "Al",
        "xyz": [2.537181, -1.464845263018, 1.0214125]
      },
      {
        "species": [{ "element": "Co", "occu": 1 }],
        "abc": [0.835125999999999, 0.164874, 0.75],
        "properties": { "magmom": 1.276 },
        "label": "Co",
        "xyz": [2.5371809999999972, -2.945440510803996, 3.0642375]
      },
      {
        "species": [{ "element": "Co", "occu": 1 }],
        "abc": [0.835125999999999, 0.670252, 0.75],
        "properties": { "magmom": 1.2730000000000001 },
        "label": "Co",
        "xyz": [3.8194164594179973, -0.7245432445979958, 3.0642375]
      },
      {
        "species": [{ "element": "Co", "occu": 1 }],
        "abc": [0.329748, 0.164874, 0.75],
        "properties": { "magmom": 1.274 },
        "label": "Co",
        "xyz": [1.254945540582, -0.724543244598, 3.0642375]
      },
      {
        "species": [{ "element": "Co", "occu": 1 }],
        "abc": [0.164874, 0.835125999999999, 0.25],
        "properties": { "magmom": 1.286 },
        "label": "Co",
        "xyz": [2.5371809999999972, 2.945440510803996, 1.0214125]
      },
      {
        "species": [{ "element": "Co", "occu": 1 }],
        "abc": [0.164874, 0.329748, 0.25],
        "properties": { "magmom": 1.284 },
        "label": "Co",
        "xyz": [1.254945540582, 0.724543244598, 1.0214125]
      },
      {
        "species": [{ "element": "Co", "occu": 1 }],
        "abc": [0.670252, 0.835125999999999, 0.25],
        "properties": { "magmom": 1.2850000000000001 },
        "label": "Co",
        "xyz": [3.8194164594179973, 0.7245432445979958, 1.0214125]
      }
    ]
  },
  "task_ids": null,
  "uncorrected_energy_per_atom": null,
  "energy_per_atom": -11.787057278749998,
  "formation_energy_per_atom": -0.178359348749998,
  "energy_above_hull": 0.099868716249999,
  "is_stable": false,
  "equilibrium_reaction_energy_per_atom": null,
  "decomposes_to": null,
  "xas": null,
  "grain_boundaries": null,
  "band_gap": 0.0,
  "cbm": null,
  "vbm": null,
  "efermi": 6.38813064,
  "is_gap_direct": null,
  "is_metal": null,
  "es_source_calc_id": null,
  "bandstructure": null,
  "dos": null,
  "dos_energy_up": null,
  "dos_energy_down": null,
  "is_magnetic": null,
  "ordering": null,
  "total_magnetization": 7.3962336,
  "total_magnetization_normalized_vol": null,
  "total_magnetization_normalized_formula_units": null,
  "num_magnetic_sites": null,
  "num_unique_magnetic_sites": null,
  "types_of_magnetic_species": null,
  "bulk_modulus": null,
  "shear_modulus": null,
  "universal_anisotropy": null,
  "homogeneous_poisson": null,
  "e_total": null,
  "e_ionic": null,
  "e_electronic": null,
  "n": null,
  "e_ij_max": null,
  "weighted_surface_energy_EV_PER_ANG2": null,
  "weighted_surface_energy": null,
  "weighted_work_function": null,
  "surface_anisotropy": null,
  "shape_factor": null,
  "has_reconstructed": null,
  "possible_species": null,
  "has_props": null,
  "theoretical": null,
  "database_IDs": null,
  "fields_not_requested": [
    "builder_meta",
    "nsites",
    "elements",
    "nelements",
    "composition",
    "composition_reduced",
    "chemsys",
    "symmetry",
    "property_name",
    "deprecated",
    "deprecation_reasons",
    "last_updated",
    "origins",
    "warnings",
    "task_ids",
    "uncorrected_energy_per_atom",
    "equilibrium_reaction_energy_per_atom",
    "decomposes_to",
    "xas",
    "grain_boundaries",
    "cbm",
    "vbm",
    "is_gap_direct",
    "is_metal",
    "es_source_calc_id",
    "bandstructure",
    "dos",
    "dos_energy_up",
    "dos_energy_down",
    "is_magnetic",
    "ordering",
    "total_magnetization_normalized_vol",
    "total_magnetization_normalized_formula_units",
    "num_magnetic_sites",
    "num_unique_magnetic_sites",
    "types_of_magnetic_species",
    "bulk_modulus",
    "shear_modulus",
    "universal_anisotropy",
    "homogeneous_poisson",
    "e_total",
    "e_ionic",
    "e_electronic",
    "n",
    "e_ij_max",
    "weighted_surface_energy_EV_PER_ANG2",
    "weighted_surface_energy",
    "weighted_work_function",
    "surface_anisotropy",
    "shape_factor",
    "has_reconstructed",
    "possible_species",
    "has_props",
    "theoretical",
    "database_IDs"
  ]
}
