{"builder_meta": null, "nsites": null, "elements": null, "nelements": null, "composition": null, "composition_reduced": null, "formula_pretty": "AlCo4", "formula_anonymous": "AB4", "chemsys": null, "volume": 57.43921278387617, "density": 7.594940255047482, "density_atomic": 11.487842556775234, "symmetry": null, "property_name": null, "material_id": "mp-1228933", "deprecated": null, "deprecation_reasons": null, "last_updated": null, "origins": null, "warnings": null, "structure": {"@module": "pymatgen.core.structure", "@class": "Structure", "charge": 0, "lattice": {"matrix": [[10.002101, -1.289337, 0.0], [10.002101, 1.289337, 0.0], [9.835897, 0.0, 2.227003]], "pbc": [true, true, true], "a": 10.084860649199372, "b": 10.084860649199372, "c": 10.084860542249357, "alpha": 14.690592954741321, "beta": 14.690592954741321, "gamma": 14.690596838448021, "volume": 57.43921278387617}, "properties": {}, "sites": [{"species": [{"element": "Al", "occu": 1}], "abc": [0.0, 0.0, 0.0], "properties": {"magmom": -0.026000000000000002}, "label": "Al", "xyz": [0.0, 0.0, 0.0]}, {"species": [{"element": "Co", "occu": 1}], "abc": [0.598855, 0.598855, 0.598855], "properties": {"magmom": 1.363}, "label": "Co", "xyz": [17.869892486645, 0.0, 1.333651881565]}, {"species": [{"element": "Co", "occu": 1}], "abc": [0.200321, 0.200321, 0.200321], "properties": {"magmom": 1.710999999999999}, "label": "Co", "xyz": [5.977598471778999, 0.0, 0.44611546796299995]}, {"species": [{"element": "Co", "occu": 1}], "abc": [0.799678999999999, 0.799678999999999, 0.799678999999999], "properties": {"magmom": 1.710999999999999}, "label": "Co", "xyz": [23.86250052822097, 0.0, 1.7808875320369977]}, {"species": [{"element": "Co", "occu": 1}], "abc": [0.401145, 0.401145, 0.401145], "properties": {"magmom": 1.363}, "label": "Co", "xyz": [11.970206513354999, 0.0, 0.8933511184349999]}]}, "task_ids": null, "uncorrected_energy_per_atom": null, "energy_per_atom": -11.941266715000001, "formation_energy_per_atom": -0.007462145000000001, "energy_above_hull": 0.215120306999999, "is_stable": false, "equilibrium_reaction_energy_per_atom": null, "decomposes_to": null, "xas": null, "grain_boundaries": null, "band_gap": 0.0, "cbm": null, "vbm": null, "efermi": 6.31526745, "is_gap_direct": null, "is_metal": null, "es_source_calc_id": null, "bandstructure": null, "dos": null, "dos_energy_up": null, "dos_energy_down": null, "is_magnetic": null, "ordering": null, "total_magnetization": 5.9617287, "total_magnetization_normalized_vol": null, "total_magnetization_normalized_formula_units": null, "num_magnetic_sites": null, "num_unique_magnetic_sites": null, "types_of_magnetic_species": null, "bulk_modulus": null, "shear_modulus": null, "universal_anisotropy": null, "homogeneous_poisson": null, "e_total": null, "e_ionic": null, "e_electronic": null, "n": null, "e_ij_max": null, "weighted_surface_energy_EV_PER_ANG2": null, "weighted_surface_energy": null, "weighted_work_function": null, "surface_anisotropy": null, "shape_factor": null, "has_reconstructed": null, "possible_species": null, "has_props": null, "theoretical": null, "database_IDs": null, "fields_not_requested": ["builder_meta", "nsites", "elements", "nelements", "composition", "composition_reduced", "chemsys", "symmetry", "property_name", "deprecated", "deprecation_reasons", "last_updated", "origins", "warnings", "task_ids", "uncorrected_energy_per_atom", "equilibrium_reaction_energy_per_atom", "decomposes_to", "xas", "grain_boundaries", "cbm", "vbm", "is_gap_direct", "is_metal", "es_source_calc_id", "bandstructure", "dos", "dos_energy_up", "dos_energy_down", "is_magnetic", "ordering", "total_magnetization_normalized_vol", "total_magnetization_normalized_formula_units", "num_magnetic_sites", "num_unique_magnetic_sites", "types_of_magnetic_species", "bulk_modulus", "shear_modulus", "universal_anisotropy", "homogeneous_poisson", "e_total", "e_ionic", "e_electronic", "n", "e_ij_max", "weighted_surface_energy_EV_PER_ANG2", "weighted_surface_energy", "weighted_work_function", "surface_anisotropy", "shape_factor", "has_reconstructed", "possible_species", "has_props", "theoretical", "database_IDs"]}