{"builder_meta": null, "nsites": null, "elements": null, "nelements": null, "composition": null, "composition_reduced": null, "formula_pretty": "AlCu", "formula_anonymous": "AB", "chemsys": null, "volume": 136.37894603678083, "density": 5.511280106531164, "density_atomic": 13.637894603678083, "symmetry": null, "property_name": null, "material_id": "mp-2500", "deprecated": null, "deprecation_reasons": null, "last_updated": null, "origins": null, "warnings": null, "structure": {"@module": "pymatgen.core.structure", "@class": "Structure", "charge": 0, "lattice": {"matrix": [[3.84030118, -0.00552642, 1.30419935], [1.24431256, 5.61372996, 2.61135311], [-0.013161280000000001, 0.012870630000000001, 6.32454185]], "pbc": [true, true, true], "a": 4.055721839447059, "b": 6.315175601349659, "c": 6.324568640216443, "alpha": 65.48687748493099, "beta": 71.36152754934801, "gamma": 71.43809003412542, "volume": 136.37894603678083}, "properties": {}, "sites": [{"species": [{"element": "Al", "occu": 1}], "abc": [0.5, 0.5, 0.5], "properties": {"magmom": -0.0}, "label": "Al", "xyz": [2.53572623, 2.810537085, 5.120047155]}, {"species": [{"element": "Al", "occu": 1}], "abc": [0.84514971, 0.46048356, 0.84957741], "properties": {"magmom": 0.0}, "label": "Al", "xyz": [3.8074333797964868, 2.591294301099588, 7.677916763304168]}, {"species": [{"element": "Al", "occu": 1}], "abc": [0.15485029, 0.53951644, 0.15042259], "properties": {"magmom": 0.0}, "label": "Al", "xyz": [1.2640190802035134, 3.029779868900412, 2.5621775466958314]}, {"species": [{"element": "Al", "occu": 1}], "abc": [0.62316791, 0.99377092, 0.76059171], "properties": {"magmom": -0.0}, "label": "Al", "xyz": [3.6197037371689, 5.585106993860057, 8.218216066390484]}, {"species": [{"element": "Al", "occu": 1}], "abc": [0.37683209, 0.0062290800000000006, 0.23940829], "properties": {"magmom": -0.0}, "label": "Al", "xyz": [1.4517487228311, 0.03596717613994171, 2.0218782436095166]}, {"species": [{"element": "Cu", "occu": 1}], "abc": [0.0, 0.0, -0.0], "properties": {"magmom": 0.0}, "label": "Cu", "xyz": [0.0, 0.0, 0.0]}, {"species": [{"element": "Cu", "occu": 1}], "abc": [0.73969721, 0.24150696, 0.27583163], "properties": {"magmom": -0.0}, "label": "Cu", "xyz": [3.1375399147458394, 1.3552171062972602, 3.3398812590501743]}, {"species": [{"element": "Cu", "occu": 1}], "abc": [0.26030279, 0.7584930400000001, 0.72416837], "properties": {"magmom": -0.0}, "label": "Cu", "xyz": [1.933912545254161, 4.2658570637027395, 6.900213050949826]}, {"species": [{"element": "Cu", "occu": 1}], "abc": [0.89095358, 0.77254544, 0.44562536], "properties": {"magmom": 0.0}, "label": "Cu", "xyz": [4.37695307862389, 4.3376731774329755, 5.997746256017808]}, {"species": [{"element": "Cu", "occu": 1}], "abc": [0.10904642, 0.22745456, 0.55437464], "properties": {"magmom": 0.0}, "label": "Cu", "xyz": [0.69449938137611, 1.2834009925670242, 4.242348053982193]}]}, "task_ids": null, "uncorrected_energy_per_atom": null, "energy_per_atom": -9.031931255, "formation_energy_per_atom": -0.24248409, "energy_above_hull": 0.0, "is_stable": true, "equilibrium_reaction_energy_per_atom": null, "decomposes_to": null, "xas": null, "grain_boundaries": null, "band_gap": 0.0, "cbm": null, "vbm": null, "efermi": 8.4026492, "is_gap_direct": null, "is_metal": null, "es_source_calc_id": null, "bandstructure": null, "dos": null, "dos_energy_up": null, "dos_energy_down": null, "is_magnetic": null, "ordering": null, "total_magnetization": 0.0, "total_magnetization_normalized_vol": null, "total_magnetization_normalized_formula_units": null, "num_magnetic_sites": null, "num_unique_magnetic_sites": null, "types_of_magnetic_species": null, "bulk_modulus": null, "shear_modulus": null, "universal_anisotropy": null, "homogeneous_poisson": null, "e_total": null, "e_ionic": null, "e_electronic": null, "n": null, "e_ij_max": null, "weighted_surface_energy_EV_PER_ANG2": null, "weighted_surface_energy": null, "weighted_work_function": null, "surface_anisotropy": null, "shape_factor": null, "has_reconstructed": null, "possible_species": null, "has_props": null, "theoretical": null, "database_IDs": null, "fields_not_requested": ["builder_meta", "nsites", "elements", "nelements", "composition", "composition_reduced", "chemsys", "symmetry", "property_name", "deprecated", "deprecation_reasons", "last_updated", "origins", "warnings", "task_ids", "uncorrected_energy_per_atom", "equilibrium_reaction_energy_per_atom", "decomposes_to", "xas", "grain_boundaries", "cbm", "vbm", "is_gap_direct", "is_metal", "es_source_calc_id", "bandstructure", "dos", "dos_energy_up", "dos_energy_down", "is_magnetic", "ordering", "total_magnetization_normalized_vol", "total_magnetization_normalized_formula_units", "num_magnetic_sites", "num_unique_magnetic_sites", "types_of_magnetic_species", "bulk_modulus", "shear_modulus", "universal_anisotropy", "homogeneous_poisson", "e_total", "e_ionic", "e_electronic", "n", "e_ij_max", "weighted_surface_energy_EV_PER_ANG2", "weighted_surface_energy", "weighted_work_function", "surface_anisotropy", "shape_factor", "has_reconstructed", "possible_species", "has_props", "theoretical", "database_IDs"]}