{
  "builder_meta": null,
  "nsites": null,
  "elements": null,
  "nelements": null,
  "composition": null,
  "composition_reduced": null,
  "formula_pretty": "AlF3",
  "formula_anonymous": "AB3",
  "chemsys": null,
  "volume": 85.43418366311855,
  "density": 3.264423327833108,
  "density_atomic": 10.679272957889818,
  "symmetry": null,
  "property_name": null,
  "material_id": "mp-468",
  "deprecated": null,
  "deprecation_reasons": null,
  "last_updated": null,
  "origins": null,
  "warnings": null,
  "structure": {
    "@module": "pymatgen.core.structure",
    "@class": "Structure",
    "charge": 0,
    "lattice": {
      "matrix": [
        [1.49977107, 4.01631768, 7.65552109],
        [-2.77026822, 4.00518636, 5.02070744],
        [-1.47913833, -4.00456564, -2.63668075]
      ],
      "pbc": [true, true, true],
      "a": 8.774230685850716,
      "b": 6.994526930904145,
      "c": 5.017617117892153,
      "alpha": 135.8441151816736,
      "beta": 150.95003079516627,
      "gamma": 34.845401928338525,
      "volume": 85.43418366311855
    },
    "properties": {},
    "sites": [
      {
        "species": [{ "element": "Al", "occu": 1 }],
        "abc": [0.49991311, 0.75013768, 0.00011922],
        "properties": { "magmom": 0.0 },
        "label": "Al",
        "xyz": [-1.3285036985085048, 5.01177364189923, 7.5930028426938145]
      },
      {
        "species": [{ "element": "Al", "occu": 1 }],
        "abc": [0.4999865, 0.24996728000000001, -0.00016565000000000001],
        "properties": { "magmom": -0.0 },
        "label": "Al",
        "xyz": [0.0576338955310778, 3.0099335163118868, 5.083106544084086]
      },
      {
        "species": [{ "element": "F", "occu": 1 }],
        "abc": [0.41281156, -0.00027007, 0.825163],
        "properties": { "magmom": 0.0 },
        "label": "F",
        "xyz": [-0.6006592204100454, -1.6475187109431841, 0.9832402636052295]
      },
      {
        "species": [{ "element": "F", "occu": 1 }],
        "abc": [1.4680000000000002e-5, 0.91197287, 0.4117825],
        "properties": { "magmom": 0.0 },
        "label": "F",
        "xyz": [-3.135470721997109, 2.0036702085042952, 3.4931223655998798]
      },
      {
        "species": [{ "element": "F", "occu": 1 }],
        "abc": [0.41180985000000003, 0.08818844, 0.41163447000000003],
        "properties": { "magmom": 0.0 },
        "label": "F",
        "xyz": [-0.23554945585857234, 0.35875306354921555, 2.5100386654892777]
      },
      {
        "species": [{ "element": "F", "occu": 1 }],
        "abc": [0.5876363, 0.50026991, 0.17574064],
        "properties": { "magmom": 0.0 },
        "label": "F",
        "xyz": [-0.7645066274361505, 3.6600433524546014, 6.546998984564016]
      },
      {
        "species": [{ "element": "F", "occu": 1 }],
        "abc": [4.1400000000000003e-5, 0.58739818, 0.58782109],
        "properties": { "magmom": 0.0 },
        "label": "F",
        "xyz": [-2.4966571254189214, -0.0011626855045712148, 1.3995747986945675]
      },
      {
        "species": [{ "element": "F", "occu": 1 }],
        "abc": [0.58778759, 0.41233672, 0.58790473],
        "properties": { "magmom": -0.0 },
        "label": "F",
        "xyz": [-1.130328909099318, 1.657924015121253, 5.019925245149523]
      }
    ]
  },
  "task_ids": null,
  "uncorrected_energy_per_atom": null,
  "energy_per_atom": -7.89331495125,
  "formation_energy_per_atom": -3.86576940625,
  "energy_above_hull": 0.0,
  "is_stable": true,
  "equilibrium_reaction_energy_per_atom": null,
  "decomposes_to": null,
  "xas": null,
  "grain_boundaries": null,
  "band_gap": 7.6012,
  "cbm": null,
  "vbm": null,
  "efermi": -1.03805805,
  "is_gap_direct": null,
  "is_metal": null,
  "es_source_calc_id": null,
  "bandstructure": null,
  "dos": null,
  "dos_energy_up": null,
  "dos_energy_down": null,
  "is_magnetic": null,
  "ordering": null,
  "total_magnetization": 0.0,
  "total_magnetization_normalized_vol": null,
  "total_magnetization_normalized_formula_units": null,
  "num_magnetic_sites": null,
  "num_unique_magnetic_sites": null,
  "types_of_magnetic_species": null,
  "bulk_modulus": null,
  "shear_modulus": null,
  "universal_anisotropy": null,
  "homogeneous_poisson": null,
  "e_total": null,
  "e_ionic": null,
  "e_electronic": null,
  "n": null,
  "e_ij_max": null,
  "weighted_surface_energy_EV_PER_ANG2": null,
  "weighted_surface_energy": null,
  "weighted_work_function": null,
  "surface_anisotropy": null,
  "shape_factor": null,
  "has_reconstructed": null,
  "possible_species": null,
  "has_props": null,
  "theoretical": null,
  "database_IDs": null,
  "fields_not_requested": [
    "builder_meta",
    "nsites",
    "elements",
    "nelements",
    "composition",
    "composition_reduced",
    "chemsys",
    "symmetry",
    "property_name",
    "deprecated",
    "deprecation_reasons",
    "last_updated",
    "origins",
    "warnings",
    "task_ids",
    "uncorrected_energy_per_atom",
    "equilibrium_reaction_energy_per_atom",
    "decomposes_to",
    "xas",
    "grain_boundaries",
    "cbm",
    "vbm",
    "is_gap_direct",
    "is_metal",
    "es_source_calc_id",
    "bandstructure",
    "dos",
    "dos_energy_up",
    "dos_energy_down",
    "is_magnetic",
    "ordering",
    "total_magnetization_normalized_vol",
    "total_magnetization_normalized_formula_units",
    "num_magnetic_sites",
    "num_unique_magnetic_sites",
    "types_of_magnetic_species",
    "bulk_modulus",
    "shear_modulus",
    "universal_anisotropy",
    "homogeneous_poisson",
    "e_total",
    "e_ionic",
    "e_electronic",
    "n",
    "e_ij_max",
    "weighted_surface_energy_EV_PER_ANG2",
    "weighted_surface_energy",
    "weighted_work_function",
    "surface_anisotropy",
    "shape_factor",
    "has_reconstructed",
    "possible_species",
    "has_props",
    "theoretical",
    "database_IDs"
  ]
}
