{"builder_meta": null, "nsites": null, "elements": null, "nelements": null, "composition": null, "composition_reduced": null, "formula_pretty": "AlFe4", "formula_anonymous": "AB4", "chemsys": null, "volume": 59.77457445723904, "density": 6.955049356592048, "density_atomic": 11.954914891447809, "symmetry": null, "property_name": null, "material_id": "mp-1228952", "deprecated": null, "deprecation_reasons": null, "last_updated": null, "origins": null, "warnings": null, "structure": {"@module": "pymatgen.core.structure", "@class": "Structure", "charge": 0, "lattice": {"matrix": [[-1.49191, -1.44296, 1.44296], [-1.49191, 1.44296, -1.44296], [-1.49191, -6.9416, -6.9416]], "pbc": [true, true, true], "a": 2.5278573083344718, "b": 2.5278573083344718, "c": 9.929623183590603, "alpha": 84.91262952407392, "beta": 84.91262952407392, "gamma": 107.65935813972432, "volume": 59.77457445723904}, "properties": {}, "sites": [{"species": [{"element": "Al", "occu": 1}], "abc": [0.0, 0.0, 0.0], "properties": {"magmom": -0.052000000000000005}, "label": "Al", "xyz": [0.0, 0.0, 0.0]}, {"species": [{"element": "Fe", "occu": 1}], "abc": [0.399495, 0.399495, 0.20101000000000002], "properties": {"magmom": 2.055}, "label": "Fe", "xyz": [-1.4919099999999998, -1.395331016, -1.395331016]}, {"species": [{"element": "Fe", "occu": 1}], "abc": [0.800226999999999, 0.800226999999999, 0.399545999999999], "properties": {"magmom": 2.444}, "label": "Fe", "xyz": [-2.9838199999999957, -2.773488513599993, -2.773488513599993]}, {"species": [{"element": "Fe", "occu": 1}], "abc": [0.199772999999999, 0.199772999999999, 0.600453999999999], "properties": {"magmom": 2.444}, "label": "Fe", "xyz": [-1.4919099999999956, -4.168111486399994, -4.168111486399994]}, {"species": [{"element": "Fe", "occu": 1}], "abc": [0.600505, 0.600505, 0.7989900000000001], "properties": {"magmom": 2.055}, "label": "Fe", "xyz": [-2.98382, -5.546268984000001, -5.546268984000001]}]}, "task_ids": null, "uncorrected_energy_per_atom": null, "energy_per_atom": -7.587939629999999, "formation_energy_per_atom": -0.062807495999999, "energy_above_hull": 0.09630704400000101, "is_stable": false, "equilibrium_reaction_energy_per_atom": null, "decomposes_to": null, "xas": null, "grain_boundaries": null, "band_gap": 0.0, "cbm": null, "vbm": null, "efermi": 6.24991897, "is_gap_direct": null, "is_metal": null, "es_source_calc_id": null, "bandstructure": null, "dos": null, "dos_energy_up": null, "dos_energy_down": null, "is_magnetic": null, "ordering": null, "total_magnetization": 8.77058, "total_magnetization_normalized_vol": null, "total_magnetization_normalized_formula_units": null, "num_magnetic_sites": null, "num_unique_magnetic_sites": null, "types_of_magnetic_species": null, "bulk_modulus": null, "shear_modulus": null, "universal_anisotropy": null, "homogeneous_poisson": null, "e_total": null, "e_ionic": null, "e_electronic": null, "n": null, "e_ij_max": null, "weighted_surface_energy_EV_PER_ANG2": null, "weighted_surface_energy": null, "weighted_work_function": null, "surface_anisotropy": null, "shape_factor": null, "has_reconstructed": null, "possible_species": null, "has_props": null, "theoretical": null, "database_IDs": null, "fields_not_requested": ["builder_meta", "nsites", "elements", "nelements", "composition", "composition_reduced", "chemsys", "symmetry", "property_name", "deprecated", "deprecation_reasons", "last_updated", "origins", "warnings", "task_ids", "uncorrected_energy_per_atom", "equilibrium_reaction_energy_per_atom", "decomposes_to", "xas", "grain_boundaries", "cbm", "vbm", "is_gap_direct", "is_metal", "es_source_calc_id", "bandstructure", "dos", "dos_energy_up", "dos_energy_down", "is_magnetic", "ordering", "total_magnetization_normalized_vol", "total_magnetization_normalized_formula_units", "num_magnetic_sites", "num_unique_magnetic_sites", "types_of_magnetic_species", "bulk_modulus", "shear_modulus", "universal_anisotropy", "homogeneous_poisson", "e_total", "e_ionic", "e_electronic", "n", "e_ij_max", "weighted_surface_energy_EV_PER_ANG2", "weighted_surface_energy", "weighted_work_function", "surface_anisotropy", "shape_factor", "has_reconstructed", "possible_species", "has_props", "theoretical", "database_IDs"]}