{
  "builder_meta": null,
  "nsites": null,
  "elements": null,
  "nelements": null,
  "composition": null,
  "composition_reduced": null,
  "formula_pretty": "AlH3",
  "formula_anonymous": "AB3",
  "chemsys": null,
  "volume": 65.66805385043641,
  "density": 1.5174827710326961,
  "density_atomic": 8.208506731304551,
  "symmetry": null,
  "property_name": null,
  "material_id": "mp-23933",
  "deprecated": null,
  "deprecation_reasons": null,
  "last_updated": null,
  "origins": null,
  "warnings": null,
  "structure": {
    "@module": "pymatgen.core.structure",
    "@class": "Structure",
    "charge": 0,
    "lattice": {
      "matrix": [
        [3.88485949, 0.0018655, 2.57303193],
        [1.38299771, 3.63035109, 2.57303193],
        [0.00270588, 0.0018655, 4.65967988]
      ],
      "pbc": [true, true, true],
      "a": 4.659681324933373,
      "b": 4.659680784702849,
      "c": 4.659681039079138,
      "alpha": 56.44929535930358,
      "beta": 56.44929723809896,
      "gamma": 56.44930481299007,
      "volume": 65.66805385043641
    },
    "properties": {},
    "sites": [
      {
        "species": [{ "element": "Al", "occu": 1 }],
        "abc": [0.5, 0.5, 0.5],
        "properties": { "magmom": 0.0 },
        "label": "Al",
        "xyz": [2.63528154, 1.817041045, 4.90287187]
      },
      {
        "species": [{ "element": "Al", "occu": 1 }],
        "abc": [-0.0, -0.0, -0.0],
        "properties": { "magmom": 0.0 },
        "label": "Al",
        "xyz": [0.0, 0.0, 0.0]
      },
      {
        "species": [{ "element": "H", "occu": 1 }],
        "abc": [0.38261977, 0.75, 0.11738023],
        "properties": { "magmom": 0.0 },
        "label": "H",
        "xyz": [2.52398994386287, 2.7236960675, 3.4612211288000285]
      },
      {
        "species": [{ "element": "H", "occu": 1 }],
        "abc": [0.75, 0.11738023, 0.38261977],
        "properties": { "magmom": 0.0 },
        "label": "H",
        "xyz": [3.077016529972521, 0.42824434810588574, 4.014682671199971]
      },
      {
        "species": [{ "element": "H", "occu": 1 }],
        "abc": [0.88261977, 0.61738023, 0.25],
        "properties": { "magmom": 0.0 },
        "label": "H",
        "xyz": [4.283365703835391, 2.2434198931058855, 5.024467865]
      },
      {
        "species": [{ "element": "H", "occu": 1 }],
        "abc": [0.25, 0.88261977, 0.61738023],
        "properties": { "magmom": 0.0 },
        "label": "H",
        "xyz": [2.193546550027479, 3.2058377418941144, 5.791061068800028]
      },
      {
        "species": [{ "element": "H", "occu": 1 }],
        "abc": [0.61738023, 0.25, 0.88261977],
        "properties": { "magmom": 0.0 },
        "label": "H",
        "xyz": [2.74657313613713, 0.9103860225, 6.344522611199972]
      },
      {
        "species": [{ "element": "H", "occu": 1 }],
        "abc": [0.11738023, 0.38261977, 0.75],
        "properties": { "magmom": 0.0 },
        "label": "H",
        "xyz": [0.9871973761646093, 1.3906621968941144, 4.781275875]
      }
    ]
  },
  "task_ids": null,
  "uncorrected_energy_per_atom": null,
  "energy_per_atom": -4.34799096625,
  "formation_energy_per_atom": -0.073632082812499,
  "energy_above_hull": 0.0,
  "is_stable": true,
  "equilibrium_reaction_energy_per_atom": null,
  "decomposes_to": null,
  "xas": null,
  "grain_boundaries": null,
  "band_gap": 2.197699999999999,
  "cbm": null,
  "vbm": null,
  "efermi": 1.01155368,
  "is_gap_direct": null,
  "is_metal": null,
  "es_source_calc_id": null,
  "bandstructure": null,
  "dos": null,
  "dos_energy_up": null,
  "dos_energy_down": null,
  "is_magnetic": null,
  "ordering": null,
  "total_magnetization": 0.0,
  "total_magnetization_normalized_vol": null,
  "total_magnetization_normalized_formula_units": null,
  "num_magnetic_sites": null,
  "num_unique_magnetic_sites": null,
  "types_of_magnetic_species": null,
  "bulk_modulus": null,
  "shear_modulus": null,
  "universal_anisotropy": null,
  "homogeneous_poisson": null,
  "e_total": null,
  "e_ionic": null,
  "e_electronic": null,
  "n": null,
  "e_ij_max": null,
  "weighted_surface_energy_EV_PER_ANG2": null,
  "weighted_surface_energy": null,
  "weighted_work_function": null,
  "surface_anisotropy": null,
  "shape_factor": null,
  "has_reconstructed": null,
  "possible_species": null,
  "has_props": null,
  "theoretical": null,
  "database_IDs": null,
  "fields_not_requested": [
    "builder_meta",
    "nsites",
    "elements",
    "nelements",
    "composition",
    "composition_reduced",
    "chemsys",
    "symmetry",
    "property_name",
    "deprecated",
    "deprecation_reasons",
    "last_updated",
    "origins",
    "warnings",
    "task_ids",
    "uncorrected_energy_per_atom",
    "equilibrium_reaction_energy_per_atom",
    "decomposes_to",
    "xas",
    "grain_boundaries",
    "cbm",
    "vbm",
    "is_gap_direct",
    "is_metal",
    "es_source_calc_id",
    "bandstructure",
    "dos",
    "dos_energy_up",
    "dos_energy_down",
    "is_magnetic",
    "ordering",
    "total_magnetization_normalized_vol",
    "total_magnetization_normalized_formula_units",
    "num_magnetic_sites",
    "num_unique_magnetic_sites",
    "types_of_magnetic_species",
    "bulk_modulus",
    "shear_modulus",
    "universal_anisotropy",
    "homogeneous_poisson",
    "e_total",
    "e_ionic",
    "e_electronic",
    "n",
    "e_ij_max",
    "weighted_surface_energy_EV_PER_ANG2",
    "weighted_surface_energy",
    "weighted_work_function",
    "surface_anisotropy",
    "shape_factor",
    "has_reconstructed",
    "possible_species",
    "has_props",
    "theoretical",
    "database_IDs"
  ]
}
