{"builder_meta": null, "nsites": null, "elements": null, "nelements": null, "composition": null, "composition_reduced": null, "formula_pretty": "AlH6", "formula_anonymous": "AB6", "chemsys": null, "volume": 510.20205577444085, "density": 0.21499811998897903, "density_atomic": 36.44300398388863, "symmetry": null, "property_name": null, "material_id": "mp-1214861", "deprecated": null, "deprecation_reasons": null, "last_updated": null, "origins": null, "warnings": null, "structure": {"@module": "pymatgen.core.structure", "@class": "Structure", "charge": 0, "lattice": {"matrix": [[5.457904, 2.715879, 0.0], [-5.457904, 2.715879, 0.0], [0.0, 0.183274, 17.209803]], "pbc": [true, true, true], "a": 6.0962869696116675, "b": 6.0962869696116675, "c": 17.210778850995823, "alpha": 89.72818738391187, "beta": 89.72818738391187, "gamma": 127.08968755359584, "volume": 510.20205577444085}, "properties": {}, "sites": [{"species": [{"element": "Al", "occu": 1}], "abc": [0.0, 0.5, 0.0], "properties": {"magmom": -0.074}, "label": "Al", "xyz": [-2.728952, 1.3579395, 0.0]}, {"species": [{"element": "Al", "occu": 1}], "abc": [0.5, 0.0, 0.5], "properties": {"magmom": -0.075}, "label": "Al", "xyz": [2.728952, 1.4495765, 8.6049015]}, {"species": [{"element": "H", "occu": 1}], "abc": [0.004693, 0.132693, 0.250095], "properties": {"magmom": 0.0}, "label": "H", "xyz": [-0.698611712, 0.41895966332400003, 4.304085681285001]}, {"species": [{"element": "H", "occu": 1}], "abc": [0.995306999999999, 0.867306999999999, 0.749904999999999], "properties": {"magmom": 0.0}, "label": "H", "xyz": [0.6986117119999999, 5.1960723366759956, 12.905717318714984]}, {"species": [{"element": "H", "occu": 1}], "abc": [0.677705999999999, 0.284421, 0.997487999999999], "properties": {"magmom": 0.013000000000000001}, "label": "H", "xyz": [2.146511774639995, 2.795834130344997, 17.166571974863984]}, {"species": [{"element": "H", "occu": 1}], "abc": [0.867306999999999, 0.995306999999999, 0.249905], "properties": {"magmom": 0.0}, "label": "H", "xyz": [-0.6986117119999999, 5.104435336675996, 4.300815818715]}, {"species": [{"element": "H", "occu": 1}], "abc": [0.322293999999999, 0.715579, 0.002512], "properties": {"magmom": 0.013000000000000001}, "label": "H", "xyz": [-2.1465117746400053, 2.8191978696549973, 0.043231025136]}, {"species": [{"element": "H", "occu": 1}], "abc": [0.132693, 0.004693, 0.750095], "properties": {"magmom": 0.0}, "label": "H", "xyz": [0.698611712, 0.510596663324, 12.908987181285]}, {"species": [{"element": "H", "occu": 1}], "abc": [0.748348, 0.498554999999999, 0.370855], "properties": {"magmom": 0.274}, "label": "H", "xyz": [1.3633462138720054, 3.4544057520069975, 6.3823414915650005]}, {"species": [{"element": "H", "occu": 1}], "abc": [0.715579, 0.322293999999999, 0.502512], "properties": {"magmom": 0.013000000000000001}, "label": "H", "xyz": [2.1465117746400053, 2.9108348696549973, 8.648132525135999]}, {"species": [{"element": "H", "occu": 1}], "abc": [0.251652, 0.501445, 0.629145], "properties": {"magmom": 0.274}, "label": "H", "xyz": [-1.3633462138720003, 2.160626247993, 10.827461508435]}, {"species": [{"element": "H", "occu": 1}], "abc": [0.284421, 0.677705999999999, 0.497488], "properties": {"magmom": 0.013000000000000001}, "label": "H", "xyz": [-2.146511774639995, 2.704197130344997, 8.561670474864]}, {"species": [{"element": "H", "occu": 1}], "abc": [0.501445, 0.251652, 0.129144999999999], "properties": {"magmom": 0.274}, "label": "H", "xyz": [1.3633462138720003, 2.0689892479929997, 2.222560008434983]}, {"species": [{"element": "H", "occu": 1}], "abc": [0.498554999999999, 0.748348, 0.870854999999999], "properties": {"magmom": 0.274}, "label": "H", "xyz": [-1.3633462138720054, 3.5460427520069975, 14.987242991564985]}]}, "task_ids": null, "uncorrected_energy_per_atom": null, "energy_per_atom": -2.9566268255357153, "formation_energy_per_atom": 0.9666264226785701, "energy_above_hull": 1.008701898571428, "is_stable": false, "equilibrium_reaction_energy_per_atom": null, "decomposes_to": null, "xas": null, "grain_boundaries": null, "band_gap": 0.0, "cbm": null, "vbm": null, "efermi": -1.634165439999999, "is_gap_direct": null, "is_metal": null, "es_source_calc_id": null, "bandstructure": null, "dos": null, "dos_energy_up": null, "dos_energy_down": null, "is_magnetic": null, "ordering": null, "total_magnetization": 1.9983358, "total_magnetization_normalized_vol": null, "total_magnetization_normalized_formula_units": null, "num_magnetic_sites": null, "num_unique_magnetic_sites": null, "types_of_magnetic_species": null, "bulk_modulus": null, "shear_modulus": null, "universal_anisotropy": null, "homogeneous_poisson": null, "e_total": null, "e_ionic": null, "e_electronic": null, "n": null, "e_ij_max": null, "weighted_surface_energy_EV_PER_ANG2": null, "weighted_surface_energy": null, "weighted_work_function": null, "surface_anisotropy": null, "shape_factor": null, "has_reconstructed": null, "possible_species": null, "has_props": null, "theoretical": null, "database_IDs": null, "fields_not_requested": ["builder_meta", "nsites", "elements", "nelements", "composition", "composition_reduced", "chemsys", "symmetry", "property_name", "deprecated", "deprecation_reasons", "last_updated", "origins", "warnings", "task_ids", "uncorrected_energy_per_atom", "equilibrium_reaction_energy_per_atom", "decomposes_to", "xas", "grain_boundaries", "cbm", "vbm", "is_gap_direct", "is_metal", "es_source_calc_id", "bandstructure", "dos", "dos_energy_up", "dos_energy_down", "is_magnetic", "ordering", "total_magnetization_normalized_vol", "total_magnetization_normalized_formula_units", "num_magnetic_sites", "num_unique_magnetic_sites", "types_of_magnetic_species", "bulk_modulus", "shear_modulus", "universal_anisotropy", "homogeneous_poisson", "e_total", "e_ionic", "e_electronic", "n", "e_ij_max", "weighted_surface_energy_EV_PER_ANG2", "weighted_surface_energy", "weighted_work_function", "surface_anisotropy", "shape_factor", "has_reconstructed", "possible_species", "has_props", "theoretical", "database_IDs"]}