{
  "builder_meta": null,
  "nsites": null,
  "elements": null,
  "nelements": null,
  "composition": null,
  "composition_reduced": null,
  "formula_pretty": "AlI3",
  "formula_anonymous": "AB3",
  "chemsys": null,
  "volume": 725.3856847943192,
  "density": 3.73314998405428,
  "density_atomic": 45.33660529964495,
  "symmetry": null,
  "property_name": null,
  "material_id": "mp-30930",
  "deprecated": null,
  "deprecation_reasons": null,
  "last_updated": null,
  "origins": null,
  "warnings": null,
  "structure": {
    "@module": "pymatgen.core.structure",
    "@class": "Structure",
    "charge": 0,
    "lattice": {
      "matrix": [
        [6.312819, 0.0, 0.0],
        [0.0, 9.36654779, -3.054147],
        [0.0, 0.012820080000000001, 12.26360289]
      ],
      "pbc": [true, true, true],
      "a": 6.312819,
      "b": 9.851904962998928,
      "c": 12.263609590902165,
      "alpha": 107.99968023987057,
      "beta": 90.0,
      "gamma": 90.0,
      "volume": 725.3856847943193
    },
    "properties": {},
    "sites": [
      {
        "species": [{ "element": "Al", "occu": 1 }],
        "abc": [0.00363998, 0.80905053, 0.95323532],
        "properties": { "magmom": -0.0 },
        "label": "Al",
        "xyz": [0.02297853490362, 7.590231006831055, 9.219140176154164]
      },
      {
        "species": [{ "element": "Al", "occu": 1 }],
        "abc": [0.50363998, 0.19094947, 0.54676468],
        "properties": { "magmom": -0.0 },
        "label": "Al",
        "xyz": [3.17938803490362, 1.795546903168946, 6.122117158845835]
      },
      {
        "species": [{ "element": "Al", "occu": 1 }],
        "abc": [0.99636002, 0.19094947, 0.04676468],
        "properties": { "magmom": -0.0 },
        "label": "Al",
        "xyz": [6.28984046509638, 1.789136863168946, -0.009684286154164723]
      },
      {
        "species": [{ "element": "Al", "occu": 1 }],
        "abc": [0.49636002, 0.80905053, 0.45323532],
        "properties": { "magmom": -0.0 },
        "label": "Al",
        "xyz": [3.1334309650963803, 7.583820966831055, 3.0873387311541647]
      },
      {
        "species": [{ "element": "I", "occu": 1 }],
        "abc": [0.76845431, 0.67410075, 0.79468984],
        "properties": { "magmom": 0.0 },
        "label": "I",
        "xyz": [4.85111296879989, 6.32418487747383, 7.686957835167387]
      },
      {
        "species": [{ "element": "I", "occu": 1 }],
        "abc": [0.26845431000000003, 0.32589925000000003, 0.70531016],
        "properties": { "magmom": 0.0 },
        "label": "I",
        "xyz": [1.6947034687998903, 3.061593032526171, 7.654299499832613]
      },
      {
        "species": [{ "element": "I", "occu": 1 }],
        "abc": [0.23154569, 0.32589925000000003, 0.20531016],
        "properties": { "magmom": 0.0 },
        "label": "I",
        "xyz": [1.46170603120011, 3.055182992526171, 1.5224980548326124]
      },
      {
        "species": [{ "element": "I", "occu": 1 }],
        "abc": [0.73154569, 0.67410075, 0.29468984],
        "properties": { "magmom": 0.0 },
        "label": "I",
        "xyz": [4.61811553120011, 6.317774837473831, 1.555156390167387]
      },
      {
        "species": [{ "element": "I", "occu": 1 }],
        "abc": [0.24484268, 0.67969134, 0.0466173],
        "properties": { "magmom": -0.0 },
        "label": "I",
        "xyz": [1.5456475223149202, 6.366959056074523, -1.5041812119829827]
      },
      {
        "species": [{ "element": "I", "occu": 1 }],
        "abc": [0.74484268, 0.32030866, 0.45338269999999903],
        "properties": { "magmom": -0.0 },
        "label": "I",
        "xyz": [4.70205702231492, 3.005998773925478, 4.581835656982971]
      },
      {
        "species": [{ "element": "I", "occu": 1 }],
        "abc": [0.75515732, 0.32030866, 0.953382699999999],
        "properties": { "magmom": -0.0 },
        "label": "I",
        "xyz": [4.76717147768508, 3.012408813925478, 10.71363710198297]
      },
      {
        "species": [{ "element": "I", "occu": 1 }],
        "abc": [0.25515732, 0.67969134, 0.5466173],
        "properties": { "magmom": -0.0 },
        "label": "I",
        "xyz": [1.6107619776850801, 6.373369096074523, 4.627620233017016]
      },
      {
        "species": [{ "element": "I", "occu": 1 }],
        "abc": [0.77855681, 0.99869589, 0.11347754],
        "properties": { "magmom": 0.0 },
        "label": "I",
        "xyz": [4.91488822274739, 9.355787572502585, -1.6585205688617393]
      },
      {
        "species": [{ "element": "I", "occu": 1 }],
        "abc": [0.27855681, 0.00130411, 0.38652246],
        "properties": { "magmom": 0.0 },
        "label": "I",
        "xyz": [1.75847872274739, 0.017170257497413702, 4.73617501386174]
      },
      {
        "species": [{ "element": "I", "occu": 1 }],
        "abc": [0.22144319, 0.00130411, 0.88652246],
        "properties": { "magmom": 0.0 },
        "label": "I",
        "xyz": [1.3979307772526102, 0.0235802974974137, 10.86797645886174]
      },
      {
        "species": [{ "element": "I", "occu": 1 }],
        "abc": [0.72144319, 0.99869589, 0.61347754],
        "properties": { "magmom": 0.0 },
        "label": "I",
        "xyz": [4.55434027725261, 9.362197612502586, 4.4732808761382605]
      }
    ]
  },
  "task_ids": null,
  "uncorrected_energy_per_atom": null,
  "energy_per_atom": -3.034617609375001,
  "formation_energy_per_atom": -0.9552141906250001,
  "energy_above_hull": 0.0,
  "is_stable": true,
  "equilibrium_reaction_energy_per_atom": null,
  "decomposes_to": null,
  "xas": null,
  "grain_boundaries": null,
  "band_gap": 3.2639,
  "cbm": null,
  "vbm": null,
  "efermi": -0.33623122,
  "is_gap_direct": null,
  "is_metal": null,
  "es_source_calc_id": null,
  "bandstructure": null,
  "dos": null,
  "dos_energy_up": null,
  "dos_energy_down": null,
  "is_magnetic": null,
  "ordering": null,
  "total_magnetization": 0.0,
  "total_magnetization_normalized_vol": null,
  "total_magnetization_normalized_formula_units": null,
  "num_magnetic_sites": null,
  "num_unique_magnetic_sites": null,
  "types_of_magnetic_species": null,
  "bulk_modulus": null,
  "shear_modulus": null,
  "universal_anisotropy": null,
  "homogeneous_poisson": null,
  "e_total": null,
  "e_ionic": null,
  "e_electronic": null,
  "n": null,
  "e_ij_max": null,
  "weighted_surface_energy_EV_PER_ANG2": null,
  "weighted_surface_energy": null,
  "weighted_work_function": null,
  "surface_anisotropy": null,
  "shape_factor": null,
  "has_reconstructed": null,
  "possible_species": null,
  "has_props": null,
  "theoretical": null,
  "database_IDs": null,
  "fields_not_requested": [
    "builder_meta",
    "nsites",
    "elements",
    "nelements",
    "composition",
    "composition_reduced",
    "chemsys",
    "symmetry",
    "property_name",
    "deprecated",
    "deprecation_reasons",
    "last_updated",
    "origins",
    "warnings",
    "task_ids",
    "uncorrected_energy_per_atom",
    "equilibrium_reaction_energy_per_atom",
    "decomposes_to",
    "xas",
    "grain_boundaries",
    "cbm",
    "vbm",
    "is_gap_direct",
    "is_metal",
    "es_source_calc_id",
    "bandstructure",
    "dos",
    "dos_energy_up",
    "dos_energy_down",
    "is_magnetic",
    "ordering",
    "total_magnetization_normalized_vol",
    "total_magnetization_normalized_formula_units",
    "num_magnetic_sites",
    "num_unique_magnetic_sites",
    "types_of_magnetic_species",
    "bulk_modulus",
    "shear_modulus",
    "universal_anisotropy",
    "homogeneous_poisson",
    "e_total",
    "e_ionic",
    "e_electronic",
    "n",
    "e_ij_max",
    "weighted_surface_energy_EV_PER_ANG2",
    "weighted_surface_energy",
    "weighted_work_function",
    "surface_anisotropy",
    "shape_factor",
    "has_reconstructed",
    "possible_species",
    "has_props",
    "theoretical",
    "database_IDs"
  ]
}
