{"builder_meta": null, "nsites": null, "elements": null, "nelements": null, "composition": null, "composition_reduced": null, "formula_pretty": "AlO2", "formula_anonymous": "AB2", "chemsys": null, "volume": 54.05152548171234, "density": 3.6239183088267293, "density_atomic": 9.00858758028539, "symmetry": null, "property_name": null, "material_id": "mp-1182858", "deprecated": null, "deprecation_reasons": null, "last_updated": null, "origins": null, "warnings": null, "structure": {"@module": "pymatgen.core.structure", "@class": "Structure", "charge": 0, "lattice": {"matrix": [[2.906319, 0.0, 0.0], [0.0, 4.037842, 0.0], [0.0, 0.0, 4.605909]], "pbc": [true, true, true], "a": 2.906319, "b": 4.037842, "c": 4.605909, "alpha": 90.0, "beta": 90.0, "gamma": 90.0, "volume": 54.05152548171234}, "properties": {}, "sites": [{"species": [{"element": "Al", "occu": 1}], "abc": [0.5, 0.5, 0.0], "properties": {"magmom": -0.011}, "label": "Al", "xyz": [1.4531595, 2.018921, 0.0]}, {"species": [{"element": "Al", "occu": 1}], "abc": [0.0, 0.0, 0.5], "properties": {"magmom": -0.011}, "label": "Al", "xyz": [0.0, 0.0, 2.3029545]}, {"species": [{"element": "O", "occu": 1}], "abc": [0.5, 0.265277, 0.355473999999999], "properties": {"magmom": 0.425}, "label": "O", "xyz": [1.4531595, 1.071146612234, 1.6372808958659952]}, {"species": [{"element": "O", "occu": 1}], "abc": [0.0, 0.234723, 0.855474], "properties": {"magmom": 0.435}, "label": "O", "xyz": [0.0, 0.947774387766, 3.9402353958659995]}, {"species": [{"element": "O", "occu": 1}], "abc": [0.5, 0.734723, 0.644525999999999], "properties": {"magmom": 0.425}, "label": "O", "xyz": [1.4531595, 2.9666953877660003, 2.9686281041339955]}, {"species": [{"element": "O", "occu": 1}], "abc": [0.0, 0.765277, 0.144526], "properties": {"magmom": 0.435}, "label": "O", "xyz": [0.0, 3.0900676122340003, 0.6656736041339999]}]}, "task_ids": null, "uncorrected_energy_per_atom": null, "energy_per_atom": -7.218398645, "formation_energy_per_atom": -2.6712326983333323, "energy_above_hull": 0.184226475, "is_stable": false, "equilibrium_reaction_energy_per_atom": null, "decomposes_to": null, "xas": null, "grain_boundaries": null, "band_gap": 0.29390000000000005, "cbm": null, "vbm": null, "efermi": 5.09371363, "is_gap_direct": null, "is_metal": null, "es_source_calc_id": null, "bandstructure": null, "dos": null, "dos_energy_up": null, "dos_energy_down": null, "is_magnetic": null, "ordering": null, "total_magnetization": 1.9997381, "total_magnetization_normalized_vol": null, "total_magnetization_normalized_formula_units": null, "num_magnetic_sites": null, "num_unique_magnetic_sites": null, "types_of_magnetic_species": null, "bulk_modulus": null, "shear_modulus": null, "universal_anisotropy": null, "homogeneous_poisson": null, "e_total": null, "e_ionic": null, "e_electronic": null, "n": null, "e_ij_max": null, "weighted_surface_energy_EV_PER_ANG2": null, "weighted_surface_energy": null, "weighted_work_function": null, "surface_anisotropy": null, "shape_factor": null, "has_reconstructed": null, "possible_species": null, "has_props": null, "theoretical": null, "database_IDs": null, "fields_not_requested": ["builder_meta", "nsites", "elements", "nelements", "composition", "composition_reduced", "chemsys", "symmetry", "property_name", "deprecated", "deprecation_reasons", "last_updated", "origins", "warnings", "task_ids", "uncorrected_energy_per_atom", "equilibrium_reaction_energy_per_atom", "decomposes_to", "xas", "grain_boundaries", "cbm", "vbm", "is_gap_direct", "is_metal", "es_source_calc_id", "bandstructure", "dos", "dos_energy_up", "dos_energy_down", "is_magnetic", "ordering", "total_magnetization_normalized_vol", "total_magnetization_normalized_formula_units", "num_magnetic_sites", "num_unique_magnetic_sites", "types_of_magnetic_species", "bulk_modulus", "shear_modulus", "universal_anisotropy", "homogeneous_poisson", "e_total", "e_ionic", "e_electronic", "n", "e_ij_max", "weighted_surface_energy_EV_PER_ANG2", "weighted_surface_energy", "weighted_work_function", "surface_anisotropy", "shape_factor", "has_reconstructed", "possible_species", "has_props", "theoretical", "database_IDs"]}