{
  "builder_meta": null,
  "nsites": null,
  "elements": null,
  "nelements": null,
  "composition": null,
  "composition_reduced": null,
  "formula_pretty": "AlO3",
  "formula_anonymous": "AB3",
  "chemsys": null,
  "volume": 82.00729424483205,
  "density": 3.036480749554839,
  "density_atomic": 10.250911780604007,
  "symmetry": null,
  "property_name": null,
  "material_id": "mp-2646975",
  "deprecated": null,
  "deprecation_reasons": null,
  "last_updated": null,
  "origins": null,
  "warnings": null,
  "structure": {
    "@module": "pymatgen.core.structure",
    "@class": "Structure",
    "charge": 0,
    "lattice": {
      "matrix": [
        [7.651806, -0.001797, -1.462711],
        [6.749699, 3.604397, -1.462711],
        [-0.000145, -3.6e-5, 2.97214]
      ],
      "pbc": [true, true, true],
      "a": 7.790356972588996,
      "b": 7.790355434364404,
      "c": 2.9721400037550385,
      "alpha": 100.82483580134773,
      "beta": 100.82483611352654,
      "gamma": 27.60601314334868,
      "volume": 82.00729424483205
    },
    "properties": {},
    "sites": [
      {
        "species": [{ "element": "Al", "occu": 1 }],
        "abc": [0.843248, 0.543161, 0.695238999999999],
        "properties": { "magmom": 0.0 },
        "label": "Al",
        "xyz": [10.118442554771999, 1.956227533657, 0.03843194666099681]
      },
      {
        "species": [{ "element": "Al", "occu": 1 }],
        "abc": [0.456839, 0.156752, 0.304761],
        "properties": { "magmom": 0.0 },
        "label": "Al",
        "xyz": [4.553628028536999, 0.564164527465, 0.00828605333900001]
      },
      {
        "species": [{ "element": "O", "occu": 1 }],
        "abc": [0.7417100000000001, 0.481774, 0.110392999999999],
        "properties": { "magmom": -0.0 },
        "label": "O",
        "xyz": [8.927234507301002, 1.7351679332599999, -1.4615000541040035]
      },
      {
        "species": [{ "element": "O", "occu": 1 }],
        "abc": [0.892798, 0.038377999999999, 0.089308],
        "properties": { "magmom": -0.0 },
        "label": "O",
        "xyz": [7.090544091749992, 0.1367219749719964, -1.0966054990159986]
      },
      {
        "species": [{ "element": "O", "occu": 1 }],
        "abc": [0.930176999999999, 0.633516, 0.283193],
        "properties": { "magmom": 0.0 },
        "label": "O",
        "xyz": [11.393535198360992, 2.281761446835, -1.445541708702999]
      },
      {
        "species": [{ "element": "O", "occu": 1 }],
        "abc": [0.518226, 0.25829, 0.889606999999999],
        "properties": { "magmom": -0.0 },
        "label": "O",
        "xyz": [5.708615577850999, 0.9300164231560001, 1.5082180541039971]
      },
      {
        "species": [{ "element": "O", "occu": 1 }],
        "abc": [0.961622, 0.107201999999999, 0.910692],
        "properties": { "magmom": -0.0 },
        "label": "O",
        "xyz": [8.081594171189993, 0.3846377475479964, 1.1433234990160015]
      },
      {
        "species": [{ "element": "O", "occu": 1 }],
        "abc": [0.366484, 0.069823, 0.716807],
        "properties": { "magmom": 0.0 },
        "label": "O",
        "xyz": [3.2754447663659993, 0.250985434931, 1.4922597087029996]
      }
    ]
  },
  "task_ids": null,
  "uncorrected_energy_per_atom": null,
  "energy_per_atom": -6.4029191825,
  "formation_energy_per_atom": -1.75555447125,
  "energy_above_hull": 0.38603990874999905,
  "is_stable": false,
  "equilibrium_reaction_energy_per_atom": null,
  "decomposes_to": null,
  "xas": null,
  "grain_boundaries": null,
  "band_gap": 2.3217,
  "cbm": null,
  "vbm": null,
  "efermi": 2.73932617,
  "is_gap_direct": null,
  "is_metal": null,
  "es_source_calc_id": null,
  "bandstructure": null,
  "dos": null,
  "dos_energy_up": null,
  "dos_energy_down": null,
  "is_magnetic": null,
  "ordering": null,
  "total_magnetization": 0.0,
  "total_magnetization_normalized_vol": null,
  "total_magnetization_normalized_formula_units": null,
  "num_magnetic_sites": null,
  "num_unique_magnetic_sites": null,
  "types_of_magnetic_species": null,
  "bulk_modulus": null,
  "shear_modulus": null,
  "universal_anisotropy": null,
  "homogeneous_poisson": null,
  "e_total": null,
  "e_ionic": null,
  "e_electronic": null,
  "n": null,
  "e_ij_max": null,
  "weighted_surface_energy_EV_PER_ANG2": null,
  "weighted_surface_energy": null,
  "weighted_work_function": null,
  "surface_anisotropy": null,
  "shape_factor": null,
  "has_reconstructed": null,
  "possible_species": null,
  "has_props": null,
  "theoretical": null,
  "database_IDs": null,
  "fields_not_requested": [
    "builder_meta",
    "nsites",
    "elements",
    "nelements",
    "composition",
    "composition_reduced",
    "chemsys",
    "symmetry",
    "property_name",
    "deprecated",
    "deprecation_reasons",
    "last_updated",
    "origins",
    "warnings",
    "task_ids",
    "uncorrected_energy_per_atom",
    "equilibrium_reaction_energy_per_atom",
    "decomposes_to",
    "xas",
    "grain_boundaries",
    "cbm",
    "vbm",
    "is_gap_direct",
    "is_metal",
    "es_source_calc_id",
    "bandstructure",
    "dos",
    "dos_energy_up",
    "dos_energy_down",
    "is_magnetic",
    "ordering",
    "total_magnetization_normalized_vol",
    "total_magnetization_normalized_formula_units",
    "num_magnetic_sites",
    "num_unique_magnetic_sites",
    "types_of_magnetic_species",
    "bulk_modulus",
    "shear_modulus",
    "universal_anisotropy",
    "homogeneous_poisson",
    "e_total",
    "e_ionic",
    "e_electronic",
    "n",
    "e_ij_max",
    "weighted_surface_energy_EV_PER_ANG2",
    "weighted_surface_energy",
    "weighted_work_function",
    "surface_anisotropy",
    "shape_factor",
    "has_reconstructed",
    "possible_species",
    "has_props",
    "theoretical",
    "database_IDs"
  ]
}
