{
  "builder_meta": null,
  "nsites": null,
  "elements": null,
  "nelements": null,
  "composition": null,
  "composition_reduced": null,
  "formula_pretty": "AlP2",
  "formula_anonymous": "AB2",
  "chemsys": null,
  "volume": 433.0532494138068,
  "density": 2.7279819801062812,
  "density_atomic": 18.04388539224195,
  "symmetry": null,
  "property_name": null,
  "material_id": "mp-1182873",
  "deprecated": null,
  "deprecation_reasons": null,
  "last_updated": null,
  "origins": null,
  "warnings": null,
  "structure": {
    "@module": "pymatgen.core.structure",
    "@class": "Structure",
    "charge": 0,
    "lattice": {
      "matrix": [
        [-3.616283, 4.3116900000000005, 6.9433869999999995],
        [3.616283, -4.3116900000000005, 6.9433869999999995],
        [3.616283, 4.3116900000000005, -6.9433869999999995]
      ],
      "pbc": [true, true, true],
      "a": 8.93749385588365,
      "b": 8.93749385588365,
      "c": 8.93749385588365,
      "alpha": 132.26544765327927,
      "beta": 122.31190873977785,
      "gamma": 78.04787052367983,
      "volume": 433.05324941380684
    },
    "properties": {},
    "sites": [
      {
        "species": [{ "element": "Al", "occu": 1 }],
        "abc": [0.504831, 0.585318, 0.331291],
        "properties": { "magmom": -0.0 },
        "label": "Al",
        "xyz": [1.4891057811739998, 1.0813890987600003, 5.2690447720460005]
      },
      {
        "species": [{ "element": "Al", "occu": 1 }],
        "abc": [0.995169, 0.32646000000000003, 0.080487],
        "properties": { "magmom": -0.0 },
        "label": "Al",
        "xyz": [-2.1271772188259996, 3.2303009012400006, 8.617729227954]
      },
      {
        "species": [{ "element": "Al", "occu": 1 }],
        "abc": [0.745973, 0.914682, 0.419512999999999],
        "properties": { "magmom": -0.0 },
        "label": "Al",
        "xyz": [2.127177218825997, 1.081389098759996, 8.617729227954007]
      },
      {
        "species": [{ "element": "Al", "occu": 1 }],
        "abc": [0.754027, 0.17354000000000003, 0.168709],
        "properties": { "magmom": -0.0 },
        "label": "Al",
        "xyz": [-1.4891057811739996, 3.23030090124, 5.269044772046]
      },
      {
        "species": [{ "element": "Al", "occu": 1 }],
        "abc": [0.495168999999999, 0.414682, 0.668709],
        "properties": { "magmom": -0.0 },
        "label": "Al",
        "xyz": [2.1271772188260036, 3.230300901239996, 1.6743422279539928]
      },
      {
        "species": [{ "element": "Al", "occu": 1 }],
        "abc": [0.004830999999999, 0.67354, 0.919512999999999],
        "properties": { "magmom": -0.0 },
        "label": "Al",
        "xyz": [5.743460218826, 1.0813890987599915, -1.674342227953999]
      },
      {
        "species": [{ "element": "Al", "occu": 1 }],
        "abc": [0.254027, 0.085317999999999, 0.580487],
        "properties": { "magmom": -0.0 },
        "label": "Al",
        "xyz": [1.4891057811739965, 3.2303009012400046, -1.674342227954007]
      },
      {
        "species": [{ "element": "Al", "occu": 1 }],
        "abc": [0.245973, 0.8264600000000001, 0.831291],
        "properties": { "magmom": -0.0 },
        "label": "Al",
        "xyz": [5.105388781174, 1.08138909876, 1.6743422279540008]
      },
      {
        "species": [{ "element": "P", "occu": 1 }],
        "abc": [0.5, 0.5, 0.0],
        "properties": { "magmom": -0.0 },
        "label": "P",
        "xyz": [0.0, 0.0, 6.9433869999999995]
      },
      {
        "species": [{ "element": "P", "occu": 1 }],
        "abc": [0.0, 0.0, 0.0],
        "properties": { "magmom": -0.0 },
        "label": "P",
        "xyz": [0.0, 0.0, 0.0]
      },
      {
        "species": [{ "element": "P", "occu": 1 }],
        "abc": [0.5, 0.0, 0.5],
        "properties": { "magmom": -0.0 },
        "label": "P",
        "xyz": [0.0, 4.3116900000000005, 0.0]
      },
      {
        "species": [{ "element": "P", "occu": 1 }],
        "abc": [0.0, 0.5, 0.5],
        "properties": { "magmom": -0.0 },
        "label": "P",
        "xyz": [3.616283, 0.0, 0.0]
      },
      {
        "species": [{ "element": "P", "occu": 1 }],
        "abc": [0.25, 0.614761999999999, 0.364762],
        "properties": { "magmom": 0.0 },
        "label": "P",
        "xyz": [2.6381652392919963, 3.774758283725532e-15, 3.4716934999999935]
      },
      {
        "species": [{ "element": "P", "occu": 1 }],
        "abc": [0.75, 0.885238, 0.135238],
        "properties": { "magmom": 0.0 },
        "label": "P",
        "xyz": [0.9781177607079995, 0.0, 10.415080499999998]
      },
      {
        "species": [{ "element": "P", "occu": 1 }],
        "abc": [0.75, 0.385237999999999, 0.635238],
        "properties": { "magmom": 0.0 },
        "label": "P",
        "xyz": [0.9781177607079963, 4.311690000000005, 3.4716934999999927]
      },
      {
        "species": [{ "element": "P", "occu": 1 }],
        "abc": [0.25, 0.114761999999999, 0.864761999999999],
        "properties": { "magmom": 0.0 },
        "label": "P",
        "xyz": [2.638165239291993, 4.3116900000000005, -3.4716934999999998]
      },
      {
        "species": [{ "element": "P", "occu": 1 }],
        "abc": [0.817692, 0.75, 0.567692],
        "properties": { "magmom": -0.0 },
        "label": "P",
        "xyz": [1.8081415000000005, 2.73957883896, 6.943386999999999]
      },
      {
        "species": [{ "element": "P", "occu": 1 }],
        "abc": [0.682307999999999, 0.25, 0.932307999999999],
        "properties": { "magmom": -0.0 },
        "label": "P",
        "xyz": [1.8081414999999998, 5.883801161039992, 0.0]
      },
      {
        "species": [{ "element": "P", "occu": 1 }],
        "abc": [0.182308, 0.25, 0.432307999999999],
        "properties": { "magmom": -0.0 },
        "label": "P",
        "xyz": [1.8081414999999965, 1.572111161039996, 6.661338147750939e-15]
      },
      {
        "species": [{ "element": "P", "occu": 1 }],
        "abc": [0.317692, 0.75, 0.067692],
        "properties": { "magmom": -0.0 },
        "label": "P",
        "xyz": [1.8081415000000005, -1.5721111610400003, 6.9433869999999995]
      },
      {
        "species": [{ "element": "P", "occu": 1 }],
        "abc": [0.516494, 0.266494, 0.25],
        "properties": { "magmom": 0.0 },
        "label": "P",
        "xyz": [0.0, 2.1558450000000002, 3.7007419503559995]
      },
      {
        "species": [{ "element": "P", "occu": 1 }],
        "abc": [0.983506, 0.233506, 0.75],
        "properties": { "magmom": 0.0 },
        "label": "P",
        "xyz": [0.0, 6.467535, 3.2426450496440005]
      },
      {
        "species": [{ "element": "P", "occu": 1 }],
        "abc": [0.483506, 0.733506, 0.75],
        "properties": { "magmom": 0.0 },
        "label": "P",
        "xyz": [3.6162830000000006, 2.1558450000000002, 3.2426450496440005]
      },
      {
        "species": [{ "element": "P", "occu": 1 }],
        "abc": [0.016493999999999003, 0.766494, 0.25],
        "properties": { "magmom": 0.0 },
        "label": "P",
        "xyz": [3.6162830000000037, -2.1558450000000047, 3.7007419503559924]
      }
    ]
  },
  "task_ids": null,
  "uncorrected_energy_per_atom": null,
  "energy_per_atom": -8.299424945952381,
  "formation_energy_per_atom": -0.054007961269841004,
  "energy_above_hull": 0.437491228055554,
  "is_stable": false,
  "equilibrium_reaction_energy_per_atom": null,
  "decomposes_to": null,
  "xas": null,
  "grain_boundaries": null,
  "band_gap": 0.0,
  "cbm": null,
  "vbm": null,
  "efermi": 6.47203174,
  "is_gap_direct": null,
  "is_metal": null,
  "es_source_calc_id": null,
  "bandstructure": null,
  "dos": null,
  "dos_energy_up": null,
  "dos_energy_down": null,
  "is_magnetic": null,
  "ordering": null,
  "total_magnetization": 7.620000000000002e-5,
  "total_magnetization_normalized_vol": null,
  "total_magnetization_normalized_formula_units": null,
  "num_magnetic_sites": null,
  "num_unique_magnetic_sites": null,
  "types_of_magnetic_species": null,
  "bulk_modulus": null,
  "shear_modulus": null,
  "universal_anisotropy": null,
  "homogeneous_poisson": null,
  "e_total": null,
  "e_ionic": null,
  "e_electronic": null,
  "n": null,
  "e_ij_max": null,
  "weighted_surface_energy_EV_PER_ANG2": null,
  "weighted_surface_energy": null,
  "weighted_work_function": null,
  "surface_anisotropy": null,
  "shape_factor": null,
  "has_reconstructed": null,
  "possible_species": null,
  "has_props": null,
  "theoretical": null,
  "database_IDs": null,
  "fields_not_requested": [
    "builder_meta",
    "nsites",
    "elements",
    "nelements",
    "composition",
    "composition_reduced",
    "chemsys",
    "symmetry",
    "property_name",
    "deprecated",
    "deprecation_reasons",
    "last_updated",
    "origins",
    "warnings",
    "task_ids",
    "uncorrected_energy_per_atom",
    "equilibrium_reaction_energy_per_atom",
    "decomposes_to",
    "xas",
    "grain_boundaries",
    "cbm",
    "vbm",
    "is_gap_direct",
    "is_metal",
    "es_source_calc_id",
    "bandstructure",
    "dos",
    "dos_energy_up",
    "dos_energy_down",
    "is_magnetic",
    "ordering",
    "total_magnetization_normalized_vol",
    "total_magnetization_normalized_formula_units",
    "num_magnetic_sites",
    "num_unique_magnetic_sites",
    "types_of_magnetic_species",
    "bulk_modulus",
    "shear_modulus",
    "universal_anisotropy",
    "homogeneous_poisson",
    "e_total",
    "e_ionic",
    "e_electronic",
    "n",
    "e_ij_max",
    "weighted_surface_energy_EV_PER_ANG2",
    "weighted_surface_energy",
    "weighted_work_function",
    "surface_anisotropy",
    "shape_factor",
    "has_reconstructed",
    "possible_species",
    "has_props",
    "theoretical",
    "database_IDs"
  ]
}
