{"builder_meta": null, "nsites": null, "elements": null, "nelements": null, "composition": null, "composition_reduced": null, "formula_pretty": "AlPd2", "formula_anonymous": "AB2", "chemsys": null, "volume": 172.41121295032158, "density": 9.239144648258263, "density_atomic": 14.367601079193465, "symmetry": null, "property_name": null, "material_id": "mp-2824", "deprecated": null, "deprecation_reasons": null, "last_updated": null, "origins": null, "warnings": null, "structure": {"@module": "pymatgen.core.structure", "@class": "Structure", "charge": 0, "lattice": {"matrix": [[4.07169292, 0.0, 0.0], [-0.0, 5.41975902, 0.0], [0.0, 0.0, 7.81286848]], "pbc": [true, true, true], "a": 4.07169292, "b": 5.41975902, "c": 7.81286848, "alpha": 90.0, "beta": 90.0, "gamma": 90.0, "volume": 172.41121295032158}, "properties": {}, "sites": [{"species": [{"element": "Al", "occu": 1}], "abc": [0.75, 0.30539885, 0.3948673], "properties": {"magmom": -0.0}, "label": "Al", "xyz": [3.05376969, 1.655188171985127, 3.0850462819527036]}, {"species": [{"element": "Al", "occu": 1}], "abc": [0.25, 0.69460115, 0.6051327], "properties": {"magmom": -0.0}, "label": "Al", "xyz": [1.01792323, 3.764570848014873, 4.727822198047296]}, {"species": [{"element": "Al", "occu": 1}], "abc": [0.75, 0.80539885, 0.1051327], "properties": {"magmom": -0.0}, "label": "Al", "xyz": [3.05376969, 4.365067681985127, 0.8213879580472959]}, {"species": [{"element": "Al", "occu": 1}], "abc": [0.25, 0.19460115, 0.894867299999999], "properties": {"magmom": -0.0}, "label": "Al", "xyz": [1.01792323, 1.054691338014873, 6.991480521952696]}, {"species": [{"element": "Pd", "occu": 1}], "abc": [0.75, 0.957446599999999, 0.78824116], "properties": {"magmom": -0.0}, "label": "Pd", "xyz": [3.05376969, 5.189129846518327, 6.158424513602636]}, {"species": [{"element": "Pd", "occu": 1}], "abc": [0.25, 0.0425534, 0.21175884], "properties": {"magmom": -0.0}, "label": "Pd", "xyz": [1.01792323, 0.23062917348166798, 1.6544439663973631]}, {"species": [{"element": "Pd", "occu": 1}], "abc": [0.75, 0.457445599999999, 0.71175884], "properties": {"magmom": -0.0}, "label": "Pd", "xyz": [3.05376969, 2.4792449167593067, 5.560878206397363]}, {"species": [{"element": "Pd", "occu": 1}], "abc": [0.25, 0.5425534, 0.28824116], "properties": {"magmom": -0.0}, "label": "Pd", "xyz": [1.01792323, 2.9405086834816676, 2.2519902736026367]}, {"species": [{"element": "Pd", "occu": 1}], "abc": [0.75, 0.83421493, 0.43387338000000003], "properties": {"magmom": 0.0}, "label": "Pd", "xyz": [3.05376969, 4.521243891486169, 3.3897956549130623]}, {"species": [{"element": "Pd", "occu": 1}], "abc": [0.25, 0.16578507, 0.56612662], "properties": {"magmom": 0.0}, "label": "Pd", "xyz": [1.01792323, 0.8985151285138314, 4.423072825086938]}, {"species": [{"element": "Pd", "occu": 1}], "abc": [0.75, 0.33421493, 0.06612662], "properties": {"magmom": 0.0}, "label": "Pd", "xyz": [3.05376969, 1.8113643814861686, 0.5166385850869376]}, {"species": [{"element": "Pd", "occu": 1}], "abc": [0.25, 0.66578507, 0.93387338], "properties": {"magmom": 0.0}, "label": "Pd", "xyz": [1.01792323, 3.6083946385138312, 7.296229894913062]}]}, "task_ids": null, "uncorrected_energy_per_atom": null, "energy_per_atom": -18.380248491666666, "formation_energy_per_atom": -0.8292466416666661, "energy_above_hull": 0.0, "is_stable": true, "equilibrium_reaction_energy_per_atom": null, "decomposes_to": null, "xas": null, "grain_boundaries": null, "band_gap": 0.0, "cbm": null, "vbm": null, "efermi": 6.17279053, "is_gap_direct": null, "is_metal": null, "es_source_calc_id": null, "bandstructure": null, "dos": null, "dos_energy_up": null, "dos_energy_down": null, "is_magnetic": null, "ordering": null, "total_magnetization": 0.0, "total_magnetization_normalized_vol": null, "total_magnetization_normalized_formula_units": null, "num_magnetic_sites": null, "num_unique_magnetic_sites": null, "types_of_magnetic_species": null, "bulk_modulus": null, "shear_modulus": null, "universal_anisotropy": null, "homogeneous_poisson": null, "e_total": null, "e_ionic": null, "e_electronic": null, "n": null, "e_ij_max": null, "weighted_surface_energy_EV_PER_ANG2": null, "weighted_surface_energy": null, "weighted_work_function": null, "surface_anisotropy": null, "shape_factor": null, "has_reconstructed": null, "possible_species": null, "has_props": null, "theoretical": null, "database_IDs": null, "fields_not_requested": ["builder_meta", "nsites", "elements", "nelements", "composition", "composition_reduced", "chemsys", "symmetry", "property_name", "deprecated", "deprecation_reasons", "last_updated", "origins", "warnings", "task_ids", "uncorrected_energy_per_atom", "equilibrium_reaction_energy_per_atom", "decomposes_to", "xas", "grain_boundaries", "cbm", "vbm", "is_gap_direct", "is_metal", "es_source_calc_id", "bandstructure", "dos", "dos_energy_up", "dos_energy_down", "is_magnetic", "ordering", "total_magnetization_normalized_vol", "total_magnetization_normalized_formula_units", "num_magnetic_sites", "num_unique_magnetic_sites", "types_of_magnetic_species", "bulk_modulus", "shear_modulus", "universal_anisotropy", "homogeneous_poisson", "e_total", "e_ionic", "e_electronic", "n", "e_ij_max", "weighted_surface_energy_EV_PER_ANG2", "weighted_surface_energy", "weighted_work_function", "surface_anisotropy", "shape_factor", "has_reconstructed", "possible_species", "has_props", "theoretical", "database_IDs"]}