{"builder_meta": null, "nsites": null, "elements": null, "nelements": null, "composition": null, "composition_reduced": null, "formula_pretty": "AlPd5", "formula_anonymous": "AB5", "chemsys": null, "volume": 352.1224328557288, "density": 10.546067499658669, "density_atomic": 14.671768035655367, "symmetry": null, "property_name": null, "material_id": "mp-605663", "deprecated": null, "deprecation_reasons": null, "last_updated": null, "origins": null, "warnings": null, "structure": {"@module": "pymatgen.core.structure", "@class": "Structure", "charge": 0, "lattice": {"matrix": [[4.00296752, 0.0, 0.0], [0.0, 8.1327944, 0.0], [0.0, 0.0, 10.8161284]], "pbc": [true, true, true], "a": 4.00296752, "b": 8.1327944, "c": 10.8161284, "alpha": 90.0, "beta": 90.0, "gamma": 90.0, "volume": 352.1224328557288}, "properties": {}, "sites": [{"species": [{"element": "Al", "occu": 1}], "abc": [0.75, 0.11276128, 0.92082734], "properties": {"magmom": 0.0}, "label": "Al", "xyz": [3.0022256400000003, 0.917064306520832, 9.959786743670456]}, {"species": [{"element": "Al", "occu": 1}], "abc": [0.25, 0.61276128, 0.57917266], "properties": {"magmom": 0.0}, "label": "Al", "xyz": [1.00074188, 4.983461506520832, 6.264405856329544]}, {"species": [{"element": "Al", "occu": 1}], "abc": [0.25, 0.88723872, 0.07917266], "properties": {"magmom": 0.0}, "label": "Al", "xyz": [1.00074188, 7.215730093479168, 0.8563416563295441]}, {"species": [{"element": "Al", "occu": 1}], "abc": [0.75, 0.38723872, 0.42082734], "properties": {"magmom": 0.0}, "label": "Al", "xyz": [3.0022256400000003, 3.149332893479168, 4.551722543670456]}, {"species": [{"element": "Pd", "occu": 1}], "abc": [0.25, 0.21805202, 0.04347243], "properties": {"magmom": 0.0}, "label": "Pd", "xyz": [1.00074188, 1.773372247164688, 0.470203384740012]}, {"species": [{"element": "Pd", "occu": 1}], "abc": [0.75, 0.71620646, 0.2028076], "properties": {"magmom": 0.0}, "label": "Pd", "xyz": [3.0022256400000003, 5.824759887131824, 2.19359304209584]}, {"species": [{"element": "Pd", "occu": 1}], "abc": [0.25, 0.54547764, 0.33571174], "properties": {"magmom": 0.0}, "label": "Pd", "xyz": [1.00074188, 4.436257495917216, 3.631101285227416]}, {"species": [{"element": "Pd", "occu": 1}], "abc": [0.75, 0.45452236, 0.66428826], "properties": {"magmom": 0.0}, "label": "Pd", "xyz": [3.0022256400000003, 3.6965369040827842, 7.185027114772584]}, {"species": [{"element": "Pd", "occu": 1}], "abc": [0.25, 0.95452236, 0.83571174], "properties": {"magmom": 0.0}, "label": "Pd", "xyz": [1.00074188, 7.762934104082784, 9.039165485227416]}, {"species": [{"element": "Pd", "occu": 1}], "abc": [0.25, 0.28379354, 0.797192399999999], "properties": {"magmom": 0.0}, "label": "Pd", "xyz": [1.00074188, 2.308034512868176, 8.62253535790415]}, {"species": [{"element": "Pd", "occu": 1}], "abc": [0.75, 0.71805202, 0.45652757], "properties": {"magmom": 0.0}, "label": "Pd", "xyz": [3.0022256400000003, 5.839769447164688, 4.937860815259988]}, {"species": [{"element": "Pd", "occu": 1}], "abc": [0.25, 0.57251663, 0.06956725], "properties": {"magmom": -0.0}, "label": "Pd", "xyz": [1.00074188, 4.656160042370872, 0.7524483084349]}, {"species": [{"element": "Pd", "occu": 1}], "abc": [0.25, 0.92748337, 0.56956725], "properties": {"magmom": -0.0}, "label": "Pd", "xyz": [1.00074188, 7.543031557629128, 6.1605125084349]}, {"species": [{"element": "Pd", "occu": 1}], "abc": [0.75, 0.78379354, 0.7028076], "properties": {"magmom": 0.0}, "label": "Pd", "xyz": [3.0022256400000003, 6.374431712868176, 7.60165724209584]}, {"species": [{"element": "Pd", "occu": 1}], "abc": [0.75, 0.38630347, 0.18445638], "properties": {"magmom": 0.0}, "label": "Pd", "xyz": [3.0022256400000003, 3.141726697516568, 1.995103890279192]}, {"species": [{"element": "Pd", "occu": 1}], "abc": [0.75, 0.07251663, 0.43043275000000003], "properties": {"magmom": -0.0}, "label": "Pd", "xyz": [3.0022256400000003, 0.589762842370872, 4.6556158915651]}, {"species": [{"element": "Pd", "occu": 1}], "abc": [0.25, 0.28194798, 0.54347243], "properties": {"magmom": 0.0}, "label": "Pd", "xyz": [1.00074188, 2.293024952835312, 5.878267584740012]}, {"species": [{"element": "Pd", "occu": 1}], "abc": [0.75, 0.78194798, 0.95652757], "properties": {"magmom": 0.0}, "label": "Pd", "xyz": [3.0022256400000003, 6.359422152835312, 10.345925015259988]}, {"species": [{"element": "Pd", "occu": 1}], "abc": [0.25, 0.21620646000000002, 0.297192399999999], "properties": {"magmom": 0.0}, "label": "Pd", "xyz": [1.00074188, 1.758362687131824, 3.2144711579041494]}, {"species": [{"element": "Pd", "occu": 1}], "abc": [0.75, 0.04547764, 0.16428826], "properties": {"magmom": 0.0}, "label": "Pd", "xyz": [3.0022256400000003, 0.369860295917216, 1.7769629147725838]}, {"species": [{"element": "Pd", "occu": 1}], "abc": [0.25, 0.61369653, 0.81554362], "properties": {"magmom": 0.0}, "label": "Pd", "xyz": [1.00074188, 4.9910677024834325, 8.821024509720809]}, {"species": [{"element": "Pd", "occu": 1}], "abc": [0.75, 0.42748337000000003, 0.93043275], "properties": {"magmom": -0.0}, "label": "Pd", "xyz": [3.0022256400000003, 3.4766343576291283, 10.0636800915651]}, {"species": [{"element": "Pd", "occu": 1}], "abc": [0.25, 0.88630347, 0.31554362], "properties": {"magmom": 0.0}, "label": "Pd", "xyz": [1.00074188, 7.208123897516567, 3.4129603097208085]}, {"species": [{"element": "Pd", "occu": 1}], "abc": [0.75, 0.11369653, 0.68445638], "properties": {"magmom": 0.0}, "label": "Pd", "xyz": [3.0022256400000003, 0.924670502483432, 7.403168090279192]}]}, "task_ids": null, "uncorrected_energy_per_atom": null, "energy_per_atom": -20.717772688333334, "formation_energy_per_atom": -0.46204495833333203, "energy_above_hull": 0.0, "is_stable": true, "equilibrium_reaction_energy_per_atom": null, "decomposes_to": null, "xas": null, "grain_boundaries": null, "band_gap": 0.0, "cbm": null, "vbm": null, "efermi": 4.66054003, "is_gap_direct": null, "is_metal": null, "es_source_calc_id": null, "bandstructure": null, "dos": null, "dos_energy_up": null, "dos_energy_down": null, "is_magnetic": null, "ordering": null, "total_magnetization": 1e-07, "total_magnetization_normalized_vol": null, "total_magnetization_normalized_formula_units": null, "num_magnetic_sites": null, "num_unique_magnetic_sites": null, "types_of_magnetic_species": null, "bulk_modulus": null, "shear_modulus": null, "universal_anisotropy": null, "homogeneous_poisson": null, "e_total": null, "e_ionic": null, "e_electronic": null, "n": null, "e_ij_max": null, "weighted_surface_energy_EV_PER_ANG2": null, "weighted_surface_energy": null, "weighted_work_function": null, "surface_anisotropy": null, "shape_factor": null, "has_reconstructed": null, "possible_species": null, "has_props": null, "theoretical": null, "database_IDs": null, "fields_not_requested": ["builder_meta", "nsites", "elements", "nelements", "composition", "composition_reduced", "chemsys", "symmetry", "property_name", "deprecated", "deprecation_reasons", "last_updated", "origins", "warnings", "task_ids", "uncorrected_energy_per_atom", "equilibrium_reaction_energy_per_atom", "decomposes_to", "xas", "grain_boundaries", "cbm", "vbm", "is_gap_direct", "is_metal", "es_source_calc_id", "bandstructure", "dos", "dos_energy_up", "dos_energy_down", "is_magnetic", "ordering", "total_magnetization_normalized_vol", "total_magnetization_normalized_formula_units", "num_magnetic_sites", "num_unique_magnetic_sites", "types_of_magnetic_species", "bulk_modulus", "shear_modulus", "universal_anisotropy", "homogeneous_poisson", "e_total", "e_ionic", "e_electronic", "n", "e_ij_max", "weighted_surface_energy_EV_PER_ANG2", "weighted_surface_energy", "weighted_work_function", "surface_anisotropy", "shape_factor", "has_reconstructed", "possible_species", "has_props", "theoretical", "database_IDs"]}