{
  "builder_meta": null,
  "nsites": null,
  "elements": null,
  "nelements": null,
  "composition": null,
  "composition_reduced": null,
  "formula_pretty": "AlPt3",
  "formula_anonymous": "AB3",
  "chemsys": null,
  "volume": 236.14101210892144,
  "density": 17.220857989024434,
  "density_atomic": 14.75881325680759,
  "symmetry": null,
  "property_name": null,
  "material_id": "mp-607111",
  "deprecated": null,
  "deprecation_reasons": null,
  "last_updated": null,
  "origins": null,
  "warnings": null,
  "structure": {
    "@module": "pymatgen.core.structure",
    "@class": "Structure",
    "charge": 0,
    "lattice": {
      "matrix": [
        [5.48242533, 2.2820000000000002e-5, 3.2210000000000005e-5],
        [2.2820000000000002e-5, 5.48238079, 3.0760000000000004e-5],
        [2.9460000000000003e-5, 2.481e-5, 7.85650693]
      ],
      "pbc": [true, true, true],
      "a": 5.482425330142112,
      "b": 5.482380790133786,
      "c": 7.856506930094408,
      "alpha": 89.99949759573087,
      "beta": 89.99944853338206,
      "gamma": 89.99952302125496,
      "volume": 236.14101210892144
    },
    "properties": {},
    "sites": [
      {
        "species": [{ "element": "Al", "occu": 1 }],
        "abc": [0.49999992, 2e-8, 0.23624845],
        "properties": { "magmom": -0.0 },
        "label": "Al",
        "xyz": [2.741219186285767, 1.7380969834700002e-5, 1.856103689624797]
      },
      {
        "species": [{ "element": "Al", "occu": 1 }],
        "abc": [0.99998948, 0.49998978, 0.763763],
        "properties": { "magmom": 0.0 },
        "label": "Al",
        "xyz": [5.482401565110288, 2.7411761337882896, 6.000556891724373]
      },
      {
        "species": [{ "element": "Al", "occu": 1 }],
        "abc": [4.89e-6, 0.50000777, 0.23624284],
        "properties": { "magmom": 0.0 },
        "label": "Al",
        "xyz": [4.5178951241500005e-5, 2.7412388543951884, 1.8560588900193935]
      },
      {
        "species": [{ "element": "Al", "occu": 1 }],
        "abc": [0.50000634, 8.119999999999997e-6, 0.7637579800000001],
        "properties": { "magmom": 0.0 },
        "label": "Al",
        "xyz": [2.741269924071981, 7.487591217739998e-5, 6.000485968166785]
      },
      {
        "species": [{ "element": "Pt", "occu": 1 }],
        "abc": [0.23710257, 0.73720904, 2.3660000000000004e-5],
        "properties": { "magmom": -0.0 },
        "label": "Pt",
        "xyz": [1.2999139593834146, 4.041666090377993, 0.00021619857781390004]
      },
      {
        "species": [{ "element": "Pt", "occu": 1 }],
        "abc": [1.811e-5, 1.131e-5, 0.25401915],
        "properties": { "magmom": -0.0 },
        "label": "Pt",
        "xyz": [0.0001067703849795, 6.830835511660001e-5, 1.9957032132589283]
      },
      {
        "species": [{ "element": "Pt", "occu": 1 }],
        "abc": [0.69017269, 0.19005024, 0.49994664],
        "properties": { "magmom": -0.0 },
        "label": "Pt",
        "xyz": [3.783839303104729, 1.0419559383278139, 3.9278623181979424]
      },
      {
        "species": [{ "element": "Pt", "occu": 1 }],
        "abc": [0.19004745, 0.30982665, 0.49996057],
        "properties": { "magmom": -0.0 },
        "label": "Pt",
        "xyz": [1.0419427528644538, 1.698604415094604, 3.9279593346278685]
      },
      {
        "species": [{ "element": "Pt", "occu": 1 }],
        "abc": [0.76289652, 0.2627619, 3.588e-5],
        "properties": { "magmom": -0.0 },
        "label": "Pt",
        "xyz": [4.182529202700434, 1.44057820309267, 0.0003145469216016]
      },
      {
        "species": [{ "element": "Pt", "occu": 1 }],
        "abc": [0.80995457, 0.69017675, 0.49995873],
        "properties": { "magmom": 0.0 },
        "label": "Pt",
        "xyz": [4.4405459293348795, 3.783842643044011, 3.9279765454325286]
      },
      {
        "species": [{ "element": "Pt", "occu": 1 }],
        "abc": [0.30983706, 0.8099571600000001, 0.49995053],
        "properties": { "magmom": -0.0 },
        "label": "Pt",
        "xyz": [1.6986917576817349, 4.440513048961315, 3.927899697736117]
      },
      {
        "species": [{ "element": "Pt", "occu": 1 }],
        "abc": [0.73722632, 0.76290262, 3.096e-5],
        "properties": { "magmom": -0.0 },
        "label": "Pt",
        "xyz": [4.041805661060556, 4.18253949280141, 0.0002904503989112]
      },
      {
        "species": [{ "element": "Pt", "occu": 1 }],
        "abc": [0.49997894, 0.499994599999999, 0.25396951],
        "properties": { "magmom": -0.0 },
        "label": "Pt",
        "xyz": [2.7411160969410866, 2.741178500646682, 1.9953446994792576]
      },
      {
        "species": [{ "element": "Pt", "occu": 1 }],
        "abc": [-6.93e-6, 3.5e-7, 0.74600369],
        "properties": { "magmom": -0.0 },
        "label": "Pt",
        "xyz": [-1.60159308425e-5, 2.04270266828e-5, 5.860983160078122]
      },
      {
        "species": [{ "element": "Pt", "occu": 1 }],
        "abc": [0.26277586, 0.23710854, 3.058e-5],
        "properties": { "magmom": -0.0 },
        "label": "Pt",
        "xyz": [1.4406544426943033, 1.2999253021447614, 0.0002560094510604]
      },
      {
        "species": [{ "element": "Pt", "occu": 1 }],
        "abc": [0.49999721, 0.49999815000000003, 0.74605984],
        "properties": { "magmom": -0.0 },
        "label": "Pt",
        "xyz": [2.741230757913999, 2.741210172276501, 5.861455788007919]
      }
    ]
  },
  "task_ids": null,
  "uncorrected_energy_per_atom": null,
  "energy_per_atom": -41.051937880625,
  "formation_energy_per_atom": -0.7531256231249941,
  "energy_above_hull": 0.0,
  "is_stable": true,
  "equilibrium_reaction_energy_per_atom": null,
  "decomposes_to": null,
  "xas": null,
  "grain_boundaries": null,
  "band_gap": 0.0,
  "cbm": null,
  "vbm": null,
  "efermi": 7.8721545,
  "is_gap_direct": null,
  "is_metal": null,
  "es_source_calc_id": null,
  "bandstructure": null,
  "dos": null,
  "dos_energy_up": null,
  "dos_energy_down": null,
  "is_magnetic": null,
  "ordering": null,
  "total_magnetization": 2e-7,
  "total_magnetization_normalized_vol": null,
  "total_magnetization_normalized_formula_units": null,
  "num_magnetic_sites": null,
  "num_unique_magnetic_sites": null,
  "types_of_magnetic_species": null,
  "bulk_modulus": null,
  "shear_modulus": null,
  "universal_anisotropy": null,
  "homogeneous_poisson": null,
  "e_total": null,
  "e_ionic": null,
  "e_electronic": null,
  "n": null,
  "e_ij_max": null,
  "weighted_surface_energy_EV_PER_ANG2": null,
  "weighted_surface_energy": null,
  "weighted_work_function": null,
  "surface_anisotropy": null,
  "shape_factor": null,
  "has_reconstructed": null,
  "possible_species": null,
  "has_props": null,
  "theoretical": null,
  "database_IDs": null,
  "fields_not_requested": [
    "builder_meta",
    "nsites",
    "elements",
    "nelements",
    "composition",
    "composition_reduced",
    "chemsys",
    "symmetry",
    "property_name",
    "deprecated",
    "deprecation_reasons",
    "last_updated",
    "origins",
    "warnings",
    "task_ids",
    "uncorrected_energy_per_atom",
    "equilibrium_reaction_energy_per_atom",
    "decomposes_to",
    "xas",
    "grain_boundaries",
    "cbm",
    "vbm",
    "is_gap_direct",
    "is_metal",
    "es_source_calc_id",
    "bandstructure",
    "dos",
    "dos_energy_up",
    "dos_energy_down",
    "is_magnetic",
    "ordering",
    "total_magnetization_normalized_vol",
    "total_magnetization_normalized_formula_units",
    "num_magnetic_sites",
    "num_unique_magnetic_sites",
    "types_of_magnetic_species",
    "bulk_modulus",
    "shear_modulus",
    "universal_anisotropy",
    "homogeneous_poisson",
    "e_total",
    "e_ionic",
    "e_electronic",
    "n",
    "e_ij_max",
    "weighted_surface_energy_EV_PER_ANG2",
    "weighted_surface_energy",
    "weighted_work_function",
    "surface_anisotropy",
    "shape_factor",
    "has_reconstructed",
    "possible_species",
    "has_props",
    "theoretical",
    "database_IDs"
  ]
}
