{
  "builder_meta": null,
  "nsites": null,
  "elements": null,
  "nelements": null,
  "composition": null,
  "composition_reduced": null,
  "formula_pretty": "AlPt",
  "formula_anonymous": "AB",
  "chemsys": null,
  "volume": 116.13799235875254,
  "density": 12.700357383544183,
  "density_atomic": 14.517249044844068,
  "symmetry": null,
  "property_name": null,
  "material_id": "mp-10904",
  "deprecated": null,
  "deprecation_reasons": null,
  "last_updated": null,
  "origins": null,
  "warnings": null,
  "structure": {
    "@module": "pymatgen.core.structure",
    "@class": "Structure",
    "charge": 0,
    "lattice": {
      "matrix": [
        [4.87893207, 0.0, 0.0],
        [0.0, 4.87893207, -0.0],
        [0.0, 0.0, 4.87893207]
      ],
      "pbc": [true, true, true],
      "a": 4.87893207,
      "b": 4.87893207,
      "c": 4.87893207,
      "alpha": 90.0,
      "beta": 90.0,
      "gamma": 90.0,
      "volume": 116.13799235875254
    },
    "properties": {},
    "sites": [
      {
        "species": [{ "element": "Al", "occu": 1 }],
        "abc": [0.8440321, 0.8440321, 0.8440321],
        "properties": { "magmom": -0.0 },
        "label": "Al",
        "xyz": [4.117975280799447, 4.117975280799447, 4.117975280799447]
      },
      {
        "species": [{ "element": "Al", "occu": 1 }],
        "abc": [0.655967899999999, 0.1559679, 0.3440321],
        "properties": { "magmom": -0.0 },
        "label": "Al",
        "xyz": [3.2004228242005484, 0.760956789200553, 1.678509245799447]
      },
      {
        "species": [{ "element": "Al", "occu": 1 }],
        "abc": [0.3440321, 0.655967899999999, 0.1559679],
        "properties": { "magmom": -0.0 },
        "label": "Al",
        "xyz": [1.678509245799447, 3.2004228242005484, 0.760956789200553]
      },
      {
        "species": [{ "element": "Al", "occu": 1 }],
        "abc": [0.1559679, 0.3440321, 0.655967899999999],
        "properties": { "magmom": -0.0 },
        "label": "Al",
        "xyz": [0.760956789200553, 1.678509245799447, 3.2004228242005484]
      },
      {
        "species": [{ "element": "Pt", "occu": 1 }],
        "abc": [0.15506306, 0.15506306, 0.15506306],
        "properties": { "magmom": -0.0 },
        "label": "Pt",
        "xyz": [0.7565421363063343, 0.7565421363063343, 0.7565421363063343]
      },
      {
        "species": [{ "element": "Pt", "occu": 1 }],
        "abc": [0.34493694, 0.84493694, 0.65506306],
        "properties": { "magmom": -0.0 },
        "label": "Pt",
        "xyz": [1.682923898693666, 4.122389933693666, 3.1960081713063344]
      },
      {
        "species": [{ "element": "Pt", "occu": 1 }],
        "abc": [0.65506306, 0.34493694, 0.84493694],
        "properties": { "magmom": -0.0 },
        "label": "Pt",
        "xyz": [3.1960081713063344, 1.682923898693666, 4.122389933693666]
      },
      {
        "species": [{ "element": "Pt", "occu": 1 }],
        "abc": [0.84493694, 0.65506306, 0.34493694],
        "properties": { "magmom": -0.0 },
        "label": "Pt",
        "xyz": [4.122389933693666, 3.1960081713063344, 1.682923898693666]
      }
    ]
  },
  "task_ids": null,
  "uncorrected_energy_per_atom": null,
  "energy_per_atom": -30.240923465,
  "formation_energy_per_atom": -1.13101585,
  "energy_above_hull": 0.0,
  "is_stable": true,
  "equilibrium_reaction_energy_per_atom": null,
  "decomposes_to": null,
  "xas": null,
  "grain_boundaries": null,
  "band_gap": 0.0,
  "cbm": null,
  "vbm": null,
  "efermi": 8.3920993,
  "is_gap_direct": null,
  "is_metal": null,
  "es_source_calc_id": null,
  "bandstructure": null,
  "dos": null,
  "dos_energy_up": null,
  "dos_energy_down": null,
  "is_magnetic": null,
  "ordering": null,
  "total_magnetization": 0.0,
  "total_magnetization_normalized_vol": null,
  "total_magnetization_normalized_formula_units": null,
  "num_magnetic_sites": null,
  "num_unique_magnetic_sites": null,
  "types_of_magnetic_species": null,
  "bulk_modulus": null,
  "shear_modulus": null,
  "universal_anisotropy": null,
  "homogeneous_poisson": null,
  "e_total": null,
  "e_ionic": null,
  "e_electronic": null,
  "n": null,
  "e_ij_max": null,
  "weighted_surface_energy_EV_PER_ANG2": null,
  "weighted_surface_energy": null,
  "weighted_work_function": null,
  "surface_anisotropy": null,
  "shape_factor": null,
  "has_reconstructed": null,
  "possible_species": null,
  "has_props": null,
  "theoretical": null,
  "database_IDs": null,
  "fields_not_requested": [
    "builder_meta",
    "nsites",
    "elements",
    "nelements",
    "composition",
    "composition_reduced",
    "chemsys",
    "symmetry",
    "property_name",
    "deprecated",
    "deprecation_reasons",
    "last_updated",
    "origins",
    "warnings",
    "task_ids",
    "uncorrected_energy_per_atom",
    "equilibrium_reaction_energy_per_atom",
    "decomposes_to",
    "xas",
    "grain_boundaries",
    "cbm",
    "vbm",
    "is_gap_direct",
    "is_metal",
    "es_source_calc_id",
    "bandstructure",
    "dos",
    "dos_energy_up",
    "dos_energy_down",
    "is_magnetic",
    "ordering",
    "total_magnetization_normalized_vol",
    "total_magnetization_normalized_formula_units",
    "num_magnetic_sites",
    "num_unique_magnetic_sites",
    "types_of_magnetic_species",
    "bulk_modulus",
    "shear_modulus",
    "universal_anisotropy",
    "homogeneous_poisson",
    "e_total",
    "e_ionic",
    "e_electronic",
    "n",
    "e_ij_max",
    "weighted_surface_energy_EV_PER_ANG2",
    "weighted_surface_energy",
    "weighted_work_function",
    "surface_anisotropy",
    "shape_factor",
    "has_reconstructed",
    "possible_species",
    "has_props",
    "theoretical",
    "database_IDs"
  ]
}
