{
  "builder_meta": null,
  "nsites": null,
  "elements": null,
  "nelements": null,
  "composition": null,
  "composition_reduced": null,
  "formula_pretty": "AlPt2",
  "formula_anonymous": "AB2",
  "chemsys": null,
  "volume": 351.07281950517887,
  "density": 15.784602326908336,
  "density_atomic": 14.628034146049119,
  "symmetry": null,
  "property_name": null,
  "material_id": "mp-16960",
  "deprecated": null,
  "deprecation_reasons": null,
  "last_updated": null,
  "origins": null,
  "warnings": null,
  "structure": {
    "@module": "pymatgen.core.structure",
    "@class": "Structure",
    "charge": 0,
    "lattice": {
      "matrix": [
        [3.92456872, 0.0, 0.0],
        [0.0, 5.46447677, 0.0],
        [0.0, -0.0, 16.37030176]
      ],
      "pbc": [true, true, true],
      "a": 3.92456872,
      "b": 5.46447677,
      "c": 16.37030176,
      "alpha": 90.0,
      "beta": 90.0,
      "gamma": 90.0,
      "volume": 351.07281950517887
    },
    "properties": {},
    "sites": [
      {
        "species": [{ "element": "Al", "occu": 1 }],
        "abc": [0.0, 0.20759242, 0.75],
        "properties": { "magmom": 0.0 },
        "label": "Al",
        "xyz": [0.0, 1.1343839567180833, 12.27772632]
      },
      {
        "species": [{ "element": "Al", "occu": 1 }],
        "abc": [0.0, 0.79240758, 0.25],
        "properties": { "magmom": 0.0 },
        "label": "Al",
        "xyz": [0.0, 4.330092813281917, 4.09257544]
      },
      {
        "species": [{ "element": "Al", "occu": 1 }],
        "abc": [0.0, 0.69079348, 0.5911455],
        "properties": { "magmom": 0.0 },
        "label": "Al",
        "xyz": [0.0, 3.7748249243274596, 9.67723021906608]
      },
      {
        "species": [{ "element": "Al", "occu": 1 }],
        "abc": [0.0, 0.30920652, 0.408854499999999],
        "properties": { "magmom": 0.0 },
        "label": "Al",
        "xyz": [0.0, 1.6896518456725405, 6.693071540933904]
      },
      {
        "species": [{ "element": "Al", "occu": 1 }],
        "abc": [0.0, 0.69079348, 0.9088545],
        "properties": { "magmom": 0.0 },
        "label": "Al",
        "xyz": [0.0, 3.7748249243274596, 14.87822242093392]
      },
      {
        "species": [{ "element": "Al", "occu": 1 }],
        "abc": [-0.0, 0.30920652, 0.091145499999999],
        "properties": { "magmom": 0.0 },
        "label": "Al",
        "xyz": [0.0, 1.6896518456725405, 1.4920793390660638]
      },
      {
        "species": [{ "element": "Al", "occu": 1 }],
        "abc": [0.5, 0.0, 0.5],
        "properties": { "magmom": -0.0 },
        "label": "Al",
        "xyz": [1.96228436, 0.0, 8.18515088]
      },
      {
        "species": [{ "element": "Al", "occu": 1 }],
        "abc": [0.5, 0.0, -0.0],
        "properties": { "magmom": -0.0 },
        "label": "Al",
        "xyz": [1.96228436, 0.0, 0.0]
      },
      {
        "species": [{ "element": "Pt", "occu": 1 }],
        "abc": [0.5, 0.05110385, 0.34370778],
        "properties": { "magmom": 0.0 },
        "label": "Pt",
        "xyz": [1.96228436, 0.2792558011825645, 5.6266000758596935]
      },
      {
        "species": [{ "element": "Pt", "occu": 1 }],
        "abc": [0.5, 0.94889615, 0.65629222],
        "properties": { "magmom": 0.0 },
        "label": "Pt",
        "xyz": [1.96228436, 5.185220968817436, 10.743701684140307]
      },
      {
        "species": [{ "element": "Pt", "occu": 1 }],
        "abc": [0.5, 0.55496123, 0.16765445],
        "properties": { "magmom": -0.0 },
        "label": "Pt",
        "xyz": [1.96228436, 3.032572749585627, 2.744553937906832]
      },
      {
        "species": [{ "element": "Pt", "occu": 1 }],
        "abc": [0.5, 0.44503877000000003, 0.83234555],
        "properties": { "magmom": -0.0 },
        "label": "Pt",
        "xyz": [1.96228436, 2.431904020414373, 13.625747822093167]
      },
      {
        "species": [{ "element": "Pt", "occu": 1 }],
        "abc": [0.5, 0.55496123, 0.33234555],
        "properties": { "magmom": -0.0 },
        "label": "Pt",
        "xyz": [1.96228436, 3.032572749585627, 5.440596942093168]
      },
      {
        "species": [{ "element": "Pt", "occu": 1 }],
        "abc": [0.5, 0.44503877000000003, 0.66765445],
        "properties": { "magmom": -0.0 },
        "label": "Pt",
        "xyz": [1.96228436, 2.431904020414373, 10.929704817906833]
      },
      {
        "species": [{ "element": "Pt", "occu": 1 }],
        "abc": [0.0, 0.27094469, 0.25],
        "properties": { "magmom": -0.0 },
        "label": "Pt",
        "xyz": [0.0, 1.4805709644598513, 4.09257544]
      },
      {
        "species": [{ "element": "Pt", "occu": 1 }],
        "abc": [0.0, 0.72905531, 0.75],
        "properties": { "magmom": -0.0 },
        "label": "Pt",
        "xyz": [0.0, 3.983905805540149, 12.27772632]
      },
      {
        "species": [{ "element": "Pt", "occu": 1 }],
        "abc": [0.5, 0.94889615, 0.84370778],
        "properties": { "magmom": 0.0 },
        "label": "Pt",
        "xyz": [1.96228436, 5.185220968817436, 13.811750955859694]
      },
      {
        "species": [{ "element": "Pt", "occu": 1 }],
        "abc": [0.5, 0.05110385, 0.15629222],
        "properties": { "magmom": 0.0 },
        "label": "Pt",
        "xyz": [1.96228436, 0.2792558011825645, 2.5585508041403076]
      },
      {
        "species": [{ "element": "Pt", "occu": 1 }],
        "abc": [0.5, 0.5, 0.5],
        "properties": { "magmom": -0.0 },
        "label": "Pt",
        "xyz": [1.96228436, 2.732238385, 8.18515088]
      },
      {
        "species": [{ "element": "Pt", "occu": 1 }],
        "abc": [0.5, 0.5, -0.0],
        "properties": { "magmom": -0.0 },
        "label": "Pt",
        "xyz": [1.96228436, 2.732238385, 0.0]
      },
      {
        "species": [{ "element": "Pt", "occu": 1 }],
        "abc": [0.0, 0.20265005, 0.56911512],
        "properties": { "magmom": 0.0 },
        "label": "Pt",
        "xyz": [0.0, 1.1073764906643384, 9.316586250578611]
      },
      {
        "species": [{ "element": "Pt", "occu": 1 }],
        "abc": [-0.0, 0.79734995, 0.43088488],
        "properties": { "magmom": 0.0 },
        "label": "Pt",
        "xyz": [0.0, 4.357100279335661, 7.053715509421389]
      },
      {
        "species": [{ "element": "Pt", "occu": 1 }],
        "abc": [0.0, 0.20265005, 0.93088488],
        "properties": { "magmom": 0.0 },
        "label": "Pt",
        "xyz": [0.0, 1.1073764906643384, 15.23886638942139]
      },
      {
        "species": [{ "element": "Pt", "occu": 1 }],
        "abc": [-0.0, 0.79734995, 0.06911512],
        "properties": { "magmom": 0.0 },
        "label": "Pt",
        "xyz": [0.0, 4.357100279335661, 1.1314353705786113]
      }
    ]
  },
  "task_ids": null,
  "uncorrected_energy_per_atom": null,
  "energy_per_atom": -37.493029649166665,
  "formation_energy_per_atom": -0.923852272499999,
  "energy_above_hull": 0.0,
  "is_stable": true,
  "equilibrium_reaction_energy_per_atom": null,
  "decomposes_to": null,
  "xas": null,
  "grain_boundaries": null,
  "band_gap": 0.0,
  "cbm": null,
  "vbm": null,
  "efermi": 8.2282758,
  "is_gap_direct": null,
  "is_metal": null,
  "es_source_calc_id": null,
  "bandstructure": null,
  "dos": null,
  "dos_energy_up": null,
  "dos_energy_down": null,
  "is_magnetic": null,
  "ordering": null,
  "total_magnetization": 0.0,
  "total_magnetization_normalized_vol": null,
  "total_magnetization_normalized_formula_units": null,
  "num_magnetic_sites": null,
  "num_unique_magnetic_sites": null,
  "types_of_magnetic_species": null,
  "bulk_modulus": null,
  "shear_modulus": null,
  "universal_anisotropy": null,
  "homogeneous_poisson": null,
  "e_total": null,
  "e_ionic": null,
  "e_electronic": null,
  "n": null,
  "e_ij_max": null,
  "weighted_surface_energy_EV_PER_ANG2": null,
  "weighted_surface_energy": null,
  "weighted_work_function": null,
  "surface_anisotropy": null,
  "shape_factor": null,
  "has_reconstructed": null,
  "possible_species": null,
  "has_props": null,
  "theoretical": null,
  "database_IDs": null,
  "fields_not_requested": [
    "builder_meta",
    "nsites",
    "elements",
    "nelements",
    "composition",
    "composition_reduced",
    "chemsys",
    "symmetry",
    "property_name",
    "deprecated",
    "deprecation_reasons",
    "last_updated",
    "origins",
    "warnings",
    "task_ids",
    "uncorrected_energy_per_atom",
    "equilibrium_reaction_energy_per_atom",
    "decomposes_to",
    "xas",
    "grain_boundaries",
    "cbm",
    "vbm",
    "is_gap_direct",
    "is_metal",
    "es_source_calc_id",
    "bandstructure",
    "dos",
    "dos_energy_up",
    "dos_energy_down",
    "is_magnetic",
    "ordering",
    "total_magnetization_normalized_vol",
    "total_magnetization_normalized_formula_units",
    "num_magnetic_sites",
    "num_unique_magnetic_sites",
    "types_of_magnetic_species",
    "bulk_modulus",
    "shear_modulus",
    "universal_anisotropy",
    "homogeneous_poisson",
    "e_total",
    "e_ionic",
    "e_electronic",
    "n",
    "e_ij_max",
    "weighted_surface_energy_EV_PER_ANG2",
    "weighted_surface_energy",
    "weighted_work_function",
    "surface_anisotropy",
    "shape_factor",
    "has_reconstructed",
    "possible_species",
    "has_props",
    "theoretical",
    "database_IDs"
  ]
}
