{
  "builder_meta": null,
  "nsites": null,
  "elements": null,
  "nelements": null,
  "composition": null,
  "composition_reduced": null,
  "formula_pretty": "AlTc3",
  "formula_anonymous": "AB3",
  "chemsys": null,
  "volume": 116.03453420279612,
  "density": 9.18696124674635,
  "density_atomic": 14.504316775349515,
  "symmetry": null,
  "property_name": null,
  "material_id": "mp-1183188",
  "deprecated": null,
  "deprecation_reasons": null,
  "last_updated": null,
  "origins": null,
  "warnings": null,
  "structure": {
    "@module": "pymatgen.core.structure",
    "@class": "Structure",
    "charge": 0,
    "lattice": {
      "matrix": [
        [2.7088, -4.691779, 0.0],
        [2.7088, 4.691779, 0.0],
        [0.0, 0.0, 4.565021]
      ],
      "pbc": [true, true, true],
      "a": 5.417599802942351,
      "b": 5.417599802942351,
      "c": 4.565021,
      "alpha": 90.0,
      "beta": 90.0,
      "gamma": 119.99999759354151,
      "volume": 116.03453420279612
    },
    "properties": {},
    "sites": [
      {
        "species": [{ "element": "Al", "occu": 1 }],
        "abc": [0.333333, 0.666667, 0.75],
        "properties": { "magmom": -0.0 },
        "label": "Al",
        "xyz": [2.7088, 1.5639294611860004, 3.42376575]
      },
      {
        "species": [{ "element": "Al", "occu": 1 }],
        "abc": [0.666667, 0.333333, 0.25],
        "properties": { "magmom": 0.0 },
        "label": "Al",
        "xyz": [2.7088, -1.5639294611860004, 1.14125525]
      },
      {
        "species": [{ "element": "Tc", "occu": 1 }],
        "abc": [0.170878, 0.341757, 0.25],
        "properties": { "magmom": -0.0 },
        "label": "Tc",
        "xyz": [1.3886256879999999, 0.8017265037409999, 1.14125525]
      },
      {
        "species": [{ "element": "Tc", "occu": 1 }],
        "abc": [0.658243, 0.829121999999999, 0.25],
        "properties": { "magmom": 0.0 },
        "label": "Tc",
        "xyz": [4.028974311999997, 0.8017265037409955, 1.14125525]
      },
      {
        "species": [{ "element": "Tc", "occu": 1 }],
        "abc": [0.170878, 0.829121999999999, 0.25],
        "properties": { "magmom": -0.0 },
        "label": "Tc",
        "xyz": [2.7087999999999974, 3.088335376075996, 1.14125525]
      },
      {
        "species": [{ "element": "Tc", "occu": 1 }],
        "abc": [0.829121999999999, 0.658243, 0.75],
        "properties": { "magmom": 0.0 },
        "label": "Tc",
        "xyz": [4.028974311999997, -0.8017265037409955, 3.42376575]
      },
      {
        "species": [{ "element": "Tc", "occu": 1 }],
        "abc": [0.341757, 0.170878, 0.75],
        "properties": { "magmom": 0.001 },
        "label": "Tc",
        "xyz": [1.3886256879999999, -0.8017265037409999, 3.42376575]
      },
      {
        "species": [{ "element": "Tc", "occu": 1 }],
        "abc": [0.829121999999999, 0.170878, 0.75],
        "properties": { "magmom": -0.0 },
        "label": "Tc",
        "xyz": [2.7087999999999974, -3.088335376075996, 3.42376575]
      }
    ]
  },
  "task_ids": null,
  "uncorrected_energy_per_atom": null,
  "energy_per_atom": -21.308931989999998,
  "formation_energy_per_atom": -0.152410869999997,
  "energy_above_hull": 0.198298615000002,
  "is_stable": false,
  "equilibrium_reaction_energy_per_atom": null,
  "decomposes_to": null,
  "xas": null,
  "grain_boundaries": null,
  "band_gap": 0.0,
  "cbm": null,
  "vbm": null,
  "efermi": 8.70152347,
  "is_gap_direct": null,
  "is_metal": null,
  "es_source_calc_id": null,
  "bandstructure": null,
  "dos": null,
  "dos_energy_up": null,
  "dos_energy_down": null,
  "is_magnetic": null,
  "ordering": null,
  "total_magnetization": 0.0032182,
  "total_magnetization_normalized_vol": null,
  "total_magnetization_normalized_formula_units": null,
  "num_magnetic_sites": null,
  "num_unique_magnetic_sites": null,
  "types_of_magnetic_species": null,
  "bulk_modulus": null,
  "shear_modulus": null,
  "universal_anisotropy": null,
  "homogeneous_poisson": null,
  "e_total": null,
  "e_ionic": null,
  "e_electronic": null,
  "n": null,
  "e_ij_max": null,
  "weighted_surface_energy_EV_PER_ANG2": null,
  "weighted_surface_energy": null,
  "weighted_work_function": null,
  "surface_anisotropy": null,
  "shape_factor": null,
  "has_reconstructed": null,
  "possible_species": null,
  "has_props": null,
  "theoretical": null,
  "database_IDs": null,
  "fields_not_requested": [
    "builder_meta",
    "nsites",
    "elements",
    "nelements",
    "composition",
    "composition_reduced",
    "chemsys",
    "symmetry",
    "property_name",
    "deprecated",
    "deprecation_reasons",
    "last_updated",
    "origins",
    "warnings",
    "task_ids",
    "uncorrected_energy_per_atom",
    "equilibrium_reaction_energy_per_atom",
    "decomposes_to",
    "xas",
    "grain_boundaries",
    "cbm",
    "vbm",
    "is_gap_direct",
    "is_metal",
    "es_source_calc_id",
    "bandstructure",
    "dos",
    "dos_energy_up",
    "dos_energy_down",
    "is_magnetic",
    "ordering",
    "total_magnetization_normalized_vol",
    "total_magnetization_normalized_formula_units",
    "num_magnetic_sites",
    "num_unique_magnetic_sites",
    "types_of_magnetic_species",
    "bulk_modulus",
    "shear_modulus",
    "universal_anisotropy",
    "homogeneous_poisson",
    "e_total",
    "e_ionic",
    "e_electronic",
    "n",
    "e_ij_max",
    "weighted_surface_energy_EV_PER_ANG2",
    "weighted_surface_energy",
    "weighted_work_function",
    "surface_anisotropy",
    "shape_factor",
    "has_reconstructed",
    "possible_species",
    "has_props",
    "theoretical",
    "database_IDs"
  ]
}
