{
  "builder_meta": null,
  "nsites": null,
  "elements": null,
  "nelements": null,
  "composition": null,
  "composition_reduced": null,
  "formula_pretty": "AlTc2",
  "formula_anonymous": "AB2",
  "chemsys": null,
  "volume": 41.78469763451124,
  "density": 8.861367365024536,
  "density_atomic": 13.92823254483708,
  "symmetry": null,
  "property_name": null,
  "material_id": "mp-1018166",
  "deprecated": null,
  "deprecation_reasons": null,
  "last_updated": null,
  "origins": null,
  "warnings": null,
  "structure": {
    "@module": "pymatgen.core.structure",
    "@class": "Structure",
    "charge": 0,
    "lattice": {
      "matrix": [
        [2.97505352, 0.0, -0.0],
        [0.0, 2.97505352, -0.0],
        [-1.487528269999999, -1.487528269999999, 4.72093149]
      ],
      "pbc": [true, true, true],
      "a": 2.97505352,
      "b": 2.97505352,
      "c": 5.1684305975191345,
      "alpha": 106.72691540871007,
      "beta": 106.72691540871007,
      "gamma": 90.0,
      "volume": 41.78469763451124
    },
    "properties": {},
    "sites": [
      {
        "species": [{ "element": "Al", "occu": 1 }],
        "abc": [0.0, 0.0, 0.0],
        "properties": { "magmom": -0.0 },
        "label": "Al",
        "xyz": [0.0, 0.0, 0.0]
      },
      {
        "species": [{ "element": "Tc", "occu": 1 }],
        "abc": [0.66991399, 0.66991399, 0.33982898],
        "properties": { "magmom": -0.0 },
        "label": "Tc",
        "xyz": [1.4875247593314804, 1.4875247593314804, 1.6043093328965803]
      },
      {
        "species": [{ "element": "Tc", "occu": 1 }],
        "abc": [0.33008601, 0.33008601, 0.66017102],
        "properties": { "magmom": -0.0 },
        "label": "Tc",
        "xyz": [4.906685203698302e-7, 4.906685203698302e-7, 3.11662215710342]
      }
    ]
  },
  "task_ids": null,
  "uncorrected_energy_per_atom": null,
  "energy_per_atom": -20.021420123333332,
  "formation_energy_per_atom": -0.467612646666665,
  "energy_above_hull": 0.0,
  "is_stable": true,
  "equilibrium_reaction_energy_per_atom": null,
  "decomposes_to": null,
  "xas": null,
  "grain_boundaries": null,
  "band_gap": 0.0,
  "cbm": null,
  "vbm": null,
  "efermi": 9.15432907,
  "is_gap_direct": null,
  "is_metal": null,
  "es_source_calc_id": null,
  "bandstructure": null,
  "dos": null,
  "dos_energy_up": null,
  "dos_energy_down": null,
  "is_magnetic": null,
  "ordering": null,
  "total_magnetization": 1e-7,
  "total_magnetization_normalized_vol": null,
  "total_magnetization_normalized_formula_units": null,
  "num_magnetic_sites": null,
  "num_unique_magnetic_sites": null,
  "types_of_magnetic_species": null,
  "bulk_modulus": null,
  "shear_modulus": null,
  "universal_anisotropy": null,
  "homogeneous_poisson": null,
  "e_total": null,
  "e_ionic": null,
  "e_electronic": null,
  "n": null,
  "e_ij_max": null,
  "weighted_surface_energy_EV_PER_ANG2": null,
  "weighted_surface_energy": null,
  "weighted_work_function": null,
  "surface_anisotropy": null,
  "shape_factor": null,
  "has_reconstructed": null,
  "possible_species": null,
  "has_props": null,
  "theoretical": null,
  "database_IDs": null,
  "fields_not_requested": [
    "builder_meta",
    "nsites",
    "elements",
    "nelements",
    "composition",
    "composition_reduced",
    "chemsys",
    "symmetry",
    "property_name",
    "deprecated",
    "deprecation_reasons",
    "last_updated",
    "origins",
    "warnings",
    "task_ids",
    "uncorrected_energy_per_atom",
    "equilibrium_reaction_energy_per_atom",
    "decomposes_to",
    "xas",
    "grain_boundaries",
    "cbm",
    "vbm",
    "is_gap_direct",
    "is_metal",
    "es_source_calc_id",
    "bandstructure",
    "dos",
    "dos_energy_up",
    "dos_energy_down",
    "is_magnetic",
    "ordering",
    "total_magnetization_normalized_vol",
    "total_magnetization_normalized_formula_units",
    "num_magnetic_sites",
    "num_unique_magnetic_sites",
    "types_of_magnetic_species",
    "bulk_modulus",
    "shear_modulus",
    "universal_anisotropy",
    "homogeneous_poisson",
    "e_total",
    "e_ionic",
    "e_electronic",
    "n",
    "e_ij_max",
    "weighted_surface_energy_EV_PER_ANG2",
    "weighted_surface_energy",
    "weighted_work_function",
    "surface_anisotropy",
    "shape_factor",
    "has_reconstructed",
    "possible_species",
    "has_props",
    "theoretical",
    "database_IDs"
  ]
}
