{
  "builder_meta": null,
  "nsites": null,
  "elements": null,
  "nelements": null,
  "composition": null,
  "composition_reduced": null,
  "formula_pretty": "AlV3",
  "formula_anonymous": "AB3",
  "chemsys": null,
  "volume": 109.87161605942043,
  "density": 5.434978790962956,
  "density_atomic": 13.733952007427554,
  "symmetry": null,
  "property_name": null,
  "material_id": "mp-1387",
  "deprecated": null,
  "deprecation_reasons": null,
  "last_updated": null,
  "origins": null,
  "warnings": null,
  "structure": {
    "@module": "pymatgen.core.structure",
    "@class": "Structure",
    "charge": 0,
    "lattice": {
      "matrix": [
        [4.78956725, 0.0, 0.0],
        [0.0, 4.78955204, 0.0],
        [-0.0, 0.0, 4.78954591]
      ],
      "pbc": [true, true, true],
      "a": 4.78956725,
      "b": 4.78955204,
      "c": 4.78954591,
      "alpha": 90.0,
      "beta": 90.0,
      "gamma": 90.0,
      "volume": 109.87161605942043
    },
    "properties": {},
    "sites": [
      {
        "species": [{ "element": "Al", "occu": 1 }],
        "abc": [-0.0, -0.0, -0.0],
        "properties": { "magmom": -0.016 },
        "label": "Al",
        "xyz": [0.0, 0.0, 0.0]
      },
      {
        "species": [{ "element": "Al", "occu": 1 }],
        "abc": [0.5, 0.5, 0.5],
        "properties": { "magmom": -0.016 },
        "label": "Al",
        "xyz": [2.394783625, 2.39477602, 2.394772955]
      },
      {
        "species": [{ "element": "V", "occu": 1 }],
        "abc": [0.249998, -0.0, 0.5],
        "properties": { "magmom": 0.526 },
        "label": "V",
        "xyz": [1.1973822333655, 0.0, 2.394772955]
      },
      {
        "species": [{ "element": "V", "occu": 1 }],
        "abc": [0.750002, -0.0, 0.5],
        "properties": { "magmom": 0.526 },
        "label": "V",
        "xyz": [3.5921850166344997, 0.0, 2.394772955]
      },
      {
        "species": [{ "element": "V", "occu": 1 }],
        "abc": [-0.0, 0.5, 0.24999301000000002],
        "properties": { "magmom": 0.526 },
        "label": "V",
        "xyz": [0.0, 2.39477602, 1.1973529985740892]
      },
      {
        "species": [{ "element": "V", "occu": 1 }],
        "abc": [-0.0, 0.5, 0.75000699],
        "properties": { "magmom": 0.526 },
        "label": "V",
        "xyz": [0.0, 2.39477602, 3.592192911425911]
      },
      {
        "species": [{ "element": "V", "occu": 1 }],
        "abc": [0.5, 0.74999001, -0.0],
        "properties": { "magmom": 0.526 },
        "label": "V",
        "xyz": [2.394783625, 3.5921161823751206, 0.0]
      },
      {
        "species": [{ "element": "V", "occu": 1 }],
        "abc": [0.5, 0.25000999, -0.0],
        "properties": { "magmom": 0.526 },
        "label": "V",
        "xyz": [2.394783625, 1.1974358576248798, 0.0]
      }
    ]
  },
  "task_ids": null,
  "uncorrected_energy_per_atom": null,
  "energy_per_atom": -12.41923423875,
  "formation_energy_per_atom": -0.169027858749999,
  "energy_above_hull": 0.0,
  "is_stable": true,
  "equilibrium_reaction_energy_per_atom": null,
  "decomposes_to": null,
  "xas": null,
  "grain_boundaries": null,
  "band_gap": 0.0,
  "cbm": null,
  "vbm": null,
  "efermi": 6.47361175,
  "is_gap_direct": null,
  "is_metal": null,
  "es_source_calc_id": null,
  "bandstructure": null,
  "dos": null,
  "dos_energy_up": null,
  "dos_energy_down": null,
  "is_magnetic": null,
  "ordering": null,
  "total_magnetization": 3.8461597,
  "total_magnetization_normalized_vol": null,
  "total_magnetization_normalized_formula_units": null,
  "num_magnetic_sites": null,
  "num_unique_magnetic_sites": null,
  "types_of_magnetic_species": null,
  "bulk_modulus": null,
  "shear_modulus": null,
  "universal_anisotropy": null,
  "homogeneous_poisson": null,
  "e_total": null,
  "e_ionic": null,
  "e_electronic": null,
  "n": null,
  "e_ij_max": null,
  "weighted_surface_energy_EV_PER_ANG2": null,
  "weighted_surface_energy": null,
  "weighted_work_function": null,
  "surface_anisotropy": null,
  "shape_factor": null,
  "has_reconstructed": null,
  "possible_species": null,
  "has_props": null,
  "theoretical": null,
  "database_IDs": null,
  "fields_not_requested": [
    "builder_meta",
    "nsites",
    "elements",
    "nelements",
    "composition",
    "composition_reduced",
    "chemsys",
    "symmetry",
    "property_name",
    "deprecated",
    "deprecation_reasons",
    "last_updated",
    "origins",
    "warnings",
    "task_ids",
    "uncorrected_energy_per_atom",
    "equilibrium_reaction_energy_per_atom",
    "decomposes_to",
    "xas",
    "grain_boundaries",
    "cbm",
    "vbm",
    "is_gap_direct",
    "is_metal",
    "es_source_calc_id",
    "bandstructure",
    "dos",
    "dos_energy_up",
    "dos_energy_down",
    "is_magnetic",
    "ordering",
    "total_magnetization_normalized_vol",
    "total_magnetization_normalized_formula_units",
    "num_magnetic_sites",
    "num_unique_magnetic_sites",
    "types_of_magnetic_species",
    "bulk_modulus",
    "shear_modulus",
    "universal_anisotropy",
    "homogeneous_poisson",
    "e_total",
    "e_ionic",
    "e_electronic",
    "n",
    "e_ij_max",
    "weighted_surface_energy_EV_PER_ANG2",
    "weighted_surface_energy",
    "weighted_work_function",
    "surface_anisotropy",
    "shape_factor",
    "has_reconstructed",
    "possible_species",
    "has_props",
    "theoretical",
    "database_IDs"
  ]
}
