{
  "builder_meta": null,
  "nsites": null,
  "elements": null,
  "nelements": null,
  "composition": null,
  "composition_reduced": null,
  "formula_pretty": "As2Ir",
  "formula_anonymous": "AB2",
  "chemsys": null,
  "volume": 212.13472096243024,
  "density": 10.710256626582213,
  "density_atomic": 17.677893413535852,
  "symmetry": null,
  "property_name": null,
  "material_id": "mp-15649",
  "deprecated": null,
  "deprecation_reasons": null,
  "last_updated": null,
  "origins": null,
  "warnings": null,
  "structure": {
    "@module": "pymatgen.core.structure",
    "@class": "Structure",
    "charge": 0,
    "lattice": {
      "matrix": [
        [5.60913057, 0.0, -2.38140325],
        [0.0, 6.09813098, 0.0],
        [0.0184773, 0.0, 6.19397962]
      ],
      "pbc": [true, true, true],
      "a": 6.093720307859484,
      "b": 6.09813098,
      "c": 6.194007179814263,
      "alpha": 90.0,
      "beta": 112.83313667352651,
      "gamma": 90.0,
      "volume": 212.13472096243026
    },
    "properties": {},
    "sites": [
      {
        "species": [{ "element": "As", "occu": 1 }],
        "abc": [0.15441666, 0.87400115, 0.87411563],
        "properties": { "magmom": -0.0 },
        "label": "As",
        "xyz": [0.8822945048534951, 5.329773489370627, 5.046526061765316]
      },
      {
        "species": [{ "element": "As", "occu": 1 }],
        "abc": [0.84558334, 0.37400115, 0.62588437],
        "properties": { "magmom": -0.0 },
        "label": "As",
        "xyz": [4.754552015146504, 2.2807079993706267, 1.8630401182346845]
      },
      {
        "species": [{ "element": "As", "occu": 1 }],
        "abc": [0.84558334, 0.12599885, 0.12588437],
        "properties": { "magmom": -0.0 },
        "label": "As",
        "xyz": [4.7453133651465045, 0.768357490629373, -1.2339496917653157]
      },
      {
        "species": [{ "element": "As", "occu": 1 }],
        "abc": [0.15441666, 0.62599885, 0.37411563000000003],
        "properties": { "magmom": -0.0 },
        "label": "As",
        "xyz": [0.8730558548534951, 3.817422980629373, 1.9495362517653159]
      },
      {
        "species": [{ "element": "As", "occu": 1 }],
        "abc": [0.33827041, 0.37113815, 0.18387911],
        "properties": { "magmom": -0.0 },
        "label": "As",
        "xyz": [1.9008004871366369, 2.263249050374887, 0.3333852061309057]
      },
      {
        "species": [{ "element": "As", "occu": 1 }],
        "abc": [0.66172959, 0.87113815, 0.31612089],
        "properties": { "magmom": -0.0 },
        "label": "As",
        "xyz": [3.717568732863363, 5.312314540374887, 0.3822013538690945]
      },
      {
        "species": [{ "element": "As", "occu": 1 }],
        "abc": [0.66172959, 0.6288618500000001, 0.81612089],
        "properties": { "magmom": -0.0 },
        "label": "As",
        "xyz": [3.7268073828633628, 3.834881929625113, 3.4791911638690944]
      },
      {
        "species": [{ "element": "As", "occu": 1 }],
        "abc": [0.33827041, 0.12886185, 0.68387911],
        "properties": { "magmom": -0.0 },
        "label": "As",
        "xyz": [1.9100391371366368, 0.7858164396251129, 3.430375016130906]
      },
      {
        "species": [{ "element": "Ir", "occu": 1 }],
        "abc": [0.27221259000000003, 0.49955255, 0.79151832],
        "properties": { "magmom": 0.0 },
        "label": "Ir",
        "xyz": [1.5415010815620123, 3.0463368812929987, 4.254400396419721]
      },
      {
        "species": [{ "element": "Ir", "occu": 1 }],
        "abc": [0.72778741, -0.00044745, 0.70848168],
        "properties": { "magmom": 0.0 },
        "label": "Ir",
        "xyz": [4.095345438437987, -0.002728608707001, 2.65516578358028]
      },
      {
        "species": [{ "element": "Ir", "occu": 1 }],
        "abc": [0.72778741, 0.50044745, 0.20848168],
        "properties": { "magmom": 0.0 },
        "label": "Ir",
        "xyz": [4.086106788437987, 3.051794098707001, -0.44182402641972085]
      },
      {
        "species": [{ "element": "Ir", "occu": 1 }],
        "abc": [0.27221259000000003, 0.00044745, 0.29151832],
        "properties": { "magmom": 0.0 },
        "label": "Ir",
        "xyz": [1.5322624315620124, 0.002728608707001, 1.157410586419721]
      }
    ]
  },
  "task_ids": null,
  "uncorrected_energy_per_atom": null,
  "energy_per_atom": -27.829211324166668,
  "formation_energy_per_atom": -0.571072849166668,
  "energy_above_hull": 0.0,
  "is_stable": true,
  "equilibrium_reaction_energy_per_atom": null,
  "decomposes_to": null,
  "xas": null,
  "grain_boundaries": null,
  "band_gap": 0.8155000000000001,
  "cbm": null,
  "vbm": null,
  "efermi": 6.44121523,
  "is_gap_direct": null,
  "is_metal": null,
  "es_source_calc_id": null,
  "bandstructure": null,
  "dos": null,
  "dos_energy_up": null,
  "dos_energy_down": null,
  "is_magnetic": null,
  "ordering": null,
  "total_magnetization": 0.0,
  "total_magnetization_normalized_vol": null,
  "total_magnetization_normalized_formula_units": null,
  "num_magnetic_sites": null,
  "num_unique_magnetic_sites": null,
  "types_of_magnetic_species": null,
  "bulk_modulus": null,
  "shear_modulus": null,
  "universal_anisotropy": null,
  "homogeneous_poisson": null,
  "e_total": null,
  "e_ionic": null,
  "e_electronic": null,
  "n": null,
  "e_ij_max": null,
  "weighted_surface_energy_EV_PER_ANG2": null,
  "weighted_surface_energy": null,
  "weighted_work_function": null,
  "surface_anisotropy": null,
  "shape_factor": null,
  "has_reconstructed": null,
  "possible_species": null,
  "has_props": null,
  "theoretical": null,
  "database_IDs": null,
  "fields_not_requested": [
    "builder_meta",
    "nsites",
    "elements",
    "nelements",
    "composition",
    "composition_reduced",
    "chemsys",
    "symmetry",
    "property_name",
    "deprecated",
    "deprecation_reasons",
    "last_updated",
    "origins",
    "warnings",
    "task_ids",
    "uncorrected_energy_per_atom",
    "equilibrium_reaction_energy_per_atom",
    "decomposes_to",
    "xas",
    "grain_boundaries",
    "cbm",
    "vbm",
    "is_gap_direct",
    "is_metal",
    "es_source_calc_id",
    "bandstructure",
    "dos",
    "dos_energy_up",
    "dos_energy_down",
    "is_magnetic",
    "ordering",
    "total_magnetization_normalized_vol",
    "total_magnetization_normalized_formula_units",
    "num_magnetic_sites",
    "num_unique_magnetic_sites",
    "types_of_magnetic_species",
    "bulk_modulus",
    "shear_modulus",
    "universal_anisotropy",
    "homogeneous_poisson",
    "e_total",
    "e_ionic",
    "e_electronic",
    "n",
    "e_ij_max",
    "weighted_surface_energy_EV_PER_ANG2",
    "weighted_surface_energy",
    "weighted_work_function",
    "surface_anisotropy",
    "shape_factor",
    "has_reconstructed",
    "possible_species",
    "has_props",
    "theoretical",
    "database_IDs"
  ]
}
