{"builder_meta": null, "nsites": null, "elements": null, "nelements": null, "composition": null, "composition_reduced": null, "formula_pretty": "As2O5", "formula_anonymous": "A2B5", "chemsys": null, "volume": 343.77220326522104, "density": 4.440831778137766, "density_atomic": 12.277578688043608, "symmetry": null, "property_name": null, "material_id": "mp-1788", "deprecated": null, "deprecation_reasons": null, "last_updated": null, "origins": null, "warnings": null, "structure": {"@module": "pymatgen.core.structure", "@class": "Structure", "charge": 0, "lattice": {"matrix": [[4.64018029, 0.0, 0.0], [0.0, 8.54050011, 0.0], [0.0, 0.0, 8.67466276]], "pbc": [true, true, true], "a": 4.64018029, "b": 8.54050011, "c": 8.67466276, "alpha": 90.0, "beta": 90.0, "gamma": 90.0, "volume": 343.77220326522104}, "properties": {}, "sites": [{"species": [{"element": "As", "occu": 1}], "abc": [0.88164347, 0.03298468, 0.71563474], "properties": {"magmom": 0.0}, "label": "As", "xyz": [4.090984652301207, 0.2817056631683148, 6.207890028840283]}, {"species": [{"element": "As", "occu": 1}], "abc": [0.38164347, 0.46701532, 0.28436526], "properties": {"magmom": 0.0}, "label": "As", "xyz": [1.7708945073012061, 3.9885443918316854, 2.466772731159718]}, {"species": [{"element": "As", "occu": 1}], "abc": [0.11835653, 0.53298468, 0.7843652600000001], "properties": {"magmom": 0.0}, "label": "As", "xyz": [0.5491956376987938, 4.551955718168315, 6.8041041111597185]}, {"species": [{"element": "As", "occu": 1}], "abc": [0.61835653, 0.96701532, 0.21563474], "properties": {"magmom": 0.0}, "label": "As", "xyz": [2.869285782698794, 8.258794446831685, 1.8705586488402823]}, {"species": [{"element": "As", "occu": 1}], "abc": [0.87678469, 0.65264858, 0.09830706], "properties": {"magmom": -0.0}, "label": "As", "xyz": [4.0684390371117605, 5.573945269281344, 0.8527805924270857]}, {"species": [{"element": "As", "occu": 1}], "abc": [0.37678469000000003, 0.84735142, 0.90169294], "properties": {"magmom": -0.0}, "label": "As", "xyz": [1.7483488921117603, 7.236804895718656, 7.821882167572915]}, {"species": [{"element": "As", "occu": 1}], "abc": [0.12321531000000001, 0.15264858, 0.40169294], "properties": {"magmom": -0.0}, "label": "As", "xyz": [0.57174125288824, 1.3036952142813438, 3.4845507875729145]}, {"species": [{"element": "As", "occu": 1}], "abc": [0.62321531, 0.34735142, 0.59830706], "properties": {"magmom": -0.0}, "label": "As", "xyz": [2.89183139788824, 2.9665548407186564, 5.190111972427085]}, {"species": [{"element": "O", "occu": 1}], "abc": [0.05174837, 0.50549421, 0.97635866], "properties": {"magmom": -0.0}, "label": "O", "xyz": [0.24012176651362732, 4.317173356109364, 8.469582108305502]}, {"species": [{"element": "O", "occu": 1}], "abc": [0.55174837, 0.9945057900000001, 0.02364134], "properties": {"magmom": -0.0}, "label": "O", "xyz": [2.560211911513627, 8.493576808890637, 0.2050806516944984]}, {"species": [{"element": "O", "occu": 1}], "abc": [0.94825163, 0.00549421, 0.5236413400000001], "properties": {"magmom": -0.0}, "label": "O", "xyz": [4.400058523486373, 0.0469233011093631, 4.542412031694499]}, {"species": [{"element": "O", "occu": 1}], "abc": [0.44825163, 0.49450579, 0.47635866], "properties": {"magmom": -0.0}, "label": "O", "xyz": [2.079968378486373, 4.223326753890637, 4.132250728305502]}, {"species": [{"element": "O", "occu": 1}], "abc": [0.2054884, 0.72487309, 0.75330884], "properties": {"magmom": -0.0}, "label": "O", "xyz": [0.9535032235036359, 6.19077870488104, 6.534700141126798]}, {"species": [{"element": "O", "occu": 1}], "abc": [0.7054884, 0.77512691, 0.24669116], "properties": {"magmom": -0.0}, "label": "O", "xyz": [3.273593368503636, 6.61997146011896, 2.1399626188732017]}, {"species": [{"element": "O", "occu": 1}], "abc": [0.7945116, 0.22487309, 0.74669116], "properties": {"magmom": -0.0}, "label": "O", "xyz": [3.686677066496364, 1.9205286498810399, 6.477293998873202]}, {"species": [{"element": "O", "occu": 1}], "abc": [0.2945116, 0.27512691, 0.25330884], "properties": {"magmom": -0.0}, "label": "O", "xyz": [1.366586921496364, 2.3497214051189603, 2.1973687611267985]}, {"species": [{"element": "O", "occu": 1}], "abc": [0.89630739, 0.31401138, 0.45460758], "properties": {"magmom": 0.0}, "label": "O", "xyz": [4.159027884859343, 2.681814225431252, 3.943567444639721]}, {"species": [{"element": "O", "occu": 1}], "abc": [0.39630739, 0.18598862, 0.54539242], "properties": {"magmom": 0.0}, "label": "O", "xyz": [1.838937739859343, 1.5884358295687482, 4.731095315360279]}, {"species": [{"element": "O", "occu": 1}], "abc": [0.10369261, 0.8140113800000001, 0.04539242], "properties": {"magmom": 0.0}, "label": "O", "xyz": [0.48115240514065694, 6.9520642804312525, 0.39376393536027926]}, {"species": [{"element": "O", "occu": 1}], "abc": [0.60369261, 0.68598862, 0.95460758], "properties": {"magmom": 0.0}, "label": "O", "xyz": [2.801242550140657, 5.858685884568748, 8.28089882463972]}, {"species": [{"element": "O", "occu": 1}], "abc": [0.12893961, 0.60582491, 0.25770626], "properties": {"magmom": 0.0}, "label": "O", "xyz": [0.5983030369222869, 5.17404771049574, 2.2355148966408778]}, {"species": [{"element": "O", "occu": 1}], "abc": [0.62893961, 0.8941750900000001, 0.74229374], "properties": {"magmom": 0.0}, "label": "O", "xyz": [2.918393181922287, 7.6367024545042606, 6.439147863359123]}, {"species": [{"element": "O", "occu": 1}], "abc": [0.87106039, 0.10582491000000001, 0.24229374], "properties": {"magmom": 0.0}, "label": "O", "xyz": [4.041877253077713, 0.9037976554957402, 2.1018164833591224]}, {"species": [{"element": "O", "occu": 1}], "abc": [0.37106039, 0.39417509, 0.75770626], "properties": {"magmom": 0.0}, "label": "O", "xyz": [1.7217871080777132, 3.36645239950426, 6.5728462766408775]}, {"species": [{"element": "O", "occu": 1}], "abc": [0.6683538800000001, 0.48121395, 0.16553569], "properties": {"magmom": 0.0}, "label": "O", "xyz": [3.1012825007210254, 4.109807792908534, 1.4359662854939046]}, {"species": [{"element": "O", "occu": 1}], "abc": [0.16835388, 0.018786050000000002, 0.83446431], "properties": {"magmom": 0.0}, "label": "O", "xyz": [0.7811923557210253, 0.1604422620914655, 7.238696474506096]}, {"species": [{"element": "O", "occu": 1}], "abc": [0.33164612, 0.98121395, 0.33446431], "properties": {"magmom": 0.0}, "label": "O", "xyz": [1.5388977892789748, 8.380057847908535, 2.9013650945060956]}, {"species": [{"element": "O", "occu": 1}], "abc": [0.83164612, 0.51878605, 0.66553569], "properties": {"magmom": 0.0}, "label": "O", "xyz": [3.858987934278975, 4.430692317091466, 5.773297665493905]}]}, "task_ids": null, "uncorrected_energy_per_atom": null, "energy_per_atom": -6.426088671428571, "formation_energy_per_atom": -1.557510087142856, "energy_above_hull": 0.0, "is_stable": true, "equilibrium_reaction_energy_per_atom": null, "decomposes_to": null, "xas": null, "grain_boundaries": null, "band_gap": 1.426, "cbm": null, "vbm": null, "efermi": 1.34530062, "is_gap_direct": null, "is_metal": null, "es_source_calc_id": null, "bandstructure": null, "dos": null, "dos_energy_up": null, "dos_energy_down": null, "is_magnetic": null, "ordering": null, "total_magnetization": 0.0, "total_magnetization_normalized_vol": null, "total_magnetization_normalized_formula_units": null, "num_magnetic_sites": null, "num_unique_magnetic_sites": null, "types_of_magnetic_species": null, "bulk_modulus": null, "shear_modulus": null, "universal_anisotropy": null, "homogeneous_poisson": null, "e_total": null, "e_ionic": null, "e_electronic": null, "n": null, "e_ij_max": null, "weighted_surface_energy_EV_PER_ANG2": null, "weighted_surface_energy": null, "weighted_work_function": null, "surface_anisotropy": null, "shape_factor": null, "has_reconstructed": null, "possible_species": null, "has_props": null, "theoretical": null, "database_IDs": null, "fields_not_requested": ["builder_meta", "nsites", "elements", "nelements", "composition", "composition_reduced", "chemsys", "symmetry", "property_name", "deprecated", "deprecation_reasons", "last_updated", "origins", "warnings", "task_ids", "uncorrected_energy_per_atom", "equilibrium_reaction_energy_per_atom", "decomposes_to", "xas", "grain_boundaries", "cbm", "vbm", "is_gap_direct", "is_metal", "es_source_calc_id", "bandstructure", "dos", "dos_energy_up", "dos_energy_down", "is_magnetic", "ordering", "total_magnetization_normalized_vol", "total_magnetization_normalized_formula_units", "num_magnetic_sites", "num_unique_magnetic_sites", "types_of_magnetic_species", "bulk_modulus", "shear_modulus", "universal_anisotropy", "homogeneous_poisson", "e_total", "e_ionic", "e_electronic", "n", "e_ij_max", "weighted_surface_energy_EV_PER_ANG2", "weighted_surface_energy", "weighted_work_function", "surface_anisotropy", "shape_factor", "has_reconstructed", "possible_species", "has_props", "theoretical", "database_IDs"]}