{
  "builder_meta": null,
  "nsites": null,
  "elements": null,
  "nelements": null,
  "composition": null,
  "composition_reduced": null,
  "formula_pretty": "As2O3",
  "formula_anonymous": "A2B3",
  "chemsys": null,
  "volume": 319.14943889553336,
  "density": 4.117486464369091,
  "density_atomic": 15.957471944776668,
  "symmetry": null,
  "property_name": null,
  "material_id": "mp-1582",
  "deprecated": null,
  "deprecation_reasons": null,
  "last_updated": null,
  "origins": null,
  "warnings": null,
  "structure": {
    "@module": "pymatgen.core.structure",
    "@class": "Structure",
    "charge": 0,
    "lattice": {
      "matrix": [
        [4.55886289, -0.03761375, 0.0],
        [-0.39609657, 5.37448106, 0.0],
        [0.0, 0.0, 13.03362376]
      ],
      "pbc": [true, true, true],
      "a": 4.559018056995193,
      "b": 5.389057353291435,
      "c": 13.03362376,
      "alpha": 90.0,
      "beta": 90.0,
      "gamma": 94.6877686535428,
      "volume": 319.14943889553336
    },
    "properties": {},
    "sites": [
      {
        "species": [{ "element": "As", "occu": 1 }],
        "abc": [0.5005374, 0.14018127, 0.14955256],
        "properties": { "magmom": 0.0 },
        "label": "As",
        "xyz": [2.2263560576918424, 0.7345744919524962, 1.9492117993848255]
      },
      {
        "species": [{ "element": "As", "occu": 1 }],
        "abc": [
          -0.0005373999999990001, 0.35981873000000003, 0.6495525600000001
        ],
        "properties": { "magmom": 0.0 },
        "label": "As",
        "xyz": [-0.14497289769183755, 1.933859163047504, 8.466023679384826]
      },
      {
        "species": [{ "element": "As", "occu": 1 }],
        "abc": [0.4994626, 0.85981873, 0.85044744],
        "properties": { "magmom": 0.0 },
        "label": "As",
        "xyz": [1.9364102623081578, 4.602292818047504, 11.084411960615174]
      },
      {
        "species": [{ "element": "As", "occu": 1 }],
        "abc": [0.0005373999999990001, 0.64018127, 0.35044744],
        "properties": { "magmom": 0.0 },
        "label": "As",
        "xyz": [-0.25112367230816246, 3.4406218969524964, 4.567600080615174]
      },
      {
        "species": [{ "element": "As", "occu": 1 }],
        "abc": [0.46154488, 0.23820636, 0.39913207],
        "properties": { "magmom": 0.0 },
        "label": "As",
        "xyz": [2.0097671033533184, 1.2628751364614414, 5.202137230929983]
      },
      {
        "species": [{ "element": "As", "occu": 1 }],
        "abc": [0.03845512, 0.26179364, 0.8991320700000001],
        "properties": { "magmom": 0.0 },
        "label": "As",
        "xyz": [0.07161605664668204, 1.4055585185385584, 11.718949110929984]
      },
      {
        "species": [{ "element": "As", "occu": 1 }],
        "abc": [0.5384551200000001, 0.76179364, 0.60086793],
        "properties": { "magmom": 0.0 },
        "label": "As",
        "xyz": [2.1529992166466827, 4.073992173538558, 7.831486529070017]
      },
      {
        "species": [{ "element": "As", "occu": 1 }],
        "abc": [0.96154488, 0.7382063600000001, 0.10086793000000001],
        "properties": { "magmom": 0.0 },
        "label": "As",
        "xyz": [4.0911502633533186, 3.9313087914614417, 1.3146746490700167]
      },
      {
        "species": [{ "element": "O", "occu": 1 }],
        "abc": [0.36705399, 0.54174411, 0.35861358],
        "properties": { "magmom": -0.0 },
        "label": "O",
        "xyz": [1.4587658298487285, 2.897787181545194, 4.674034476946661]
      },
      {
        "species": [{ "element": "O", "occu": 1 }],
        "abc": [0.13294601, 0.95825589, 0.85861358],
        "properties": { "magmom": -0.0 },
        "label": "O",
        "xyz": [0.2265207601512717, 5.145127533454806, 11.19084635694666]
      },
      {
        "species": [{ "element": "O", "occu": 1 }],
        "abc": [0.6329460100000001, 0.45825589, 0.64138642],
        "properties": { "magmom": -0.0 },
        "label": "O",
        "xyz": [2.704000490151272, 2.4390801284548056, 8.359589283053339]
      },
      {
        "species": [{ "element": "O", "occu": 1 }],
        "abc": [0.86705399, 0.04174411, 0.14138642],
        "properties": { "magmom": -0.0 },
        "label": "O",
        "xyz": [3.936245559848729, 0.1917397765451941, 1.8427774030533393]
      },
      {
        "species": [{ "element": "O", "occu": 1 }],
        "abc": [0.34622753, 0.84054602, 0.1022635],
        "properties": { "magmom": -0.0 },
        "label": "O",
        "xyz": [1.2454664425642104, 4.504475748791844, 1.3328639833807598]
      },
      {
        "species": [{ "element": "O", "occu": 1 }],
        "abc": [0.15377247, 0.65945398, 0.6022635],
        "properties": { "magmom": -0.0 },
        "label": "O",
        "xyz": [0.4398201474357898, 3.5384389662081563, 7.849675863380759]
      },
      {
        "species": [{ "element": "O", "occu": 1 }],
        "abc": [0.65377247, 0.15945398, 0.897736499999999],
        "properties": { "magmom": -0.0 },
        "label": "O",
        "xyz": [2.91729987743579, 0.8323915612081563, 11.700759776619227]
      },
      {
        "species": [{ "element": "O", "occu": 1 }],
        "abc": [0.8462275300000001, 0.34054602, 0.3977365],
        "properties": { "magmom": -0.0 },
        "label": "O",
        "xyz": [3.722946172564211, 1.7984283437918438, 5.18394789661924]
      },
      {
        "species": [{ "element": "O", "occu": 1 }],
        "abc": [0.93356332, 0.56448781, 0.21742251],
        "properties": { "magmom": 0.0 },
        "label": "O",
        "xyz": [4.032395489665383, 2.9987142261182287, 2.8338031922948375]
      },
      {
        "species": [{ "element": "O", "occu": 1 }],
        "abc": [0.56643668, 0.93551219, 0.71742251],
        "properties": { "magmom": 0.0 },
        "label": "O",
        "xyz": [2.2117539903346173, 5.006586738881771, 9.350615072294838]
      },
      {
        "species": [{ "element": "O", "occu": 1 }],
        "abc": [0.06643668, 0.43551219, 0.78257749],
        "properties": { "magmom": 0.0 },
        "label": "O",
        "xyz": [0.1303708303346169, 2.3381530838817715, 10.199820567705162]
      },
      {
        "species": [{ "element": "O", "occu": 1 }],
        "abc": [0.43356332000000003, 0.06448781, 0.28257749],
        "properties": { "magmom": 0.0 },
        "label": "O",
        "xyz": [1.9510123296653834, 0.33028057111822867, 3.683008687705162]
      }
    ]
  },
  "task_ids": null,
  "uncorrected_energy_per_atom": null,
  "energy_per_atom": -6.463174227,
  "formation_energy_per_atom": -1.626348611000001,
  "energy_above_hull": 0.0,
  "is_stable": true,
  "equilibrium_reaction_energy_per_atom": null,
  "decomposes_to": null,
  "xas": null,
  "grain_boundaries": null,
  "band_gap": 4.0339,
  "cbm": null,
  "vbm": null,
  "efermi": 0.34628004,
  "is_gap_direct": null,
  "is_metal": null,
  "es_source_calc_id": null,
  "bandstructure": null,
  "dos": null,
  "dos_energy_up": null,
  "dos_energy_down": null,
  "is_magnetic": null,
  "ordering": null,
  "total_magnetization": 0.0,
  "total_magnetization_normalized_vol": null,
  "total_magnetization_normalized_formula_units": null,
  "num_magnetic_sites": null,
  "num_unique_magnetic_sites": null,
  "types_of_magnetic_species": null,
  "bulk_modulus": null,
  "shear_modulus": null,
  "universal_anisotropy": null,
  "homogeneous_poisson": null,
  "e_total": null,
  "e_ionic": null,
  "e_electronic": null,
  "n": null,
  "e_ij_max": null,
  "weighted_surface_energy_EV_PER_ANG2": null,
  "weighted_surface_energy": null,
  "weighted_work_function": null,
  "surface_anisotropy": null,
  "shape_factor": null,
  "has_reconstructed": null,
  "possible_species": null,
  "has_props": null,
  "theoretical": null,
  "database_IDs": null,
  "fields_not_requested": [
    "builder_meta",
    "nsites",
    "elements",
    "nelements",
    "composition",
    "composition_reduced",
    "chemsys",
    "symmetry",
    "property_name",
    "deprecated",
    "deprecation_reasons",
    "last_updated",
    "origins",
    "warnings",
    "task_ids",
    "uncorrected_energy_per_atom",
    "equilibrium_reaction_energy_per_atom",
    "decomposes_to",
    "xas",
    "grain_boundaries",
    "cbm",
    "vbm",
    "is_gap_direct",
    "is_metal",
    "es_source_calc_id",
    "bandstructure",
    "dos",
    "dos_energy_up",
    "dos_energy_down",
    "is_magnetic",
    "ordering",
    "total_magnetization_normalized_vol",
    "total_magnetization_normalized_formula_units",
    "num_magnetic_sites",
    "num_unique_magnetic_sites",
    "types_of_magnetic_species",
    "bulk_modulus",
    "shear_modulus",
    "universal_anisotropy",
    "homogeneous_poisson",
    "e_total",
    "e_ionic",
    "e_electronic",
    "n",
    "e_ij_max",
    "weighted_surface_energy_EV_PER_ANG2",
    "weighted_surface_energy",
    "weighted_work_function",
    "surface_anisotropy",
    "shape_factor",
    "has_reconstructed",
    "possible_species",
    "has_props",
    "theoretical",
    "database_IDs"
  ]
}
