{
  "builder_meta": null,
  "nsites": null,
  "elements": null,
  "nelements": null,
  "composition": null,
  "composition_reduced": null,
  "formula_pretty": "As2Pd5",
  "formula_anonymous": "A2B5",
  "chemsys": null,
  "volume": 647.1088837794814,
  "density": 10.4995621588911,
  "density_atomic": 15.407354375701939,
  "symmetry": null,
  "property_name": null,
  "material_id": "mp-1214686",
  "deprecated": null,
  "deprecation_reasons": null,
  "last_updated": null,
  "origins": null,
  "warnings": null,
  "structure": {
    "@module": "pymatgen.core.structure",
    "@class": "Structure",
    "charge": 0,
    "lattice": {
      "matrix": [
        [3.676843309999999, -6.36847862, 0.0],
        [3.676843309999999, 6.36847862, -0.0],
        [0.0, 0.0, 13.81772511]
      ],
      "pbc": [true, true, true],
      "a": 7.353685923378075,
      "b": 7.353685923378075,
      "c": 13.81772511,
      "alpha": 90.0,
      "beta": 90.0,
      "gamma": 119.99999373264829,
      "volume": 647.1088837794811
    },
    "properties": {},
    "sites": [
      {
        "species": [{ "element": "As", "occu": 1 }],
        "abc": [0.666667, 0.333333, 0.55288992],
        "properties": { "magmom": 0.0 },
        "label": "As",
        "xyz": [3.676843309999999, -2.12283045231908, 7.639680930649892]
      },
      {
        "species": [{ "element": "As", "occu": 1 }],
        "abc": [0.333333, 0.666667, 0.05288992],
        "properties": { "magmom": 0.0 },
        "label": "As",
        "xyz": [3.676843309999999, 2.12283045231908, 0.7308183756498912]
      },
      {
        "species": [{ "element": "As", "occu": 1 }],
        "abc": [0.666667, 0.333333, 0.05288992],
        "properties": { "magmom": 0.0 },
        "label": "As",
        "xyz": [3.676843309999999, -2.12283045231908, 0.7308183756498912]
      },
      {
        "species": [{ "element": "As", "occu": 1 }],
        "abc": [0.333333, 0.666667, 0.55288992],
        "properties": { "magmom": 0.0 },
        "label": "As",
        "xyz": [3.676843309999999, 2.12283045231908, 7.639680930649892]
      },
      {
        "species": [{ "element": "As", "occu": 1 }],
        "abc": [0.6733302800000001, 0.6733302800000001, 0.78264309],
        "properties": { "magmom": 0.0 },
        "label": "As",
        "xyz": [4.951459870876852, 0.0, 10.81434707686099]
      },
      {
        "species": [{ "element": "As", "occu": 1 }],
        "abc": [-0.0, 0.32666972, 0.78264309],
        "properties": { "magmom": 0.0 },
        "label": "As",
        "xyz": [1.2011133745615727, 2.0803891276213866, 10.81434707686099]
      },
      {
        "species": [{ "element": "As", "occu": 1 }],
        "abc": [0.32666972, 0.32666972, 0.28264309],
        "properties": { "magmom": 0.0 },
        "label": "As",
        "xyz": [2.4022267491231455, 0.0, 3.9054845218609895]
      },
      {
        "species": [{ "element": "As", "occu": 1 }],
        "abc": [0.0, 0.6733302800000001, 0.28264309],
        "properties": { "magmom": 0.0 },
        "label": "As",
        "xyz": [2.475729935438426, 4.288089492378615, 3.9054845218609895]
      },
      {
        "species": [{ "element": "As", "occu": 1 }],
        "abc": [0.32666972, -0.0, 0.78264309],
        "properties": { "magmom": 0.0 },
        "label": "As",
        "xyz": [1.2011133745615727, -2.0803891276213866, 10.81434707686099]
      },
      {
        "species": [{ "element": "As", "occu": 1 }],
        "abc": [0.6733302800000001, 0.0, 0.28264309],
        "properties": { "magmom": 0.0 },
        "label": "As",
        "xyz": [2.475729935438426, -4.288089492378615, 3.9054845218609895]
      },
      {
        "species": [{ "element": "As", "occu": 1 }],
        "abc": [0.0, -0.0, 0.01261351],
        "properties": { "magmom": -0.0 },
        "label": "As",
        "xyz": [0.0, 0.0, 0.17429001385223608]
      },
      {
        "species": [{ "element": "As", "occu": 1 }],
        "abc": [0.0, -0.0, 0.51261351],
        "properties": { "magmom": -0.0 },
        "label": "As",
        "xyz": [0.0, 0.0, 7.083152568852236]
      },
      {
        "species": [{ "element": "Pd", "occu": 1 }],
        "abc": [0.666667, 0.333333, 0.8403654700000001],
        "properties": { "magmom": 0.0 },
        "label": "Pd",
        "xyz": [3.676843309999999, -2.12283045231908, 11.611939056395952]
      },
      {
        "species": [{ "element": "Pd", "occu": 1 }],
        "abc": [0.333333, 0.666667, 0.34036547],
        "properties": { "magmom": 0.0 },
        "label": "Pd",
        "xyz": [3.676843309999999, 2.12283045231908, 4.703076501395952]
      },
      {
        "species": [{ "element": "Pd", "occu": 1 }],
        "abc": [0.666667, 0.333333, 0.34036547],
        "properties": { "magmom": 0.0 },
        "label": "Pd",
        "xyz": [3.676843309999999, -2.12283045231908, 4.703076501395952]
      },
      {
        "species": [{ "element": "Pd", "occu": 1 }],
        "abc": [0.333333, 0.666667, 0.8403654700000001],
        "properties": { "magmom": 0.0 },
        "label": "Pd",
        "xyz": [3.676843309999999, 2.12283045231908, 11.611939056395952]
      },
      {
        "species": [{ "element": "Pd", "occu": 1 }],
        "abc": [0.70398441, 0.70398441, 0.58894618],
        "properties": { "magmom": 0.0 },
        "label": "Pd",
        "xyz": [5.176880736505592, 0.0, 8.13789641982458]
      },
      {
        "species": [{ "element": "Pd", "occu": 1 }],
        "abc": [-0.0, 0.29601559, 0.58894618],
        "properties": { "magmom": 0.0 },
        "label": "Pd",
        "xyz": [1.0884029417472025, 1.8851689561016858, 8.13789641982458]
      },
      {
        "species": [{ "element": "Pd", "occu": 1 }],
        "abc": [0.29601559, 0.29601559, 0.08894618],
        "properties": { "magmom": 0.0 },
        "label": "Pd",
        "xyz": [2.176805883494405, 0.0, 1.2290338648245798]
      },
      {
        "species": [{ "element": "Pd", "occu": 1 }],
        "abc": [0.0, 0.70398441, 0.08894618],
        "properties": { "magmom": 0.0 },
        "label": "Pd",
        "xyz": [2.588440368252796, 4.483309663898314, 1.2290338648245798]
      },
      {
        "species": [{ "element": "Pd", "occu": 1 }],
        "abc": [0.29601559, -0.0, 0.58894618],
        "properties": { "magmom": 0.0 },
        "label": "Pd",
        "xyz": [1.0884029417472025, -1.8851689561016858, 8.13789641982458]
      },
      {
        "species": [{ "element": "Pd", "occu": 1 }],
        "abc": [0.70398441, 0.0, 0.08894618],
        "properties": { "magmom": 0.0 },
        "label": "Pd",
        "xyz": [2.588440368252796, -4.483309663898314, 1.2290338648245798]
      },
      {
        "species": [{ "element": "Pd", "occu": 1 }],
        "abc": [0.7601484, 0.7601484, 0.38215712],
        "properties": { "magmom": 0.0 },
        "label": "Pd",
        "xyz": [5.589893118294406, 0.0, 5.280542032989283]
      },
      {
        "species": [{ "element": "Pd", "occu": 1 }],
        "abc": [-0.0, 0.2398516, 0.38215712],
        "properties": { "magmom": 0.0 },
        "label": "Pd",
        "xyz": [0.8818967508527957, 1.527489786572792, 5.280542032989283]
      },
      {
        "species": [{ "element": "Pd", "occu": 1 }],
        "abc": [0.2398516, 0.2398516, 0.88215712],
        "properties": { "magmom": 0.0 },
        "label": "Pd",
        "xyz": [1.7637935017055915, 0.0, 12.189404587989284]
      },
      {
        "species": [{ "element": "Pd", "occu": 1 }],
        "abc": [0.0, 0.7601484, 0.88215712],
        "properties": { "magmom": 0.0 },
        "label": "Pd",
        "xyz": [2.794946559147203, 4.8409888334272075, 12.189404587989284]
      },
      {
        "species": [{ "element": "Pd", "occu": 1 }],
        "abc": [0.2398516, -0.0, 0.38215712],
        "properties": { "magmom": 0.0 },
        "label": "Pd",
        "xyz": [0.8818967508527957, -1.527489786572792, 5.280542032989283]
      },
      {
        "species": [{ "element": "Pd", "occu": 1 }],
        "abc": [0.7601484, 0.0, 0.88215712],
        "properties": { "magmom": 0.0 },
        "label": "Pd",
        "xyz": [2.794946559147203, -4.8409888334272075, 12.189404587989284]
      },
      {
        "species": [{ "element": "Pd", "occu": 1 }],
        "abc": [0.38709253, 0.38709253, 0.6942162],
        "properties": { "magmom": 0.0 },
        "label": "Pd",
        "xyz": [2.8465571585629474, 0.0, 9.592488618508781]
      },
      {
        "species": [{ "element": "Pd", "occu": 1 }],
        "abc": [-0.0, 0.61290747, 0.6942162],
        "properties": { "magmom": 0.0 },
        "label": "Pd",
        "xyz": [2.253564730718525, 3.9032881187332915, 9.592488618508781]
      },
      {
        "species": [{ "element": "Pd", "occu": 1 }],
        "abc": [0.61290747, 0.61290747, 0.194216199999999],
        "properties": { "magmom": 0.0 },
        "label": "Pd",
        "xyz": [4.50712946143705, 0.0, 2.6836260635087683]
      },
      {
        "species": [{ "element": "Pd", "occu": 1 }],
        "abc": [0.0, 0.38709253, 0.194216199999999],
        "properties": { "magmom": 0.0 },
        "label": "Pd",
        "xyz": [1.4232785792814737, 2.465190501266709, 2.6836260635087683]
      },
      {
        "species": [{ "element": "Pd", "occu": 1 }],
        "abc": [0.61290747, -0.0, 0.6942162],
        "properties": { "magmom": 0.0 },
        "label": "Pd",
        "xyz": [2.253564730718525, -3.9032881187332915, 9.592488618508781]
      },
      {
        "species": [{ "element": "Pd", "occu": 1 }],
        "abc": [0.38709253, 0.0, 0.194216199999999],
        "properties": { "magmom": 0.0 },
        "label": "Pd",
        "xyz": [1.4232785792814737, -2.465190501266709, 2.6836260635087683]
      },
      {
        "species": [{ "element": "Pd", "occu": 1 }],
        "abc": [0.0, -0.0, 0.71583252],
        "properties": { "magmom": -0.0 },
        "label": "Pd",
        "xyz": [0.0, 0.0, 9.891176986158577]
      },
      {
        "species": [{ "element": "Pd", "occu": 1 }],
        "abc": [0.0, -0.0, 0.21583252],
        "properties": { "magmom": -0.0 },
        "label": "Pd",
        "xyz": [0.0, 0.0, 2.982314431158577]
      },
      {
        "species": [{ "element": "Pd", "occu": 1 }],
        "abc": [0.60238021, 0.60238021, 0.97471748],
        "properties": { "magmom": -0.0 },
        "label": "Pd",
        "xyz": [4.4297152904297885, 0.0, 13.468378198551923]
      },
      {
        "species": [{ "element": "Pd", "occu": 1 }],
        "abc": [0.0, 0.39761979000000003, 0.97471748],
        "properties": { "magmom": -0.0 },
        "label": "Pd",
        "xyz": [1.4619856647851046, 2.53223313150389, 13.468378198551923]
      },
      {
        "species": [{ "element": "Pd", "occu": 1 }],
        "abc": [0.39761979000000003, 0.39761979000000003, 0.47471748],
        "properties": { "magmom": -0.0 },
        "label": "Pd",
        "xyz": [2.923971329570209, 0.0, 6.559515643551923]
      },
      {
        "species": [{ "element": "Pd", "occu": 1 }],
        "abc": [-0.0, 0.60238021, 0.47471748],
        "properties": { "magmom": -0.0 },
        "label": "Pd",
        "xyz": [2.2148576452148943, 3.83624548849611, 6.559515643551923]
      },
      {
        "species": [{ "element": "Pd", "occu": 1 }],
        "abc": [0.39761979000000003, 0.0, 0.97471748],
        "properties": { "magmom": -0.0 },
        "label": "Pd",
        "xyz": [1.4619856647851046, -2.53223313150389, 13.468378198551923]
      },
      {
        "species": [{ "element": "Pd", "occu": 1 }],
        "abc": [0.60238021, -0.0, 0.47471748],
        "properties": { "magmom": -0.0 },
        "label": "Pd",
        "xyz": [2.2148576452148943, -3.83624548849611, 6.559515643551923]
      }
    ]
  },
  "task_ids": null,
  "uncorrected_energy_per_atom": null,
  "energy_per_atom": -20.952769797857144,
  "formation_energy_per_atom": -0.350294079999998,
  "energy_above_hull": 0.017196771428572,
  "is_stable": false,
  "equilibrium_reaction_energy_per_atom": null,
  "decomposes_to": null,
  "xas": null,
  "grain_boundaries": null,
  "band_gap": 0.0,
  "cbm": null,
  "vbm": null,
  "efermi": 5.96111529,
  "is_gap_direct": null,
  "is_metal": null,
  "es_source_calc_id": null,
  "bandstructure": null,
  "dos": null,
  "dos_energy_up": null,
  "dos_energy_down": null,
  "is_magnetic": null,
  "ordering": null,
  "total_magnetization": 0.0,
  "total_magnetization_normalized_vol": null,
  "total_magnetization_normalized_formula_units": null,
  "num_magnetic_sites": null,
  "num_unique_magnetic_sites": null,
  "types_of_magnetic_species": null,
  "bulk_modulus": null,
  "shear_modulus": null,
  "universal_anisotropy": null,
  "homogeneous_poisson": null,
  "e_total": null,
  "e_ionic": null,
  "e_electronic": null,
  "n": null,
  "e_ij_max": null,
  "weighted_surface_energy_EV_PER_ANG2": null,
  "weighted_surface_energy": null,
  "weighted_work_function": null,
  "surface_anisotropy": null,
  "shape_factor": null,
  "has_reconstructed": null,
  "possible_species": null,
  "has_props": null,
  "theoretical": null,
  "database_IDs": null,
  "fields_not_requested": [
    "builder_meta",
    "nsites",
    "elements",
    "nelements",
    "composition",
    "composition_reduced",
    "chemsys",
    "symmetry",
    "property_name",
    "deprecated",
    "deprecation_reasons",
    "last_updated",
    "origins",
    "warnings",
    "task_ids",
    "uncorrected_energy_per_atom",
    "equilibrium_reaction_energy_per_atom",
    "decomposes_to",
    "xas",
    "grain_boundaries",
    "cbm",
    "vbm",
    "is_gap_direct",
    "is_metal",
    "es_source_calc_id",
    "bandstructure",
    "dos",
    "dos_energy_up",
    "dos_energy_down",
    "is_magnetic",
    "ordering",
    "total_magnetization_normalized_vol",
    "total_magnetization_normalized_formula_units",
    "num_magnetic_sites",
    "num_unique_magnetic_sites",
    "types_of_magnetic_species",
    "bulk_modulus",
    "shear_modulus",
    "universal_anisotropy",
    "homogeneous_poisson",
    "e_total",
    "e_ionic",
    "e_electronic",
    "n",
    "e_ij_max",
    "weighted_surface_energy_EV_PER_ANG2",
    "weighted_surface_energy",
    "weighted_work_function",
    "surface_anisotropy",
    "shape_factor",
    "has_reconstructed",
    "possible_species",
    "has_props",
    "theoretical",
    "database_IDs"
  ]
}
