{"builder_meta": null, "nsites": null, "elements": null, "nelements": null, "composition": null, "composition_reduced": null, "formula_pretty": "As2Pd", "formula_anonymous": "AB2", "chemsys": null, "volume": 219.0136206185571, "density": 7.771846403526801, "density_atomic": 18.251135051546424, "symmetry": null, "property_name": null, "material_id": "mp-20465", "deprecated": null, "deprecation_reasons": null, "last_updated": null, "origins": null, "warnings": null, "structure": {"@module": "pymatgen.core.structure", "@class": "Structure", "charge": 0, "lattice": {"matrix": [[6.02777512, -0.0, 0.0], [-0.0, 6.02777512, -0.0], [-0.0, 0.0, 6.02777512]], "pbc": [true, true, true], "a": 6.02777512, "b": 6.02777512, "c": 6.02777512, "alpha": 90.0, "beta": 90.0, "gamma": 90.0, "volume": 219.0136206185571}, "properties": {}, "sites": [{"species": [{"element": "As", "occu": 1}], "abc": [0.38415327, 0.11584673000000001, 0.88415327], "properties": {"magmom": -0.0}, "label": "As", "xyz": [2.3155895231726427, 0.6982980368273577, 5.329477083172643]}, {"species": [{"element": "As", "occu": 1}], "abc": [0.11584673000000001, 0.88415327, 0.38415327], "properties": {"magmom": -0.0}, "label": "As", "xyz": [0.6982980368273577, 5.329477083172643, 2.3155895231726427]}, {"species": [{"element": "As", "occu": 1}], "abc": [0.88415327, 0.38415327, 0.11584673000000001], "properties": {"magmom": -0.0}, "label": "As", "xyz": [5.329477083172643, 2.3155895231726427, 0.6982980368273577]}, {"species": [{"element": "As", "occu": 1}], "abc": [0.61584673, 0.61584673, 0.61584673], "properties": {"magmom": -0.0}, "label": "As", "xyz": [3.7121855968273576, 3.7121855968273576, 3.7121855968273576]}, {"species": [{"element": "As", "occu": 1}], "abc": [0.38415327, 0.38415327, 0.38415327], "properties": {"magmom": -0.0}, "label": "As", "xyz": [2.3155895231726427, 2.3155895231726427, 2.3155895231726427]}, {"species": [{"element": "As", "occu": 1}], "abc": [0.11584673000000001, 0.61584673, 0.88415327], "properties": {"magmom": -0.0}, "label": "As", "xyz": [0.6982980368273577, 3.7121855968273576, 5.329477083172643]}, {"species": [{"element": "As", "occu": 1}], "abc": [0.88415327, 0.11584673000000001, 0.61584673], "properties": {"magmom": -0.0}, "label": "As", "xyz": [5.329477083172643, 0.6982980368273577, 3.7121855968273576]}, {"species": [{"element": "As", "occu": 1}], "abc": [0.61584673, 0.88415327, 0.11584673000000001], "properties": {"magmom": -0.0}, "label": "As", "xyz": [3.7121855968273576, 5.329477083172643, 0.6982980368273577]}, {"species": [{"element": "Pd", "occu": 1}], "abc": [-0.0, 0.5, 0.5], "properties": {"magmom": -0.0}, "label": "Pd", "xyz": [0.0, 3.01388756, 3.01388756]}, {"species": [{"element": "Pd", "occu": 1}], "abc": [0.5, 0.5, 0.0], "properties": {"magmom": -0.0}, "label": "Pd", "xyz": [3.01388756, 3.01388756, 0.0]}, {"species": [{"element": "Pd", "occu": 1}], "abc": [0.5, 0.0, 0.5], "properties": {"magmom": -0.0}, "label": "Pd", "xyz": [3.01388756, 0.0, 3.01388756]}, {"species": [{"element": "Pd", "occu": 1}], "abc": [-0.0, 0.0, 0.0], "properties": {"magmom": -0.0}, "label": "Pd", "xyz": [0.0, 0.0, 0.0]}]}, "task_ids": null, "uncorrected_energy_per_atom": null, "energy_per_atom": -17.8106293575, "formation_energy_per_atom": -0.352124162499999, "energy_above_hull": 0.0, "is_stable": true, "equilibrium_reaction_energy_per_atom": null, "decomposes_to": null, "xas": null, "grain_boundaries": null, "band_gap": 0.0, "cbm": null, "vbm": null, "efermi": 4.87731616, "is_gap_direct": null, "is_metal": null, "es_source_calc_id": null, "bandstructure": null, "dos": null, "dos_energy_up": null, "dos_energy_down": null, "is_magnetic": null, "ordering": null, "total_magnetization": 0.0, "total_magnetization_normalized_vol": null, "total_magnetization_normalized_formula_units": null, "num_magnetic_sites": null, "num_unique_magnetic_sites": null, "types_of_magnetic_species": null, "bulk_modulus": null, "shear_modulus": null, "universal_anisotropy": null, "homogeneous_poisson": null, "e_total": null, "e_ionic": null, "e_electronic": null, "n": null, "e_ij_max": null, "weighted_surface_energy_EV_PER_ANG2": null, "weighted_surface_energy": null, "weighted_work_function": null, "surface_anisotropy": null, "shape_factor": null, "has_reconstructed": null, "possible_species": null, "has_props": null, "theoretical": null, "database_IDs": null, "fields_not_requested": ["builder_meta", "nsites", "elements", "nelements", "composition", "composition_reduced", "chemsys", "symmetry", "property_name", "deprecated", "deprecation_reasons", "last_updated", "origins", "warnings", "task_ids", "uncorrected_energy_per_atom", "equilibrium_reaction_energy_per_atom", "decomposes_to", "xas", "grain_boundaries", "cbm", "vbm", "is_gap_direct", "is_metal", "es_source_calc_id", "bandstructure", "dos", "dos_energy_up", "dos_energy_down", "is_magnetic", "ordering", "total_magnetization_normalized_vol", "total_magnetization_normalized_formula_units", "num_magnetic_sites", "num_unique_magnetic_sites", "types_of_magnetic_species", "bulk_modulus", "shear_modulus", "universal_anisotropy", "homogeneous_poisson", "e_total", "e_ionic", "e_electronic", "n", "e_ij_max", "weighted_surface_energy_EV_PER_ANG2", "weighted_surface_energy", "weighted_work_function", "surface_anisotropy", "shape_factor", "has_reconstructed", "possible_species", "has_props", "theoretical", "database_IDs"]}