{
  "builder_meta": null,
  "nsites": null,
  "elements": null,
  "nelements": null,
  "composition": null,
  "composition_reduced": null,
  "formula_pretty": "As2Ru",
  "formula_anonymous": "AB2",
  "chemsys": null,
  "volume": 101.2371077110571,
  "density": 8.23119467448224,
  "density_atomic": 16.872851285176186,
  "symmetry": null,
  "property_name": null,
  "material_id": "mp-766",
  "deprecated": null,
  "deprecation_reasons": null,
  "last_updated": null,
  "origins": null,
  "warnings": null,
  "structure": {
    "@module": "pymatgen.core.structure",
    "@class": "Structure",
    "charge": 0,
    "lattice": {
      "matrix": [
        [3.00114582, 0.0, 0.0],
        [0.0, 5.43556299, 0.0],
        [0.0, 0.0, 6.20594752]
      ],
      "pbc": [true, true, true],
      "a": 3.00114582,
      "b": 5.43556299,
      "c": 6.20594752,
      "alpha": 90.0,
      "beta": 90.0,
      "gamma": 90.0,
      "volume": 101.2371077110571
    },
    "properties": {},
    "sites": [
      {
        "species": [{ "element": "As", "occu": 1 }],
        "abc": [0.5, 0.32922482000000003, 0.86634677],
        "properties": { "magmom": -0.0 },
        "label": "As",
        "xyz": [1.50057291, 1.789522246981412, 5.37650258874151]
      },
      {
        "species": [{ "element": "As", "occu": 1 }],
        "abc": [0.5, 0.67077518, 0.13365323],
        "properties": { "magmom": -0.0 },
        "label": "As",
        "xyz": [1.50057291, 3.6460407430185886, 0.8294449312584896]
      },
      {
        "species": [{ "element": "As", "occu": 1 }],
        "abc": [0.0, 0.17077518, 0.36634677],
        "properties": { "magmom": -0.0 },
        "label": "As",
        "xyz": [0.0, 0.9282592480185883, 2.2735288287415103]
      },
      {
        "species": [{ "element": "As", "occu": 1 }],
        "abc": [-0.0, 0.82922482, 0.6336532300000001],
        "properties": { "magmom": -0.0 },
        "label": "As",
        "xyz": [0.0, 4.507303741981412, 3.9324186912584898]
      },
      {
        "species": [{ "element": "Ru", "occu": 1 }],
        "abc": [0.5, 0.5, 0.5],
        "properties": { "magmom": 0.0 },
        "label": "Ru",
        "xyz": [1.50057291, 2.717781495, 3.10297376]
      },
      {
        "species": [{ "element": "Ru", "occu": 1 }],
        "abc": [0.0, 0.0, 0.0],
        "properties": { "magmom": 0.0 },
        "label": "Ru",
        "xyz": [0.0, 0.0, 0.0]
      }
    ]
  },
  "task_ids": null,
  "uncorrected_energy_per_atom": null,
  "energy_per_atom": -18.736602063333333,
  "formation_energy_per_atom": -0.45673630666666704,
  "energy_above_hull": 0.0,
  "is_stable": true,
  "equilibrium_reaction_energy_per_atom": null,
  "decomposes_to": null,
  "xas": null,
  "grain_boundaries": null,
  "band_gap": 0.44920000000000004,
  "cbm": null,
  "vbm": null,
  "efermi": 6.26836811,
  "is_gap_direct": null,
  "is_metal": null,
  "es_source_calc_id": null,
  "bandstructure": null,
  "dos": null,
  "dos_energy_up": null,
  "dos_energy_down": null,
  "is_magnetic": null,
  "ordering": null,
  "total_magnetization": 0.0,
  "total_magnetization_normalized_vol": null,
  "total_magnetization_normalized_formula_units": null,
  "num_magnetic_sites": null,
  "num_unique_magnetic_sites": null,
  "types_of_magnetic_species": null,
  "bulk_modulus": null,
  "shear_modulus": null,
  "universal_anisotropy": null,
  "homogeneous_poisson": null,
  "e_total": null,
  "e_ionic": null,
  "e_electronic": null,
  "n": null,
  "e_ij_max": null,
  "weighted_surface_energy_EV_PER_ANG2": null,
  "weighted_surface_energy": null,
  "weighted_work_function": null,
  "surface_anisotropy": null,
  "shape_factor": null,
  "has_reconstructed": null,
  "possible_species": null,
  "has_props": null,
  "theoretical": null,
  "database_IDs": null,
  "fields_not_requested": [
    "builder_meta",
    "nsites",
    "elements",
    "nelements",
    "composition",
    "composition_reduced",
    "chemsys",
    "symmetry",
    "property_name",
    "deprecated",
    "deprecation_reasons",
    "last_updated",
    "origins",
    "warnings",
    "task_ids",
    "uncorrected_energy_per_atom",
    "equilibrium_reaction_energy_per_atom",
    "decomposes_to",
    "xas",
    "grain_boundaries",
    "cbm",
    "vbm",
    "is_gap_direct",
    "is_metal",
    "es_source_calc_id",
    "bandstructure",
    "dos",
    "dos_energy_up",
    "dos_energy_down",
    "is_magnetic",
    "ordering",
    "total_magnetization_normalized_vol",
    "total_magnetization_normalized_formula_units",
    "num_magnetic_sites",
    "num_unique_magnetic_sites",
    "types_of_magnetic_species",
    "bulk_modulus",
    "shear_modulus",
    "universal_anisotropy",
    "homogeneous_poisson",
    "e_total",
    "e_ionic",
    "e_electronic",
    "n",
    "e_ij_max",
    "weighted_surface_energy_EV_PER_ANG2",
    "weighted_surface_energy",
    "weighted_work_function",
    "surface_anisotropy",
    "shape_factor",
    "has_reconstructed",
    "possible_species",
    "has_props",
    "theoretical",
    "database_IDs"
  ]
}
