{"builder_meta": null, "nsites": null, "elements": null, "nelements": null, "composition": null, "composition_reduced": null, "formula_pretty": "As2Rh", "formula_anonymous": "AB2", "chemsys": null, "volume": 209.600517428747, "density": 8.009504852964664, "density_atomic": 17.466709785728916, "symmetry": null, "property_name": null, "material_id": "mp-15954", "deprecated": null, "deprecation_reasons": null, "last_updated": null, "origins": null, "warnings": null, "structure": {"@module": "pymatgen.core.structure", "@class": "Structure", "charge": 0, "lattice": {"matrix": [[5.54417749, 0.0, -2.51605916], [0.0, 6.10348454, 0.0], [0.03367494, 0.0, 6.17880571]], "pbc": [true, true, true], "a": 6.088387121171141, "b": 6.10348454, "c": 6.178897474753292, "alpha": 90.0, "beta": 114.09723874692823, "gamma": 90.0, "volume": 209.600517428747}, "properties": {}, "sites": [{"species": [{"element": "As", "occu": 1}], "abc": [0.15677599, 0.87226389, 0.87006083], "properties": {"magmom": 0.0}, "label": "As", "xyz": [0.8984931609770653, 5.323849167415261, 4.981479158743771]}, {"species": [{"element": "As", "occu": 1}], "abc": [0.84322401, 0.37226389, 0.62993917], "properties": {"magmom": 0.0}, "label": "As", "xyz": [4.696196739022935, 2.2721068974152607, 1.7706702462562287]}, {"species": [{"element": "As", "occu": 1}], "abc": [0.84322401, 0.12773611, 0.12993917], "properties": {"magmom": 0.0}, "label": "As", "xyz": [4.679359269022935, 0.7796353725847395, -1.3187326087437712]}, {"species": [{"element": "As", "occu": 1}], "abc": [0.15677599, 0.62773611, 0.37006083], "properties": {"magmom": 0.0}, "label": "As", "xyz": [0.8816556909770653, 3.8313776425847395, 1.8920763037437707]}, {"species": [{"element": "As", "occu": 1}], "abc": [0.33854258, 0.37113188, 0.18243857], "properties": {"magmom": 0.0}, "label": "As", "xyz": [1.88308375934096, 2.2651976918811356, 0.2754593185812019]}, {"species": [{"element": "As", "occu": 1}], "abc": [0.66145742, 0.87113188, 0.31756143000000003], "properties": {"magmom": 0.0}, "label": "As", "xyz": [3.6779312006590397, 5.316939961881135, 0.29788437641879817]}, {"species": [{"element": "As", "occu": 1}], "abc": [0.66145742, 0.62886812, 0.81756143], "properties": {"magmom": 0.0}, "label": "As", "xyz": [3.6947686706590397, 3.838286848118865, 3.387287231418798]}, {"species": [{"element": "As", "occu": 1}], "abc": [0.33854258, 0.12886812, 0.68243857], "properties": {"magmom": 0.0}, "label": "As", "xyz": [1.89992122934096, 0.7865445781188648, 3.364862173581202]}, {"species": [{"element": "Rh", "occu": 1}], "abc": [0.27208909000000003, 0.49889887, 0.78909876], "properties": {"magmom": -0.0}, "label": "Rh", "xyz": [1.5350830614496587, 3.0450215400684697, 4.191095676811355]}, {"species": [{"element": "Rh", "occu": 1}], "abc": [0.72791091, 0.99889887, 0.71090124], "properties": {"magmom": -0.0}, "label": "Rh", "xyz": [4.059606838550342, 6.09676381006847, 2.5610537281886447]}, {"species": [{"element": "Rh", "occu": 1}], "abc": [0.72791091, 0.50110113, 0.21090124000000002], "properties": {"magmom": -0.0}, "label": "Rh", "xyz": [4.042769368550341, 3.0584629999315305, -0.5283491268113552]}, {"species": [{"element": "Rh", "occu": 1}], "abc": [0.27208909000000003, 0.00110113, 0.28909876], "properties": {"magmom": -0.0}, "label": "Rh", "xyz": [1.5182455914496586, 0.006720729931530201, 1.101692821811355]}]}, "task_ids": null, "uncorrected_energy_per_atom": null, "energy_per_atom": -18.423023033333333, "formation_energy_per_atom": -0.5725928316666651, "energy_above_hull": 0.0, "is_stable": true, "equilibrium_reaction_energy_per_atom": null, "decomposes_to": null, "xas": null, "grain_boundaries": null, "band_gap": 0.2625, "cbm": null, "vbm": null, "efermi": 5.97706546, "is_gap_direct": null, "is_metal": null, "es_source_calc_id": null, "bandstructure": null, "dos": null, "dos_energy_up": null, "dos_energy_down": null, "is_magnetic": null, "ordering": null, "total_magnetization": 0.0, "total_magnetization_normalized_vol": null, "total_magnetization_normalized_formula_units": null, "num_magnetic_sites": null, "num_unique_magnetic_sites": null, "types_of_magnetic_species": null, "bulk_modulus": null, "shear_modulus": null, "universal_anisotropy": null, "homogeneous_poisson": null, "e_total": null, "e_ionic": null, "e_electronic": null, "n": null, "e_ij_max": null, "weighted_surface_energy_EV_PER_ANG2": null, "weighted_surface_energy": null, "weighted_work_function": null, "surface_anisotropy": null, "shape_factor": null, "has_reconstructed": null, "possible_species": null, "has_props": null, "theoretical": null, "database_IDs": null, "fields_not_requested": ["builder_meta", "nsites", "elements", "nelements", "composition", "composition_reduced", "chemsys", "symmetry", "property_name", "deprecated", "deprecation_reasons", "last_updated", "origins", "warnings", "task_ids", "uncorrected_energy_per_atom", "equilibrium_reaction_energy_per_atom", "decomposes_to", "xas", "grain_boundaries", "cbm", "vbm", "is_gap_direct", "is_metal", "es_source_calc_id", "bandstructure", "dos", "dos_energy_up", "dos_energy_down", "is_magnetic", "ordering", "total_magnetization_normalized_vol", "total_magnetization_normalized_formula_units", "num_magnetic_sites", "num_unique_magnetic_sites", "types_of_magnetic_species", "bulk_modulus", "shear_modulus", "universal_anisotropy", "homogeneous_poisson", "e_total", "e_ionic", "e_electronic", "n", "e_ij_max", "weighted_surface_energy_EV_PER_ANG2", "weighted_surface_energy", "weighted_work_function", "surface_anisotropy", "shape_factor", "has_reconstructed", "possible_species", "has_props", "theoretical", "database_IDs"]}