{
  "builder_meta": null,
  "nsites": null,
  "elements": null,
  "nelements": null,
  "composition": null,
  "composition_reduced": null,
  "formula_pretty": "As2S3",
  "formula_anonymous": "A2B3",
  "chemsys": null,
  "volume": 526.4141283759965,
  "density": 3.104445879796971,
  "density_atomic": 26.320706418799823,
  "symmetry": null,
  "property_name": null,
  "material_id": "mp-1189572",
  "deprecated": null,
  "deprecation_reasons": null,
  "last_updated": null,
  "origins": null,
  "warnings": null,
  "structure": {
    "@module": "pymatgen.core.structure",
    "@class": "Structure",
    "charge": 0,
    "lattice": {
      "matrix": [
        [5.64513283, 0.0043903, 1.39240173],
        [-0.43602694000000003, 8.7636104, 1.7988579],
        [-0.11621754000000001, -0.07036772, 10.59633801]
      ],
      "pbc": [true, true, true],
      "a": 5.814320813369768,
      "b": 8.95694571155739,
      "c": 10.597208941735197,
      "alpha": 78.7637859642711,
      "beta": 76.77323837076631,
      "gamma": 89.91002974193371,
      "volume": 526.4141283759965
    },
    "properties": {},
    "sites": [
      {
        "species": [{ "element": "As", "occu": 1 }],
        "abc": [0.60730467, 0.64096209, 0.3245958],
        "properties": { "magmom": 0.0 },
        "label": "As",
        "xyz": [3.1111150663002793, 5.596967221254861, 5.438138605768448]
      },
      {
        "species": [{ "element": "As", "occu": 1 }],
        "abc": [0.39269533, 0.35903791, 0.6754042],
        "properties": { "magmom": 0.0 },
        "label": "As",
        "xyz": [1.9817732836997202, 3.100665758745139, 8.349459034231552]
      },
      {
        "species": [{ "element": "As", "occu": 1 }],
        "abc": [0.17983989, 0.82808114, 0.1663993],
        "properties": { "magmom": -0.0 },
        "label": "As",
        "xyz": [0.634815864332955, 7.2460609022663265, 3.503232901916409]
      },
      {
        "species": [{ "element": "As", "occu": 1 }],
        "abc": [0.82016011, 0.17191886, 0.8336007],
        "properties": { "magmom": -0.0 },
        "label": "As",
        "xyz": [4.458072485667045, 1.4515720777336731, 10.284364738083593]
      },
      {
        "species": [{ "element": "As", "occu": 1 }],
        "abc": [0.62378137, 0.32487383000000003, 0.16991046],
        "properties": { "magmom": -0.0 },
        "label": "As",
        "xyz": [3.3599283728669285, 2.837850050950192, 3.2533847799231115]
      },
      {
        "species": [{ "element": "As", "occu": 1 }],
        "abc": [0.37621863, 0.67512617, 0.83008954],
        "properties": { "magmom": -0.0 },
        "label": "As",
        "xyz": [1.7329599771330715, 5.859782929049808, 10.534212860076888]
      },
      {
        "species": [{ "element": "As", "occu": 1 }],
        "abc": [0.06651958, 0.13927817, 0.32857000000000003],
        "properties": { "magmom": -0.0 },
        "label": "As",
        "xyz": [0.27659723350411153, 1.197750938256642, 3.8248023946186165]
      },
      {
        "species": [{ "element": "As", "occu": 1 }],
        "abc": [0.93348042, 0.86072183, 0.6714300000000001],
        "properties": { "magmom": -0.0 },
        "label": "As",
        "xyz": [4.816291116495888, 7.499882041743358, 9.962795245381384]
      },
      {
        "species": [{ "element": "S", "occu": 1 }],
        "abc": [0.09644367, 0.07764332, 0.12666159],
        "properties": { "magmom": 0.0 },
        "label": "S",
        "xyz": [0.4958624501293566, 0.6719463359870542, 1.616106653043813]
      },
      {
        "species": [{ "element": "S", "occu": 1 }],
        "abc": [0.90355633, 0.92235668, 0.87333841],
        "properties": { "magmom": 0.0 },
        "label": "S",
        "xyz": [4.597025899870643, 8.025686644012945, 12.171490986956188]
      },
      {
        "species": [{ "element": "S", "occu": 1 }],
        "abc": [0.49364987, 0.87758627, 0.24624783],
        "properties": { "magmom": -0.0 },
        "label": "S",
        "xyz": [2.3754495147351795, 7.67566353534142, 4.875337168632326]
      },
      {
        "species": [{ "element": "S", "occu": 1 }],
        "abc": [0.5063501300000001, 0.12241373, 0.75375217],
        "properties": { "magmom": -0.0 },
        "label": "S",
        "xyz": [2.7174388352648204, 1.0219694446585785, 8.912260471367674]
      },
      {
        "species": [{ "element": "S", "occu": 1 }],
        "abc": [0.24557373000000002, 0.37598837, 0.25363418],
        "properties": { "magmom": 0.0 },
        "label": "S",
        "xyz": [1.192878526502351, 3.278246072997197, 3.705880438346358]
      },
      {
        "species": [{ "element": "S", "occu": 1 }],
        "abc": [0.75442727, 0.62401163, 0.7463658200000001],
        "properties": { "magmom": 0.0 },
        "label": "S",
        "xyz": [3.900015468630478, 5.419386911393103, 10.081718594055372]
      },
      {
        "species": [{ "element": "S", "occu": 1 }],
        "abc": [0.94009343, 0.7297665, 0.36814908],
        "properties": { "magmom": 0.0 },
        "label": "S",
        "xyz": [4.945969050619934, 6.373610769777631, 6.522766041724514]
      },
      {
        "species": [{ "element": "S", "occu": 1 }],
        "abc": [0.05990657, 0.2702335, 0.63185092],
        "properties": { "magmom": 0.0 },
        "label": "S",
        "xyz": [0.14691929938006626, 2.3240222102223687, 7.264831598275485]
      },
      {
        "species": [{ "element": "S", "occu": 1 }],
        "abc": [0.6979078400000001, 0.22932448, 0.37153899],
        "properties": { "magmom": -0.0 },
        "label": "S",
        "xyz": [3.796611461185012, 1.9866300710751412, 5.321242958241966]
      },
      {
        "species": [{ "element": "S", "occu": 1 }],
        "abc": [0.30209216, 0.7706755200000001, 0.62846001],
        "properties": { "magmom": -0.0 },
        "label": "S",
        "xyz": [1.2962770050325283, 6.711002979292579, 8.466344085420024]
      },
      {
        "species": [{ "element": "S", "occu": 1 }],
        "abc": [0.74496224, 0.57394494, 0.12483348],
        "properties": { "magmom": -0.0 },
        "label": "S",
        "xyz": [3.940647502262416, 5.0243162055663815, 3.392509850289276]
      },
      {
        "species": [{ "element": "S", "occu": 1 }],
        "abc": [0.25503776, 0.42605506, 0.8751665200000001],
        "properties": { "magmom": -0.0 },
        "label": "S",
        "xyz": [1.1522408477375834, 3.673316774433617, 10.395087789710725]
      }
    ]
  },
  "task_ids": null,
  "uncorrected_energy_per_atom": null,
  "energy_per_atom": -10.8599447265,
  "formation_energy_per_atom": -0.155932882187498,
  "energy_above_hull": 0.0,
  "is_stable": true,
  "equilibrium_reaction_energy_per_atom": null,
  "decomposes_to": null,
  "xas": null,
  "grain_boundaries": null,
  "band_gap": 1.9873,
  "cbm": null,
  "vbm": null,
  "efermi": 1.60174576,
  "is_gap_direct": null,
  "is_metal": null,
  "es_source_calc_id": null,
  "bandstructure": null,
  "dos": null,
  "dos_energy_up": null,
  "dos_energy_down": null,
  "is_magnetic": null,
  "ordering": null,
  "total_magnetization": 0.0,
  "total_magnetization_normalized_vol": null,
  "total_magnetization_normalized_formula_units": null,
  "num_magnetic_sites": null,
  "num_unique_magnetic_sites": null,
  "types_of_magnetic_species": null,
  "bulk_modulus": null,
  "shear_modulus": null,
  "universal_anisotropy": null,
  "homogeneous_poisson": null,
  "e_total": null,
  "e_ionic": null,
  "e_electronic": null,
  "n": null,
  "e_ij_max": null,
  "weighted_surface_energy_EV_PER_ANG2": null,
  "weighted_surface_energy": null,
  "weighted_work_function": null,
  "surface_anisotropy": null,
  "shape_factor": null,
  "has_reconstructed": null,
  "possible_species": null,
  "has_props": null,
  "theoretical": null,
  "database_IDs": null,
  "fields_not_requested": [
    "builder_meta",
    "nsites",
    "elements",
    "nelements",
    "composition",
    "composition_reduced",
    "chemsys",
    "symmetry",
    "property_name",
    "deprecated",
    "deprecation_reasons",
    "last_updated",
    "origins",
    "warnings",
    "task_ids",
    "uncorrected_energy_per_atom",
    "equilibrium_reaction_energy_per_atom",
    "decomposes_to",
    "xas",
    "grain_boundaries",
    "cbm",
    "vbm",
    "is_gap_direct",
    "is_metal",
    "es_source_calc_id",
    "bandstructure",
    "dos",
    "dos_energy_up",
    "dos_energy_down",
    "is_magnetic",
    "ordering",
    "total_magnetization_normalized_vol",
    "total_magnetization_normalized_formula_units",
    "num_magnetic_sites",
    "num_unique_magnetic_sites",
    "types_of_magnetic_species",
    "bulk_modulus",
    "shear_modulus",
    "universal_anisotropy",
    "homogeneous_poisson",
    "e_total",
    "e_ionic",
    "e_electronic",
    "n",
    "e_ij_max",
    "weighted_surface_energy_EV_PER_ANG2",
    "weighted_surface_energy",
    "weighted_work_function",
    "surface_anisotropy",
    "shape_factor",
    "has_reconstructed",
    "possible_species",
    "has_props",
    "theoretical",
    "database_IDs"
  ]
}
