{"builder_meta": null, "nsites": null, "elements": null, "nelements": null, "composition": null, "composition_reduced": null, "formula_pretty": "As2S", "formula_anonymous": "AB2", "chemsys": null, "volume": 122.2614936822927, "density": 4.94130512456899, "density_atomic": 20.37691561371545, "symmetry": null, "property_name": null, "material_id": "mp-1228819", "deprecated": null, "deprecation_reasons": null, "last_updated": null, "origins": null, "warnings": null, "structure": {"@module": "pymatgen.core.structure", "@class": "Structure", "charge": 0, "lattice": {"matrix": [[-3.50648, 3.50648, 2.485919], [3.50648, -3.50648, 2.485919], [3.50648, 3.50648, -2.485919]], "pbc": [true, true, true], "a": 5.547125134280008, "b": 5.547125134280008, "c": 5.547125134280008, "alpha": 101.58575449591896, "beta": 101.58575449591896, "gamma": 126.7504773159225, "volume": 122.2614936822927}, "properties": {}, "sites": [{"species": [{"element": "As", "occu": 1}], "abc": [0.125, 0.875, 0.25], "properties": {"magmom": -0.0}, "label": "As", "xyz": [3.50648, -1.75324, 1.86443925]}, {"species": [{"element": "As", "occu": 1}], "abc": [0.625, 0.875, 0.75], "properties": {"magmom": -0.0}, "label": "As", "xyz": [3.50648, 1.75324, 1.86443925]}, {"species": [{"element": "As", "occu": 1}], "abc": [0.125, 0.375, 0.25], "properties": {"magmom": -0.0}, "label": "As", "xyz": [1.75324, 0.0, 0.62147975]}, {"species": [{"element": "As", "occu": 1}], "abc": [0.125, 0.875, 0.75], "properties": {"magmom": -0.0}, "label": "As", "xyz": [5.25972, 0.0, 0.62147975]}, {"species": [{"element": "S", "occu": 1}], "abc": [0.75, 0.25, 0.5], "properties": {"magmom": 0.0}, "label": "S", "xyz": [0.0, 3.50648, 1.2429595]}, {"species": [{"element": "S", "occu": 1}], "abc": [0.5, 0.5, 0.0], "properties": {"magmom": 0.0}, "label": "S", "xyz": [0.0, 0.0, 2.485919]}]}, "task_ids": null, "uncorrected_energy_per_atom": null, "energy_per_atom": -12.437041113958335, "formation_energy_per_atom": 0.04631257177083101, "energy_above_hull": 0.15237899270833202, "is_stable": false, "equilibrium_reaction_energy_per_atom": null, "decomposes_to": null, "xas": null, "grain_boundaries": null, "band_gap": 0.0, "cbm": null, "vbm": null, "efermi": 5.41709317, "is_gap_direct": null, "is_metal": null, "es_source_calc_id": null, "bandstructure": null, "dos": null, "dos_energy_up": null, "dos_energy_down": null, "is_magnetic": null, "ordering": null, "total_magnetization": 0.0001389, "total_magnetization_normalized_vol": null, "total_magnetization_normalized_formula_units": null, "num_magnetic_sites": null, "num_unique_magnetic_sites": null, "types_of_magnetic_species": null, "bulk_modulus": null, "shear_modulus": null, "universal_anisotropy": null, "homogeneous_poisson": null, "e_total": null, "e_ionic": null, "e_electronic": null, "n": null, "e_ij_max": null, "weighted_surface_energy_EV_PER_ANG2": null, "weighted_surface_energy": null, "weighted_work_function": null, "surface_anisotropy": null, "shape_factor": null, "has_reconstructed": null, "possible_species": null, "has_props": null, "theoretical": null, "database_IDs": null, "fields_not_requested": ["builder_meta", "nsites", "elements", "nelements", "composition", "composition_reduced", "chemsys", "symmetry", "property_name", "deprecated", "deprecation_reasons", "last_updated", "origins", "warnings", "task_ids", "uncorrected_energy_per_atom", "equilibrium_reaction_energy_per_atom", "decomposes_to", "xas", "grain_boundaries", "cbm", "vbm", "is_gap_direct", "is_metal", "es_source_calc_id", "bandstructure", "dos", "dos_energy_up", "dos_energy_down", "is_magnetic", "ordering", "total_magnetization_normalized_vol", "total_magnetization_normalized_formula_units", "num_magnetic_sites", "num_unique_magnetic_sites", "types_of_magnetic_species", "bulk_modulus", "shear_modulus", "universal_anisotropy", "homogeneous_poisson", "e_total", "e_ionic", "e_electronic", "n", "e_ij_max", "weighted_surface_energy_EV_PER_ANG2", "weighted_surface_energy", "weighted_work_function", "surface_anisotropy", "shape_factor", "has_reconstructed", "possible_species", "has_props", "theoretical", "database_IDs"]}