{"builder_meta": null, "nsites": null, "elements": null, "nelements": null, "composition": null, "composition_reduced": null, "formula_pretty": "As2Se3", "formula_anonymous": "A2B3", "chemsys": null, "volume": 561.681862836406, "density": 4.573186524611719, "density_atomic": 28.0840931418203, "symmetry": null, "property_name": null, "material_id": "mp-909", "deprecated": null, "deprecation_reasons": null, "last_updated": null, "origins": null, "warnings": null, "structure": {"@module": "pymatgen.core.structure", "@class": "Structure", "charge": 0, "lattice": {"matrix": [[4.49054264, 0.0, -0.03562723], [0.0, 10.37672095, 0.0], [-0.00181243, 0.0, 12.05402134]], "pbc": [true, true, true], "a": 4.490683968080547, "b": 10.37672095, "c": 12.054021476257535, "alpha": 90.0, "beta": 90.4631807284533, "gamma": 90.0, "volume": 561.6818628364059}, "properties": {}, "sites": [{"species": [{"element": "As", "occu": 1}], "abc": [0.11697537000000001, 0.802616999999999, 0.73662783], "properties": {"magmom": -0.0}, "label": "As", "xyz": [0.52394780043685, 8.32853263872614, 8.875160074046567]}, {"species": [{"element": "As", "occu": 1}], "abc": [0.38302463000000003, 0.302616999999999, 0.76337217], "properties": {"magmom": -0.0}, "label": "As", "xyz": [1.7186048745631501, 3.1401721637261395, 9.188058320953433]}, {"species": [{"element": "As", "occu": 1}], "abc": [0.88302463, 0.197383, 0.26337217], "properties": {"magmom": -0.0}, "label": "As", "xyz": [3.96478240956315, 2.04818831127385, 3.143234035953433]}, {"species": [{"element": "As", "occu": 1}], "abc": [0.61697537, 0.697383, 0.23662783], "properties": {"magmom": -0.0}, "label": "As", "xyz": [2.77012533543685, 7.23654878627385, 2.8303357890465675]}, {"species": [{"element": "As", "occu": 1}], "abc": [0.6239168900000001, 0.67809965, 0.51506356], "properties": {"magmom": -0.0}, "label": "As", "xyz": [2.800791881713139, 7.036450844342667, 6.186358713155455]}, {"species": [{"element": "As", "occu": 1}], "abc": [0.87608311, 0.17809965, 0.98493644], "properties": {"magmom": -0.0}, "label": "As", "xyz": [3.9323034332868616, 1.8480903693426673, 11.841232451844544]}, {"species": [{"element": "As", "occu": 1}], "abc": [0.37608311, 0.32190035, 0.48493644], "properties": {"magmom": -0.0}, "label": "As", "xyz": [1.6879383282868614, 3.340270105657332, 5.832035396844545]}, {"species": [{"element": "As", "occu": 1}], "abc": [0.12391689, 0.8219003500000001, 0.01506356], "properties": {"magmom": -0.0}, "label": "As", "xyz": [0.5564267767131389, 8.528630580657332, 0.1771616581554557]}, {"species": [{"element": "Se", "occu": 1}], "abc": [0.46800765, 0.87574766, 0.59910048], "properties": {"magmom": -0.0}, "label": "Se", "xyz": [2.10052248048823, 9.087389090435476, 7.204896154535934]}, {"species": [{"element": "Se", "occu": 1}], "abc": [0.03199235, 0.37574766, 0.9008995200000001], "properties": {"magmom": -0.0}, "label": "Se", "xyz": [0.1420301945117704, 3.8990286154354767, 10.858322240464068]}, {"species": [{"element": "Se", "occu": 1}], "abc": [0.53199235, 0.12425234, 0.40089952], "properties": {"magmom": -0.0}, "label": "Se", "xyz": [2.38820772951177, 1.289331859564523, 4.813497955464067]}, {"species": [{"element": "Se", "occu": 1}], "abc": [0.96800765, 0.62425234, 0.09910048], "properties": {"magmom": -0.0}, "label": "Se", "xyz": [4.34670001548823, 6.477692334564522, 1.1600718695359338]}, {"species": [{"element": "Se", "occu": 1}], "abc": [0.97012508, 0.59961726, 0.65582367], "properties": {"magmom": -0.0}, "label": "Se", "xyz": [4.355199403379193, 6.222060983823597, 7.870749644103189]}, {"species": [{"element": "Se", "occu": 1}], "abc": [0.52987492, 0.09961726, 0.84417633], "properties": {"magmom": -0.0}, "label": "Se", "xyz": [2.3778959116208074, 1.0337005088235969, 10.15684152089681]}, {"species": [{"element": "Se", "occu": 1}], "abc": [0.02987492, 0.40038274, 0.34417633000000003], "properties": {"magmom": -0.0}, "label": "Se", "xyz": [0.1335308066208069, 4.1546599661764025, 4.1476444658968115]}, {"species": [{"element": "Se", "occu": 1}], "abc": [0.47012508000000003, 0.9003827400000001, 0.15582367], "properties": {"magmom": -0.0}, "label": "Se", "xyz": [2.1108342983791935, 9.343020441176403, 1.8615525891031892]}, {"species": [{"element": "Se", "occu": 1}], "abc": [0.42906442, 0.70641442, 0.88043046], "properties": {"magmom": 0.0}, "label": "Se", "xyz": [1.9251363547382512, 7.330265311396098, 10.59744117644986]}, {"species": [{"element": "Se", "occu": 1}], "abc": [0.07093558, 0.20641442000000002, 0.61956954], "properties": {"magmom": 0.0}, "label": "Se", "xyz": [0.31741632026174904, 2.141904836396099, 7.465777218550141]}, {"species": [{"element": "Se", "occu": 1}], "abc": [0.57093558, 0.29358558, 0.11956954], "properties": {"magmom": 0.0}, "label": "Se", "xyz": [2.563593855261749, 3.046455638603901, 1.4209529335501403]}, {"species": [{"element": "Se", "occu": 1}], "abc": [0.92906442, 0.79358558, 0.38043046], "properties": {"magmom": 0.0}, "label": "Se", "xyz": [4.171313889738252, 8.2348161136039, 4.55261689144986]}]}, "task_ids": null, "uncorrected_energy_per_atom": null, "energy_per_atom": -14.6094313875, "formation_energy_per_atom": -0.139482853937499, "energy_above_hull": 0.0, "is_stable": true, "equilibrium_reaction_energy_per_atom": null, "decomposes_to": null, "xas": null, "grain_boundaries": null, "band_gap": 1.4466, "cbm": null, "vbm": null, "efermi": 1.60280202, "is_gap_direct": null, "is_metal": null, "es_source_calc_id": null, "bandstructure": null, "dos": null, "dos_energy_up": null, "dos_energy_down": null, "is_magnetic": null, "ordering": null, "total_magnetization": 0.0, "total_magnetization_normalized_vol": null, "total_magnetization_normalized_formula_units": null, "num_magnetic_sites": null, "num_unique_magnetic_sites": null, "types_of_magnetic_species": null, "bulk_modulus": null, "shear_modulus": null, "universal_anisotropy": null, "homogeneous_poisson": null, "e_total": null, "e_ionic": null, "e_electronic": null, "n": null, "e_ij_max": null, "weighted_surface_energy_EV_PER_ANG2": null, "weighted_surface_energy": null, "weighted_work_function": null, "surface_anisotropy": null, "shape_factor": null, "has_reconstructed": null, "possible_species": null, "has_props": null, "theoretical": null, "database_IDs": null, "fields_not_requested": ["builder_meta", "nsites", "elements", "nelements", "composition", "composition_reduced", "chemsys", "symmetry", "property_name", "deprecated", "deprecation_reasons", "last_updated", "origins", "warnings", "task_ids", "uncorrected_energy_per_atom", "equilibrium_reaction_energy_per_atom", "decomposes_to", "xas", "grain_boundaries", "cbm", "vbm", "is_gap_direct", "is_metal", "es_source_calc_id", "bandstructure", "dos", "dos_energy_up", "dos_energy_down", "is_magnetic", "ordering", "total_magnetization_normalized_vol", "total_magnetization_normalized_formula_units", "num_magnetic_sites", "num_unique_magnetic_sites", "types_of_magnetic_species", "bulk_modulus", "shear_modulus", "universal_anisotropy", "homogeneous_poisson", "e_total", "e_ionic", "e_electronic", "n", "e_ij_max", "weighted_surface_energy_EV_PER_ANG2", "weighted_surface_energy", "weighted_work_function", "surface_anisotropy", "shape_factor", "has_reconstructed", "possible_species", "has_props", "theoretical", "database_IDs"]}