{"builder_meta": null, "nsites": null, "elements": null, "nelements": null, "composition": null, "composition_reduced": null, "formula_pretty": "As3Ir", "formula_anonymous": "AB3", "chemsys": null, "volume": 309.087375814539, "density": 8.96076155988533, "density_atomic": 19.317960988408686, "symmetry": null, "property_name": null, "material_id": "mp-540912", "deprecated": null, "deprecation_reasons": null, "last_updated": null, "origins": null, "warnings": null, "structure": {"@module": "pymatgen.core.structure", "@class": "Structure", "charge": 0, "lattice": {"matrix": [[6.95544293, 0.0, -2.4591208], [-3.47772096, 6.02359019, -2.4591208], [-0.0, -0.0, 7.37736139]], "pbc": [true, true, true], "a": 7.37736141594538, "b": 7.377361110971877, "c": 7.37736139, "alpha": 109.47122417396687, "beta": 109.47122333655565, "gamma": 109.47121484778813, "volume": 309.087375814539}, "properties": {}, "sites": [{"species": [{"element": "As", "occu": 1}], "abc": [0.49298688, 0.14511912, 0.34786776], "properties": {"magmom": -0.0}, "label": "As", "xyz": [2.9242583037580037, 0.8741381076134328, 0.9971664442449866]}, {"species": [{"element": "As", "occu": 1}], "abc": [0.14511912, 0.65213224, 0.79725035], "properties": {"magmom": -0.0}, "label": "As", "xyz": [-1.258566202527929, 3.928177363446726, 3.9210665480496987]}, {"species": [{"element": "As", "occu": 1}], "abc": [0.34786776, 0.20274965, 0.85488188], "properties": {"magmom": -0.0}, "label": "As", "xyz": [1.7144676444292732, 1.2212808027659336, 4.952737848749485]}, {"species": [{"element": "As", "occu": 1}], "abc": [0.85488188, 0.65213224, 0.50701312], "properties": {"magmom": -0.0}, "label": "As", "xyz": [3.6781481684913584, 3.928177363446726, 0.03448924732574099]}, {"species": [{"element": "As", "occu": 1}], "abc": [0.65213224, 0.79725035, 0.14511912], "properties": {"magmom": -0.0}, "label": "As", "xyz": [1.763254325570728, 4.802309387234066, -2.493610681388095]}, {"species": [{"element": "As", "occu": 1}], "abc": [0.85488188, 0.34786776, 0.20274965], "properties": {"magmom": -0.0}, "label": "As", "xyz": [4.736295127970859, 2.0954128265532748, -1.4619492171704986]}, {"species": [{"element": "As", "occu": 1}], "abc": [0.65213224, 0.50701312, 0.85488188], "properties": {"magmom": -0.0}, "label": "As", "xyz": [2.7726184237140687, 3.0540392558332927, 3.4562941095231254]}, {"species": [{"element": "As", "occu": 1}], "abc": [0.34786776, 0.49298688, 0.14511912], "properties": {"magmom": -0.0}, "label": "As", "xyz": [0.7051035462859323, 2.9695509341667075, -0.9971669421617357]}, {"species": [{"element": "As", "occu": 1}], "abc": [0.14511912, 0.34786776, 0.49298688], "properties": {"magmom": -0.0}, "label": "As", "xyz": [-0.20041924304842818, 2.0954128265532748, 2.424628083553459]}, {"species": [{"element": "As", "occu": 1}], "abc": [0.79725035, 0.14511912, 0.65213224], "properties": {"magmom": -0.0}, "label": "As", "xyz": [5.0405455050267705, 0.8741381076134328, 2.493614843588238]}, {"species": [{"element": "As", "occu": 1}], "abc": [0.20274965, 0.85488188, 0.34786776], "properties": {"magmom": -0.0}, "label": "As", "xyz": [-1.5628270127477302, 5.149458105976757, -0.03449751270903745]}, {"species": [{"element": "As", "occu": 1}], "abc": [0.50701312, 0.85488188, 0.65213224], "properties": {"magmom": -0.0}, "label": "As", "xyz": [0.5534601885210368, 5.149458105976757, 1.461950886634214]}, {"species": [{"element": "Ir", "occu": 1}], "abc": [0.5, 0.5, 0.5], "properties": {"magmom": 0.0}, "label": "Ir", "xyz": [1.738860985, 3.011795095, 1.229559895]}, {"species": [{"element": "Ir", "occu": 1}], "abc": [0.0, 0.5, 0.0], "properties": {"magmom": 0.0}, "label": "Ir", "xyz": [-1.73886048, 3.011795095, -1.2295604]}, {"species": [{"element": "Ir", "occu": 1}], "abc": [0.0, 0.0, 0.5], "properties": {"magmom": 0.0}, "label": "Ir", "xyz": [0.0, 0.0, 3.688680695]}, {"species": [{"element": "Ir", "occu": 1}], "abc": [0.5, 0.0, 0.0], "properties": {"magmom": 0.0}, "label": "Ir", "xyz": [3.477721465, 0.0, -1.2295604]}]}, "task_ids": null, "uncorrected_energy_per_atom": null, "energy_per_atom": -24.628755081875, "formation_energy_per_atom": -0.508268478749997, "energy_above_hull": 0.0, "is_stable": true, "equilibrium_reaction_energy_per_atom": null, "decomposes_to": null, "xas": null, "grain_boundaries": null, "band_gap": 0.026799999999999, "cbm": null, "vbm": null, "efermi": 6.36148499, "is_gap_direct": null, "is_metal": null, "es_source_calc_id": null, "bandstructure": null, "dos": null, "dos_energy_up": null, "dos_energy_down": null, "is_magnetic": null, "ordering": null, "total_magnetization": 0.0, "total_magnetization_normalized_vol": null, "total_magnetization_normalized_formula_units": null, "num_magnetic_sites": null, "num_unique_magnetic_sites": null, "types_of_magnetic_species": null, "bulk_modulus": null, "shear_modulus": null, "universal_anisotropy": null, "homogeneous_poisson": null, "e_total": null, "e_ionic": null, "e_electronic": null, "n": null, "e_ij_max": null, "weighted_surface_energy_EV_PER_ANG2": null, "weighted_surface_energy": null, "weighted_work_function": null, "surface_anisotropy": null, "shape_factor": null, "has_reconstructed": null, "possible_species": null, "has_props": null, "theoretical": null, "database_IDs": null, "fields_not_requested": ["builder_meta", "nsites", "elements", "nelements", "composition", "composition_reduced", "chemsys", "symmetry", "property_name", "deprecated", "deprecation_reasons", "last_updated", "origins", "warnings", "task_ids", "uncorrected_energy_per_atom", "equilibrium_reaction_energy_per_atom", "decomposes_to", "xas", "grain_boundaries", "cbm", "vbm", "is_gap_direct", "is_metal", "es_source_calc_id", "bandstructure", "dos", "dos_energy_up", "dos_energy_down", "is_magnetic", "ordering", "total_magnetization_normalized_vol", "total_magnetization_normalized_formula_units", "num_magnetic_sites", "num_unique_magnetic_sites", "types_of_magnetic_species", "bulk_modulus", "shear_modulus", "universal_anisotropy", "homogeneous_poisson", "e_total", "e_ionic", "e_electronic", "n", "e_ij_max", "weighted_surface_energy_EV_PER_ANG2", "weighted_surface_energy", "weighted_work_function", "surface_anisotropy", "shape_factor", "has_reconstructed", "possible_species", "has_props", "theoretical", "database_IDs"]}