{
  "builder_meta": null,
  "nsites": null,
  "elements": null,
  "nelements": null,
  "composition": null,
  "composition_reduced": null,
  "formula_pretty": "As3Rh",
  "formula_anonymous": "AB3",
  "chemsys": null,
  "volume": 307.1310434213981,
  "density": 7.0863476131001,
  "density_atomic": 19.19569021383738,
  "symmetry": null,
  "property_name": null,
  "material_id": "mp-8182",
  "deprecated": null,
  "deprecation_reasons": null,
  "last_updated": null,
  "origins": null,
  "warnings": null,
  "structure": {
    "@module": "pymatgen.core.structure",
    "@class": "Structure",
    "charge": 0,
    "lattice": {
      "matrix": [
        [6.94073694, -0.0, -2.45392156],
        [-3.47036898, 6.01085428, -2.45392156],
        [-0.0, -0.0, 7.36176468]
      ],
      "pbc": [true, true, true],
      "a": 7.361763395607971,
      "b": 7.361763447393117,
      "c": 7.36176468,
      "alpha": 109.47122402621366,
      "beta": 109.47122416870914,
      "gamma": 109.47122092704927,
      "volume": 307.1310434213981
    },
    "properties": {},
    "sites": [
      {
        "species": [{ "element": "As", "occu": 1 }],
        "abc": [0.50592387, 0.85417478, 0.65175108],
        "properties": { "magmom": -0.0 },
        "label": "As",
        "xyz": [0.5471828333264335, 5.134320132231059, 1.4604626799339604]
      },
      {
        "species": [{ "element": "As", "occu": 1 }],
        "abc": [0.202422699999999, 0.85417478, 0.34824892],
        "properties": { "magmom": -0.0 },
        "label": "As",
        "xyz": [-1.5593389486257934, 5.134320132231059, -0.029080737309520543]
      },
      {
        "species": [{ "element": "As", "occu": 1 }],
        "abc": [0.797577299999999, 0.14582522, 0.65175108],
        "properties": { "magmom": -0.0 },
        "label": "As",
        "xyz": [5.02970690862578, 0.8765341477689417, 2.4830022973095254]
      },
      {
        "species": [{ "element": "As", "occu": 1 }],
        "abc": [0.14582522, 0.34824892, 0.49407613],
        "properties": { "magmom": -0.0 },
        "label": "As",
        "xyz": [-0.19641775804887485, 2.0932735112873777, 2.42485301868063]
      },
      {
        "species": [{ "element": "As", "occu": 1 }],
        "abc": [0.49407613, 0.14582522, 0.34824892],
        "properties": { "magmom": -0.0 },
        "label": "As",
        "xyz": [2.923185126673567, 0.8765341477689417, 0.9934588800660398]
      },
      {
        "species": [{ "element": "As", "occu": 1 }],
        "abc": [0.14582522, 0.65175108, 0.797577299999999],
        "properties": { "magmom": -0.0 },
        "label": "As",
        "xyz": [-1.2496822394758718, 3.917580768712623, 3.91438671839473]
      },
      {
        "species": [{ "element": "As", "occu": 1 }],
        "abc": [0.34824892, 0.202422699999999, 0.85417478],
        "properties": { "magmom": -0.0 },
        "label": "As",
        "xyz": [1.7146226844312622, 1.2167333526641502, 4.936928765152645]
      },
      {
        "species": [{ "element": "As", "occu": 1 }],
        "abc": [0.85417478, 0.65175108, 0.50592387],
        "properties": { "magmom": -0.0 },
        "label": "As",
        "xyz": [3.666785718048875, 3.917580768712623, 0.02906854131937031]
      },
      {
        "species": [{ "element": "As", "occu": 1 }],
        "abc": [0.65175108, 0.797577299999999, 0.14582522],
        "properties": { "magmom": -0.0 },
        "label": "As",
        "xyz": [1.7557452755687448, 4.794120927335839, -2.483007205152641]
      },
      {
        "species": [{ "element": "As", "occu": 1 }],
        "abc": [0.85417478, 0.34824892, 0.202422699999999],
        "properties": { "magmom": -0.0 },
        "label": "As",
        "xyz": [4.720050199475872, 2.0932735112873777, -1.4604651583947434]
      },
      {
        "species": [{ "element": "As", "occu": 1 }],
        "abc": [0.65175108, 0.50592387, 0.85417478],
        "properties": { "magmom": -0.0 },
        "label": "As",
        "xyz": [2.7678902919513426, 3.041034659343664, 3.447390206673848]
      },
      {
        "species": [{ "element": "As", "occu": 1 }],
        "abc": [0.34824892, 0.49407613, 0.14582522],
        "properties": { "magmom": -0.0 },
        "label": "As",
        "xyz": [0.7024776680486573, 2.9698196206563363, -0.9934686466738483]
      },
      {
        "species": [{ "element": "Rh", "occu": 1 }],
        "abc": [0.5, 0.0, -0.0],
        "properties": { "magmom": 0.0 },
        "label": "Rh",
        "xyz": [3.47036847, 0.0, -1.22696078]
      },
      {
        "species": [{ "element": "Rh", "occu": 1 }],
        "abc": [0.0, 0.0, 0.5],
        "properties": { "magmom": 0.0 },
        "label": "Rh",
        "xyz": [0.0, 0.0, 3.68088234]
      },
      {
        "species": [{ "element": "Rh", "occu": 1 }],
        "abc": [0.0, 0.5, -0.0],
        "properties": { "magmom": 0.0 },
        "label": "Rh",
        "xyz": [-1.73518449, 3.00542714, -1.22696078]
      },
      {
        "species": [{ "element": "Rh", "occu": 1 }],
        "abc": [0.5, 0.5, 0.5],
        "properties": { "magmom": 0.0 },
        "label": "Rh",
        "xyz": [1.73518398, 3.00542714, 1.2269607800000002]
      }
    ]
  },
  "task_ids": null,
  "uncorrected_energy_per_atom": null,
  "energy_per_atom": -17.56344755,
  "formation_energy_per_atom": -0.49874215187499904,
  "energy_above_hull": 0.0,
  "is_stable": true,
  "equilibrium_reaction_energy_per_atom": null,
  "decomposes_to": null,
  "xas": null,
  "grain_boundaries": null,
  "band_gap": 0.0,
  "cbm": null,
  "vbm": null,
  "efermi": 5.66299838,
  "is_gap_direct": null,
  "is_metal": null,
  "es_source_calc_id": null,
  "bandstructure": null,
  "dos": null,
  "dos_energy_up": null,
  "dos_energy_down": null,
  "is_magnetic": null,
  "ordering": null,
  "total_magnetization": 0.0,
  "total_magnetization_normalized_vol": null,
  "total_magnetization_normalized_formula_units": null,
  "num_magnetic_sites": null,
  "num_unique_magnetic_sites": null,
  "types_of_magnetic_species": null,
  "bulk_modulus": null,
  "shear_modulus": null,
  "universal_anisotropy": null,
  "homogeneous_poisson": null,
  "e_total": null,
  "e_ionic": null,
  "e_electronic": null,
  "n": null,
  "e_ij_max": null,
  "weighted_surface_energy_EV_PER_ANG2": null,
  "weighted_surface_energy": null,
  "weighted_work_function": null,
  "surface_anisotropy": null,
  "shape_factor": null,
  "has_reconstructed": null,
  "possible_species": null,
  "has_props": null,
  "theoretical": null,
  "database_IDs": null,
  "fields_not_requested": [
    "builder_meta",
    "nsites",
    "elements",
    "nelements",
    "composition",
    "composition_reduced",
    "chemsys",
    "symmetry",
    "property_name",
    "deprecated",
    "deprecation_reasons",
    "last_updated",
    "origins",
    "warnings",
    "task_ids",
    "uncorrected_energy_per_atom",
    "equilibrium_reaction_energy_per_atom",
    "decomposes_to",
    "xas",
    "grain_boundaries",
    "cbm",
    "vbm",
    "is_gap_direct",
    "is_metal",
    "es_source_calc_id",
    "bandstructure",
    "dos",
    "dos_energy_up",
    "dos_energy_down",
    "is_magnetic",
    "ordering",
    "total_magnetization_normalized_vol",
    "total_magnetization_normalized_formula_units",
    "num_magnetic_sites",
    "num_unique_magnetic_sites",
    "types_of_magnetic_species",
    "bulk_modulus",
    "shear_modulus",
    "universal_anisotropy",
    "homogeneous_poisson",
    "e_total",
    "e_ionic",
    "e_electronic",
    "n",
    "e_ij_max",
    "weighted_surface_energy_EV_PER_ANG2",
    "weighted_surface_energy",
    "weighted_work_function",
    "surface_anisotropy",
    "shape_factor",
    "has_reconstructed",
    "possible_species",
    "has_props",
    "theoretical",
    "database_IDs"
  ]
}
