{"builder_meta": null, "nsites": null, "elements": null, "nelements": null, "composition": null, "composition_reduced": null, "formula_pretty": "As3W", "formula_anonymous": "AB3", "chemsys": null, "volume": 146.79101282955045, "density": 9.244492835377317, "density_atomic": 18.348876603693807, "symmetry": null, "property_name": null, "material_id": "mp-985288", "deprecated": null, "deprecation_reasons": null, "last_updated": null, "origins": null, "warnings": null, "structure": {"@module": "pymatgen.core.structure", "@class": "Structure", "charge": 0, "lattice": {"matrix": [[3.030908, -5.249687, 0.0], [3.030908, 5.249687, 0.0], [0.0, 0.0, 4.612786]], "pbc": [true, true, true], "a": 6.061816303916921, "b": 6.061816303916921, "c": 4.612786, "alpha": 90.0, "beta": 90.0, "gamma": 120.00000331698958, "volume": 146.79101282955045}, "properties": {}, "sites": [{"species": [{"element": "As", "occu": 1}], "abc": [0.187071, 0.374142, 0.25], "properties": {"magmom": -0.0}, "label": "As", "xyz": [1.700984971404, 0.9820641967769999, 1.1531965]}, {"species": [{"element": "As", "occu": 1}], "abc": [0.625858, 0.812929, 0.25], "properties": {"magmom": -0.0}, "label": "As", "xyz": [4.360831028596, 0.9820641967769994, 1.1531965]}, {"species": [{"element": "As", "occu": 1}], "abc": [0.187071, 0.812929, 0.25], "properties": {"magmom": -0.0}, "label": "As", "xyz": [3.030908, 3.2855586064459996, 1.1531965]}, {"species": [{"element": "As", "occu": 1}], "abc": [0.812929, 0.625858, 0.75], "properties": {"magmom": -0.0}, "label": "As", "xyz": [4.360831028596, -0.9820641967769994, 3.4595895]}, {"species": [{"element": "As", "occu": 1}], "abc": [0.374142, 0.187071, 0.75], "properties": {"magmom": -0.0}, "label": "As", "xyz": [1.700984971404, -0.9820641967769999, 3.4595895]}, {"species": [{"element": "As", "occu": 1}], "abc": [0.812929, 0.187071, 0.75], "properties": {"magmom": -0.0}, "label": "As", "xyz": [3.030908, -3.2855586064459996, 3.4595895]}, {"species": [{"element": "W", "occu": 1}], "abc": [0.333333, 0.666667, 0.75], "properties": {"magmom": 0.0}, "label": "W", "xyz": [3.030908, 1.7498991664580001, 3.4595895]}, {"species": [{"element": "W", "occu": 1}], "abc": [0.666667, 0.333333, 0.25], "properties": {"magmom": 0.0}, "label": "W", "xyz": [3.030908, -1.7498991664580001, 1.1531965]}]}, "task_ids": null, "uncorrected_energy_per_atom": null, "energy_per_atom": -23.2675586203125, "formation_energy_per_atom": 0.6050382153125, "energy_above_hull": 0.663019383749999, "is_stable": false, "equilibrium_reaction_energy_per_atom": null, "decomposes_to": null, "xas": null, "grain_boundaries": null, "band_gap": 0.0, "cbm": null, "vbm": null, "efermi": 6.63077588, "is_gap_direct": null, "is_metal": null, "es_source_calc_id": null, "bandstructure": null, "dos": null, "dos_energy_up": null, "dos_energy_down": null, "is_magnetic": null, "ordering": null, "total_magnetization": 0.0005599, "total_magnetization_normalized_vol": null, "total_magnetization_normalized_formula_units": null, "num_magnetic_sites": null, "num_unique_magnetic_sites": null, "types_of_magnetic_species": null, "bulk_modulus": null, "shear_modulus": null, "universal_anisotropy": null, "homogeneous_poisson": null, "e_total": null, "e_ionic": null, "e_electronic": null, "n": null, "e_ij_max": null, "weighted_surface_energy_EV_PER_ANG2": null, "weighted_surface_energy": null, "weighted_work_function": null, "surface_anisotropy": null, "shape_factor": null, "has_reconstructed": null, "possible_species": null, "has_props": null, "theoretical": null, "database_IDs": null, "fields_not_requested": ["builder_meta", "nsites", "elements", "nelements", "composition", "composition_reduced", "chemsys", "symmetry", "property_name", "deprecated", "deprecation_reasons", "last_updated", "origins", "warnings", "task_ids", "uncorrected_energy_per_atom", "equilibrium_reaction_energy_per_atom", "decomposes_to", "xas", "grain_boundaries", "cbm", "vbm", "is_gap_direct", "is_metal", "es_source_calc_id", "bandstructure", "dos", "dos_energy_up", "dos_energy_down", "is_magnetic", "ordering", "total_magnetization_normalized_vol", "total_magnetization_normalized_formula_units", "num_magnetic_sites", "num_unique_magnetic_sites", "types_of_magnetic_species", "bulk_modulus", "shear_modulus", "universal_anisotropy", "homogeneous_poisson", "e_total", "e_ionic", "e_electronic", "n", "e_ij_max", "weighted_surface_energy_EV_PER_ANG2", "weighted_surface_energy", "weighted_work_function", "surface_anisotropy", "shape_factor", "has_reconstructed", "possible_species", "has_props", "theoretical", "database_IDs"]}