{"builder_meta": null, "nsites": null, "elements": null, "nelements": null, "composition": null, "composition_reduced": null, "formula_pretty": "As3W2", "formula_anonymous": "A2B3", "chemsys": null, "volume": 175.04869849094098, "density": 11.240046269237876, "density_atomic": 17.5048698490941, "symmetry": null, "property_name": null, "material_id": "mp-11696", "deprecated": null, "deprecation_reasons": null, "last_updated": null, "origins": null, "warnings": null, "structure": {"@module": "pymatgen.core.structure", "@class": "Structure", "charge": 0, "lattice": {"matrix": [[3.26108667, 0.0, 0.66976284], [1.4297176, 6.58774976, 1.31270523], [0.02500739, -0.00668044, 8.15226079]], "pbc": [true, true, true], "a": 3.3291543267167047, "b": 6.867731382123152, "c": 8.152301882658948, "alpha": 78.98928251017311, "beta": 78.21821397241106, "gamma": 75.97315029705221, "volume": 175.04869849094098}, "properties": {}, "sites": [{"species": [{"element": "As", "occu": 1}], "abc": [0.894169, 0.58019008, 0.63147193], "properties": {"magmom": 0.0}, "label": "As", "xyz": [3.761262040176201, 3.817928549934332, 6.508423576214703]}, {"species": [{"element": "As", "occu": 1}], "abc": [0.105831, 0.41980992, 0.36852807], "properties": {"magmom": 0.0}, "label": "As", "xyz": [0.9545496198237993, 2.763140770065669, 3.626305283785297]}, {"species": [{"element": "As", "occu": 1}], "abc": [0.58537059, 0.14272394, 0.6865348800000001], "properties": {"magmom": 0.0}, "label": "As", "xyz": [2.130167602511143, 0.9356432464075073, 6.176225314486437]}, {"species": [{"element": "As", "occu": 1}], "abc": [0.41462941000000003, 0.85727606, 0.31346512], "properties": {"magmom": 0.0}, "label": "As", "xyz": [2.585644057488858, 5.645426073592493, 3.9585035455135626]}, {"species": [{"element": "As", "occu": 1}], "abc": [0.12416653, 0.7971225, 0.95454343], "properties": {"magmom": 0.0}, "label": "As", "xyz": [1.5684485232751026, 5.2448667879540904, 8.911235979207529]}, {"species": [{"element": "As", "occu": 1}], "abc": [0.87583347, 0.2028775, 0.04545657], "properties": {"magmom": 0.0}, "label": "As", "xyz": [3.1473631367248975, 1.3362025320459092, 1.22349288079247]}, {"species": [{"element": "W", "occu": 1}], "abc": [0.65307459, 0.5671744400000001, 0.12667838], "properties": {"magmom": 0.0}, "label": "W", "xyz": [2.943800014756088, 3.7355570136712477, 2.2146531360552775]}, {"species": [{"element": "W", "occu": 1}], "abc": [0.34692541, 0.43282556, 0.87332162], "properties": {"magmom": 0.0}, "label": "W", "xyz": [1.7720116452439127, 2.845512306328753, 7.920075723944723]}, {"species": [{"element": "W", "occu": 1}], "abc": [0.75217405, 0.12309043, 0.37256247000000003], "properties": {"magmom": -0.0}, "label": "W", "xyz": [2.638206137124135, 0.80840006946371, 3.7025860951328022]}, {"species": [{"element": "W", "occu": 1}], "abc": [0.24782595000000002, 0.87690857, 0.62743753], "properties": {"magmom": -0.0}, "label": "W", "xyz": [2.0776040931582656, 5.772662662786531, 6.432141452161967]}]}, "task_ids": null, "uncorrected_energy_per_atom": null, "energy_per_atom": -29.464406214, "formation_energy_per_atom": -0.0927698695, "energy_above_hull": 0.0, "is_stable": true, "equilibrium_reaction_energy_per_atom": null, "decomposes_to": null, "xas": null, "grain_boundaries": null, "band_gap": 0.0, "cbm": null, "vbm": null, "efermi": 6.62034852, "is_gap_direct": null, "is_metal": null, "es_source_calc_id": null, "bandstructure": null, "dos": null, "dos_energy_up": null, "dos_energy_down": null, "is_magnetic": null, "ordering": null, "total_magnetization": 0.0, "total_magnetization_normalized_vol": null, "total_magnetization_normalized_formula_units": null, "num_magnetic_sites": null, "num_unique_magnetic_sites": null, "types_of_magnetic_species": null, "bulk_modulus": null, "shear_modulus": null, "universal_anisotropy": null, "homogeneous_poisson": null, "e_total": null, "e_ionic": null, "e_electronic": null, "n": null, "e_ij_max": null, "weighted_surface_energy_EV_PER_ANG2": null, "weighted_surface_energy": null, "weighted_work_function": null, "surface_anisotropy": null, "shape_factor": null, "has_reconstructed": null, "possible_species": null, "has_props": null, "theoretical": null, "database_IDs": null, "fields_not_requested": ["builder_meta", "nsites", "elements", "nelements", "composition", "composition_reduced", "chemsys", "symmetry", "property_name", "deprecated", "deprecation_reasons", "last_updated", "origins", "warnings", "task_ids", "uncorrected_energy_per_atom", "equilibrium_reaction_energy_per_atom", "decomposes_to", "xas", "grain_boundaries", "cbm", "vbm", "is_gap_direct", "is_metal", "es_source_calc_id", "bandstructure", "dos", "dos_energy_up", "dos_energy_down", "is_magnetic", "ordering", "total_magnetization_normalized_vol", "total_magnetization_normalized_formula_units", "num_magnetic_sites", "num_unique_magnetic_sites", "types_of_magnetic_species", "bulk_modulus", "shear_modulus", "universal_anisotropy", "homogeneous_poisson", "e_total", "e_ionic", "e_electronic", "n", "e_ij_max", "weighted_surface_energy_EV_PER_ANG2", "weighted_surface_energy", "weighted_work_function", "surface_anisotropy", "shape_factor", "has_reconstructed", "possible_species", "has_props", "theoretical", "database_IDs"]}