{
  "builder_meta": null,
  "nsites": null,
  "elements": null,
  "nelements": null,
  "composition": null,
  "composition_reduced": null,
  "formula_pretty": "As4S3",
  "formula_anonymous": "A3B4",
  "chemsys": null,
  "volume": 813.6029985073084,
  "density": 3.231927766472685,
  "density_atomic": 29.057249946689584,
  "symmetry": null,
  "property_name": null,
  "material_id": "mp-27543",
  "deprecated": null,
  "deprecation_reasons": null,
  "last_updated": null,
  "origins": null,
  "warnings": null,
  "structure": {
    "@module": "pymatgen.core.structure",
    "@class": "Structure",
    "charge": 0,
    "lattice": {
      "matrix": [
        [8.39664958, -0.0, 0.0],
        [-0.0, 9.41843409, 0.0],
        [0.0, 0.0, 10.28792545]
      ],
      "pbc": [true, true, true],
      "a": 8.39664958,
      "b": 9.41843409,
      "c": 10.28792545,
      "alpha": 90.0,
      "beta": 90.0,
      "gamma": 90.0,
      "volume": 813.6029985073084
    },
    "properties": {},
    "sites": [
      {
        "species": [{ "element": "As", "occu": 1 }],
        "abc": [0.10089336, 0.14389822, 0.71553194],
        "properties": { "magmom": -0.0 },
        "label": "As",
        "xyz": [0.8471661888687888, 1.3552959007383196, 7.361339255813872]
      },
      {
        "species": [{ "element": "As", "occu": 1 }],
        "abc": [0.60089336, 0.85610178, 0.28446806],
        "properties": { "magmom": -0.0 },
        "label": "As",
        "xyz": [5.04549097886879, 8.06313818926168, 2.926586194186127]
      },
      {
        "species": [{ "element": "As", "occu": 1 }],
        "abc": [0.39910664, 0.64389822, 0.78446806],
        "properties": { "magmom": -0.0 },
        "label": "As",
        "xyz": [3.3511586011312113, 6.064512945738319, 8.070548919186127]
      },
      {
        "species": [{ "element": "As", "occu": 1 }],
        "abc": [0.8991066400000001, 0.35610178000000003, 0.21553194],
        "properties": { "magmom": -0.0 },
        "label": "As",
        "xyz": [7.549483391131212, 3.3539211442616805, 2.217376530813873]
      },
      {
        "species": [{ "element": "As", "occu": 1 }],
        "abc": [0.10089336, 0.64389822, 0.78446806],
        "properties": { "magmom": -0.0 },
        "label": "As",
        "xyz": [0.8471661888687888, 6.064512945738319, 8.070548919186127]
      },
      {
        "species": [{ "element": "As", "occu": 1 }],
        "abc": [0.60089336, 0.35610178000000003, 0.21553194],
        "properties": { "magmom": -0.0 },
        "label": "As",
        "xyz": [5.04549097886879, 3.3539211442616805, 2.217376530813873]
      },
      {
        "species": [{ "element": "As", "occu": 1 }],
        "abc": [0.39910664, 0.14389822, 0.71553194],
        "properties": { "magmom": -0.0 },
        "label": "As",
        "xyz": [3.3511586011312113, 1.3552959007383196, 7.361339255813872]
      },
      {
        "species": [{ "element": "As", "occu": 1 }],
        "abc": [0.8991066400000001, 0.85610178, 0.28446806],
        "properties": { "magmom": -0.0 },
        "label": "As",
        "xyz": [7.549483391131212, 8.06313818926168, 2.926586194186127]
      },
      {
        "species": [{ "element": "As", "occu": 1 }],
        "abc": [0.25, 0.48453189, 0.93449789],
        "properties": { "magmom": -0.0 },
        "label": "As",
        "xyz": [2.099162395, 4.56353167046813, 9.6140446255023]
      },
      {
        "species": [{ "element": "As", "occu": 1 }],
        "abc": [0.75, 0.51546811, 0.06550211],
        "properties": { "magmom": -0.0 },
        "label": "As",
        "xyz": [6.297487185, 4.85490241953187, 0.6738808244976995]
      },
      {
        "species": [{ "element": "As", "occu": 1 }],
        "abc": [0.25, 0.98453189, 0.5655021100000001],
        "properties": { "magmom": -0.0 },
        "label": "As",
        "xyz": [2.099162395, 9.27274871546813, 5.8178435494977]
      },
      {
        "species": [{ "element": "As", "occu": 1 }],
        "abc": [0.75, 0.01546811, 0.43449789],
        "properties": { "magmom": -0.0 },
        "label": "As",
        "xyz": [6.297487185, 0.1456853745318699, 4.4700819005023]
      },
      {
        "species": [{ "element": "As", "occu": 1 }],
        "abc": [0.25, 0.83905174, 0.05612653],
        "properties": { "magmom": -0.0 },
        "label": "As",
        "xyz": [2.099162395, 7.902553511289817, 0.5774255564071885]
      },
      {
        "species": [{ "element": "As", "occu": 1 }],
        "abc": [0.75, 0.16094826, 0.94387347],
        "properties": { "magmom": -0.0 },
        "label": "As",
        "xyz": [6.297487185, 1.5158805787101834, 9.71049989359281]
      },
      {
        "species": [{ "element": "As", "occu": 1 }],
        "abc": [0.25, 0.33905174, 0.44387347],
        "properties": { "magmom": -0.0 },
        "label": "As",
        "xyz": [2.099162395, 3.1933364662898165, 4.566537168592811]
      },
      {
        "species": [{ "element": "As", "occu": 1 }],
        "abc": [0.75, 0.6609482600000001, 0.55612653],
        "properties": { "magmom": -0.0 },
        "label": "As",
        "xyz": [6.297487185, 6.225097623710184, 5.721388281407188]
      },
      {
        "species": [{ "element": "S", "occu": 1 }],
        "abc": [0.25, 0.60965812, 0.1168347],
        "properties": { "magmom": -0.0 },
        "label": "S",
        "xyz": [2.099162395, 5.74202482065331, 1.201986683573115]
      },
      {
        "species": [{ "element": "S", "occu": 1 }],
        "abc": [0.75, 0.39034188000000003, 0.883165299999999],
        "properties": { "magmom": -0.0 },
        "label": "S",
        "xyz": [6.297487185, 3.6764092693466894, 9.085938766426874]
      },
      {
        "species": [{ "element": "S", "occu": 1 }],
        "abc": [0.25, 0.10965812, 0.3831653],
        "properties": { "magmom": -0.0 },
        "label": "S",
        "xyz": [2.099162395, 1.0328077756533107, 3.9419760414268845]
      },
      {
        "species": [{ "element": "S", "occu": 1 }],
        "abc": [0.75, 0.89034188, 0.6168347],
        "properties": { "magmom": -0.0 },
        "label": "S",
        "xyz": [6.297487185, 8.38562631434669, 6.345949408573114]
      },
      {
        "species": [{ "element": "S", "occu": 1 }],
        "abc": [0.95079979, 0.17193129000000001, 0.08794208],
        "properties": { "magmom": 0.0 },
        "label": "S",
        "xyz": [7.983532657367588, 1.6193235228736762, 0.9047415629579361]
      },
      {
        "species": [{ "element": "S", "occu": 1 }],
        "abc": [0.45079979000000003, 0.82806871, 0.91205792],
        "properties": { "magmom": 0.0 },
        "label": "S",
        "xyz": [3.7852078673675886, 7.799110567126324, 9.383183887042064]
      },
      {
        "species": [{ "element": "S", "occu": 1 }],
        "abc": [0.54920021, 0.67193129, 0.41205792],
        "properties": { "magmom": 0.0 },
        "label": "S",
        "xyz": [4.611441712632412, 6.3285405678736755, 4.239221162042064]
      },
      {
        "species": [{ "element": "S", "occu": 1 }],
        "abc": [0.04920021, 0.32806871, 0.58794208],
        "properties": { "magmom": 0.0 },
        "label": "S",
        "xyz": [0.4131169226324118, 3.0898935221263235, 6.0487042879579365]
      },
      {
        "species": [{ "element": "S", "occu": 1 }],
        "abc": [0.04920021, 0.82806871, 0.91205792],
        "properties": { "magmom": 0.0 },
        "label": "S",
        "xyz": [0.4131169226324118, 7.799110567126324, 9.383183887042064]
      },
      {
        "species": [{ "element": "S", "occu": 1 }],
        "abc": [0.54920021, 0.17193129000000001, 0.08794208],
        "properties": { "magmom": 0.0 },
        "label": "S",
        "xyz": [4.611441712632412, 1.6193235228736762, 0.9047415629579361]
      },
      {
        "species": [{ "element": "S", "occu": 1 }],
        "abc": [0.45079979000000003, 0.32806871, 0.58794208],
        "properties": { "magmom": 0.0 },
        "label": "S",
        "xyz": [3.7852078673675886, 3.0898935221263235, 6.0487042879579365]
      },
      {
        "species": [{ "element": "S", "occu": 1 }],
        "abc": [0.95079979, 0.67193129, 0.41205792],
        "properties": { "magmom": 0.0 },
        "label": "S",
        "xyz": [7.983532657367588, 6.3285405678736755, 4.239221162042064]
      }
    ]
  },
  "task_ids": null,
  "uncorrected_energy_per_atom": null,
  "energy_per_atom": -11.977889921428572,
  "formation_energy_per_atom": -0.13001546477678502,
  "energy_above_hull": 0.006355647857141,
  "is_stable": false,
  "equilibrium_reaction_energy_per_atom": null,
  "decomposes_to": null,
  "xas": null,
  "grain_boundaries": null,
  "band_gap": 2.388,
  "cbm": null,
  "vbm": null,
  "efermi": 0.27284343,
  "is_gap_direct": null,
  "is_metal": null,
  "es_source_calc_id": null,
  "bandstructure": null,
  "dos": null,
  "dos_energy_up": null,
  "dos_energy_down": null,
  "is_magnetic": null,
  "ordering": null,
  "total_magnetization": 0.0,
  "total_magnetization_normalized_vol": null,
  "total_magnetization_normalized_formula_units": null,
  "num_magnetic_sites": null,
  "num_unique_magnetic_sites": null,
  "types_of_magnetic_species": null,
  "bulk_modulus": null,
  "shear_modulus": null,
  "universal_anisotropy": null,
  "homogeneous_poisson": null,
  "e_total": null,
  "e_ionic": null,
  "e_electronic": null,
  "n": null,
  "e_ij_max": null,
  "weighted_surface_energy_EV_PER_ANG2": null,
  "weighted_surface_energy": null,
  "weighted_work_function": null,
  "surface_anisotropy": null,
  "shape_factor": null,
  "has_reconstructed": null,
  "possible_species": null,
  "has_props": null,
  "theoretical": null,
  "database_IDs": null,
  "fields_not_requested": [
    "builder_meta",
    "nsites",
    "elements",
    "nelements",
    "composition",
    "composition_reduced",
    "chemsys",
    "symmetry",
    "property_name",
    "deprecated",
    "deprecation_reasons",
    "last_updated",
    "origins",
    "warnings",
    "task_ids",
    "uncorrected_energy_per_atom",
    "equilibrium_reaction_energy_per_atom",
    "decomposes_to",
    "xas",
    "grain_boundaries",
    "cbm",
    "vbm",
    "is_gap_direct",
    "is_metal",
    "es_source_calc_id",
    "bandstructure",
    "dos",
    "dos_energy_up",
    "dos_energy_down",
    "is_magnetic",
    "ordering",
    "total_magnetization_normalized_vol",
    "total_magnetization_normalized_formula_units",
    "num_magnetic_sites",
    "num_unique_magnetic_sites",
    "types_of_magnetic_species",
    "bulk_modulus",
    "shear_modulus",
    "universal_anisotropy",
    "homogeneous_poisson",
    "e_total",
    "e_ionic",
    "e_electronic",
    "n",
    "e_ij_max",
    "weighted_surface_energy_EV_PER_ANG2",
    "weighted_surface_energy",
    "weighted_work_function",
    "surface_anisotropy",
    "shape_factor",
    "has_reconstructed",
    "possible_species",
    "has_props",
    "theoretical",
    "database_IDs"
  ]
}
