{"builder_meta": null, "nsites": null, "elements": null, "nelements": null, "composition": null, "composition_reduced": null, "formula_pretty": "As4S5", "formula_anonymous": "A4B5", "chemsys": null, "volume": 490.833827510581, "density": 3.112527531590688, "density_atomic": 27.268545972810056, "symmetry": null, "property_name": null, "material_id": "mp-502", "deprecated": null, "deprecation_reasons": null, "last_updated": null, "origins": null, "warnings": null, "structure": {"@module": "pymatgen.core.structure", "@class": "Structure", "charge": 0, "lattice": {"matrix": [[7.41505369, -0.03477162, 0.0], [-1.59029514, 7.96995368, 0.0], [0.0, 0.0, 8.31325198]], "pbc": [true, true, true], "a": 7.415135217320048, "b": 8.127065909272126, "c": 8.31325198, "alpha": 90.0, "beta": 90.0, "gamma": 101.55306122954356, "volume": 490.833827510581}, "properties": {}, "sites": [{"species": [{"element": "As", "occu": 1}], "abc": [0.74203778, 0.38965538, 0.01618074], "properties": {"magmom": -0.0}, "label": "As", "xyz": [4.882582921619554, 3.0797334740509945, 0.1345145688428652]}, {"species": [{"element": "As", "occu": 1}], "abc": [0.25796222, 0.61034462, 0.51618074], "properties": {"magmom": -0.0}, "label": "As", "xyz": [0.942175628380445, 4.855448585949005, 4.291140558842866]}, {"species": [{"element": "As", "occu": 1}], "abc": [0.25796222, 0.61034462, 0.98381926], "properties": {"magmom": -0.0}, "label": "As", "xyz": [0.942175628380445, 4.855448585949005, 8.178737411157135]}, {"species": [{"element": "As", "occu": 1}], "abc": [0.74203778, 0.38965538, 0.48381926000000003], "properties": {"magmom": -0.0}, "label": "As", "xyz": [4.882582921619554, 3.0797334740509945, 4.022111421157136]}, {"species": [{"element": "As", "occu": 1}], "abc": [0.5360526800000001, 0.95240303, 0.75], "properties": {"magmom": -0.0}, "label": "As", "xyz": [2.4602574929381156, 7.571968613702709, 6.234938985]}, {"species": [{"element": "As", "occu": 1}], "abc": [0.46394732, 0.04759697, 0.25], "properties": {"magmom": -0.0}, "label": "As", "xyz": [3.3645010570618847, 0.3632134462972912, 2.078312995]}, {"species": [{"element": "As", "occu": 1}], "abc": [0.19878026000000001, 0.97627559, 0.75], "properties": {"magmom": 0.0}, "label": "As", "xyz": [-0.07860002566547308, 7.77395931955045, 6.234938985]}, {"species": [{"element": "As", "occu": 1}], "abc": [0.8012197400000001, 0.02372441, 0.25], "properties": {"magmom": 0.0}, "label": "As", "xyz": [5.903358575665473, 0.16122274044955, 2.078312995]}, {"species": [{"element": "S", "occu": 1}], "abc": [0.21394895, 0.46350095, 0.75], "properties": {"magmom": -0.0}, "label": "S", "xyz": [0.8493396429987423, 3.6866417505471967, 6.234938985]}, {"species": [{"element": "S", "occu": 1}], "abc": [0.78605105, 0.53649905, 0.25], "properties": {"magmom": -0.0}, "label": "S", "xyz": [4.9754189070012576, 4.248540309452802, 2.078312995]}, {"species": [{"element": "S", "occu": 1}], "abc": [0.45996693, 0.22460385, 0.040843290000000004], "properties": {"magmom": 0.0}, "label": "S", "xyz": [3.0534930704941825, 1.7740884855471413, 0.33954056146221423]}, {"species": [{"element": "S", "occu": 1}], "abc": [0.54003307, 0.7753961500000001, 0.54084329], "properties": {"magmom": 0.0}, "label": "S", "xyz": [2.771265479505817, 6.16109357445286, 4.496166551462214]}, {"species": [{"element": "S", "occu": 1}], "abc": [0.54003307, 0.7753961500000001, 0.95915671], "properties": {"magmom": 0.0}, "label": "S", "xyz": [2.771265479505817, 6.16109357445286, 7.973711418537786]}, {"species": [{"element": "S", "occu": 1}], "abc": [0.45996693, 0.22460385, 0.45915671], "properties": {"magmom": 0.0}, "label": "S", "xyz": [3.0534930704941825, 1.7740884855471413, 3.817085428537786]}, {"species": [{"element": "S", "occu": 1}], "abc": [0.90549659, 0.18562631000000002, 0.0377746], "properties": {"magmom": -0.0}, "label": "S", "xyz": [6.419105212312784, 1.4479475091505452, 0.314029768243708]}, {"species": [{"element": "S", "occu": 1}], "abc": [0.09450341, 0.81437369, 0.5377746], "properties": {"magmom": -0.0}, "label": "S", "xyz": [-0.5943466623127839, 6.487234550849455, 4.4706557582437085]}, {"species": [{"element": "S", "occu": 1}], "abc": [0.90549659, 0.18562631000000002, 0.462225399999999], "properties": {"magmom": -0.0}, "label": "S", "xyz": [6.419105212312784, 1.4479475091505452, 3.842596221756284]}, {"species": [{"element": "S", "occu": 1}], "abc": [0.09450341, 0.81437369, 0.9622254], "properties": {"magmom": -0.0}, "label": "S", "xyz": [-0.5943466623127839, 6.487234550849455, 7.999222211756292]}]}, "task_ids": null, "uncorrected_energy_per_atom": null, "energy_per_atom": -11.154538093888888, "formation_energy_per_atom": -0.15396927600694302, "energy_above_hull": 0.003371050277777, "is_stable": false, "equilibrium_reaction_energy_per_atom": null, "decomposes_to": null, "xas": null, "grain_boundaries": null, "band_gap": 1.996999999999999, "cbm": null, "vbm": null, "efermi": 0.69269026, "is_gap_direct": null, "is_metal": null, "es_source_calc_id": null, "bandstructure": null, "dos": null, "dos_energy_up": null, "dos_energy_down": null, "is_magnetic": null, "ordering": null, "total_magnetization": 1e-07, "total_magnetization_normalized_vol": null, "total_magnetization_normalized_formula_units": null, "num_magnetic_sites": null, "num_unique_magnetic_sites": null, "types_of_magnetic_species": null, "bulk_modulus": null, "shear_modulus": null, "universal_anisotropy": null, "homogeneous_poisson": null, "e_total": null, "e_ionic": null, "e_electronic": null, "n": null, "e_ij_max": null, "weighted_surface_energy_EV_PER_ANG2": null, "weighted_surface_energy": null, "weighted_work_function": null, "surface_anisotropy": null, "shape_factor": null, "has_reconstructed": null, "possible_species": null, "has_props": null, "theoretical": null, "database_IDs": null, "fields_not_requested": ["builder_meta", "nsites", "elements", "nelements", "composition", "composition_reduced", "chemsys", "symmetry", "property_name", "deprecated", "deprecation_reasons", "last_updated", "origins", "warnings", "task_ids", "uncorrected_energy_per_atom", "equilibrium_reaction_energy_per_atom", "decomposes_to", "xas", "grain_boundaries", "cbm", "vbm", "is_gap_direct", "is_metal", "es_source_calc_id", "bandstructure", "dos", "dos_energy_up", "dos_energy_down", "is_magnetic", "ordering", "total_magnetization_normalized_vol", "total_magnetization_normalized_formula_units", "num_magnetic_sites", "num_unique_magnetic_sites", "types_of_magnetic_species", "bulk_modulus", "shear_modulus", "universal_anisotropy", "homogeneous_poisson", "e_total", "e_ionic", "e_electronic", "n", "e_ij_max", "weighted_surface_energy_EV_PER_ANG2", "weighted_surface_energy", "weighted_work_function", "surface_anisotropy", "shape_factor", "has_reconstructed", "possible_species", "has_props", "theoretical", "database_IDs"]}