{
  "builder_meta": null,
  "nsites": null,
  "elements": null,
  "nelements": null,
  "composition": null,
  "composition_reduced": null,
  "formula_pretty": "As4Se3",
  "formula_anonymous": "A3B4",
  "chemsys": null,
  "volume": 874.7777298541612,
  "density": 4.074129638272632,
  "density_atomic": 31.242061780505757,
  "symmetry": null,
  "property_name": null,
  "material_id": "mp-1194350",
  "deprecated": null,
  "deprecation_reasons": null,
  "last_updated": null,
  "origins": null,
  "warnings": null,
  "structure": {
    "@module": "pymatgen.core.structure",
    "@class": "Structure",
    "charge": 0,
    "lattice": {
      "matrix": [
        [8.35569139, -0.0, 0.0],
        [-0.0, 9.79604634, 0.0],
        [0.0, 0.0, 10.68721376]
      ],
      "pbc": [true, true, true],
      "a": 8.35569139,
      "b": 9.79604634,
      "c": 10.68721376,
      "alpha": 90.0,
      "beta": 90.0,
      "gamma": 90.0,
      "volume": 874.7777298541612
    },
    "properties": {},
    "sites": [
      {
        "species": [{ "element": "As", "occu": 1 }],
        "abc": [0.25, 0.01393665, 0.91792213],
        "properties": { "magmom": 0.0 },
        "label": "As",
        "xyz": [2.0889228475, 0.136524069224361, 9.81003001834451]
      },
      {
        "species": [{ "element": "As", "occu": 1 }],
        "abc": [0.25, 0.51393665, 0.58207787],
        "properties": { "magmom": 0.0 },
        "label": "As",
        "xyz": [2.0889228475, 5.034547239224361, 6.220790621655492]
      },
      {
        "species": [{ "element": "As", "occu": 1 }],
        "abc": [0.75, 0.98606335, 0.08207787],
        "properties": { "magmom": 0.0 },
        "label": "As",
        "xyz": [6.2667685425, 9.65952227077564, 0.8771837416554912]
      },
      {
        "species": [{ "element": "As", "occu": 1 }],
        "abc": [0.75, 0.48606335, 0.41792213],
        "properties": { "magmom": 0.0 },
        "label": "As",
        "xyz": [6.2667685425, 4.761499100775639, 4.466423138344509]
      },
      {
        "species": [{ "element": "As", "occu": 1 }],
        "abc": [0.25, 0.1682406, 0.43747549],
        "properties": { "magmom": 0.0 },
        "label": "As",
        "xyz": [2.0889228475, 1.648092713869404, 4.6753940763907424]
      },
      {
        "species": [{ "element": "As", "occu": 1 }],
        "abc": [0.25, 0.6682406, 0.06252451],
        "properties": { "magmom": 0.0 },
        "label": "As",
        "xyz": [2.0889228475, 6.546115883869404, 0.6682128036092577]
      },
      {
        "species": [{ "element": "As", "occu": 1 }],
        "abc": [0.75, 0.831759399999999, 0.56252451],
        "properties": { "magmom": 0.0 },
        "label": "As",
        "xyz": [6.2667685425, 8.147953626130587, 6.011819683609258]
      },
      {
        "species": [{ "element": "As", "occu": 1 }],
        "abc": [0.75, 0.3317594, 0.93747549],
        "properties": { "magmom": 0.0 },
        "label": "As",
        "xyz": [6.2667685425, 3.249930456130596, 10.019000956390743]
      },
      {
        "species": [{ "element": "As", "occu": 1 }],
        "abc": [0.10081515, 0.35298116, 0.71856537],
        "properties": { "magmom": 0.0 },
        "label": "As",
        "xyz": [0.8423802808365586, 3.4578198005069547, 7.679461709723491]
      },
      {
        "species": [{ "element": "As", "occu": 1 }],
        "abc": [0.39918485000000004, 0.85298116, 0.78143463],
        "properties": { "magmom": 0.0 },
        "label": "As",
        "xyz": [3.335465414163442, 8.355842970506954, 8.35135893027651]
      },
      {
        "species": [{ "element": "As", "occu": 1 }],
        "abc": [0.60081515, 0.64701884, 0.28143463],
        "properties": { "magmom": 0.0 },
        "label": "As",
        "xyz": [5.020225975836558, 6.3382265394930455, 3.007752050276509]
      },
      {
        "species": [{ "element": "As", "occu": 1 }],
        "abc": [0.89918485, 0.14701884, 0.21856537],
        "properties": { "magmom": 0.0 },
        "label": "As",
        "xyz": [7.513311109163443, 1.4402033694930458, 2.3358548297234916]
      },
      {
        "species": [{ "element": "As", "occu": 1 }],
        "abc": [0.89918485, 0.64701884, 0.28143463],
        "properties": { "magmom": 0.0 },
        "label": "As",
        "xyz": [7.513311109163443, 6.3382265394930455, 3.007752050276509]
      },
      {
        "species": [{ "element": "As", "occu": 1 }],
        "abc": [0.60081515, 0.14701884, 0.21856537],
        "properties": { "magmom": 0.0 },
        "label": "As",
        "xyz": [5.020225975836558, 1.4402033694930458, 2.3358548297234916]
      },
      {
        "species": [{ "element": "As", "occu": 1 }],
        "abc": [0.39918485000000004, 0.35298116, 0.71856537],
        "properties": { "magmom": 0.0 },
        "label": "As",
        "xyz": [3.335465414163442, 3.4578198005069547, 7.679461709723491]
      },
      {
        "species": [{ "element": "As", "occu": 1 }],
        "abc": [0.10081515, 0.85298116, 0.78143463],
        "properties": { "magmom": 0.0 },
        "label": "As",
        "xyz": [0.8423802808365586, 8.355842970506954, 8.35135893027651]
      },
      {
        "species": [{ "element": "Se", "occu": 1 }],
        "abc": [0.0350884, 0.170465999999999, 0.5843501],
        "properties": { "magmom": -0.0 },
        "label": "Se",
        "xyz": [0.293187841768876, 1.6698928353944302, 6.245074429377376]
      },
      {
        "species": [{ "element": "Se", "occu": 1 }],
        "abc": [0.4649116, 0.670466, 0.915649899999999],
        "properties": { "magmom": -0.0 },
        "label": "Se",
        "xyz": [3.8846578532311242, 6.56791600539444, 9.785746210622614]
      },
      {
        "species": [{ "element": "Se", "occu": 1 }],
        "abc": [0.5350884, 0.829534, 0.415649899999999],
        "properties": { "magmom": -0.0 },
        "label": "Se",
        "xyz": [4.471033536768877, 8.12615350460556, 4.442139330622614]
      },
      {
        "species": [{ "element": "Se", "occu": 1 }],
        "abc": [0.9649116, 0.329534, 0.0843501],
        "properties": { "magmom": -0.0 },
        "label": "Se",
        "xyz": [8.062503548231124, 3.22813033460556, 0.901467549377376]
      },
      {
        "species": [{ "element": "Se", "occu": 1 }],
        "abc": [0.9649116, 0.829534, 0.415649899999999],
        "properties": { "magmom": -0.0 },
        "label": "Se",
        "xyz": [8.062503548231124, 8.12615350460556, 4.442139330622614]
      },
      {
        "species": [{ "element": "Se", "occu": 1 }],
        "abc": [0.5350884, 0.329534, 0.0843501],
        "properties": { "magmom": -0.0 },
        "label": "Se",
        "xyz": [4.471033536768877, 3.22813033460556, 0.901467549377376]
      },
      {
        "species": [{ "element": "Se", "occu": 1 }],
        "abc": [0.4649116, 0.170465999999999, 0.5843501],
        "properties": { "magmom": -0.0 },
        "label": "Se",
        "xyz": [3.8846578532311242, 1.6698928353944302, 6.245074429377376]
      },
      {
        "species": [{ "element": "Se", "occu": 1 }],
        "abc": [0.0350884, 0.670466, 0.915649899999999],
        "properties": { "magmom": -0.0 },
        "label": "Se",
        "xyz": [0.293187841768876, 6.56791600539444, 9.785746210622614]
      },
      {
        "species": [{ "element": "Se", "occu": 1 }],
        "abc": [0.25, 0.40506405, 0.38545728],
        "properties": { "magmom": -0.0 },
        "label": "Se",
        "xyz": [2.0889228475, 3.968026204468077, 4.119464346708173]
      },
      {
        "species": [{ "element": "Se", "occu": 1 }],
        "abc": [0.25, 0.90506405, 0.11454272],
        "properties": { "magmom": -0.0 },
        "label": "Se",
        "xyz": [2.0889228475, 8.866049374468076, 1.2241425332918272]
      },
      {
        "species": [{ "element": "Se", "occu": 1 }],
        "abc": [0.75, 0.59493595, 0.61454272],
        "properties": { "magmom": -0.0 },
        "label": "Se",
        "xyz": [6.2667685425, 5.828020135531923, 6.5677494132918275]
      },
      {
        "species": [{ "element": "Se", "occu": 1 }],
        "abc": [0.75, 0.09493595, 0.88545728],
        "properties": { "magmom": -0.0 },
        "label": "Se",
        "xyz": [6.2667685425, 0.929996965531923, 9.463071226708173]
      }
    ]
  },
  "task_ids": null,
  "uncorrected_energy_per_atom": null,
  "energy_per_atom": -14.637042614642857,
  "formation_energy_per_atom": -0.099213379955358,
  "energy_above_hull": 0.0032086291071420003,
  "is_stable": false,
  "equilibrium_reaction_energy_per_atom": null,
  "decomposes_to": null,
  "xas": null,
  "grain_boundaries": null,
  "band_gap": 1.6129,
  "cbm": null,
  "vbm": null,
  "efermi": 0.8253571,
  "is_gap_direct": null,
  "is_metal": null,
  "es_source_calc_id": null,
  "bandstructure": null,
  "dos": null,
  "dos_energy_up": null,
  "dos_energy_down": null,
  "is_magnetic": null,
  "ordering": null,
  "total_magnetization": 0.0,
  "total_magnetization_normalized_vol": null,
  "total_magnetization_normalized_formula_units": null,
  "num_magnetic_sites": null,
  "num_unique_magnetic_sites": null,
  "types_of_magnetic_species": null,
  "bulk_modulus": null,
  "shear_modulus": null,
  "universal_anisotropy": null,
  "homogeneous_poisson": null,
  "e_total": null,
  "e_ionic": null,
  "e_electronic": null,
  "n": null,
  "e_ij_max": null,
  "weighted_surface_energy_EV_PER_ANG2": null,
  "weighted_surface_energy": null,
  "weighted_work_function": null,
  "surface_anisotropy": null,
  "shape_factor": null,
  "has_reconstructed": null,
  "possible_species": null,
  "has_props": null,
  "theoretical": null,
  "database_IDs": null,
  "fields_not_requested": [
    "builder_meta",
    "nsites",
    "elements",
    "nelements",
    "composition",
    "composition_reduced",
    "chemsys",
    "symmetry",
    "property_name",
    "deprecated",
    "deprecation_reasons",
    "last_updated",
    "origins",
    "warnings",
    "task_ids",
    "uncorrected_energy_per_atom",
    "equilibrium_reaction_energy_per_atom",
    "decomposes_to",
    "xas",
    "grain_boundaries",
    "cbm",
    "vbm",
    "is_gap_direct",
    "is_metal",
    "es_source_calc_id",
    "bandstructure",
    "dos",
    "dos_energy_up",
    "dos_energy_down",
    "is_magnetic",
    "ordering",
    "total_magnetization_normalized_vol",
    "total_magnetization_normalized_formula_units",
    "num_magnetic_sites",
    "num_unique_magnetic_sites",
    "types_of_magnetic_species",
    "bulk_modulus",
    "shear_modulus",
    "universal_anisotropy",
    "homogeneous_poisson",
    "e_total",
    "e_ionic",
    "e_electronic",
    "n",
    "e_ij_max",
    "weighted_surface_energy_EV_PER_ANG2",
    "weighted_surface_energy",
    "weighted_work_function",
    "surface_anisotropy",
    "shape_factor",
    "has_reconstructed",
    "possible_species",
    "has_props",
    "theoretical",
    "database_IDs"
  ]
}
