{"builder_meta": null, "nsites": null, "elements": null, "nelements": null, "composition": null, "composition_reduced": null, "formula_pretty": "AsAu3", "formula_anonymous": "AB3", "chemsys": null, "volume": 147.88415168403492, "density": 14.952546017377347, "density_atomic": 18.485518960504365, "symmetry": null, "property_name": null, "material_id": "mp-984353", "deprecated": null, "deprecation_reasons": null, "last_updated": null, "origins": null, "warnings": null, "structure": {"@module": "pymatgen.core.structure", "@class": "Structure", "charge": 0, "lattice": {"matrix": [[2.979492999999999, -5.160632, 0.0], [2.979492999999999, 5.160632, 0.0], [0.0, 0.0, 4.808907]], "pbc": [true, true, true], "a": 5.958984911582927, "b": 5.958984911582927, "c": 4.808907, "alpha": 90.0, "beta": 90.0, "gamma": 119.99998791587879, "volume": 147.88415168403486}, "properties": {}, "sites": [{"species": [{"element": "As", "occu": 1}], "abc": [0.333333, 0.666667, 0.75], "properties": {"magmom": 0.0}, "label": "As", "xyz": [2.979492999999999, 1.7202141070880002, 3.6066802499999997]}, {"species": [{"element": "As", "occu": 1}], "abc": [0.666667, 0.333333, 0.25], "properties": {"magmom": 0.0}, "label": "As", "xyz": [2.979492999999999, -1.7202141070880002, 1.20222675]}, {"species": [{"element": "Au", "occu": 1}], "abc": [0.166831999999999, 0.333663999999999, 0.25], "properties": {"magmom": 0.0}, "label": "Au", "xyz": [1.4912243285279936, 0.8609585578240001, 1.20222675]}, {"species": [{"element": "Au", "occu": 1}], "abc": [0.666335999999999, 0.833167999999999, 0.25], "properties": {"magmom": 0.0}, "label": "Au", "xyz": [4.467761671471992, 0.860958557824, 1.20222675]}, {"species": [{"element": "Au", "occu": 1}], "abc": [0.166831999999999, 0.833167999999999, 0.25], "properties": {"magmom": 0.0}, "label": "Au", "xyz": [2.979492999999993, 3.438714884352, 1.20222675]}, {"species": [{"element": "Au", "occu": 1}], "abc": [0.833167999999999, 0.666335999999999, 0.75], "properties": {"magmom": 0.0}, "label": "Au", "xyz": [4.467761671471992, -0.860958557824, 3.6066802499999997]}, {"species": [{"element": "Au", "occu": 1}], "abc": [0.333663999999999, 0.166831999999999, 0.75], "properties": {"magmom": 0.0}, "label": "Au", "xyz": [1.4912243285279936, -0.8609585578240001, 3.6066802499999997]}, {"species": [{"element": "Au", "occu": 1}], "abc": [0.833167999999999, 0.166831999999999, 0.75], "properties": {"magmom": 0.0}, "label": "Au", "xyz": [2.979492999999993, -3.438714884352, 3.6066802499999997]}]}, "task_ids": null, "uncorrected_energy_per_atom": null, "energy_per_atom": -41.464839604375, "formation_energy_per_atom": 0.150763255000001, "energy_above_hull": 0.150763255000001, "is_stable": false, "equilibrium_reaction_energy_per_atom": null, "decomposes_to": null, "xas": null, "grain_boundaries": null, "band_gap": 0.0, "cbm": null, "vbm": null, "efermi": 5.51204561, "is_gap_direct": null, "is_metal": null, "es_source_calc_id": null, "bandstructure": null, "dos": null, "dos_energy_up": null, "dos_energy_down": null, "is_magnetic": null, "ordering": null, "total_magnetization": 0.0036600000000000005, "total_magnetization_normalized_vol": null, "total_magnetization_normalized_formula_units": null, "num_magnetic_sites": null, "num_unique_magnetic_sites": null, "types_of_magnetic_species": null, "bulk_modulus": null, "shear_modulus": null, "universal_anisotropy": null, "homogeneous_poisson": null, "e_total": null, "e_ionic": null, "e_electronic": null, "n": null, "e_ij_max": null, "weighted_surface_energy_EV_PER_ANG2": null, "weighted_surface_energy": null, "weighted_work_function": null, "surface_anisotropy": null, "shape_factor": null, "has_reconstructed": null, "possible_species": null, "has_props": null, "theoretical": null, "database_IDs": null, "fields_not_requested": ["builder_meta", "nsites", "elements", "nelements", "composition", "composition_reduced", "chemsys", "symmetry", "property_name", "deprecated", "deprecation_reasons", "last_updated", "origins", "warnings", "task_ids", "uncorrected_energy_per_atom", "equilibrium_reaction_energy_per_atom", "decomposes_to", "xas", "grain_boundaries", "cbm", "vbm", "is_gap_direct", "is_metal", "es_source_calc_id", "bandstructure", "dos", "dos_energy_up", "dos_energy_down", "is_magnetic", "ordering", "total_magnetization_normalized_vol", "total_magnetization_normalized_formula_units", "num_magnetic_sites", "num_unique_magnetic_sites", "types_of_magnetic_species", "bulk_modulus", "shear_modulus", "universal_anisotropy", "homogeneous_poisson", "e_total", "e_ionic", "e_electronic", "n", "e_ij_max", "weighted_surface_energy_EV_PER_ANG2", "weighted_surface_energy", "weighted_work_function", "surface_anisotropy", "shape_factor", "has_reconstructed", "possible_species", "has_props", "theoretical", "database_IDs"]}