{"builder_meta": null, "nsites": null, "elements": null, "nelements": null, "composition": null, "composition_reduced": null, "formula_pretty": "AsBr3", "formula_anonymous": "AB3", "chemsys": null, "volume": 560.7410145346511, "density": 3.72693540099669, "density_atomic": 35.04631340841569, "symmetry": null, "property_name": null, "material_id": "mp-23317", "deprecated": null, "deprecation_reasons": null, "last_updated": null, "origins": null, "warnings": null, "structure": {"@module": "pymatgen.core.structure", "@class": "Structure", "charge": 0, "lattice": {"matrix": [[4.28886178, 0.0, 0.0], [0.0, 10.49467342, 0.0], [0.0, 0.0, 12.45808657]], "pbc": [true, true, true], "a": 4.28886178, "b": 10.49467342, "c": 12.45808657, "alpha": 90.0, "beta": 90.0, "gamma": 90.0, "volume": 560.7410145346511}, "properties": {}, "sites": [{"species": [{"element": "As", "occu": 1}], "abc": [0.76055467, 0.55507632, 0.53764452], "properties": {"magmom": -0.0}, "label": "As", "xyz": [3.261913855763513, 5.825344701575414, 6.698021974046096]}, {"species": [{"element": "As", "occu": 1}], "abc": [0.26055367, 0.44492368, 0.96235548], "properties": {"magmom": -0.0}, "label": "As", "xyz": [1.1174786769017329, 4.669328718424586, 11.989107880953904]}, {"species": [{"element": "As", "occu": 1}], "abc": [0.73944533, 0.05507632, 0.46235548], "properties": {"magmom": -0.0}, "label": "As", "xyz": [3.171378814236488, 0.5780079915754144, 5.760064595953904]}, {"species": [{"element": "As", "occu": 1}], "abc": [0.23944533, 0.94492368, 0.03764452], "properties": {"magmom": -0.0}, "label": "As", "xyz": [1.0269479242364876, 9.916665428424587, 0.46897868904609646]}, {"species": [{"element": "Br", "occu": 1}], "abc": [0.02668979, 0.39186016, 0.62991558], "properties": {"magmom": -0.0}, "label": "Br", "xyz": [0.11446882024722621, 4.112444405508947, 7.847542827431761]}, {"species": [{"element": "Br", "occu": 1}], "abc": [0.52668979, 0.60813984, 0.87008442], "properties": {"magmom": -0.0}, "label": "Br", "xyz": [2.258899710247227, 6.3822290144910525, 10.839587027568239]}, {"species": [{"element": "Br", "occu": 1}], "abc": [0.47331021, 0.89186016, 0.37008442], "properties": {"magmom": -0.0}, "label": "Br", "xyz": [2.029962069752774, 9.359781115508946, 4.61054374256824]}, {"species": [{"element": "Br", "occu": 1}], "abc": [0.9733102100000001, 0.10813984, 0.12991558], "properties": {"magmom": -0.0}, "label": "Br", "xyz": [4.174392959752774, 1.1348923044910528, 1.6184995424317608]}, {"species": [{"element": "Br", "occu": 1}], "abc": [0.00769123, 0.7324095700000001, 0.61626748], "properties": {"magmom": -0.0}, "label": "Br", "xyz": [0.032986622388189404, 7.68639924683263, 7.677513616115744]}, {"species": [{"element": "Br", "occu": 1}], "abc": [0.50769123, 0.26759043, 0.88373252], "properties": {"magmom": -0.0}, "label": "Br", "xyz": [2.17741751238819, 2.8082741731673706, 11.009616238884258]}, {"species": [{"element": "Br", "occu": 1}], "abc": [0.49230877, 0.23240957, 0.38373252], "properties": {"magmom": -0.0}, "label": "Br", "xyz": [2.111444267611811, 2.4390625368326293, 4.780572953884257]}, {"species": [{"element": "Br", "occu": 1}], "abc": [0.9923087700000001, 0.76759043, 0.11626748], "properties": {"magmom": -0.0}, "label": "Br", "xyz": [4.255875157611811, 8.05561088316737, 1.4484703311157439]}, {"species": [{"element": "Br", "occu": 1}], "abc": [0.02992359, 0.5506833, 0.3719], "properties": {"magmom": 0.0}, "label": "Br", "xyz": [0.12833814147139022, 5.7792413913478855, 4.633162395383001]}, {"species": [{"element": "Br", "occu": 1}], "abc": [0.52992359, 0.449316699999999, 0.12810000000000002], "properties": {"magmom": 0.0}, "label": "Br", "xyz": [2.27276903147139, 4.715432028652104, 1.5958808896170003]}, {"species": [{"element": "Br", "occu": 1}], "abc": [0.47007641, 0.0506833, 0.6281], "properties": {"magmom": 0.0}, "label": "Br", "xyz": [2.01609274852861, 0.531904681347886, 7.824924174617]}, {"species": [{"element": "Br", "occu": 1}], "abc": [0.97007641, 0.9493166999999991, 0.8719], "properties": {"magmom": 0.0}, "label": "Br", "xyz": [4.16052363852861, 9.962768738652105, 10.862205680383001]}]}, "task_ids": null, "uncorrected_energy_per_atom": null, "energy_per_atom": -3.255553921249999, "formation_energy_per_atom": -0.860313386875, "energy_above_hull": 0.0, "is_stable": true, "equilibrium_reaction_energy_per_atom": null, "decomposes_to": null, "xas": null, "grain_boundaries": null, "band_gap": 3.1271, "cbm": null, "vbm": null, "efermi": -2.02145983, "is_gap_direct": null, "is_metal": null, "es_source_calc_id": null, "bandstructure": null, "dos": null, "dos_energy_up": null, "dos_energy_down": null, "is_magnetic": null, "ordering": null, "total_magnetization": 0.0, "total_magnetization_normalized_vol": null, "total_magnetization_normalized_formula_units": null, "num_magnetic_sites": null, "num_unique_magnetic_sites": null, "types_of_magnetic_species": null, "bulk_modulus": null, "shear_modulus": null, "universal_anisotropy": null, "homogeneous_poisson": null, "e_total": null, "e_ionic": null, "e_electronic": null, "n": null, "e_ij_max": null, "weighted_surface_energy_EV_PER_ANG2": null, "weighted_surface_energy": null, "weighted_work_function": null, "surface_anisotropy": null, "shape_factor": null, "has_reconstructed": null, "possible_species": null, "has_props": null, "theoretical": null, "database_IDs": null, "fields_not_requested": ["builder_meta", "nsites", "elements", "nelements", "composition", "composition_reduced", "chemsys", "symmetry", "property_name", "deprecated", "deprecation_reasons", "last_updated", "origins", "warnings", "task_ids", "uncorrected_energy_per_atom", "equilibrium_reaction_energy_per_atom", "decomposes_to", "xas", "grain_boundaries", "cbm", "vbm", "is_gap_direct", "is_metal", "es_source_calc_id", "bandstructure", "dos", "dos_energy_up", "dos_energy_down", "is_magnetic", "ordering", "total_magnetization_normalized_vol", "total_magnetization_normalized_formula_units", "num_magnetic_sites", "num_unique_magnetic_sites", "types_of_magnetic_species", "bulk_modulus", "shear_modulus", "universal_anisotropy", "homogeneous_poisson", "e_total", "e_ionic", "e_electronic", "n", "e_ij_max", "weighted_surface_energy_EV_PER_ANG2", "weighted_surface_energy", "weighted_work_function", "surface_anisotropy", "shape_factor", "has_reconstructed", "possible_species", "has_props", "theoretical", "database_IDs"]}