{
  "builder_meta": null,
  "nsites": null,
  "elements": null,
  "nelements": null,
  "composition": null,
  "composition_reduced": null,
  "formula_pretty": "AsCl3",
  "formula_anonymous": "AB3",
  "chemsys": null,
  "volume": 483.54343255744817,
  "density": 2.490146680099305,
  "density_atomic": 30.22146453484051,
  "symmetry": null,
  "property_name": null,
  "material_id": "mp-23280",
  "deprecated": null,
  "deprecation_reasons": null,
  "last_updated": null,
  "origins": null,
  "warnings": null,
  "structure": {
    "@module": "pymatgen.core.structure",
    "@class": "Structure",
    "charge": 0,
    "lattice": {
      "matrix": [
        [4.29798559, 0.0, 0.0],
        [0.0, 9.65158689, 0.0],
        [0.0, 0.0, 11.65659773]
      ],
      "pbc": [true, true, true],
      "a": 4.29798559,
      "b": 9.65158689,
      "c": 11.65659773,
      "alpha": 90.0,
      "beta": 90.0,
      "gamma": 90.0,
      "volume": 483.54343255744817
    },
    "properties": {},
    "sites": [
      {
        "species": [{ "element": "As", "occu": 1 }],
        "abc": [0.013479930000000001, 0.69840117, 0.78611849],
        "properties": { "magmom": -0.0 },
        "label": "As",
        "xyz": [0.0579365448942087, 6.740679576332662, 9.163467006045028]
      },
      {
        "species": [{ "element": "As", "occu": 1 }],
        "abc": [0.51347993, 0.80159883, 0.21388151],
        "properties": { "magmom": -0.0 },
        "label": "As",
        "xyz": [2.2069293398942085, 7.7367007586673395, 2.4931307239549723]
      },
      {
        "species": [{ "element": "As", "occu": 1 }],
        "abc": [0.98652007, 0.19840117000000002, 0.71388151],
        "properties": { "magmom": -0.0 },
        "label": "As",
        "xyz": [4.240049045105791, 1.9148861313326615, 8.321429588954972]
      },
      {
        "species": [{ "element": "As", "occu": 1 }],
        "abc": [0.48652007, 0.30159883, 0.28611849],
        "properties": { "magmom": -0.0 },
        "label": "As",
        "xyz": [2.091056250105791, 2.9109073136673387, 3.3351681410450276]
      },
      {
        "species": [{ "element": "Cl", "occu": 1 }],
        "abc": [0.24923667, 0.52152347, 0.86538923],
        "properties": { "magmom": -0.0 },
        "label": "Cl",
        "xyz": [1.0712156161595852, 5.033529085879309, 10.087494133984448]
      },
      {
        "species": [{ "element": "Cl", "occu": 1 }],
        "abc": [0.74923667, 0.97847653, 0.13461077],
        "properties": { "magmom": -0.0 },
        "label": "Cl",
        "xyz": [3.2202084111595854, 9.443851249120693, 1.569103596015552]
      },
      {
        "species": [{ "element": "Cl", "occu": 1 }],
        "abc": [0.7507633300000001, 0.02152347, 0.63461077],
        "properties": { "magmom": -0.0 },
        "label": "Cl",
        "xyz": [3.2267699738404145, 0.20773564087930832, 7.3974024610155515]
      },
      {
        "species": [{ "element": "Cl", "occu": 1 }],
        "abc": [0.25076333, 0.47847653, 0.36538923],
        "properties": { "magmom": -0.0 },
        "label": "Cl",
        "xyz": [1.0777771788404147, 4.618057804120692, 4.259195268984448]
      },
      {
        "species": [{ "element": "Cl", "occu": 1 }],
        "abc": [0.22855538, 0.29672138, 0.12415686000000001],
        "properties": { "magmom": 0.0 },
        "label": "Cl",
        "xyz": [0.9823277297569741, 2.863832181190708, 1.447246572439928]
      },
      {
        "species": [{ "element": "Cl", "occu": 1 }],
        "abc": [0.72855538, 0.20327862, 0.87584314],
        "properties": { "magmom": 0.0 },
        "label": "Cl",
        "xyz": [3.131320524756974, 1.9619612638092918, 10.209351157560071]
      },
      {
        "species": [{ "element": "Cl", "occu": 1 }],
        "abc": [0.77144462, 0.79672138, 0.37584314],
        "properties": { "magmom": 0.0 },
        "label": "Cl",
        "xyz": [3.3156578602430256, 7.689625626190709, 4.381052292560073]
      },
      {
        "species": [{ "element": "Cl", "occu": 1 }],
        "abc": [0.27144462, 0.70327862, 0.62415686],
        "properties": { "magmom": 0.0 },
        "label": "Cl",
        "xyz": [1.166665065243026, 6.787754708809292, 7.275545437439928]
      },
      {
        "species": [{ "element": "Cl", "occu": 1 }],
        "abc": [0.23687524000000001, 0.13680089, 0.37769136000000003],
        "properties": { "magmom": -0.0 },
        "label": "Cl",
        "xyz": [1.0180863681477916, 1.3203456764643322, 4.402596249616613]
      },
      {
        "species": [{ "element": "Cl", "occu": 1 }],
        "abc": [0.73687524, 0.36319911, 0.62230864],
        "properties": { "magmom": -0.0 },
        "label": "Cl",
        "xyz": [3.1670791631477915, 3.505447768535668, 7.254001480383387]
      },
      {
        "species": [{ "element": "Cl", "occu": 1 }],
        "abc": [0.7631247600000001, 0.6368008900000001, 0.12230864],
        "properties": { "magmom": -0.0 },
        "label": "Cl",
        "xyz": [3.2798992218522085, 6.1461391214643335, 1.4257026153833872]
      },
      {
        "species": [{ "element": "Cl", "occu": 1 }],
        "abc": [0.26312476, 0.86319911, 0.87769136],
        "properties": { "magmom": -0.0 },
        "label": "Cl",
        "xyz": [1.1309064268522084, 8.33124121353567, 10.230895114616613]
      }
    ]
  },
  "task_ids": null,
  "uncorrected_energy_per_atom": null,
  "energy_per_atom": -9.04689778125,
  "formation_energy_per_atom": -0.755685861249999,
  "energy_above_hull": 0.0,
  "is_stable": true,
  "equilibrium_reaction_energy_per_atom": null,
  "decomposes_to": null,
  "xas": null,
  "grain_boundaries": null,
  "band_gap": 3.9873000000000003,
  "cbm": null,
  "vbm": null,
  "efermi": -1.95089892,
  "is_gap_direct": null,
  "is_metal": null,
  "es_source_calc_id": null,
  "bandstructure": null,
  "dos": null,
  "dos_energy_up": null,
  "dos_energy_down": null,
  "is_magnetic": null,
  "ordering": null,
  "total_magnetization": 0.0,
  "total_magnetization_normalized_vol": null,
  "total_magnetization_normalized_formula_units": null,
  "num_magnetic_sites": null,
  "num_unique_magnetic_sites": null,
  "types_of_magnetic_species": null,
  "bulk_modulus": null,
  "shear_modulus": null,
  "universal_anisotropy": null,
  "homogeneous_poisson": null,
  "e_total": null,
  "e_ionic": null,
  "e_electronic": null,
  "n": null,
  "e_ij_max": null,
  "weighted_surface_energy_EV_PER_ANG2": null,
  "weighted_surface_energy": null,
  "weighted_work_function": null,
  "surface_anisotropy": null,
  "shape_factor": null,
  "has_reconstructed": null,
  "possible_species": null,
  "has_props": null,
  "theoretical": null,
  "database_IDs": null,
  "fields_not_requested": [
    "builder_meta",
    "nsites",
    "elements",
    "nelements",
    "composition",
    "composition_reduced",
    "chemsys",
    "symmetry",
    "property_name",
    "deprecated",
    "deprecation_reasons",
    "last_updated",
    "origins",
    "warnings",
    "task_ids",
    "uncorrected_energy_per_atom",
    "equilibrium_reaction_energy_per_atom",
    "decomposes_to",
    "xas",
    "grain_boundaries",
    "cbm",
    "vbm",
    "is_gap_direct",
    "is_metal",
    "es_source_calc_id",
    "bandstructure",
    "dos",
    "dos_energy_up",
    "dos_energy_down",
    "is_magnetic",
    "ordering",
    "total_magnetization_normalized_vol",
    "total_magnetization_normalized_formula_units",
    "num_magnetic_sites",
    "num_unique_magnetic_sites",
    "types_of_magnetic_species",
    "bulk_modulus",
    "shear_modulus",
    "universal_anisotropy",
    "homogeneous_poisson",
    "e_total",
    "e_ionic",
    "e_electronic",
    "n",
    "e_ij_max",
    "weighted_surface_energy_EV_PER_ANG2",
    "weighted_surface_energy",
    "weighted_work_function",
    "surface_anisotropy",
    "shape_factor",
    "has_reconstructed",
    "possible_species",
    "has_props",
    "theoretical",
    "database_IDs"
  ]
}
