{"builder_meta": null, "nsites": null, "elements": null, "nelements": null, "composition": null, "composition_reduced": null, "formula_pretty": "AsCl5", "formula_anonymous": "AB5", "chemsys": null, "volume": 357.36529491454684, "density": 2.343628255637765, "density_atomic": 29.780441242878904, "symmetry": null, "property_name": null, "material_id": "mp-30106", "deprecated": null, "deprecation_reasons": null, "last_updated": null, "origins": null, "warnings": null, "structure": {"@module": "pymatgen.core.structure", "@class": "Structure", "charge": 0, "lattice": {"matrix": [[6.3699897100000005, 0.0, 0.0], [-0.0, 7.24437187, 0.0], [0.0, 0.0, 7.74413487]], "pbc": [true, true, true], "a": 6.3699897100000005, "b": 7.24437187, "c": 7.74413487, "alpha": 90.0, "beta": 90.0, "gamma": 90.0, "volume": 357.3652949145469}, "properties": {}, "sites": [{"species": [{"element": "As", "occu": 1}], "abc": [0.82395026, 0.25, 0.75], "properties": {"magmom": -0.0}, "label": "As", "xyz": [5.248554677751826, 1.8110929675, 5.8081011525]}, {"species": [{"element": "As", "occu": 1}], "abc": [0.17604974, 0.75, 0.25], "properties": {"magmom": -0.0}, "label": "As", "xyz": [1.1214350322481756, 5.4332789025, 1.9360337175]}, {"species": [{"element": "Cl", "occu": 1}], "abc": [0.826114199999999, 0.25, 0.46070034], "properties": {"magmom": 0.0}, "label": "Cl", "xyz": [5.2623389532848766, 1.8110929675, 3.567725567614856]}, {"species": [{"element": "Cl", "occu": 1}], "abc": [0.826114199999999, 0.25, 0.03929966], "properties": {"magmom": 0.0}, "label": "Cl", "xyz": [5.2623389532848766, 1.8110929675, 0.3043418673851442]}, {"species": [{"element": "Cl", "occu": 1}], "abc": [0.35130457, 0.496539399999999, 0.25], "properties": {"magmom": 0.0}, "label": "Cl", "xyz": [2.237806495975975, 3.597116061706671, 1.9360337175]}, {"species": [{"element": "Cl", "occu": 1}], "abc": [0.35130457, 0.0034606, 0.25], "properties": {"magmom": 0.0}, "label": "Cl", "xyz": [2.237806495975975, 0.025069873293321998, 1.9360337175]}, {"species": [{"element": "Cl", "occu": 1}], "abc": [0.64869543, 0.9965394, 0.75], "properties": {"magmom": 0.0}, "label": "Cl", "xyz": [4.1321832140240256, 7.219301996706678, 5.8081011525]}, {"species": [{"element": "Cl", "occu": 1}], "abc": [0.64869543, 0.503460599999999, 0.75], "properties": {"magmom": 0.0}, "label": "Cl", "xyz": [4.1321832140240256, 3.6472558082933153, 5.8081011525]}, {"species": [{"element": "Cl", "occu": 1}], "abc": [0.83931707, 0.75, 0.25], "properties": {"magmom": -0.0}, "label": "Cl", "xyz": [5.34644109932735, 5.4332789025, 1.9360337175]}, {"species": [{"element": "Cl", "occu": 1}], "abc": [0.16068293, 0.25, 0.75], "properties": {"magmom": -0.0}, "label": "Cl", "xyz": [1.0235486106726503, 1.8110929675, 5.8081011525]}, {"species": [{"element": "Cl", "occu": 1}], "abc": [0.173885799999999, 0.75, 0.96070034], "properties": {"magmom": 0.0}, "label": "Cl", "xyz": [1.1076507567151117, 5.4332789025, 7.439793002614856]}, {"species": [{"element": "Cl", "occu": 1}], "abc": [0.173885799999999, 0.75, 0.53929966], "properties": {"magmom": 0.0}, "label": "Cl", "xyz": [1.1076507567151117, 5.4332789025, 4.176409302385144]}]}, "task_ids": null, "uncorrected_energy_per_atom": null, "energy_per_atom": -8.064488235, "formation_energy_per_atom": -0.48620065583333305, "energy_above_hull": 0.017589918333332, "is_stable": false, "equilibrium_reaction_energy_per_atom": null, "decomposes_to": null, "xas": null, "grain_boundaries": null, "band_gap": 1.4376, "cbm": null, "vbm": null, "efermi": -1.9097675, "is_gap_direct": null, "is_metal": null, "es_source_calc_id": null, "bandstructure": null, "dos": null, "dos_energy_up": null, "dos_energy_down": null, "is_magnetic": null, "ordering": null, "total_magnetization": 0.0, "total_magnetization_normalized_vol": null, "total_magnetization_normalized_formula_units": null, "num_magnetic_sites": null, "num_unique_magnetic_sites": null, "types_of_magnetic_species": null, "bulk_modulus": null, "shear_modulus": null, "universal_anisotropy": null, "homogeneous_poisson": null, "e_total": null, "e_ionic": null, "e_electronic": null, "n": null, "e_ij_max": null, "weighted_surface_energy_EV_PER_ANG2": null, "weighted_surface_energy": null, "weighted_work_function": null, "surface_anisotropy": null, "shape_factor": null, "has_reconstructed": null, "possible_species": null, "has_props": null, "theoretical": null, "database_IDs": null, "fields_not_requested": ["builder_meta", "nsites", "elements", "nelements", "composition", "composition_reduced", "chemsys", "symmetry", "property_name", "deprecated", "deprecation_reasons", "last_updated", "origins", "warnings", "task_ids", "uncorrected_energy_per_atom", "equilibrium_reaction_energy_per_atom", "decomposes_to", "xas", "grain_boundaries", "cbm", "vbm", "is_gap_direct", "is_metal", "es_source_calc_id", "bandstructure", "dos", "dos_energy_up", "dos_energy_down", "is_magnetic", "ordering", "total_magnetization_normalized_vol", "total_magnetization_normalized_formula_units", "num_magnetic_sites", "num_unique_magnetic_sites", "types_of_magnetic_species", "bulk_modulus", "shear_modulus", "universal_anisotropy", "homogeneous_poisson", "e_total", "e_ionic", "e_electronic", "n", "e_ij_max", "weighted_surface_energy_EV_PER_ANG2", "weighted_surface_energy", "weighted_work_function", "surface_anisotropy", "shape_factor", "has_reconstructed", "possible_species", "has_props", "theoretical", "database_IDs"]}