{"builder_meta": null, "nsites": null, "elements": null, "nelements": null, "composition": null, "composition_reduced": null, "formula_pretty": "AsF3", "formula_anonymous": "AB3", "chemsys": null, "volume": 245.1105761805757, "density": 3.574762367180028, "density_atomic": 15.31941101128598, "symmetry": null, "property_name": null, "material_id": "mp-28027", "deprecated": null, "deprecation_reasons": null, "last_updated": null, "origins": null, "warnings": null, "structure": {"@module": "pymatgen.core.structure", "@class": "Structure", "charge": 0, "lattice": {"matrix": [[5.06847827, 0.0, 0.0], [0.0, 6.76293413, 0.0], [0.0, 0.0, 7.15071229]], "pbc": [true, true, true], "a": 5.06847827, "b": 6.76293413, "c": 7.15071229, "alpha": 90.0, "beta": 90.0, "gamma": 90.0, "volume": 245.1105761805757}, "properties": {}, "sites": [{"species": [{"element": "As", "occu": 1}], "abc": [0.46029721, 0.2091962, 0.2441283], "properties": {"magmom": -0.0}, "label": "As", "xyz": [2.3330064066266267, 1.414780120846306, 1.745691235146807]}, {"species": [{"element": "As", "occu": 1}], "abc": [0.53970279, 0.7908038, 0.7441283], "properties": {"magmom": -0.0}, "label": "As", "xyz": [2.7354718633733732, 5.348154009153693, 5.3210473801468074]}, {"species": [{"element": "As", "occu": 1}], "abc": [0.03970279, 0.709196199999999, 0.2441283], "properties": {"magmom": -0.0}, "label": "As", "xyz": [0.2012327283733733, 4.796247185846299, 1.745691235146807]}, {"species": [{"element": "As", "occu": 1}], "abc": [0.96029721, 0.2908038, 0.7441283], "properties": {"magmom": -0.0}, "label": "As", "xyz": [4.867245541626627, 1.9666869441536938, 5.3210473801468074]}, {"species": [{"element": "F", "occu": 1}], "abc": [0.18731848, 0.31949315, 0.35519522000000003], "properties": {"magmom": 0.0}, "label": "F", "xyz": [0.9494196454494296, 2.1607111284362093, 2.539898825003254]}, {"species": [{"element": "F", "occu": 1}], "abc": [0.81268152, 0.68050685, 0.85519522], "properties": {"magmom": 0.0}, "label": "F", "xyz": [4.11905862455057, 4.60222300156379, 6.115254970003255]}, {"species": [{"element": "F", "occu": 1}], "abc": [0.31268152, 0.81949315, 0.35519522000000003], "properties": {"magmom": 0.0}, "label": "F", "xyz": [1.5848194895505703, 5.542178193436209, 2.539898825003254]}, {"species": [{"element": "F", "occu": 1}], "abc": [0.6873184800000001, 0.18050685, 0.85519522], "properties": {"magmom": 0.0}, "label": "F", "xyz": [3.48365878044943, 1.2207559365637903, 6.115254970003255]}, {"species": [{"element": "F", "occu": 1}], "abc": [0.09848772, 0.06065915, 0.68886495], "properties": {"magmom": 0.0}, "label": "F", "xyz": [0.4991828686818444, 0.4102338358317895, 4.925875064115236]}, {"species": [{"element": "F", "occu": 1}], "abc": [0.90151228, 0.93934085, 0.18886495], "properties": {"magmom": 0.0}, "label": "F", "xyz": [4.569295401318156, 6.35270029416821, 1.3505189191152356]}, {"species": [{"element": "F", "occu": 1}], "abc": [0.40151228, 0.56065915, 0.68886495], "properties": {"magmom": 0.0}, "label": "F", "xyz": [2.0350562663181555, 3.7917009008317892, 4.925875064115236]}, {"species": [{"element": "F", "occu": 1}], "abc": [0.5984877200000001, 0.43934085, 0.18886495], "properties": {"magmom": 0.0}, "label": "F", "xyz": [3.0334220036818444, 2.9712332291682104, 1.3505189191152356]}, {"species": [{"element": "F", "occu": 1}], "abc": [0.13145397, 0.30965621, 0.95700953], "properties": {"magmom": 0.0}, "label": "F", "xyz": [0.6662715904502319, 2.0941845511754473, 6.843299807818124]}, {"species": [{"element": "F", "occu": 1}], "abc": [0.86854603, 0.69034379, 0.45700953], "properties": {"magmom": 0.0}, "label": "F", "xyz": [4.402206679549768, 4.668749578824553, 3.2679436628181238]}, {"species": [{"element": "F", "occu": 1}], "abc": [0.36854603, 0.80965621, 0.95700953], "properties": {"magmom": 0.0}, "label": "F", "xyz": [1.867967544549768, 5.475651616175447, 6.843299807818124]}, {"species": [{"element": "F", "occu": 1}], "abc": [0.63145397, 0.19034379, 0.45700953], "properties": {"magmom": 0.0}, "label": "F", "xyz": [3.200510725450232, 1.2872825138245527, 3.2679436628181238]}]}, "task_ids": null, "uncorrected_energy_per_atom": null, "energy_per_atom": -8.250773011875, "formation_energy_per_atom": -2.229369302499999, "energy_above_hull": 0.0, "is_stable": true, "equilibrium_reaction_energy_per_atom": null, "decomposes_to": null, "xas": null, "grain_boundaries": null, "band_gap": 5.359999999999999, "cbm": null, "vbm": null, "efermi": -2.4273557500000003, "is_gap_direct": null, "is_metal": null, "es_source_calc_id": null, "bandstructure": null, "dos": null, "dos_energy_up": null, "dos_energy_down": null, "is_magnetic": null, "ordering": null, "total_magnetization": 0.0, "total_magnetization_normalized_vol": null, "total_magnetization_normalized_formula_units": null, "num_magnetic_sites": null, "num_unique_magnetic_sites": null, "types_of_magnetic_species": null, "bulk_modulus": null, "shear_modulus": null, "universal_anisotropy": null, "homogeneous_poisson": null, "e_total": null, "e_ionic": null, "e_electronic": null, "n": null, "e_ij_max": null, "weighted_surface_energy_EV_PER_ANG2": null, "weighted_surface_energy": null, "weighted_work_function": null, "surface_anisotropy": null, "shape_factor": null, "has_reconstructed": null, "possible_species": null, "has_props": null, "theoretical": null, "database_IDs": null, "fields_not_requested": ["builder_meta", "nsites", "elements", "nelements", "composition", "composition_reduced", "chemsys", "symmetry", "property_name", "deprecated", "deprecation_reasons", "last_updated", "origins", "warnings", "task_ids", "uncorrected_energy_per_atom", "equilibrium_reaction_energy_per_atom", "decomposes_to", "xas", "grain_boundaries", "cbm", "vbm", "is_gap_direct", "is_metal", "es_source_calc_id", "bandstructure", "dos", "dos_energy_up", "dos_energy_down", "is_magnetic", "ordering", "total_magnetization_normalized_vol", "total_magnetization_normalized_formula_units", "num_magnetic_sites", "num_unique_magnetic_sites", "types_of_magnetic_species", "bulk_modulus", "shear_modulus", "universal_anisotropy", "homogeneous_poisson", "e_total", "e_ionic", "e_electronic", "n", "e_ij_max", "weighted_surface_energy_EV_PER_ANG2", "weighted_surface_energy", "weighted_work_function", "surface_anisotropy", "shape_factor", "has_reconstructed", "possible_species", "has_props", "theoretical", "database_IDs"]}