{"builder_meta": null, "nsites": null, "elements": null, "nelements": null, "composition": null, "composition_reduced": null, "formula_pretty": "AsF5", "formula_anonymous": "AB5", "chemsys": null, "volume": 170.7673570583304, "density": 3.304474604228899, "density_atomic": 14.230613088194199, "symmetry": null, "property_name": null, "material_id": "mp-8723", "deprecated": null, "deprecation_reasons": null, "last_updated": null, "origins": null, "warnings": null, "structure": {"@module": "pymatgen.core.structure", "@class": "Structure", "charge": 0, "lattice": {"matrix": [[5.62420683, 2e-08, 0.0], [-2.81210389, 4.8707049300000005, -0.0], [-0.0, -0.0, 6.23378403]], "pbc": [true, true, true], "a": 5.62420683, "b": 5.624206148718185, "c": 6.23378403, "alpha": 90.0, "beta": 90.0, "gamma": 120.00000939091737, "volume": 170.76735705833045}, "properties": {}, "sites": [{"species": [{"element": "As", "occu": 1}], "abc": [0.666667, 0.333333, 0.75], "properties": {"magmom": -0.0}, "label": "As", "xyz": [2.81210606877024, 1.6235666997650302, 4.6753380225]}, {"species": [{"element": "As", "occu": 1}], "abc": [0.333333, 0.666667, 0.25], "properties": {"magmom": -0.0}, "label": "As", "xyz": [-3.128770240001799e-06, 3.2471382502349706, 1.5584460075]}, {"species": [{"element": "F", "occu": 1}], "abc": [0.333333, 0.666667, 0.52692583], "properties": {"magmom": 0.0}, "label": "F", "xyz": [-3.128770240001799e-06, 3.2471382502349706, 3.284741824048495]}, {"species": [{"element": "F", "occu": 1}], "abc": [0.666667, 0.333333, 0.02692583], "properties": {"magmom": 0.0}, "label": "F", "xyz": [2.81210606877024, 1.6235666997650302, 0.1678498090484949]}, {"species": [{"element": "F", "occu": 1}], "abc": [0.16031828, 0.32063855, 0.25], "properties": {"magmom": 0.0}, "label": "F", "xyz": [-5.748389107051999e-06, 1.5617357694394174, 1.5584460075]}, {"species": [{"element": "F", "occu": 1}], "abc": [0.83968172, 0.16031828, 0.75], "properties": {"magmom": 0.0}, "label": "F", "xyz": [4.271712005824038, 0.7808630535587548, 4.6753380225]}, {"species": [{"element": "F", "occu": 1}], "abc": [0.32063855, 0.16031828, 0.75], "properties": {"magmom": 0.0}, "label": "F", "xyz": [1.3525058640451875, 0.7808630431778915, 4.6753380225]}, {"species": [{"element": "F", "occu": 1}], "abc": [0.67936145, 0.83968172, 0.25], "properties": {"magmom": 0.0}, "label": "F", "xyz": [1.4595970759548131, 4.089841906822109, 1.5584460075]}, {"species": [{"element": "F", "occu": 1}], "abc": [0.16031828, 0.83968172, 0.25], "properties": {"magmom": 0.0}, "label": "F", "xyz": [-1.4596090658240382, 4.0898418964412455, 1.5584460075]}, {"species": [{"element": "F", "occu": 1}], "abc": [0.83968172, 0.67936145, 0.75], "properties": {"magmom": 0.0}, "label": "F", "xyz": [2.812108688389107, 3.3089691805605836, 4.6753380225]}, {"species": [{"element": "F", "occu": 1}], "abc": [0.333333, 0.666667, 0.9730741700000001], "properties": {"magmom": 0.0}, "label": "F", "xyz": [-3.128770240001799e-06, 3.2471382502349706, 6.0659342209515055]}, {"species": [{"element": "F", "occu": 1}], "abc": [0.666667, 0.333333, 0.47307417], "properties": {"magmom": 0.0}, "label": "F", "xyz": [2.81210606877024, 1.6235666997650302, 2.949042205951505]}]}, "task_ids": null, "uncorrected_energy_per_atom": null, "energy_per_atom": -7.208686641666667, "formation_energy_per_atom": -2.152408185416666, "energy_above_hull": 0.0, "is_stable": true, "equilibrium_reaction_energy_per_atom": null, "decomposes_to": null, "xas": null, "grain_boundaries": null, "band_gap": 4.6002, "cbm": null, "vbm": null, "efermi": -4.59618836, "is_gap_direct": null, "is_metal": null, "es_source_calc_id": null, "bandstructure": null, "dos": null, "dos_energy_up": null, "dos_energy_down": null, "is_magnetic": null, "ordering": null, "total_magnetization": 0.0, "total_magnetization_normalized_vol": null, "total_magnetization_normalized_formula_units": null, "num_magnetic_sites": null, "num_unique_magnetic_sites": null, "types_of_magnetic_species": null, "bulk_modulus": null, "shear_modulus": null, "universal_anisotropy": null, "homogeneous_poisson": null, "e_total": null, "e_ionic": null, "e_electronic": null, "n": null, "e_ij_max": null, "weighted_surface_energy_EV_PER_ANG2": null, "weighted_surface_energy": null, "weighted_work_function": null, "surface_anisotropy": null, "shape_factor": null, "has_reconstructed": null, "possible_species": null, "has_props": null, "theoretical": null, "database_IDs": null, "fields_not_requested": ["builder_meta", "nsites", "elements", "nelements", "composition", "composition_reduced", "chemsys", "symmetry", "property_name", "deprecated", "deprecation_reasons", "last_updated", "origins", "warnings", "task_ids", "uncorrected_energy_per_atom", "equilibrium_reaction_energy_per_atom", "decomposes_to", "xas", "grain_boundaries", "cbm", "vbm", "is_gap_direct", "is_metal", "es_source_calc_id", "bandstructure", "dos", "dos_energy_up", "dos_energy_down", "is_magnetic", "ordering", "total_magnetization_normalized_vol", "total_magnetization_normalized_formula_units", "num_magnetic_sites", "num_unique_magnetic_sites", "types_of_magnetic_species", "bulk_modulus", "shear_modulus", "universal_anisotropy", "homogeneous_poisson", "e_total", "e_ionic", "e_electronic", "n", "e_ij_max", "weighted_surface_energy_EV_PER_ANG2", "weighted_surface_energy", "weighted_work_function", "surface_anisotropy", "shape_factor", "has_reconstructed", "possible_species", "has_props", "theoretical", "database_IDs"]}