{"builder_meta": null, "nsites": null, "elements": null, "nelements": null, "composition": null, "composition_reduced": null, "formula_pretty": "AsH3", "formula_anonymous": "AB3", "chemsys": null, "volume": 209.03400755951424, "density": 2.476753261034703, "density_atomic": 13.06462547246964, "symmetry": null, "property_name": null, "material_id": "mp-27721", "deprecated": null, "deprecation_reasons": null, "last_updated": null, "origins": null, "warnings": null, "structure": {"@module": "pymatgen.core.structure", "@class": "Structure", "charge": 0, "lattice": {"matrix": [[5.934794, 0.0, 0.0], [0.0, 5.934794, 0.0], [0.0, 0.0, 5.934794]], "pbc": [true, true, true], "a": 5.934794, "b": 5.934794, "c": 5.934794, "alpha": 90.0, "beta": 90.0, "gamma": 90.0, "volume": 209.03400755951424}, "properties": {}, "sites": [{"species": [{"element": "As", "occu": 1}], "abc": [0.25, 0.75, 0.75], "properties": {"magmom": 0.233}, "label": "As", "xyz": [1.4836985, 4.4510955, 4.4510955]}, {"species": [{"element": "As", "occu": 1}], "abc": [0.75, 0.75, 0.25], "properties": {"magmom": 0.233}, "label": "As", "xyz": [4.4510955, 4.4510955, 1.4836985]}, {"species": [{"element": "As", "occu": 1}], "abc": [0.75, 0.25, 0.75], "properties": {"magmom": 0.233}, "label": "As", "xyz": [4.4510955, 1.4836985, 4.4510955]}, {"species": [{"element": "As", "occu": 1}], "abc": [0.25, 0.25, 0.25], "properties": {"magmom": 0.233}, "label": "As", "xyz": [1.4836985, 1.4836985, 1.4836985]}, {"species": [{"element": "H", "occu": 1}], "abc": [0.320388, 0.5, 0.0], "properties": {"magmom": 0.003}, "label": "H", "xyz": [1.901436780072, 2.967397, 0.0]}, {"species": [{"element": "H", "occu": 1}], "abc": [0.820388, 0.5, 0.0], "properties": {"magmom": 0.003}, "label": "H", "xyz": [4.868833780072, 2.967397, 0.0]}, {"species": [{"element": "H", "occu": 1}], "abc": [0.5, 0.0, 0.820388], "properties": {"magmom": 0.003}, "label": "H", "xyz": [2.967397, 0.0, 4.868833780072]}, {"species": [{"element": "H", "occu": 1}], "abc": [0.0, 0.820388, 0.5], "properties": {"magmom": 0.003}, "label": "H", "xyz": [0.0, 4.868833780072, 2.967397]}, {"species": [{"element": "H", "occu": 1}], "abc": [0.179612, 0.5, 0.0], "properties": {"magmom": 0.003}, "label": "H", "xyz": [1.065960219928, 2.967397, 0.0]}, {"species": [{"element": "H", "occu": 1}], "abc": [0.679612, 0.5, 0.0], "properties": {"magmom": 0.003}, "label": "H", "xyz": [4.033357219928, 2.967397, 0.0]}, {"species": [{"element": "H", "occu": 1}], "abc": [0.5, 0.0, 0.320388], "properties": {"magmom": 0.003}, "label": "H", "xyz": [2.967397, 0.0, 1.901436780072]}, {"species": [{"element": "H", "occu": 1}], "abc": [0.5, 0.0, 0.679612], "properties": {"magmom": 0.003}, "label": "H", "xyz": [2.967397, 0.0, 4.033357219928]}, {"species": [{"element": "H", "occu": 1}], "abc": [0.0, 0.679612, 0.5], "properties": {"magmom": 0.003}, "label": "H", "xyz": [0.0, 4.033357219928, 2.967397]}, {"species": [{"element": "H", "occu": 1}], "abc": [0.0, 0.320388, 0.5], "properties": {"magmom": 0.003}, "label": "H", "xyz": [0.0, 1.901436780072, 2.967397]}, {"species": [{"element": "H", "occu": 1}], "abc": [0.0, 0.179612, 0.5], "properties": {"magmom": 0.003}, "label": "H", "xyz": [0.0, 1.065960219928, 2.967397]}, {"species": [{"element": "H", "occu": 1}], "abc": [0.5, 0.0, 0.179612], "properties": {"magmom": 0.003}, "label": "H", "xyz": [2.967397, 0.0, 1.065960219928]}]}, "task_ids": null, "uncorrected_energy_per_atom": null, "energy_per_atom": -5.5412952240625, "formation_energy_per_atom": 0.726921823749999, "energy_above_hull": 0.726921823749999, "is_stable": false, "equilibrium_reaction_energy_per_atom": null, "decomposes_to": null, "xas": null, "grain_boundaries": null, "band_gap": 0.0, "cbm": null, "vbm": null, "efermi": 0.5679722700000001, "is_gap_direct": null, "is_metal": null, "es_source_calc_id": null, "bandstructure": null, "dos": null, "dos_energy_up": null, "dos_energy_down": null, "is_magnetic": null, "ordering": null, "total_magnetization": 2.0010793, "total_magnetization_normalized_vol": null, "total_magnetization_normalized_formula_units": null, "num_magnetic_sites": null, "num_unique_magnetic_sites": null, "types_of_magnetic_species": null, "bulk_modulus": null, "shear_modulus": null, "universal_anisotropy": null, "homogeneous_poisson": null, "e_total": null, "e_ionic": null, "e_electronic": null, "n": null, "e_ij_max": null, "weighted_surface_energy_EV_PER_ANG2": null, "weighted_surface_energy": null, "weighted_work_function": null, "surface_anisotropy": null, "shape_factor": null, "has_reconstructed": null, "possible_species": null, "has_props": null, "theoretical": null, "database_IDs": null, "fields_not_requested": ["builder_meta", "nsites", "elements", "nelements", "composition", "composition_reduced", "chemsys", "symmetry", "property_name", "deprecated", "deprecation_reasons", "last_updated", "origins", "warnings", "task_ids", "uncorrected_energy_per_atom", "equilibrium_reaction_energy_per_atom", "decomposes_to", "xas", "grain_boundaries", "cbm", "vbm", "is_gap_direct", "is_metal", "es_source_calc_id", "bandstructure", "dos", "dos_energy_up", "dos_energy_down", "is_magnetic", "ordering", "total_magnetization_normalized_vol", "total_magnetization_normalized_formula_units", "num_magnetic_sites", "num_unique_magnetic_sites", "types_of_magnetic_species", "bulk_modulus", "shear_modulus", "universal_anisotropy", "homogeneous_poisson", "e_total", "e_ionic", "e_electronic", "n", "e_ij_max", "weighted_surface_energy_EV_PER_ANG2", "weighted_surface_energy", "weighted_work_function", "surface_anisotropy", "shape_factor", "has_reconstructed", "possible_species", "has_props", "theoretical", "database_IDs"]}