{
  "builder_meta": null,
  "nsites": null,
  "elements": null,
  "nelements": null,
  "composition": null,
  "composition_reduced": null,
  "formula_pretty": "AsI3",
  "formula_anonymous": "AB3",
  "chemsys": null,
  "volume": 340.20575807555747,
  "density": 4.447894935673874,
  "density_atomic": 42.525719759444684,
  "symmetry": null,
  "property_name": null,
  "material_id": "mp-23218",
  "deprecated": null,
  "deprecation_reasons": null,
  "last_updated": null,
  "origins": null,
  "warnings": null,
  "structure": {
    "@module": "pymatgen.core.structure",
    "@class": "Structure",
    "charge": 0,
    "lattice": {
      "matrix": [
        [6.59805068, -0.03209577, 5.15152165],
        [2.49582696, 6.10814373, 5.15120435],
        [-0.04778136, -0.031486799999999, 8.37079551]
      ],
      "pbc": [true, true, true],
      "a": 8.37099027742352,
      "b": 8.370990281684723,
      "c": 8.370991097066934,
      "alpha": 52.345179652290135,
      "beta": 52.34519747803859,
      "gamma": 52.345186075269346,
      "volume": 340.20575807555747
    },
    "properties": {},
    "sites": [
      {
        "species": [{ "element": "As", "occu": 1 }],
        "abc": [0.19012803, 0.19012803, 0.19012803],
        "properties": { "magmom": -0.0 },
        "label": "As",
        "xyz": [1.7199164649067284, 1.149240505565315, 3.5503598578589255]
      },
      {
        "species": [{ "element": "As", "occu": 1 }],
        "abc": [0.80987197, 0.80987197, 0.80987197],
        "properties": { "magmom": -0.0 },
        "label": "As",
        "xyz": [7.326179815093272, 4.895320654434686, 15.123161652141075]
      },
      {
        "species": [{ "element": "I", "occu": 1 }],
        "abc": [0.43572368, 0.0602531, 0.7569975800000001],
        "properties": { "magmom": -0.0 },
        "label": "I",
        "xyz": [2.98913786063057, 0.33021427655928615, 8.891687945503524]
      },
      {
        "species": [{ "element": "I", "occu": 1 }],
        "abc": [0.7569975800000001, 0.43572368, 0.0602531],
        "properties": { "magmom": -0.0 },
        "label": "I",
        "xyz": [6.079320330069552, 2.6352692664772097, 6.648557517125196]
      },
      {
        "species": [{ "element": "I", "occu": 1 }],
        "abc": [0.0602531, 0.7569975800000001, 0.43572368],
        "properties": { "magmom": -0.0 },
        "label": "I",
        "xyz": [2.26606850623126, 4.608196607895363, 7.857198200309766]
      },
      {
        "species": [{ "element": "I", "occu": 1 }],
        "abc": [0.56427632, 0.939746899999999, 0.24300242],
        "properties": { "magmom": -0.0 },
        "label": "I",
        "xyz": [6.056958419369429, 5.714346883440708, 9.781833564496473]
      },
      {
        "species": [{ "element": "I", "occu": 1 }],
        "abc": [0.24300242, 0.56427632, 0.939746899999999],
        "properties": { "magmom": -0.0 },
        "label": "I",
        "xyz": [2.966775949930449, 3.409291893522792, 12.024963992874799]
      },
      {
        "species": [{ "element": "I", "occu": 1 }],
        "abc": [0.939746899999999, 0.24300242, 0.56427632],
        "properties": { "magmom": -0.0 },
        "label": "I",
        "xyz": [6.780027773768733, 1.4363645521046382, 10.816323309690231]
      }
    ]
  },
  "task_ids": null,
  "uncorrected_energy_per_atom": null,
  "energy_per_atom": -2.789183233749998,
  "formation_energy_per_atom": -0.47864313937499803,
  "energy_above_hull": 0.0,
  "is_stable": true,
  "equilibrium_reaction_energy_per_atom": null,
  "decomposes_to": null,
  "xas": null,
  "grain_boundaries": null,
  "band_gap": 2.2375,
  "cbm": null,
  "vbm": null,
  "efermi": 0.94172182,
  "is_gap_direct": null,
  "is_metal": null,
  "es_source_calc_id": null,
  "bandstructure": null,
  "dos": null,
  "dos_energy_up": null,
  "dos_energy_down": null,
  "is_magnetic": null,
  "ordering": null,
  "total_magnetization": 0.0,
  "total_magnetization_normalized_vol": null,
  "total_magnetization_normalized_formula_units": null,
  "num_magnetic_sites": null,
  "num_unique_magnetic_sites": null,
  "types_of_magnetic_species": null,
  "bulk_modulus": null,
  "shear_modulus": null,
  "universal_anisotropy": null,
  "homogeneous_poisson": null,
  "e_total": null,
  "e_ionic": null,
  "e_electronic": null,
  "n": null,
  "e_ij_max": null,
  "weighted_surface_energy_EV_PER_ANG2": null,
  "weighted_surface_energy": null,
  "weighted_work_function": null,
  "surface_anisotropy": null,
  "shape_factor": null,
  "has_reconstructed": null,
  "possible_species": null,
  "has_props": null,
  "theoretical": null,
  "database_IDs": null,
  "fields_not_requested": [
    "builder_meta",
    "nsites",
    "elements",
    "nelements",
    "composition",
    "composition_reduced",
    "chemsys",
    "symmetry",
    "property_name",
    "deprecated",
    "deprecation_reasons",
    "last_updated",
    "origins",
    "warnings",
    "task_ids",
    "uncorrected_energy_per_atom",
    "equilibrium_reaction_energy_per_atom",
    "decomposes_to",
    "xas",
    "grain_boundaries",
    "cbm",
    "vbm",
    "is_gap_direct",
    "is_metal",
    "es_source_calc_id",
    "bandstructure",
    "dos",
    "dos_energy_up",
    "dos_energy_down",
    "is_magnetic",
    "ordering",
    "total_magnetization_normalized_vol",
    "total_magnetization_normalized_formula_units",
    "num_magnetic_sites",
    "num_unique_magnetic_sites",
    "types_of_magnetic_species",
    "bulk_modulus",
    "shear_modulus",
    "universal_anisotropy",
    "homogeneous_poisson",
    "e_total",
    "e_ionic",
    "e_electronic",
    "n",
    "e_ij_max",
    "weighted_surface_energy_EV_PER_ANG2",
    "weighted_surface_energy",
    "weighted_work_function",
    "surface_anisotropy",
    "shape_factor",
    "has_reconstructed",
    "possible_species",
    "has_props",
    "theoretical",
    "database_IDs"
  ]
}
