{"builder_meta": null, "nsites": null, "elements": null, "nelements": null, "composition": null, "composition_reduced": null, "formula_pretty": "AsO2", "formula_anonymous": "AB2", "chemsys": null, "volume": 330.77615550696345, "density": 4.294033853664787, "density_atomic": 13.782339812790143, "symmetry": null, "property_name": null, "material_id": "mp-27356", "deprecated": null, "deprecation_reasons": null, "last_updated": null, "origins": null, "warnings": null, "structure": {"@module": "pymatgen.core.structure", "@class": "Structure", "charge": 0, "lattice": {"matrix": [[5.2635072, 0.0, 0.0], [0.0, 7.29483597, 0.0], [0.0, 0.0, 8.61476516]], "pbc": [true, true, true], "a": 5.2635072, "b": 7.29483597, "c": 8.61476516, "alpha": 90.0, "beta": 90.0, "gamma": 90.0, "volume": 330.77615550696345}, "properties": {}, "sites": [{"species": [{"element": "As", "occu": 1}], "abc": [0.25, 0.69931938, 0.76592528], "properties": {"magmom": -0.0}, "label": "As", "xyz": [1.3158768, 5.101420167742099, 6.5982664173072445]}, {"species": [{"element": "As", "occu": 1}], "abc": [0.75, 0.30068062, 0.23407472000000001], "properties": {"magmom": -0.0}, "label": "As", "xyz": [3.9476304000000004, 2.1934158022579013, 2.016498742692755]}, {"species": [{"element": "As", "occu": 1}], "abc": [0.75, 0.19931938, 0.7340747200000001], "properties": {"magmom": -0.0}, "label": "As", "xyz": [3.9476304000000004, 1.4540021827420986, 6.323881322692755]}, {"species": [{"element": "As", "occu": 1}], "abc": [0.25, 0.8006806200000001, 0.26592528], "properties": {"magmom": -0.0}, "label": "As", "xyz": [1.3158768, 5.840833787257902, 2.2908838373072444]}, {"species": [{"element": "As", "occu": 1}], "abc": [0.25, 0.33006653, 0.57412326], "properties": {"magmom": 0.0}, "label": "As", "xyz": [1.3158768, 2.4077811955370843, 4.945937057793621]}, {"species": [{"element": "As", "occu": 1}], "abc": [0.75, 0.66993347, 0.42587674000000003], "properties": {"magmom": 0.0}, "label": "As", "xyz": [3.9476304000000004, 4.887054774462916, 3.6688281022063784]}, {"species": [{"element": "As", "occu": 1}], "abc": [0.75, 0.83006653, 0.92587674], "properties": {"magmom": 0.0}, "label": "As", "xyz": [3.9476304000000004, 6.055199180537084, 7.976210682206378]}, {"species": [{"element": "As", "occu": 1}], "abc": [0.25, 0.16993347, 0.07412326], "properties": {"magmom": 0.0}, "label": "As", "xyz": [1.3158768, 1.239636789462916, 0.6385544777936215]}, {"species": [{"element": "O", "occu": 1}], "abc": [0.25, 0.44273821, 0.40903078], "properties": {"magmom": 0.0}, "label": "O", "xyz": [1.3158768, 3.229702619601414, 3.5237041129116244]}, {"species": [{"element": "O", "occu": 1}], "abc": [0.75, 0.55726179, 0.59096922], "properties": {"magmom": 0.0}, "label": "O", "xyz": [3.9476304000000004, 4.065133350398586, 5.091061047088375]}, {"species": [{"element": "O", "occu": 1}], "abc": [0.75, 0.94273821, 0.09096922], "properties": {"magmom": 0.0}, "label": "O", "xyz": [3.9476304000000004, 6.877120604601414, 0.7836784670883752]}, {"species": [{"element": "O", "occu": 1}], "abc": [0.25, 0.05726179, 0.90903078], "properties": {"magmom": 0.0}, "label": "O", "xyz": [1.3158768, 0.41771536539858634, 7.831086692911624]}, {"species": [{"element": "O", "occu": 1}], "abc": [0.25, 0.449243599999999, 0.7479458], "properties": {"magmom": 0.0}, "label": "O", "xyz": [1.3158768, 3.277158372572285, 6.4433774194083275]}, {"species": [{"element": "O", "occu": 1}], "abc": [0.75, 0.550756399999999, 0.2520542], "properties": {"magmom": 0.0}, "label": "O", "xyz": [3.9476304000000004, 4.017677597427701, 2.1713877405916717]}, {"species": [{"element": "O", "occu": 1}], "abc": [0.75, 0.9492436, 0.7520542], "properties": {"magmom": 0.0}, "label": "O", "xyz": [3.9476304000000004, 6.924576357572292, 6.478770320591671]}, {"species": [{"element": "O", "occu": 1}], "abc": [0.25, 0.0507564, 0.2479458], "properties": {"magmom": 0.0}, "label": "O", "xyz": [1.3158768, 0.370259612427708, 2.135994839408328]}, {"species": [{"element": "O", "occu": 1}], "abc": [0.99573762, 0.31792794, 0.08810908], "properties": {"magmom": -0.0}, "label": "O", "xyz": [5.241072132180864, 2.3192321725800022, 0.7590390326636528]}, {"species": [{"element": "O", "occu": 1}], "abc": [0.49573762, 0.68207206, 0.91189092], "properties": {"magmom": -0.0}, "label": "O", "xyz": [2.6093185321808643, 4.975603797419998, 7.855726127336347]}, {"species": [{"element": "O", "occu": 1}], "abc": [0.0042623800000000005, 0.81792794, 0.41189092], "properties": {"magmom": -0.0}, "label": "O", "xyz": [0.022435067819136005, 5.966650157580002, 3.548343547336347]}, {"species": [{"element": "O", "occu": 1}], "abc": [0.50426238, 0.18207206, 0.5881090800000001], "properties": {"magmom": -0.0}, "label": "O", "xyz": [2.654188667819136, 1.3281858124199983, 5.066421612663653]}, {"species": [{"element": "O", "occu": 1}], "abc": [0.0042623800000000005, 0.68207206, 0.91189092], "properties": {"magmom": -0.0}, "label": "O", "xyz": [0.022435067819136005, 4.975603797419998, 7.855726127336347]}, {"species": [{"element": "O", "occu": 1}], "abc": [0.50426238, 0.31792794, 0.08810908], "properties": {"magmom": -0.0}, "label": "O", "xyz": [2.654188667819136, 2.3192321725800022, 0.7590390326636528]}, {"species": [{"element": "O", "occu": 1}], "abc": [0.99573762, 0.18207206, 0.5881090800000001], "properties": {"magmom": -0.0}, "label": "O", "xyz": [5.241072132180864, 1.3281858124199983, 5.066421612663653]}, {"species": [{"element": "O", "occu": 1}], "abc": [0.49573762, 0.81792794, 0.41189092], "properties": {"magmom": -0.0}, "label": "O", "xyz": [2.6093185321808643, 5.966650157580002, 3.548343547336347]}]}, "task_ids": null, "uncorrected_energy_per_atom": null, "energy_per_atom": -6.439914129999998, "formation_energy_per_atom": -1.584565949166665, "energy_above_hull": 0.001626856250002, "is_stable": false, "equilibrium_reaction_energy_per_atom": null, "decomposes_to": null, "xas": null, "grain_boundaries": null, "band_gap": 3.3759, "cbm": null, "vbm": null, "efermi": 0.5980125900000001, "is_gap_direct": null, "is_metal": null, "es_source_calc_id": null, "bandstructure": null, "dos": null, "dos_energy_up": null, "dos_energy_down": null, "is_magnetic": null, "ordering": null, "total_magnetization": 0.0, "total_magnetization_normalized_vol": null, "total_magnetization_normalized_formula_units": null, "num_magnetic_sites": null, "num_unique_magnetic_sites": null, "types_of_magnetic_species": null, "bulk_modulus": null, "shear_modulus": null, "universal_anisotropy": null, "homogeneous_poisson": null, "e_total": null, "e_ionic": null, "e_electronic": null, "n": null, "e_ij_max": null, "weighted_surface_energy_EV_PER_ANG2": null, "weighted_surface_energy": null, "weighted_work_function": null, "surface_anisotropy": null, "shape_factor": null, "has_reconstructed": null, "possible_species": null, "has_props": null, "theoretical": null, "database_IDs": null, "fields_not_requested": ["builder_meta", "nsites", "elements", "nelements", "composition", "composition_reduced", "chemsys", "symmetry", "property_name", "deprecated", "deprecation_reasons", "last_updated", "origins", "warnings", "task_ids", "uncorrected_energy_per_atom", "equilibrium_reaction_energy_per_atom", "decomposes_to", "xas", "grain_boundaries", "cbm", "vbm", "is_gap_direct", "is_metal", "es_source_calc_id", "bandstructure", "dos", "dos_energy_up", "dos_energy_down", "is_magnetic", "ordering", "total_magnetization_normalized_vol", "total_magnetization_normalized_formula_units", "num_magnetic_sites", "num_unique_magnetic_sites", "types_of_magnetic_species", "bulk_modulus", "shear_modulus", "universal_anisotropy", "homogeneous_poisson", "e_total", "e_ionic", "e_electronic", "n", "e_ij_max", "weighted_surface_energy_EV_PER_ANG2", "weighted_surface_energy", "weighted_work_function", "surface_anisotropy", "shape_factor", "has_reconstructed", "possible_species", "has_props", "theoretical", "database_IDs"]}