{"builder_meta": null, "nsites": null, "elements": null, "nelements": null, "composition": null, "composition_reduced": null, "formula_pretty": "AsPb3", "formula_anonymous": "AB3", "chemsys": null, "volume": 230.31194547151452, "density": 10.043780622519115, "density_atomic": 28.788993183939315, "symmetry": null, "property_name": null, "material_id": "mp-1183275", "deprecated": null, "deprecation_reasons": null, "last_updated": null, "origins": null, "warnings": null, "structure": {"@module": "pymatgen.core.structure", "@class": "Structure", "charge": 0, "lattice": {"matrix": [[3.527762, -6.110264, 0.0], [3.527762, 6.110264, 0.0], [0.0, 0.0, 5.342287]], "pbc": [true, true, true], "a": 7.0555248478295365, "b": 7.0555248478295365, "c": 5.342287, "alpha": 90.0, "beta": 90.0, "gamma": 120.00000795007468, "volume": 230.31194547151452}, "properties": {}, "sites": [{"species": [{"element": "As", "occu": 1}], "abc": [0.333333, 0.666667, 0.75], "properties": {"magmom": 0.0}, "label": "As", "xyz": [3.527762, 2.0367587401760003, 4.00671525]}, {"species": [{"element": "As", "occu": 1}], "abc": [0.666667, 0.333333, 0.25], "properties": {"magmom": 0.0}, "label": "As", "xyz": [3.527762, -2.0367587401760003, 1.33557175]}, {"species": [{"element": "Pb", "occu": 1}], "abc": [0.174071, 0.348141, 0.25], "properties": {"magmom": -0.0}, "label": "Pb", "xyz": [1.842239649544, 1.06361365448, 1.33557175]}, {"species": [{"element": "Pb", "occu": 1}], "abc": [0.651859, 0.825928999999999, 0.25], "properties": {"magmom": -0.0}, "label": "Pb", "xyz": [5.2132843504559965, 1.0636136544799943, 1.33557175]}, {"species": [{"element": "Pb", "occu": 1}], "abc": [0.174071, 0.825928999999999, 0.25], "properties": {"magmom": -0.0}, "label": "Pb", "xyz": [3.5277619999999965, 3.983024470511994, 1.33557175]}, {"species": [{"element": "Pb", "occu": 1}], "abc": [0.825928999999999, 0.651859, 0.75], "properties": {"magmom": -0.0}, "label": "Pb", "xyz": [5.2132843504559965, -1.0636136544799943, 4.00671525]}, {"species": [{"element": "Pb", "occu": 1}], "abc": [0.348141, 0.174071, 0.75], "properties": {"magmom": -0.0}, "label": "Pb", "xyz": [1.842239649544, -1.06361365448, 4.00671525]}, {"species": [{"element": "Pb", "occu": 1}], "abc": [0.825928999999999, 0.174071, 0.75], "properties": {"magmom": -0.0}, "label": "Pb", "xyz": [3.5277619999999965, -3.983024470511994, 4.00671525]}]}, "task_ids": null, "uncorrected_energy_per_atom": null, "energy_per_atom": -45.755381866875005, "formation_energy_per_atom": 0.13535146249999702, "energy_above_hull": 0.13535146249999702, "is_stable": false, "equilibrium_reaction_energy_per_atom": null, "decomposes_to": null, "xas": null, "grain_boundaries": null, "band_gap": 0.0, "cbm": null, "vbm": null, "efermi": 6.58421912, "is_gap_direct": null, "is_metal": null, "es_source_calc_id": null, "bandstructure": null, "dos": null, "dos_energy_up": null, "dos_energy_down": null, "is_magnetic": null, "ordering": null, "total_magnetization": 0.0016629, "total_magnetization_normalized_vol": null, "total_magnetization_normalized_formula_units": null, "num_magnetic_sites": null, "num_unique_magnetic_sites": null, "types_of_magnetic_species": null, "bulk_modulus": null, "shear_modulus": null, "universal_anisotropy": null, "homogeneous_poisson": null, "e_total": null, "e_ionic": null, "e_electronic": null, "n": null, "e_ij_max": null, "weighted_surface_energy_EV_PER_ANG2": null, "weighted_surface_energy": null, "weighted_work_function": null, "surface_anisotropy": null, "shape_factor": null, "has_reconstructed": null, "possible_species": null, "has_props": null, "theoretical": null, "database_IDs": null, "fields_not_requested": ["builder_meta", "nsites", "elements", "nelements", "composition", "composition_reduced", "chemsys", "symmetry", "property_name", "deprecated", "deprecation_reasons", "last_updated", "origins", "warnings", "task_ids", "uncorrected_energy_per_atom", "equilibrium_reaction_energy_per_atom", "decomposes_to", "xas", "grain_boundaries", "cbm", "vbm", "is_gap_direct", "is_metal", "es_source_calc_id", "bandstructure", "dos", "dos_energy_up", "dos_energy_down", "is_magnetic", "ordering", "total_magnetization_normalized_vol", "total_magnetization_normalized_formula_units", "num_magnetic_sites", "num_unique_magnetic_sites", "types_of_magnetic_species", "bulk_modulus", "shear_modulus", "universal_anisotropy", "homogeneous_poisson", "e_total", "e_ionic", "e_electronic", "n", "e_ij_max", "weighted_surface_energy_EV_PER_ANG2", "weighted_surface_energy", "weighted_work_function", "surface_anisotropy", "shape_factor", "has_reconstructed", "possible_species", "has_props", "theoretical", "database_IDs"]}