{"builder_meta": null, "nsites": null, "elements": null, "nelements": null, "composition": null, "composition_reduced": null, "formula_pretty": "AsPd3", "formula_anonymous": "AB3", "chemsys": null, "volume": 245.80932423105529, "density": 10.651409553847982, "density_atomic": 15.363082764440955, "symmetry": null, "property_name": null, "material_id": "mp-1105134", "deprecated": null, "deprecation_reasons": null, "last_updated": null, "origins": null, "warnings": null, "structure": {"@module": "pymatgen.core.structure", "@class": "Structure", "charge": 0, "lattice": {"matrix": [[0.0, 0.0, 4.84783559], [-5.03515963, 5.03508992, 2.42391729], [-5.03508992, -5.03515963, 2.42391729]], "pbc": [true, true, true], "a": 4.84783559, "b": 7.521990297177223, "c": 7.521990297177223, "alpha": 84.03958783217692, "beta": 71.20130465689047, "gamma": 71.20130465689047, "volume": 245.80932423105529}, "properties": {}, "sites": [{"species": [{"element": "As", "occu": 1}], "abc": [0.93792369, 0.32445355, 0.76147024], "properties": {"magmom": 0.0}, "label": "As", "xyz": [-5.467746546574167, -2.2004714127811953, 7.179089295289455]}, {"species": [{"element": "As", "occu": 1}], "abc": [0.02384648, 0.67554645, 0.23852976], "properties": {"magmom": 0.0}, "label": "As", "xyz": [-4.6025030034258325, 2.2004017027811953, 2.331248944236894]}, {"species": [{"element": "As", "occu": 1}], "abc": [0.73762276, 0.23852976, 0.32445355], "properties": {"magmom": 0.0}, "label": "As", "xyz": [-2.8346882172188046, -0.43265662657416715, 4.940498847012458]}, {"species": [{"element": "As", "occu": 1}], "abc": [0.30060807, 0.76147024, 0.67554645], "properties": {"magmom": 0.0}, "label": "As", "xyz": [-7.235561332781195, 0.43258691657416737, 4.940508101296781]}, {"species": [{"element": "Pd", "occu": 1}], "abc": [0.62728595, 0.18816333000000002, 0.03430499], "properties": {"magmom": 0.0}, "label": "Pd", "xyz": [-1.1201611124170687, 0.7746881854410799, 3.580223960842213]}, {"species": [{"element": "Pd", "occu": 1}], "abc": [0.84975227, 0.81183667, 0.96569501], "properties": {"magmom": 0.0}, "label": "Pd", "xyz": [-8.95008843758293, -0.7747578954410796, 8.428049069864036]}, {"species": [{"element": "Pd", "occu": 1}], "abc": [0.18455172, 0.96569501, 0.18816333000000002], "properties": {"magmom": 0.0}, "label": "Pd", "xyz": [-5.8098478154410795, 3.9149288075829314, 3.691533576948413]}, {"species": [{"element": "Pd", "occu": 1}], "abc": [0.33840906, 0.03430499, 0.81183667], "properties": {"magmom": 0.0}, "label": "Pd", "xyz": [-4.26040173455892, -3.9149985175829314, 3.6915288845097467]}, {"species": [{"element": "Pd", "occu": 1}], "abc": [0.50960868, 0.6042455800000001, 0.33392912], "properties": {"magmom": 0.0}, "label": "Pd", "xyz": [-4.723836097128406, 1.361044404757128, 4.7445569722474845]}, {"species": [{"element": "Pd", "occu": 1}], "abc": [0.44778438, 0.39575442, 0.66607088], "properties": {"magmom": 0.0}, "label": "Pd", "xyz": [-5.3464134528715945, -1.3611141147571282, 4.744561757639521]}, {"species": [{"element": "Pd", "occu": 1}], "abc": [0.88614474, 0.66607088, 0.6042455800000001], "properties": {"magmom": 0.0}, "label": "Pd", "xyz": [-6.396204034757128, 0.3112538228715942, 7.3750260396288905]}, {"species": [{"element": "Pd", "occu": 1}], "abc": [0.1564632, 0.33392912, 0.39575442], "properties": {"magmom": 0.0}, "label": "Pd", "xyz": [-3.674045515242872, -0.3113235328715942, 2.5272004183196946]}, {"species": [{"element": "Pd", "occu": 1}], "abc": [0.47436756, 0.60580071, 0.95296099], "properties": {"magmom": -0.0}, "label": "Pd", "xyz": [-7.848547553719557, -1.7480496573629907, 6.077965375729253]}, {"species": [{"element": "Pd", "occu": 1}], "abc": [0.03313026, 0.39419929000000004, 0.04703901], "properties": {"magmom": -0.0}, "label": "Pd", "xyz": [-2.221701996280442, 1.7479799473629907, 1.2301351979141604]}, {"species": [{"element": "Pd", "occu": 1}], "abc": [0.9198317300000001, 0.04703901, 0.60580071], "properties": {"magmom": -0.0}, "label": "Pd", "xyz": [-3.287109972637009, -2.813457633719558, 6.04162248241203]}, {"species": [{"element": "Pd", "occu": 1}], "abc": [0.57267045, 0.95296099, 0.39419929000000004], "properties": {"magmom": -0.0}, "label": "Pd", "xyz": [-6.783139577362991, 2.8133879237195574, 6.041617283944557]}]}, "task_ids": null, "uncorrected_energy_per_atom": null, "energy_per_atom": -21.261997370625, "formation_energy_per_atom": -0.364774416249996, "energy_above_hull": 0.0, "is_stable": true, "equilibrium_reaction_energy_per_atom": null, "decomposes_to": null, "xas": null, "grain_boundaries": null, "band_gap": 0.0, "cbm": null, "vbm": null, "efermi": 5.36119901, "is_gap_direct": null, "is_metal": null, "es_source_calc_id": null, "bandstructure": null, "dos": null, "dos_energy_up": null, "dos_energy_down": null, "is_magnetic": null, "ordering": null, "total_magnetization": 0.0, "total_magnetization_normalized_vol": null, "total_magnetization_normalized_formula_units": null, "num_magnetic_sites": null, "num_unique_magnetic_sites": null, "types_of_magnetic_species": null, "bulk_modulus": null, "shear_modulus": null, "universal_anisotropy": null, "homogeneous_poisson": null, "e_total": null, "e_ionic": null, "e_electronic": null, "n": null, "e_ij_max": null, "weighted_surface_energy_EV_PER_ANG2": null, "weighted_surface_energy": null, "weighted_work_function": null, "surface_anisotropy": null, "shape_factor": null, "has_reconstructed": null, "possible_species": null, "has_props": null, "theoretical": null, "database_IDs": null, "fields_not_requested": ["builder_meta", "nsites", "elements", "nelements", "composition", "composition_reduced", "chemsys", "symmetry", "property_name", "deprecated", "deprecation_reasons", "last_updated", "origins", "warnings", "task_ids", "uncorrected_energy_per_atom", "equilibrium_reaction_energy_per_atom", "decomposes_to", "xas", "grain_boundaries", "cbm", "vbm", "is_gap_direct", "is_metal", "es_source_calc_id", "bandstructure", "dos", "dos_energy_up", "dos_energy_down", "is_magnetic", "ordering", "total_magnetization_normalized_vol", "total_magnetization_normalized_formula_units", "num_magnetic_sites", "num_unique_magnetic_sites", "types_of_magnetic_species", "bulk_modulus", "shear_modulus", "universal_anisotropy", "homogeneous_poisson", "e_total", "e_ionic", "e_electronic", "n", "e_ij_max", "weighted_surface_energy_EV_PER_ANG2", "weighted_surface_energy", "weighted_work_function", "surface_anisotropy", "shape_factor", "has_reconstructed", "possible_species", "has_props", "theoretical", "database_IDs"]}