{"builder_meta": null, "nsites": null, "elements": null, "nelements": null, "composition": null, "composition_reduced": null, "formula_pretty": "AsPd4", "formula_anonymous": "AB4", "chemsys": null, "volume": 78.70193182344974, "density": 10.562237728385528, "density_atomic": 15.740386364689948, "symmetry": null, "property_name": null, "material_id": "mp-1228793", "deprecated": null, "deprecation_reasons": null, "last_updated": null, "origins": null, "warnings": null, "structure": {"@module": "pymatgen.core.structure", "@class": "Structure", "charge": 0, "lattice": {"matrix": [[-1.54886, 1.54886, 8.201647], [1.54886, -1.54886, 8.201647], [1.54886, 1.54886, -8.201647]], "pbc": [true, true, true], "a": 8.489107615751434, "b": 8.489107615751434, "c": 8.489107615751434, "alpha": 158.97469760213295, "beta": 158.97469760213295, "gamma": 29.906044769715393, "volume": 78.70193182344974}, "properties": {}, "sites": [{"species": [{"element": "As", "occu": 1}], "abc": [0.0, 0.0, 0.0], "properties": {"magmom": -0.0}, "label": "As", "xyz": [0.0, 0.0, 0.0]}, {"species": [{"element": "Pd", "occu": 1}], "abc": [0.409273999999999, 0.409273999999999, 0.0], "properties": {"magmom": 0.0}, "label": "Pd", "xyz": [0.0, 0.0, 6.713441748555984]}, {"species": [{"element": "Pd", "occu": 1}], "abc": [0.800527, 0.800527, 0.0], "properties": {"magmom": -0.001}, "label": "Pd", "xyz": [0.0, 0.0, 13.131279735938]}, {"species": [{"element": "Pd", "occu": 1}], "abc": [0.199472999999999, 0.199472999999999, 0.0], "properties": {"magmom": -0.001}, "label": "Pd", "xyz": [0.0, 0.0, 3.2720142640619834]}, {"species": [{"element": "Pd", "occu": 1}], "abc": [0.590726, 0.590726, 0.0], "properties": {"magmom": 0.0}, "label": "Pd", "xyz": [0.0, 0.0, 9.689852251443998]}]}, "task_ids": null, "uncorrected_energy_per_atom": null, "energy_per_atom": -21.465759026999997, "formation_energy_per_atom": -0.15588994149999502, "energy_above_hull": 0.151983984250001, "is_stable": false, "equilibrium_reaction_energy_per_atom": null, "decomposes_to": null, "xas": null, "grain_boundaries": null, "band_gap": 0.0, "cbm": null, "vbm": null, "efermi": 4.8672408, "is_gap_direct": null, "is_metal": null, "es_source_calc_id": null, "bandstructure": null, "dos": null, "dos_energy_up": null, "dos_energy_down": null, "is_magnetic": null, "ordering": null, "total_magnetization": 0.0238185, "total_magnetization_normalized_vol": null, "total_magnetization_normalized_formula_units": null, "num_magnetic_sites": null, "num_unique_magnetic_sites": null, "types_of_magnetic_species": null, "bulk_modulus": null, "shear_modulus": null, "universal_anisotropy": null, "homogeneous_poisson": null, "e_total": null, "e_ionic": null, "e_electronic": null, "n": null, "e_ij_max": null, "weighted_surface_energy_EV_PER_ANG2": null, "weighted_surface_energy": null, "weighted_work_function": null, "surface_anisotropy": null, "shape_factor": null, "has_reconstructed": null, "possible_species": null, "has_props": null, "theoretical": null, "database_IDs": null, "fields_not_requested": ["builder_meta", "nsites", "elements", "nelements", "composition", "composition_reduced", "chemsys", "symmetry", "property_name", "deprecated", "deprecation_reasons", "last_updated", "origins", "warnings", "task_ids", "uncorrected_energy_per_atom", "equilibrium_reaction_energy_per_atom", "decomposes_to", "xas", "grain_boundaries", "cbm", "vbm", "is_gap_direct", "is_metal", "es_source_calc_id", "bandstructure", "dos", "dos_energy_up", "dos_energy_down", "is_magnetic", "ordering", "total_magnetization_normalized_vol", "total_magnetization_normalized_formula_units", "num_magnetic_sites", "num_unique_magnetic_sites", "types_of_magnetic_species", "bulk_modulus", "shear_modulus", "universal_anisotropy", "homogeneous_poisson", "e_total", "e_ionic", "e_electronic", "n", "e_ij_max", "weighted_surface_energy_EV_PER_ANG2", "weighted_surface_energy", "weighted_work_function", "surface_anisotropy", "shape_factor", "has_reconstructed", "possible_species", "has_props", "theoretical", "database_IDs"]}