{"builder_meta": null, "nsites": null, "elements": null, "nelements": null, "composition": null, "composition_reduced": null, "formula_pretty": "AsPd2", "formula_anonymous": "AB2", "chemsys": null, "volume": 188.48471544136405, "density": 10.140649920570864, "density_atomic": 15.70705962011367, "symmetry": null, "property_name": null, "material_id": "mp-8073", "deprecated": null, "deprecation_reasons": null, "last_updated": null, "origins": null, "warnings": null, "structure": {"@module": "pymatgen.core.structure", "@class": "Structure", "charge": 0, "lattice": {"matrix": [[3.3398388, 0.0, -0.64342014], [-0.0, 6.56825071, 0.0], [-0.07387914, -0.0, 8.60636424]], "pbc": [true, true, true], "a": 3.401251635287083, "b": 6.56825071, "c": 8.606681332481058, "alpha": 90.0, "beta": 101.39627134416087, "gamma": 90.0, "volume": 188.48471544136405}, "properties": {}, "sites": [{"species": [{"element": "As", "occu": 1}], "abc": [0.2005344, 0.23129032, 0.4010698], "properties": {"magmom": 0.0}, "label": "As", "xyz": [0.640121877950748, 1.5191728085561271, 3.3227249127411356]}, {"species": [{"element": "As", "occu": 1}], "abc": [0.7994656, 0.73129032, 0.5989302], "properties": {"magmom": 0.0}, "label": "As", "xyz": [2.625837782049252, 4.803298163556128, 4.640219187258863]}, {"species": [{"element": "As", "occu": 1}], "abc": [0.55859241, 0.69823094, 0.11718282000000001], "properties": {"magmom": -0.0}, "label": "As", "xyz": [1.8569512383391333, 4.5861558673989675, 0.6491084249452194]}, {"species": [{"element": "As", "occu": 1}], "abc": [0.44140759, 0.19823094, 0.88281718], "properties": {"magmom": -0.0}, "label": "As", "xyz": [1.409008421660867, 1.3020305123989673, 7.31383567505478]}, {"species": [{"element": "Pd", "occu": 1}], "abc": [0.67751754, 0.9627574, 0.35503507], "properties": {"magmom": -0.0}, "label": "Pd", "xyz": [2.236569682131112, 6.3236319761077535, 2.619632699954641]}, {"species": [{"element": "Pd", "occu": 1}], "abc": [0.32248246, 0.4627574, 0.64496493], "properties": {"magmom": -0.0}, "label": "Pd", "xyz": [1.029389977868888, 3.039506621107754, 5.3433114000453585]}, {"species": [{"element": "Pd", "occu": 1}], "abc": [0.41659887, 0.82565902, 0.83319575], "properties": {"magmom": 0.0}, "label": "Pd", "xyz": [1.329817284600501, 5.423135444332904, 6.902738004460739]}, {"species": [{"element": "Pd", "occu": 1}], "abc": [0.58340113, 0.32565902, 0.16680425000000002], "properties": {"magmom": 0.0}, "label": "Pd", "xyz": [1.936142375399499, 2.1390100893329045, 1.0602060955392618]}, {"species": [{"element": "Pd", "occu": 1}], "abc": [0.16663725000000001, 0.6124691600000001, 0.3332755], "properties": {"magmom": -0.0}, "label": "Pd", "xyz": [0.53191944575223, 4.022850995023104, 2.761072582543905]}, {"species": [{"element": "Pd", "occu": 1}], "abc": [0.83336275, 0.11246916, 0.666724499999999], "properties": {"magmom": -0.0}, "label": "Pd", "xyz": [2.73404021424777, 0.7387256400231036, 5.201871517456087]}, {"species": [{"element": "Pd", "occu": 1}], "abc": [0.95930479, 0.48389518000000004, 0.9186085900000001], "properties": {"magmom": -0.0}, "label": "Pd", "xyz": [3.1360573460420396, 3.178344859600578, 7.288644097248351]}, {"species": [{"element": "Pd", "occu": 1}], "abc": [0.04069521, 0.98389518, 0.08139241], "properties": {"magmom": -0.0}, "label": "Pd", "xyz": [0.1299022400788206, 6.462470214600578, 0.674308609115889]}]}, "task_ids": null, "uncorrected_energy_per_atom": null, "energy_per_atom": -20.5805921675, "formation_energy_per_atom": -0.371112764999999, "energy_above_hull": 0.0, "is_stable": true, "equilibrium_reaction_energy_per_atom": null, "decomposes_to": null, "xas": null, "grain_boundaries": null, "band_gap": 0.0, "cbm": null, "vbm": null, "efermi": 5.60886275, "is_gap_direct": null, "is_metal": null, "es_source_calc_id": null, "bandstructure": null, "dos": null, "dos_energy_up": null, "dos_energy_down": null, "is_magnetic": null, "ordering": null, "total_magnetization": 0.0, "total_magnetization_normalized_vol": null, "total_magnetization_normalized_formula_units": null, "num_magnetic_sites": null, "num_unique_magnetic_sites": null, "types_of_magnetic_species": null, "bulk_modulus": null, "shear_modulus": null, "universal_anisotropy": null, "homogeneous_poisson": null, "e_total": null, "e_ionic": null, "e_electronic": null, "n": null, "e_ij_max": null, "weighted_surface_energy_EV_PER_ANG2": null, "weighted_surface_energy": null, "weighted_work_function": null, "surface_anisotropy": null, "shape_factor": null, "has_reconstructed": null, "possible_species": null, "has_props": null, "theoretical": null, "database_IDs": null, "fields_not_requested": ["builder_meta", "nsites", "elements", "nelements", "composition", "composition_reduced", "chemsys", "symmetry", "property_name", "deprecated", "deprecation_reasons", "last_updated", "origins", "warnings", "task_ids", "uncorrected_energy_per_atom", "equilibrium_reaction_energy_per_atom", "decomposes_to", "xas", "grain_boundaries", "cbm", "vbm", "is_gap_direct", "is_metal", "es_source_calc_id", "bandstructure", "dos", "dos_energy_up", "dos_energy_down", "is_magnetic", "ordering", "total_magnetization_normalized_vol", "total_magnetization_normalized_formula_units", "num_magnetic_sites", "num_unique_magnetic_sites", "types_of_magnetic_species", "bulk_modulus", "shear_modulus", "universal_anisotropy", "homogeneous_poisson", "e_total", "e_ionic", "e_electronic", "n", "e_ij_max", "weighted_surface_energy_EV_PER_ANG2", "weighted_surface_energy", "weighted_work_function", "surface_anisotropy", "shape_factor", "has_reconstructed", "possible_species", "has_props", "theoretical", "database_IDs"]}