{"builder_meta": null, "nsites": null, "elements": null, "nelements": null, "composition": null, "composition_reduced": null, "formula_pretty": "AsPd5", "formula_anonymous": "AB5", "chemsys": null, "volume": 181.96253330775718, "density": 11.07901789172406, "density_atomic": 15.163544442313098, "symmetry": null, "property_name": null, "material_id": "mp-2512", "deprecated": null, "deprecation_reasons": null, "last_updated": null, "origins": null, "warnings": null, "structure": {"@module": "pymatgen.core.structure", "@class": "Structure", "charge": 0, "lattice": {"matrix": [[4.75780719, 0.013355810000000001, -0.42681813], [-1.58890807, 4.4846698, -0.42681811000000003], [0.01649353, 0.0234123, 8.51503409]], "pbc": [true, true, true], "a": 4.776932211259979, "b": 4.776930580296006, "c": 8.515082250112753, "alpha": 95.01475891538635, "beta": 95.01476310411797, "gamma": 108.70412661013407, "volume": 181.96253330775718}, "properties": {}, "sites": [{"species": [{"element": "As", "occu": 1}], "abc": [0.25109444000000003, 0.20557475, 0.71281267], "properties": {"magmom": 0.0}, "label": "As", "xyz": [0.8797763498948166, 0.9419770266740873, 5.874709499241001]}, {"species": [{"element": "As", "occu": 1}], "abc": [0.79442525, 0.74890556, 0.28718733], "properties": {"magmom": 0.0}, "label": "As", "xyz": [2.5945168112586536, 3.375928056608449, 1.786688349848606]}, {"species": [{"element": "Pd", "occu": 1}], "abc": [0.22612615, 0.7017211600000001, 0.82570446], "properties": {"magmom": -0.0}, "label": "Pd", "xyz": [-0.025487010414598978, 3.169339432697258, 6.634879585419735]}, {"species": [{"element": "Pd", "occu": 1}], "abc": [0.29827884, 0.77387385, 0.17429554], "properties": {"magmom": -0.0}, "label": "Pd", "xyz": [0.1924135528677462, 3.478633099089932, 1.0265182740921661]}, {"species": [{"element": "Pd", "occu": 1}], "abc": [0.74724281, 0.18038048, 0.82574719], "properties": {"magmom": -0.0}, "label": "Pd", "xyz": [3.2822486998020115, 0.8382595650961672, 6.63533903819707]}, {"species": [{"element": "Pd", "occu": 1}], "abc": [0.81961952, 0.25275719, 0.17425281], "properties": {"magmom": -0.0}, "label": "Pd", "xyz": [3.500857750328145, 1.1485588783708363, 1.0260588004656845]}, {"species": [{"element": "Pd", "occu": 1}], "abc": [0.66707671, 0.6212835, 0.64788451], "properties": {"magmom": -0.0}, "label": "Pd", "xyz": [2.1973459028139204, 2.8103291659959577, 4.966863205860009]}, {"species": [{"element": "Pd", "occu": 1}], "abc": [0.378716499999999, 0.33292329, 0.35211549000000003], "properties": {"magmom": -0.0}, "label": "Pd", "xyz": [1.2786832118974598, 1.5063529234840336, 2.694534643224128]}, {"species": [{"element": "Pd", "occu": 1}], "abc": [0.76658327, 0.72085851, 0.99394168], "properties": {"magmom": 0.0}, "label": "Pd", "xyz": [2.5182710967898667, 3.2663211911679606, 7.828580184065571]}, {"species": [{"element": "Pd", "occu": 1}], "abc": [0.27914149, 0.23341673000000002, 0.00605832], "properties": {"magmom": 0.0}, "label": "Pd", "xyz": [0.9573235852619716, 1.050666959754647, -0.16718233498006518]}, {"species": [{"element": "Pd", "occu": 1}], "abc": [0.83931093, 0.16068907000000002, 0.5], "properties": {"magmom": -0.0}, "label": "Pd", "xyz": [3.746206182315792, 0.7435532467310894, 3.8306989182137814]}, {"species": [{"element": "Pd", "occu": 1}], "abc": [0.20638508, 0.79361492, 0.5], "properties": {"magmom": -0.0}, "label": "Pd", "xyz": [-0.2707939683276791, 3.5735634544687307, 3.8306989308722987]}]}, "task_ids": null, "uncorrected_energy_per_atom": null, "energy_per_atom": -21.854906771666666, "formation_energy_per_atom": -0.269940265416664, "energy_above_hull": 0.0, "is_stable": true, "equilibrium_reaction_energy_per_atom": null, "decomposes_to": null, "xas": null, "grain_boundaries": null, "band_gap": 0.0, "cbm": null, "vbm": null, "efermi": 4.74110672, "is_gap_direct": null, "is_metal": null, "es_source_calc_id": null, "bandstructure": null, "dos": null, "dos_energy_up": null, "dos_energy_down": null, "is_magnetic": null, "ordering": null, "total_magnetization": 1e-07, "total_magnetization_normalized_vol": null, "total_magnetization_normalized_formula_units": null, "num_magnetic_sites": null, "num_unique_magnetic_sites": null, "types_of_magnetic_species": null, "bulk_modulus": null, "shear_modulus": null, "universal_anisotropy": null, "homogeneous_poisson": null, "e_total": null, "e_ionic": null, "e_electronic": null, "n": null, "e_ij_max": null, "weighted_surface_energy_EV_PER_ANG2": null, "weighted_surface_energy": null, "weighted_work_function": null, "surface_anisotropy": null, "shape_factor": null, "has_reconstructed": null, "possible_species": null, "has_props": null, "theoretical": null, "database_IDs": null, "fields_not_requested": ["builder_meta", "nsites", "elements", "nelements", "composition", "composition_reduced", "chemsys", "symmetry", "property_name", "deprecated", "deprecation_reasons", "last_updated", "origins", "warnings", "task_ids", "uncorrected_energy_per_atom", "equilibrium_reaction_energy_per_atom", "decomposes_to", "xas", "grain_boundaries", "cbm", "vbm", "is_gap_direct", "is_metal", "es_source_calc_id", "bandstructure", "dos", "dos_energy_up", "dos_energy_down", "is_magnetic", "ordering", "total_magnetization_normalized_vol", "total_magnetization_normalized_formula_units", "num_magnetic_sites", "num_unique_magnetic_sites", "types_of_magnetic_species", "bulk_modulus", "shear_modulus", "universal_anisotropy", "homogeneous_poisson", "e_total", "e_ionic", "e_electronic", "n", "e_ij_max", "weighted_surface_energy_EV_PER_ANG2", "weighted_surface_energy", "weighted_work_function", "surface_anisotropy", "shape_factor", "has_reconstructed", "possible_species", "has_props", "theoretical", "database_IDs"]}