{"builder_meta": null, "nsites": null, "elements": null, "nelements": null, "composition": null, "composition_reduced": null, "formula_pretty": "AsPt3", "formula_anonymous": "AB3", "chemsys": null, "volume": 128.97086252140284, "density": 16.999871631563895, "density_atomic": 16.121357815175354, "symmetry": null, "property_name": null, "material_id": "mp-1183320", "deprecated": null, "deprecation_reasons": null, "last_updated": null, "origins": null, "warnings": null, "structure": {"@module": "pymatgen.core.structure", "@class": "Structure", "charge": 0, "lattice": {"matrix": [[2.793521, -4.83852, 0.0], [2.793521, 4.83852, 0.0], [0.0, 0.0, 4.770865]], "pbc": [true, true, true], "a": 5.587041736719084, "b": 5.587041736719084, "c": 4.770865, "alpha": 90.0, "beta": 90.0, "gamma": 119.99999688233486, "volume": 128.97086252140284}, "properties": {}, "sites": [{"species": [{"element": "As", "occu": 1}], "abc": [0.333333, 0.666667, 0.75], "properties": {"magmom": 0.0}, "label": "As", "xyz": [2.793521, 1.61284322568, 3.5781487499999995]}, {"species": [{"element": "As", "occu": 1}], "abc": [0.666667, 0.333333, 0.25], "properties": {"magmom": 0.0}, "label": "As", "xyz": [2.793521, -1.61284322568, 1.19271625]}, {"species": [{"element": "Pt", "occu": 1}], "abc": [0.16647, 0.33294, 0.25], "properties": {"magmom": -0.0}, "label": "Pt", "xyz": [1.3951123226100002, 0.8054684244, 1.19271625]}, {"species": [{"element": "Pt", "occu": 1}], "abc": [0.6670600000000001, 0.8335300000000001, 0.25], "properties": {"magmom": 0.001}, "label": "Pt", "xyz": [4.191929677390001, 0.8054684243999994, 1.19271625]}, {"species": [{"element": "Pt", "occu": 1}], "abc": [0.16647, 0.8335300000000001, 0.25], "properties": {"magmom": 0.0}, "label": "Pt", "xyz": [2.7935210000000006, 3.2275831512, 1.19271625]}, {"species": [{"element": "Pt", "occu": 1}], "abc": [0.8335300000000001, 0.6670600000000001, 0.75], "properties": {"magmom": -0.0}, "label": "Pt", "xyz": [4.191929677390001, -0.8054684243999994, 3.5781487499999995]}, {"species": [{"element": "Pt", "occu": 1}], "abc": [0.33294, 0.16647, 0.75], "properties": {"magmom": 0.001}, "label": "Pt", "xyz": [1.3951123226100002, -0.8054684244, 3.5781487499999995]}, {"species": [{"element": "Pt", "occu": 1}], "abc": [0.8335300000000001, 0.16647, 0.75], "properties": {"magmom": 0.0}, "label": "Pt", "xyz": [2.7935210000000006, -3.2275831512, 3.5781487499999995]}]}, "task_ids": null, "uncorrected_energy_per_atom": null, "energy_per_atom": -42.2784466046875, "formation_energy_per_atom": 0.014223817187499, "energy_above_hull": 0.2419906309375, "is_stable": false, "equilibrium_reaction_energy_per_atom": null, "decomposes_to": null, "xas": null, "grain_boundaries": null, "band_gap": 0.0, "cbm": null, "vbm": null, "efermi": 7.4309765, "is_gap_direct": null, "is_metal": null, "es_source_calc_id": null, "bandstructure": null, "dos": null, "dos_energy_up": null, "dos_energy_down": null, "is_magnetic": null, "ordering": null, "total_magnetization": 0.0031079, "total_magnetization_normalized_vol": null, "total_magnetization_normalized_formula_units": null, "num_magnetic_sites": null, "num_unique_magnetic_sites": null, "types_of_magnetic_species": null, "bulk_modulus": null, "shear_modulus": null, "universal_anisotropy": null, "homogeneous_poisson": null, "e_total": null, "e_ionic": null, "e_electronic": null, "n": null, "e_ij_max": null, "weighted_surface_energy_EV_PER_ANG2": null, "weighted_surface_energy": null, "weighted_work_function": null, "surface_anisotropy": null, "shape_factor": null, "has_reconstructed": null, "possible_species": null, "has_props": null, "theoretical": null, "database_IDs": null, "fields_not_requested": ["builder_meta", "nsites", "elements", "nelements", "composition", "composition_reduced", "chemsys", "symmetry", "property_name", "deprecated", "deprecation_reasons", "last_updated", "origins", "warnings", "task_ids", "uncorrected_energy_per_atom", "equilibrium_reaction_energy_per_atom", "decomposes_to", "xas", "grain_boundaries", "cbm", "vbm", "is_gap_direct", "is_metal", "es_source_calc_id", "bandstructure", "dos", "dos_energy_up", "dos_energy_down", "is_magnetic", "ordering", "total_magnetization_normalized_vol", "total_magnetization_normalized_formula_units", "num_magnetic_sites", "num_unique_magnetic_sites", "types_of_magnetic_species", "bulk_modulus", "shear_modulus", "universal_anisotropy", "homogeneous_poisson", "e_total", "e_ionic", "e_electronic", "n", "e_ij_max", "weighted_surface_energy_EV_PER_ANG2", "weighted_surface_energy", "weighted_work_function", "surface_anisotropy", "shape_factor", "has_reconstructed", "possible_species", "has_props", "theoretical", "database_IDs"]}