{"builder_meta": null, "nsites": null, "elements": null, "nelements": null, "composition": null, "composition_reduced": null, "formula_pretty": "AsRu", "formula_anonymous": "AB", "chemsys": null, "volume": 122.01866963833027, "density": 9.580203687178624, "density_atomic": 15.252333704791283, "symmetry": null, "property_name": null, "material_id": "mp-15650", "deprecated": null, "deprecation_reasons": null, "last_updated": null, "origins": null, "warnings": null, "structure": {"@module": "pymatgen.core.structure", "@class": "Structure", "charge": 0, "lattice": {"matrix": [[3.34277818, 0.0, 0.0], [-0.0, 5.7315034, 0.0], [0.0, 0.0, 6.36869092]], "pbc": [true, true, true], "a": 3.34277818, "b": 5.7315034, "c": 6.36869092, "alpha": 90.0, "beta": 90.0, "gamma": 90.0, "volume": 122.01866963833027}, "properties": {}, "sites": [{"species": [{"element": "As", "occu": 1}], "abc": [0.25, 0.69622015, 0.9300951900000001], "properties": {"magmom": 0.004}, "label": "As", "xyz": [0.835694545, 3.9903881568735105, 5.923488791288675]}, {"species": [{"element": "As", "occu": 1}], "abc": [0.75, 0.30377985, 0.06990481], "properties": {"magmom": 0.004}, "label": "As", "xyz": [2.507083635, 1.7411152431264902, 0.44520212871132514]}, {"species": [{"element": "As", "occu": 1}], "abc": [0.25, 0.19622015, 0.56990481], "properties": {"magmom": 0.004}, "label": "As", "xyz": [0.835694545, 1.12463645687351, 3.629547588711325]}, {"species": [{"element": "As", "occu": 1}], "abc": [0.75, 0.80377985, 0.43009519], "properties": {"magmom": 0.004}, "label": "As", "xyz": [2.507083635, 4.60686694312649, 2.7391433312886746]}, {"species": [{"element": "Ru", "occu": 1}], "abc": [0.25, 0.49457089, 0.29553644], "properties": {"magmom": -0.298}, "label": "Ru", "xyz": [0.835694545, 2.834634737576026, 1.8821802419571247]}, {"species": [{"element": "Ru", "occu": 1}], "abc": [0.75, 0.50542911, 0.70446356], "properties": {"magmom": -0.298}, "label": "Ru", "xyz": [2.507083635, 2.8968686624239743, 4.486510678042875]}, {"species": [{"element": "Ru", "occu": 1}], "abc": [0.25, -0.00542911, 0.20446356000000002], "properties": {"magmom": -0.298}, "label": "Ru", "xyz": [0.835694545, -0.031116962423974, 1.3021652180428753]}, {"species": [{"element": "Ru", "occu": 1}], "abc": [0.75, 0.00542911, 0.79553644], "properties": {"magmom": -0.298}, "label": "Ru", "xyz": [2.507083635, 0.031116962423974, 5.066525701957125]}]}, "task_ids": null, "uncorrected_energy_per_atom": null, "energy_per_atom": -20.370606925, "formation_energy_per_atom": -0.30457378375000105, "energy_above_hull": 0.037978446249997, "is_stable": false, "equilibrium_reaction_energy_per_atom": null, "decomposes_to": null, "xas": null, "grain_boundaries": null, "band_gap": 0.0, "cbm": null, "vbm": null, "efermi": 7.78590181, "is_gap_direct": null, "is_metal": null, "es_source_calc_id": null, "bandstructure": null, "dos": null, "dos_energy_up": null, "dos_energy_down": null, "is_magnetic": null, "ordering": null, "total_magnetization": 1.178452, "total_magnetization_normalized_vol": null, "total_magnetization_normalized_formula_units": null, "num_magnetic_sites": null, "num_unique_magnetic_sites": null, "types_of_magnetic_species": null, "bulk_modulus": null, "shear_modulus": null, "universal_anisotropy": null, "homogeneous_poisson": null, "e_total": null, "e_ionic": null, "e_electronic": null, "n": null, "e_ij_max": null, "weighted_surface_energy_EV_PER_ANG2": null, "weighted_surface_energy": null, "weighted_work_function": null, "surface_anisotropy": null, "shape_factor": null, "has_reconstructed": null, "possible_species": null, "has_props": null, "theoretical": null, "database_IDs": null, "fields_not_requested": ["builder_meta", "nsites", "elements", "nelements", "composition", "composition_reduced", "chemsys", "symmetry", "property_name", "deprecated", "deprecation_reasons", "last_updated", "origins", "warnings", "task_ids", "uncorrected_energy_per_atom", "equilibrium_reaction_energy_per_atom", "decomposes_to", "xas", "grain_boundaries", "cbm", "vbm", "is_gap_direct", "is_metal", "es_source_calc_id", "bandstructure", "dos", "dos_energy_up", "dos_energy_down", "is_magnetic", "ordering", "total_magnetization_normalized_vol", "total_magnetization_normalized_formula_units", "num_magnetic_sites", "num_unique_magnetic_sites", "types_of_magnetic_species", "bulk_modulus", "shear_modulus", "universal_anisotropy", "homogeneous_poisson", "e_total", "e_ionic", "e_electronic", "n", "e_ij_max", "weighted_surface_energy_EV_PER_ANG2", "weighted_surface_energy", "weighted_work_function", "surface_anisotropy", "shape_factor", "has_reconstructed", "possible_species", "has_props", "theoretical", "database_IDs"]}