{"builder_meta": null, "nsites": null, "elements": null, "nelements": null, "composition": null, "composition_reduced": null, "formula_pretty": "AsS", "formula_anonymous": "AB", "chemsys": null, "volume": 871.8557048070456, "density": 3.260272137661132, "density_atomic": 27.245490775220176, "symmetry": null, "property_name": null, "material_id": "mp-542810", "deprecated": null, "deprecation_reasons": null, "last_updated": null, "origins": null, "warnings": null, "structure": {"@module": "pymatgen.core.structure", "@class": "Structure", "charge": 0, "lattice": {"matrix": [[6.77930522, -0.08627793, 0.0], [-2.66086812, 9.16977835, 0.0], [0.0, 0.0, 14.07691232]], "pbc": [true, true, true], "a": 6.779854212822304, "b": 9.548039282499891, "c": 14.07691232, "alpha": 90.0, "beta": 90.0, "gamma": 106.91071176132267, "volume": 871.8557048070456}, "properties": {}, "sites": [{"species": [{"element": "As", "occu": 1}], "abc": [0.769253899999999, 0.1233753, 0.98401379], "properties": {"magmom": 0.0}, "label": "As", "xyz": [4.886721577209916, 1.064954520728328, 13.851875843500892]}, {"species": [{"element": "As", "occu": 1}], "abc": [0.7307461, 0.3766247, 0.48401379], "properties": {"magmom": 0.0}, "label": "As", "xyz": [3.951802192790078, 3.3905177592716718, 6.813419683500893]}, {"species": [{"element": "As", "occu": 1}], "abc": [0.230746099999999, 0.876624699999999, 0.01598621], "properties": {"magmom": 0.0}, "label": "As", "xyz": [-0.768284477209926, 8.018545899271663, 0.2250364764991072]}, {"species": [{"element": "As", "occu": 1}], "abc": [0.2692539, 0.6233753, 0.51598621], "properties": {"magmom": 0.0}, "label": "As", "xyz": [0.16663490720992225, 5.692982660728328, 7.263492636499107]}, {"species": [{"element": "As", "occu": 1}], "abc": [0.86552441, 0.42077327000000003, 0.13877807], "properties": {"magmom": 0.0}, "label": "As", "xyz": [4.748031970859269, 3.7837219670454334, 1.9535667233288225]}, {"species": [{"element": "As", "occu": 1}], "abc": [0.63447559, 0.07922673, 0.63877807], "properties": {"magmom": 0.0}, "label": "As", "xyz": [4.090491799140732, 0.6717503129545667, 8.992022883328822]}, {"species": [{"element": "As", "occu": 1}], "abc": [0.13447559, 0.57922673, 0.86122193], "properties": {"magmom": 0.0}, "label": "As", "xyz": [-0.6295948708592678, 5.299778452954567, 12.123345596671179]}, {"species": [{"element": "As", "occu": 1}], "abc": [0.36552441, 0.92077327, 0.36122193], "properties": {"magmom": 0.0}, "label": "As", "xyz": [0.027945300859268052, 8.411750107045433, 5.084889436671178]}, {"species": [{"element": "As", "occu": 1}], "abc": [0.17858619, 0.3164248, 0.12632573], "properties": {"magmom": 0.0}, "label": "As", "xyz": [0.36872562738953585, 2.8861372336432933, 1.7782762249699935]}, {"species": [{"element": "As", "occu": 1}], "abc": [0.32141381, 0.1835752, 0.62632573], "properties": {"magmom": 0.0}, "label": "As", "xyz": [1.6904929226104644, 1.6556129763567067, 8.816732384969994]}, {"species": [{"element": "As", "occu": 1}], "abc": [0.82141381, 0.683575199999999, 0.87367427], "properties": {"magmom": 0.0}, "label": "As", "xyz": [3.7497114726104677, 6.197363186356697, 12.298636095030005]}, {"species": [{"element": "As", "occu": 1}], "abc": [0.67858619, 0.8164248, 0.37367427000000003], "properties": {"magmom": 0.0}, "label": "As", "xyz": [2.427944177389536, 7.427887443643292, 5.260179935030007]}, {"species": [{"element": "As", "occu": 1}], "abc": [0.7202824800000001, 0.042699430000000003, 0.16142819], "properties": {"magmom": -0.0}, "label": "As", "xyz": [4.769397224509375, 0.3293998273816741, 2.272410476606301]}, {"species": [{"element": "As", "occu": 1}], "abc": [0.77971752, 0.45730057, 0.66142819], "properties": {"magmom": -0.0}, "label": "As", "xyz": [4.069126545490627, 4.126072452618326, 9.3108666366063]}, {"species": [{"element": "As", "occu": 1}], "abc": [0.27971752, 0.95730057, 0.83857181], "properties": {"magmom": -0.0}, "label": "As", "xyz": [-0.6509601245093741, 8.754100592618325, 11.8045018433937]}, {"species": [{"element": "As", "occu": 1}], "abc": [0.22028248, 0.54269943, 0.33857181000000003], "properties": {"magmom": -0.0}, "label": "As", "xyz": [0.04931055450937416, 4.957427967381674, 4.7660456833937]}, {"species": [{"element": "S", "occu": 1}], "abc": [0.71290632, 0.34260763, 0.999128199999999], "properties": {"magmom": -0.0}, "label": "S", "xyz": [3.921375816211235, 3.080127946545293, 14.06464006783941]}, {"species": [{"element": "S", "occu": 1}], "abc": [0.78709368, 0.15739237, 0.499128199999999], "properties": {"magmom": -0.0}, "label": "S", "xyz": [4.917147953788765, 1.375344333454707, 7.02618390783941]}, {"species": [{"element": "S", "occu": 1}], "abc": [0.28709368, 0.6573923700000001, 0.0008717999999990001], "properties": {"magmom": -0.0}, "label": "S", "xyz": [0.1970612837887653, 6.003372473454708, 0.012272252160561924]}, {"species": [{"element": "S", "occu": 1}], "abc": [0.21290632, 0.84260763, 0.5008718], "properties": {"magmom": -0.0}, "label": "S", "xyz": [-0.798710853788765, 7.7081560865452925, 7.050728412160575]}, {"species": [{"element": "S", "occu": 1}], "abc": [0.11328722000000001, 0.2135046, 0.98175808], "properties": {"magmom": 0.0}, "label": "S", "xyz": [0.1999010582919365, 1.9480156718683552, 13.820122411611544]}, {"species": [{"element": "S", "occu": 1}], "abc": [0.38671278000000003, 0.2864954, 0.48175808000000003], "properties": {"magmom": 0.0}, "label": "S", "xyz": [1.8593174917080642, 2.5937345381316446, 6.781666251611546]}, {"species": [{"element": "S", "occu": 1}], "abc": [0.88671278, 0.7864954, 0.018241920000000002], "properties": {"magmom": 0.0}, "label": "S", "xyz": [3.9185360417080637, 7.135484748131645, 0.25678990838845445]}, {"species": [{"element": "S", "occu": 1}], "abc": [0.61328722, 0.713504599999999, 0.51824192], "properties": {"magmom": 0.0}, "label": "S", "xyz": [2.2591196082919396, 6.489765881868347, 7.295246068388455]}, {"species": [{"element": "S", "occu": 1}], "abc": [0.65375142, 0.23979966, 0.22348007], "properties": {"magmom": 0.0}, "label": "S", "xyz": [3.7939051437075735, 2.1425054113532007, 3.1459093506574622]}, {"species": [{"element": "S", "occu": 1}], "abc": [0.84624858, 0.26020034000000003, 0.72348007], "properties": {"magmom": 0.0}, "label": "S", "xyz": [5.0446186262924275, 2.3129668686467997, 10.184365510657463]}, {"species": [{"element": "S", "occu": 1}], "abc": [0.34624858000000003, 0.76020034, 0.77651993], "properties": {"magmom": 0.0}, "label": "S", "xyz": [0.32453195629242737, 6.9409950086468, 10.931002969342536]}, {"species": [{"element": "S", "occu": 1}], "abc": [0.15375142, 0.73979966, 0.27651993], "properties": {"magmom": 0.0}, "label": "S", "xyz": [-0.9261815262924264, 6.7705335513532, 3.8925468093425377]}, {"species": [{"element": "S", "occu": 1}], "abc": [0.050769180000000004, 0.10670284000000001, 0.20633271], "properties": {"magmom": -0.0}, "label": "S", "xyz": [0.06025758171965878, 0.9740611323573166, 2.9045274674179873]}, {"species": [{"element": "S", "occu": 1}], "abc": [0.44923082000000003, 0.39329716000000003, 0.70633271], "properties": {"magmom": -0.0}, "label": "S", "xyz": [1.9989609682803415, 3.5676890776426835, 9.942983627417986]}, {"species": [{"element": "S", "occu": 1}], "abc": [0.94923082, 0.89329716, 0.79366729], "properties": {"magmom": -0.0}, "label": "S", "xyz": [4.058179518280341, 8.109439287642683, 11.172384852582013]}, {"species": [{"element": "S", "occu": 1}], "abc": [0.55076918, 0.60670284, 0.29366729], "properties": {"magmom": -0.0}, "label": "S", "xyz": [2.119476131719659, 5.515811342357316, 4.133928692582013]}]}, "task_ids": null, "uncorrected_energy_per_atom": null, "energy_per_atom": -11.53036466625, "formation_energy_per_atom": -0.15909963140624903, "energy_above_hull": 0.0, "is_stable": true, "equilibrium_reaction_energy_per_atom": null, "decomposes_to": null, "xas": null, "grain_boundaries": null, "band_gap": 1.9674, "cbm": null, "vbm": null, "efermi": 1.17086796, "is_gap_direct": null, "is_metal": null, "es_source_calc_id": null, "bandstructure": null, "dos": null, "dos_energy_up": null, "dos_energy_down": null, "is_magnetic": null, "ordering": null, "total_magnetization": 0.0, "total_magnetization_normalized_vol": null, "total_magnetization_normalized_formula_units": null, "num_magnetic_sites": null, "num_unique_magnetic_sites": null, "types_of_magnetic_species": null, "bulk_modulus": null, "shear_modulus": null, "universal_anisotropy": null, "homogeneous_poisson": null, "e_total": null, "e_ionic": null, "e_electronic": null, "n": null, "e_ij_max": null, "weighted_surface_energy_EV_PER_ANG2": null, "weighted_surface_energy": null, "weighted_work_function": null, "surface_anisotropy": null, "shape_factor": null, "has_reconstructed": null, "possible_species": null, "has_props": null, "theoretical": null, "database_IDs": null, "fields_not_requested": ["builder_meta", "nsites", "elements", "nelements", "composition", "composition_reduced", "chemsys", "symmetry", "property_name", "deprecated", "deprecation_reasons", "last_updated", "origins", "warnings", "task_ids", "uncorrected_energy_per_atom", "equilibrium_reaction_energy_per_atom", "decomposes_to", "xas", "grain_boundaries", "cbm", "vbm", "is_gap_direct", "is_metal", "es_source_calc_id", "bandstructure", "dos", "dos_energy_up", "dos_energy_down", "is_magnetic", "ordering", "total_magnetization_normalized_vol", "total_magnetization_normalized_formula_units", "num_magnetic_sites", "num_unique_magnetic_sites", "types_of_magnetic_species", "bulk_modulus", "shear_modulus", "universal_anisotropy", "homogeneous_poisson", "e_total", "e_ionic", "e_electronic", "n", "e_ij_max", "weighted_surface_energy_EV_PER_ANG2", "weighted_surface_energy", "weighted_work_function", "surface_anisotropy", "shape_factor", "has_reconstructed", "possible_species", "has_props", "theoretical", "database_IDs"]}