{"builder_meta": null, "nsites": null, "elements": null, "nelements": null, "composition": null, "composition_reduced": null, "formula_pretty": "AsS2", "formula_anonymous": "AB2", "chemsys": null, "volume": 584.0479189036196, "density": 3.162762596694948, "density_atomic": 24.335329954317483, "symmetry": null, "property_name": null, "material_id": "mp-1191613", "deprecated": null, "deprecation_reasons": null, "last_updated": null, "origins": null, "warnings": null, "structure": {"@module": "pymatgen.core.structure", "@class": "Structure", "charge": 0, "lattice": {"matrix": [[0.0021900500000000002, 0.0, 7.33760539], [7.7575183, 0.0, -2.30190158], [0.0, 10.25965739, 0.0]], "pbc": [true, true, true], "a": 7.337605716831347, "b": 8.091837928359748, "c": 10.25965739, "alpha": 90.0, "beta": 90.0, "gamma": 106.51019097618739, "volume": 584.0479189036196}, "properties": {}, "sites": [{"species": [{"element": "As", "occu": 1}], "abc": [0.59160625, 0.03075845, 0.53082369], "properties": {"magmom": -0.0}, "label": "As", "xyz": [0.2399048860224475, 5.4460691938955685, 4.270170284104337]}, {"species": [{"element": "As", "occu": 1}], "abc": [0.40839375, 0.96924155, 0.03082369], "properties": {"magmom": -0.0}, "label": "As", "xyz": [7.519803463977553, 0.3162404988955691, 0.7655335258956635]}, {"species": [{"element": "As", "occu": 1}], "abc": [0.73916136, 0.56267656, 0.5378674], "properties": {"magmom": -0.0}, "label": "As", "xyz": [4.366592511517516, 5.518335245250086, 4.128448316722766]}, {"species": [{"element": "As", "occu": 1}], "abc": [0.26083864, 0.43732344, 0.037867399999999], "properties": {"magmom": -0.0}, "label": "As", "xyz": [3.393115838482484, 0.38850655025007574, 0.9072554932772345]}, {"species": [{"element": "As", "occu": 1}], "abc": [0.88692556, 0.34261176, 0.32116652], "properties": {"magmom": 0.0}, "label": "As", "xyz": [2.6597594093178856, 3.295058460338583, 5.719251217914188]}, {"species": [{"element": "As", "occu": 1}], "abc": [0.11307444, 0.6573882400000001, 0.82116652], "properties": {"magmom": 0.0}, "label": "As", "xyz": [5.099948940682114, 8.424887155338583, -0.6835474079141878]}, {"species": [{"element": "As", "occu": 1}], "abc": [0.95852182, 0.12418566, 0.83048939], "properties": {"magmom": -0.0}, "label": "As", "xyz": [0.9654717407594691, 8.520536607430092, 6.747391705897266]}, {"species": [{"element": "As", "occu": 1}], "abc": [0.04147818, 0.87581434, 0.33048939], "properties": {"magmom": -0.0}, "label": "As", "xyz": [6.7942366092405315, 3.390707912430092, -1.7116878958972672]}, {"species": [{"element": "S", "occu": 1}], "abc": [0.63580357, 0.821093099999999, 0.03589511], "properties": {"magmom": -0.0}, "label": "S", "xyz": [6.371037190862201, 0.36827153057636286, 2.7752001979961465]}, {"species": [{"element": "S", "occu": 1}], "abc": [0.36419643, 0.178906899999999, 0.53589511], "properties": {"magmom": -0.0}, "label": "S", "xyz": [1.3886711591377838, 5.498100225576363, 2.260503612003858]}, {"species": [{"element": "S", "occu": 1}], "abc": [0.73079441, 0.2744562, 0.8267136700000001], "properties": {"magmom": 0.0}, "label": "S", "xyz": [2.13069947034608, 8.481799013829521, 4.730509841377073]}, {"species": [{"element": "S", "occu": 1}], "abc": [0.26920559, 0.7255438, 0.32671267], "properties": {"magmom": 0.0}, "label": "S", "xyz": [5.629008879653919, 3.351960059172131, 0.30519396862292614]}, {"species": [{"element": "S", "occu": 1}], "abc": [0.76453434, 0.84661505, 0.85799112], "properties": {"magmom": 0.0}, "label": "S", "xyz": [6.569306111861732, 8.802694934862377, 3.661026772777314]}, {"species": [{"element": "S", "occu": 1}], "abc": [0.23546566, 0.15338495, 0.35799112], "properties": {"magmom": 0.0}, "label": "S", "xyz": [1.190402238138268, 3.6728662398623766, 1.3746770372226864]}, {"species": [{"element": "S", "occu": 1}], "abc": [0.60104934, 0.24888649000000002, 0.00429733], "properties": {"magmom": 0.0}, "label": "S", "xyz": [1.932057828904834, 0.0440891334917687, 3.837350672268288]}, {"species": [{"element": "S", "occu": 1}], "abc": [0.39895066, 0.75111351, 0.50429733], "properties": {"magmom": 0.0}, "label": "S", "xyz": [5.827650521095166, 5.173917828491768, 1.1983531377317116]}, {"species": [{"element": "S", "occu": 1}], "abc": [0.94273542, 0.38967677, 0.53696045], "properties": {"magmom": 0.0}, "label": "S", "xyz": [3.024989312066462, 5.509030248980226, 6.020422926583617]}, {"species": [{"element": "S", "occu": 1}], "abc": [0.05726458, 0.61032323, 0.03696045], "properties": {"magmom": 0.0}, "label": "S", "xyz": [4.734719037933538, 0.3792015539802255, -0.9847191165836173]}, {"species": [{"element": "S", "occu": 1}], "abc": [0.6825876200000001, 0.06866012, 0.32186741], "properties": {"magmom": -0.0}, "label": "S", "xyz": [0.534127038397377, 3.30224935160666, 4.850509760948283]}, {"species": [{"element": "S", "occu": 1}], "abc": [0.31741238, 0.93133988, 0.82186741], "properties": {"magmom": -0.0}, "label": "S", "xyz": [7.225581311602624, 8.432078046606659, 0.18519404905171788]}, {"species": [{"element": "S", "occu": 1}], "abc": [0.94929124, 0.83566797, 0.53861972], "properties": {"magmom": 0.0}, "label": "S", "xyz": [6.484788565279014, 5.5260537906977305, 5.0418990988053904]}, {"species": [{"element": "S", "occu": 1}], "abc": [0.05070876, 0.16433203, 0.03861972], "properties": {"magmom": 0.0}, "label": "S", "xyz": [1.274919784720987, 0.3962250956977308, -0.006195288805390942]}, {"species": [{"element": "S", "occu": 1}], "abc": [0.688684699999999, 0.51908893, 0.32220119], "properties": {"magmom": 0.0}, "label": "S", "xyz": [4.028350127729654, 3.305673820050294, 3.858404938603017]}, {"species": [{"element": "S", "occu": 1}], "abc": [0.311315299999999, 0.48091107, 0.82220119], "properties": {"magmom": 0.0}, "label": "S", "xyz": [3.7313582222703463, 8.435502515050294, 1.1772988713969694]}]}, "task_ids": null, "uncorrected_energy_per_atom": null, "energy_per_atom": -10.361834515416666, "formation_energy_per_atom": -0.10265813145833201, "energy_above_hull": 0.027285937031251, "is_stable": false, "equilibrium_reaction_energy_per_atom": null, "decomposes_to": null, "xas": null, "grain_boundaries": null, "band_gap": 1.2919, "cbm": null, "vbm": null, "efermi": 2.62296138, "is_gap_direct": null, "is_metal": null, "es_source_calc_id": null, "bandstructure": null, "dos": null, "dos_energy_up": null, "dos_energy_down": null, "is_magnetic": null, "ordering": null, "total_magnetization": 0.0, "total_magnetization_normalized_vol": null, "total_magnetization_normalized_formula_units": null, "num_magnetic_sites": null, "num_unique_magnetic_sites": null, "types_of_magnetic_species": null, "bulk_modulus": null, "shear_modulus": null, "universal_anisotropy": null, "homogeneous_poisson": null, "e_total": null, "e_ionic": null, "e_electronic": null, "n": null, "e_ij_max": null, "weighted_surface_energy_EV_PER_ANG2": null, "weighted_surface_energy": null, "weighted_work_function": null, "surface_anisotropy": null, "shape_factor": null, "has_reconstructed": null, "possible_species": null, "has_props": null, "theoretical": null, "database_IDs": null, "fields_not_requested": ["builder_meta", "nsites", "elements", "nelements", "composition", "composition_reduced", "chemsys", "symmetry", "property_name", "deprecated", "deprecation_reasons", "last_updated", "origins", "warnings", "task_ids", "uncorrected_energy_per_atom", "equilibrium_reaction_energy_per_atom", "decomposes_to", "xas", "grain_boundaries", "cbm", "vbm", "is_gap_direct", "is_metal", "es_source_calc_id", "bandstructure", "dos", "dos_energy_up", "dos_energy_down", "is_magnetic", "ordering", "total_magnetization_normalized_vol", "total_magnetization_normalized_formula_units", "num_magnetic_sites", "num_unique_magnetic_sites", "types_of_magnetic_species", "bulk_modulus", "shear_modulus", "universal_anisotropy", "homogeneous_poisson", "e_total", "e_ionic", "e_electronic", "n", "e_ij_max", "weighted_surface_energy_EV_PER_ANG2", "weighted_surface_energy", "weighted_work_function", "surface_anisotropy", "shape_factor", "has_reconstructed", "possible_species", "has_props", "theoretical", "database_IDs"]}