{
  "builder_meta": null,
  "nsites": null,
  "elements": null,
  "nelements": null,
  "composition": null,
  "composition_reduced": null,
  "formula_pretty": "AsSe",
  "formula_anonymous": "AB",
  "chemsys": null,
  "volume": 937.1541375116143,
  "density": 4.362593485155438,
  "density_atomic": 29.286066797237947,
  "symmetry": null,
  "property_name": null,
  "material_id": "mp-542570",
  "deprecated": null,
  "deprecation_reasons": null,
  "last_updated": null,
  "origins": null,
  "warnings": null,
  "structure": {
    "@module": "pymatgen.core.structure",
    "@class": "Structure",
    "charge": 0,
    "lattice": {
      "matrix": [
        [6.91822443, -0.06964137000000001, 0.0],
        [-2.78723138, 9.44484061, 0.0],
        [0.0, 0.0, 14.38513039]
      ],
      "pbc": [true, true, true],
      "a": 6.918574938834175,
      "b": 9.847521155801692,
      "c": 14.38513039,
      "alpha": 90.0,
      "beta": 90.0,
      "gamma": 107.01839946573425,
      "volume": 937.1541375116143
    },
    "properties": {},
    "sites": [
      {
        "species": [{ "element": "As", "occu": 1 }],
        "abc": [0.23807038, 0.88079823, 0.00998016],
        "properties": { "magmom": 0.0 },
        "label": "As",
        "xyz": [-0.8079641471290739, 8.3024193445005, 0.1435659029130624]
      },
      {
        "species": [{ "element": "As", "occu": 1 }],
        "abc": [0.26192962000000003, 0.61920177, 0.50998016],
        "properties": { "magmom": 0.0 },
        "label": "As",
        "xyz": [0.08622929212907438, 5.8300208854995, 7.3361310979130625]
      },
      {
        "species": [{ "element": "As", "occu": 1 }],
        "abc": [0.76192962, 0.11920177, 0.99001984],
        "properties": { "magmom": 0.0 },
        "label": "As",
        "xyz": [4.938957197129074, 1.0727798954995003, 14.241564487086938]
      },
      {
        "species": [{ "element": "As", "occu": 1 }],
        "abc": [0.73807038, 0.38079823, 0.49001984],
        "properties": { "magmom": 0.0 },
        "label": "As",
        "xyz": [4.044763757870927, 3.5451783545005, 7.048999292086938]
      },
      {
        "species": [{ "element": "As", "occu": 1 }],
        "abc": [0.11703954, 0.57507448, 0.8574364],
        "properties": { "magmom": 0.0 },
        "label": "As",
        "xyz": [-0.7931598315892203, 5.423336008568864, 12.334334415132195]
      },
      {
        "species": [{ "element": "As", "occu": 1 }],
        "abc": [0.38296046, 0.9249255200000001, 0.3574364],
        "properties": { "magmom": 0.0 },
        "label": "As",
        "xyz": [0.07142497658922009, 8.709104221431136, 5.141769220132196]
      },
      {
        "species": [{ "element": "As", "occu": 1 }],
        "abc": [0.8829604600000001, 0.42492552, 0.142563599999999],
        "properties": { "magmom": 0.0 },
        "label": "As",
        "xyz": [4.924152881589221, 3.9518632314311373, 2.05079597486779]
      },
      {
        "species": [{ "element": "As", "occu": 1 }],
        "abc": [0.61703954, 0.07507448, 0.6425636],
        "properties": { "magmom": 0.0 },
        "label": "As",
        "xyz": [4.05956807341078, 0.666095018568863, 9.243361169867805]
      },
      {
        "species": [{ "element": "As", "occu": 1 }],
        "abc": [0.81314718, 0.6752311400000001, 0.87371632],
        "properties": { "magmom": -0.0 },
        "label": "As",
        "xyz": [3.7435092637004344, 6.320821808581759, 12.568523187070966]
      },
      {
        "species": [{ "element": "As", "occu": 1 }],
        "abc": [0.68685282, 0.82476886, 0.37371632],
        "properties": { "magmom": -0.0 },
        "label": "As",
        "xyz": [2.452980311299566, 7.7419770514182416, 5.375957992070965]
      },
      {
        "species": [{ "element": "As", "occu": 1 }],
        "abc": [0.18685282, 0.32476886, 0.12628368],
        "properties": { "magmom": -0.0 },
        "label": "As",
        "xyz": [0.3874837862995658, 3.0543774314182413, 1.8166072029290354]
      },
      {
        "species": [{ "element": "As", "occu": 1 }],
        "abc": [0.31314718, 0.17523114, 0.62628368],
        "properties": { "magmom": -0.0 },
        "label": "As",
        "xyz": [1.6780127387004344, 1.6332221885817588, 9.009172397929035]
      },
      {
        "species": [{ "element": "As", "occu": 1 }],
        "abc": [0.27420332000000003, 0.95639554, 0.83654562],
        "properties": { "magmom": 0.0 },
        "label": "As",
        "xyz": [-0.7686955535689373, 9.013907540551532, 12.033817820883392]
      },
      {
        "species": [{ "element": "As", "occu": 1 }],
        "abc": [0.22579668, 0.54360446, 0.33654562],
        "properties": { "magmom": 0.0 },
        "label": "As",
        "xyz": [0.0469606985689377, 5.118532689448468, 4.841252625883392]
      },
      {
        "species": [{ "element": "As", "occu": 1 }],
        "abc": [0.72579668, 0.04360446, 0.16345438],
        "properties": { "magmom": 0.0 },
        "label": "As",
        "xyz": [4.899688603568938, 0.361291699448469, 2.3513125691166086]
      },
      {
        "species": [{ "element": "As", "occu": 1 }],
        "abc": [0.77420332, 0.45639554, 0.66345438],
        "properties": { "magmom": 0.0 },
        "label": "As",
        "xyz": [4.084032351431063, 4.256666550551531, 9.543877764116608]
      },
      {
        "species": [{ "element": "Se", "occu": 1 }],
        "abc": [0.29529206, 0.65360513, -0.0008707200000000001],
        "properties": { "magmom": -0.0 },
        "label": "Se",
        "xyz": [0.22114801501204662, 6.152631731119807, -0.012525420733180801]
      },
      {
        "species": [{ "element": "Se", "occu": 1 }],
        "abc": [0.20470794, 0.84639487, 0.49912928],
        "properties": { "magmom": -0.0 },
        "label": "Se",
        "xyz": [-0.9428828700120464, 7.979808498880193, 7.180039774266819]
      },
      {
        "species": [{ "element": "Se", "occu": 1 }],
        "abc": [0.70470794, 0.34639487, 0.0008707200000000001],
        "properties": { "magmom": -0.0 },
        "label": "Se",
        "xyz": [3.909845034987954, 3.2225675088801933, 0.012525420733180801]
      },
      {
        "species": [{ "element": "Se", "occu": 1 }],
        "abc": [0.79529206, 0.15360513, 0.50087072],
        "properties": { "magmom": -0.0 },
        "label": "Se",
        "xyz": [5.073875920012046, 1.3953907411198072, 7.205090615733181]
      },
      {
        "species": [{ "element": "Se", "occu": 1 }],
        "abc": [0.8800505200000001, 0.78505051, 0.02298441],
        "properties": { "magmom": 0.0 },
        "label": "Se",
        "xyz": [3.9002695907412006, 7.353389013867199, 0.3306337347872199]
      },
      {
        "species": [{ "element": "Se", "occu": 1 }],
        "abc": [0.61994948, 0.71494949, 0.5229844100000001],
        "properties": { "magmom": 0.0 },
        "label": "Se",
        "xyz": [2.2962199842588005, 6.709409846132801, 7.523198929787221]
      },
      {
        "species": [{ "element": "Se", "occu": 1 }],
        "abc": [0.11994948, 0.21494949, 0.97701559],
        "properties": { "magmom": 0.0 },
        "label": "Se",
        "xyz": [0.23072345925880022, 2.0218102261328013, 14.05449665521278]
      },
      {
        "species": [{ "element": "Se", "occu": 1 }],
        "abc": [0.38005052, 0.28505051, 0.47701559],
        "properties": { "magmom": 0.0 },
        "label": "Se",
        "xyz": [1.8347730657411998, 2.6657893938671986, 6.86193146021278]
      },
      {
        "species": [{ "element": "Se", "occu": 1 }],
        "abc": [0.34017862, 0.75600478, 0.76562638],
        "properties": { "magmom": 0.0 },
        "label": "Se",
        "xyz": [0.2462717932016898, 7.116654142356607, 11.013635306323689]
      },
      {
        "species": [{ "element": "Se", "occu": 1 }],
        "abc": [0.15982138, 0.7439952200000001, 0.26562638],
        "properties": { "magmom": 0.0 },
        "label": "Se",
        "xyz": [-0.9680066482016905, 7.015786087643394, 3.8210701113236882]
      },
      {
        "species": [{ "element": "Se", "occu": 1 }],
        "abc": [0.65982138, 0.24399522, 0.23437362],
        "properties": { "magmom": 0.0 },
        "label": "Se",
        "xyz": [3.88472125679831, 2.2585450976433936, 3.371495083676312]
      },
      {
        "species": [{ "element": "Se", "occu": 1 }],
        "abc": [0.84017862, 0.25600478, 0.7343736200000001],
        "properties": { "magmom": 0.0 },
        "label": "Se",
        "xyz": [5.09899969820169, 2.3594131523566064, 10.564060278676314]
      },
      {
        "species": [{ "element": "Se", "occu": 1 }],
        "abc": [0.93009579, 0.89218779, 0.78890981],
        "properties": { "magmom": -0.0 },
        "label": "Se",
        "xyz": [3.9478776114772995, 8.36179832569132, 11.348570482800127]
      },
      {
        "species": [{ "element": "Se", "occu": 1 }],
        "abc": [0.56990421, 0.60781221, 0.28890981],
        "properties": { "magmom": -0.0 },
        "label": "Se",
        "xyz": [2.248611963522701, 5.70100053430868, 4.1560052878001255]
      },
      {
        "species": [{ "element": "Se", "occu": 1 }],
        "abc": [0.06990421000000001, 0.10781221, 0.21109019],
        "properties": { "magmom": -0.0 },
        "label": "Se",
        "xyz": [0.1831154385227005, 1.0134009143086804, 3.0365599071998743]
      },
      {
        "species": [{ "element": "Se", "occu": 1 }],
        "abc": [0.43009579000000003, 0.39218779, 0.7110901900000001],
        "properties": { "magmom": -0.0 },
        "label": "Se",
        "xyz": [1.8823810864773, 3.6741987056913192, 10.229125102199875]
      }
    ]
  },
  "task_ids": null,
  "uncorrected_energy_per_atom": null,
  "energy_per_atom": -14.629037953125,
  "formation_energy_per_atom": -0.11949234390624801,
  "energy_above_hull": 0.0,
  "is_stable": true,
  "equilibrium_reaction_energy_per_atom": null,
  "decomposes_to": null,
  "xas": null,
  "grain_boundaries": null,
  "band_gap": 1.367999999999999,
  "cbm": null,
  "vbm": null,
  "efermi": 1.44170004,
  "is_gap_direct": null,
  "is_metal": null,
  "es_source_calc_id": null,
  "bandstructure": null,
  "dos": null,
  "dos_energy_up": null,
  "dos_energy_down": null,
  "is_magnetic": null,
  "ordering": null,
  "total_magnetization": 0.0,
  "total_magnetization_normalized_vol": null,
  "total_magnetization_normalized_formula_units": null,
  "num_magnetic_sites": null,
  "num_unique_magnetic_sites": null,
  "types_of_magnetic_species": null,
  "bulk_modulus": null,
  "shear_modulus": null,
  "universal_anisotropy": null,
  "homogeneous_poisson": null,
  "e_total": null,
  "e_ionic": null,
  "e_electronic": null,
  "n": null,
  "e_ij_max": null,
  "weighted_surface_energy_EV_PER_ANG2": null,
  "weighted_surface_energy": null,
  "weighted_work_function": null,
  "surface_anisotropy": null,
  "shape_factor": null,
  "has_reconstructed": null,
  "possible_species": null,
  "has_props": null,
  "theoretical": null,
  "database_IDs": null,
  "fields_not_requested": [
    "builder_meta",
    "nsites",
    "elements",
    "nelements",
    "composition",
    "composition_reduced",
    "chemsys",
    "symmetry",
    "property_name",
    "deprecated",
    "deprecation_reasons",
    "last_updated",
    "origins",
    "warnings",
    "task_ids",
    "uncorrected_energy_per_atom",
    "equilibrium_reaction_energy_per_atom",
    "decomposes_to",
    "xas",
    "grain_boundaries",
    "cbm",
    "vbm",
    "is_gap_direct",
    "is_metal",
    "es_source_calc_id",
    "bandstructure",
    "dos",
    "dos_energy_up",
    "dos_energy_down",
    "is_magnetic",
    "ordering",
    "total_magnetization_normalized_vol",
    "total_magnetization_normalized_formula_units",
    "num_magnetic_sites",
    "num_unique_magnetic_sites",
    "types_of_magnetic_species",
    "bulk_modulus",
    "shear_modulus",
    "universal_anisotropy",
    "homogeneous_poisson",
    "e_total",
    "e_ionic",
    "e_electronic",
    "n",
    "e_ij_max",
    "weighted_surface_energy_EV_PER_ANG2",
    "weighted_surface_energy",
    "weighted_work_function",
    "surface_anisotropy",
    "shape_factor",
    "has_reconstructed",
    "possible_species",
    "has_props",
    "theoretical",
    "database_IDs"
  ]
}
