{
  "builder_meta": null,
  "nsites": null,
  "elements": null,
  "nelements": null,
  "composition": null,
  "composition_reduced": null,
  "formula_pretty": "Au2O3",
  "formula_anonymous": "A2B3",
  "chemsys": null,
  "volume": 132.65363346808087,
  "density": 11.06406560179728,
  "density_atomic": 13.265363346808087,
  "symmetry": null,
  "property_name": null,
  "material_id": "mp-27253",
  "deprecated": null,
  "deprecation_reasons": null,
  "last_updated": null,
  "origins": null,
  "warnings": null,
  "structure": {
    "@module": "pymatgen.core.structure",
    "@class": "Structure",
    "charge": 0,
    "lattice": {
      "matrix": [
        [3.74656808, -0.0, 1.121020769999999],
        [1.87328354, 5.26809083, 0.56051089],
        [0.02753021, 0.0, 6.72921219]
      ],
      "pbc": [true, true, true],
      "a": 3.9106853548765947,
      "b": 5.619265492230601,
      "c": 6.7292685048604834,
      "alpha": 84.19684486630655,
      "beta": 73.10774456880247,
      "gamma": 69.63672756944092,
      "volume": 132.65363346808084
    },
    "properties": {},
    "sites": [
      {
        "species": [{ "element": "Au", "occu": 1 }],
        "abc": [0.9342077, 0.23363909, 0.40875231],
        "properties": { "magmom": -0.0 },
        "label": "Au",
        "xyz": [3.94899804744008, 1.2308319475585447, 3.9288045166112777]
      },
      {
        "species": [{ "element": "Au", "occu": 1 }],
        "abc": [0.5765981, 0.7663609100000001, 0.59124769],
        "properties": { "magmom": -0.0 },
        "label": "Au",
        "xyz": [3.612152487918784, 4.0372588824414555, 5.054563244625188]
      },
      {
        "species": [{ "element": "Au", "occu": 1 }],
        "abc": [0.41784679, 0.26636091, 0.90875231],
        "properties": { "magmom": -0.0 },
        "label": "Au",
        "xyz": [2.08947909607917, 1.4032134674414554, 6.732900243135797]
      },
      {
        "species": [{ "element": "Au", "occu": 1 }],
        "abc": [0.5929590100000001, 0.73363909, 0.09124769],
        "properties": { "magmom": -0.0 },
        "label": "Au",
        "xyz": [3.5983873992796944, 3.8648773625585453, 1.6899571331006684]
      },
      {
        "species": [{ "element": "O", "occu": 1 }],
        "abc": [0.43786933, 0.5, 0.5],
        "properties": { "magmom": -0.0 },
        "label": "O",
        "xyz": [2.5909141299889864, 2.634045415, 4.135722153475983]
      },
      {
        "species": [{ "element": "O", "occu": 1 }],
        "abc": [0.18786933, 0.0, -0.0],
        "properties": { "magmom": -0.0 },
        "label": "O",
        "xyz": [0.7038652349889863, 0.0, 0.21060542097598392]
      },
      {
        "species": [{ "element": "O", "occu": 1 }],
        "abc": [0.77185062, 0.03624394, 0.66428169],
        "properties": { "magmom": -0.0 },
        "label": "O",
        "xyz": [2.9779738860718123, 0.19093636795707022, 5.3556681453656845]
      },
      {
        "species": [{ "element": "O", "occu": 1 }],
        "abc": [0.47237425, 0.96375606, 0.33571831],
        "properties": { "magmom": -0.0 },
        "label": "O",
        "xyz": [3.5844130462123376, 5.07715446204293, 3.3288568564548644]
      },
      {
        "species": [{ "element": "O", "occu": 1 }],
        "abc": [0.68613131, 0.53624394, 0.83571831],
        "properties": { "magmom": -0.0 },
        "label": "O",
        "xyz": [3.5981821115364774, 2.82498178295707, 6.693463856582014]
      },
      {
        "species": [{ "element": "O", "occu": 1 }],
        "abc": [0.05809456, 0.46375606, 0.16428169],
        "properties": { "magmom": -0.0 },
        "label": "O",
        "xyz": [1.0909245273157522, 2.44310904704293, 1.4305518812593057]
      }
    ]
  },
  "task_ids": null,
  "uncorrected_energy_per_atom": null,
  "energy_per_atom": -4.736182797999999,
  "formation_energy_per_atom": -0.45785339499999805,
  "energy_above_hull": 0.0,
  "is_stable": true,
  "equilibrium_reaction_energy_per_atom": null,
  "decomposes_to": null,
  "xas": null,
  "grain_boundaries": null,
  "band_gap": 0.8689999999999991,
  "cbm": null,
  "vbm": null,
  "efermi": 2.13002525,
  "is_gap_direct": null,
  "is_metal": null,
  "es_source_calc_id": null,
  "bandstructure": null,
  "dos": null,
  "dos_energy_up": null,
  "dos_energy_down": null,
  "is_magnetic": null,
  "ordering": null,
  "total_magnetization": 0.0,
  "total_magnetization_normalized_vol": null,
  "total_magnetization_normalized_formula_units": null,
  "num_magnetic_sites": null,
  "num_unique_magnetic_sites": null,
  "types_of_magnetic_species": null,
  "bulk_modulus": null,
  "shear_modulus": null,
  "universal_anisotropy": null,
  "homogeneous_poisson": null,
  "e_total": null,
  "e_ionic": null,
  "e_electronic": null,
  "n": null,
  "e_ij_max": null,
  "weighted_surface_energy_EV_PER_ANG2": null,
  "weighted_surface_energy": null,
  "weighted_work_function": null,
  "surface_anisotropy": null,
  "shape_factor": null,
  "has_reconstructed": null,
  "possible_species": null,
  "has_props": null,
  "theoretical": null,
  "database_IDs": null,
  "fields_not_requested": [
    "builder_meta",
    "nsites",
    "elements",
    "nelements",
    "composition",
    "composition_reduced",
    "chemsys",
    "symmetry",
    "property_name",
    "deprecated",
    "deprecation_reasons",
    "last_updated",
    "origins",
    "warnings",
    "task_ids",
    "uncorrected_energy_per_atom",
    "equilibrium_reaction_energy_per_atom",
    "decomposes_to",
    "xas",
    "grain_boundaries",
    "cbm",
    "vbm",
    "is_gap_direct",
    "is_metal",
    "es_source_calc_id",
    "bandstructure",
    "dos",
    "dos_energy_up",
    "dos_energy_down",
    "is_magnetic",
    "ordering",
    "total_magnetization_normalized_vol",
    "total_magnetization_normalized_formula_units",
    "num_magnetic_sites",
    "num_unique_magnetic_sites",
    "types_of_magnetic_species",
    "bulk_modulus",
    "shear_modulus",
    "universal_anisotropy",
    "homogeneous_poisson",
    "e_total",
    "e_ionic",
    "e_electronic",
    "n",
    "e_ij_max",
    "weighted_surface_energy_EV_PER_ANG2",
    "weighted_surface_energy",
    "weighted_work_function",
    "surface_anisotropy",
    "shape_factor",
    "has_reconstructed",
    "possible_species",
    "has_props",
    "theoretical",
    "database_IDs"
  ]
}
