{"builder_meta": null, "nsites": null, "elements": null, "nelements": null, "composition": null, "composition_reduced": null, "formula_pretty": "Au3Br", "formula_anonymous": "AB3", "chemsys": null, "volume": 177.65550855827186, "density": 12.53995184875719, "density_atomic": 22.206938569783983, "symmetry": null, "property_name": null, "material_id": "mp-1183348", "deprecated": null, "deprecation_reasons": null, "last_updated": null, "origins": null, "warnings": null, "structure": {"@module": "pymatgen.core.structure", "@class": "Structure", "charge": 0, "lattice": {"matrix": [[3.38212, -5.858004, 0.0], [3.38212, 5.858004, 0.0], [0.0, 0.0, 4.483426]], "pbc": [true, true, true], "a": 6.764240279470859, "b": 6.764240279470859, "c": 4.483426, "alpha": 90.0, "beta": 90.0, "gamma": 120.00000273343973, "volume": 177.65550855827186}, "properties": {}, "sites": [{"species": [{"element": "Au", "occu": 1}], "abc": [0.145424, 0.290848999999999, 0.25], "properties": {"magmom": -0.0}, "label": "Au", "xyz": [1.4755276387599967, 0.8519002316999943, 1.1208565]}, {"species": [{"element": "Au", "occu": 1}], "abc": [0.709151, 0.854576, 0.25], "properties": {"magmom": -0.0}, "label": "Au", "xyz": [5.28871236124, 0.8519002317000002, 1.1208565]}, {"species": [{"element": "Au", "occu": 1}], "abc": [0.145424, 0.854576, 0.25], "properties": {"magmom": -0.0}, "label": "Au", "xyz": [3.38212, 4.154215252608, 1.1208565]}, {"species": [{"element": "Au", "occu": 1}], "abc": [0.854576, 0.709151, 0.75], "properties": {"magmom": -0.0}, "label": "Au", "xyz": [5.28871236124, -0.8519002317000002, 3.3625694999999998]}, {"species": [{"element": "Au", "occu": 1}], "abc": [0.290848999999999, 0.145424, 0.75], "properties": {"magmom": -0.0}, "label": "Au", "xyz": [1.4755276387599967, -0.8519002316999943, 3.3625694999999998]}, {"species": [{"element": "Au", "occu": 1}], "abc": [0.854576, 0.145424, 0.75], "properties": {"magmom": -0.0}, "label": "Au", "xyz": [3.38212, -4.154215252608, 3.3625694999999998]}, {"species": [{"element": "Br", "occu": 1}], "abc": [0.333333, 0.666667, 0.75], "properties": {"magmom": -0.0}, "label": "Br", "xyz": [3.38212, 1.9526719053360002, 3.3625694999999998]}, {"species": [{"element": "Br", "occu": 1}], "abc": [0.666667, 0.333333, 0.25], "properties": {"magmom": -0.0}, "label": "Br", "xyz": [3.38212, -1.9526719053360002, 1.1208565]}]}, "task_ids": null, "uncorrected_energy_per_atom": null, "energy_per_atom": -2.6936592475000003, "formation_energy_per_atom": 0.170988886249999, "energy_above_hull": 0.372484433124999, "is_stable": false, "equilibrium_reaction_energy_per_atom": null, "decomposes_to": null, "xas": null, "grain_boundaries": null, "band_gap": 0.0, "cbm": null, "vbm": null, "efermi": 3.25236886, "is_gap_direct": null, "is_metal": null, "es_source_calc_id": null, "bandstructure": null, "dos": null, "dos_energy_up": null, "dos_energy_down": null, "is_magnetic": null, "ordering": null, "total_magnetization": 0.0002427, "total_magnetization_normalized_vol": null, "total_magnetization_normalized_formula_units": null, "num_magnetic_sites": null, "num_unique_magnetic_sites": null, "types_of_magnetic_species": null, "bulk_modulus": null, "shear_modulus": null, "universal_anisotropy": null, "homogeneous_poisson": null, "e_total": null, "e_ionic": null, "e_electronic": null, "n": null, "e_ij_max": null, "weighted_surface_energy_EV_PER_ANG2": null, "weighted_surface_energy": null, "weighted_work_function": null, "surface_anisotropy": null, "shape_factor": null, "has_reconstructed": null, "possible_species": null, "has_props": null, "theoretical": null, "database_IDs": null, "fields_not_requested": ["builder_meta", "nsites", "elements", "nelements", "composition", "composition_reduced", "chemsys", "symmetry", "property_name", "deprecated", "deprecation_reasons", "last_updated", "origins", "warnings", "task_ids", "uncorrected_energy_per_atom", "equilibrium_reaction_energy_per_atom", "decomposes_to", "xas", "grain_boundaries", "cbm", "vbm", "is_gap_direct", "is_metal", "es_source_calc_id", "bandstructure", "dos", "dos_energy_up", "dos_energy_down", "is_magnetic", "ordering", "total_magnetization_normalized_vol", "total_magnetization_normalized_formula_units", "num_magnetic_sites", "num_unique_magnetic_sites", "types_of_magnetic_species", "bulk_modulus", "shear_modulus", "universal_anisotropy", "homogeneous_poisson", "e_total", "e_ionic", "e_electronic", "n", "e_ij_max", "weighted_surface_energy_EV_PER_ANG2", "weighted_surface_energy", "weighted_work_function", "surface_anisotropy", "shape_factor", "has_reconstructed", "possible_species", "has_props", "theoretical", "database_IDs"]}