{
  "builder_meta": null,
  "nsites": null,
  "elements": null,
  "nelements": null,
  "composition": null,
  "composition_reduced": null,
  "formula_pretty": "Au3F8",
  "formula_anonymous": "A3B8",
  "chemsys": null,
  "volume": 319.9161442508859,
  "density": 7.711975752505495,
  "density_atomic": 14.541642920494814,
  "symmetry": null,
  "property_name": null,
  "material_id": "mp-17407",
  "deprecated": null,
  "deprecation_reasons": null,
  "last_updated": null,
  "origins": null,
  "warnings": null,
  "structure": {
    "@module": "pymatgen.core.structure",
    "@class": "Structure",
    "charge": 0,
    "lattice": {
      "matrix": [
        [5.20493879, 0.02301251, 3.664e-5],
        [-0.03212005, 5.73574746, 0.00015622],
        [6.867e-5, 0.00028274, 10.71568051]
      ],
      "pbc": [true, true, true],
      "a": 5.204989662295753,
      "b": 5.735837397182136,
      "c": 10.715680513950169,
      "alpha": 89.99692979929746,
      "beta": 89.99922281944768,
      "gamma": 90.06753240996456,
      "volume": 319.9161442508859
    },
    "properties": {},
    "sites": [
      {
        "species": [{ "element": "Au", "occu": 1 }],
        "abc": [0.31790455, 0.9577900300000001, 0.6795142],
        "properties": { "magmom": 0.021 },
        "label": "Au",
        "xyz": [1.623956122399507, 5.501149639266653, 7.28161834318944]
      },
      {
        "species": [{ "element": "Au", "occu": 1 }],
        "abc": [0.18211495, 0.54220925, 0.17953797],
        "properties": { "magmom": 0.021 },
        "label": "Au",
        "xyz": [0.9304937081458479, 3.1142170131496667, 1.9239629025547678]
      },
      {
        "species": [{ "element": "Au", "occu": 1 }],
        "abc": [0.68209545, 0.04220997, 0.3204858],
        "properties": { "magmom": 0.021 },
        "label": "Au",
        "xyz": [3.5489312876004933, 0.25789307073334766, 3.4342550268105594]
      },
      {
        "species": [{ "element": "Au", "occu": 1 }],
        "abc": [0.81788505, 0.45779075, 0.8204620300000001],
        "properties": { "magmom": 0.021 },
        "label": "Au",
        "xyz": [4.2423937018541515, 2.644825696850333, 8.791910467445232]
      },
      {
        "species": [{ "element": "Au", "occu": 1 }],
        "abc": [0.5, -0.0, 0.0],
        "properties": { "magmom": 0.634 },
        "label": "Au",
        "xyz": [2.602469395, 0.011506255, 1.832e-5]
      },
      {
        "species": [{ "element": "Au", "occu": 1 }],
        "abc": [-0.0, 0.5, 0.5],
        "properties": { "magmom": 0.634 },
        "label": "Au",
        "xyz": [-0.01602569, 2.8680151, 5.357918365]
      },
      {
        "species": [{ "element": "F", "occu": 1 }],
        "abc": [0.26674292, 0.11103852, 0.52191613],
        "properties": { "magmom": 0.004 },
        "label": "F",
        "xyz": [1.3848498484321878, 0.6431748997326846, 5.59271362199381]
      },
      {
        "species": [{ "element": "F", "occu": 1 }],
        "abc": [0.23327823, 0.3889603, 0.02191423],
        "properties": { "magmom": 0.004 },
        "label": "F",
        "xyz": [1.2017069887557008, 2.236352566395885, 0.2348951979950705]
      },
      {
        "species": [{ "element": "F", "occu": 1 }],
        "abc": [0.73325708, 0.88896048, 0.47808387],
        "properties": { "magmom": 0.004 },
        "label": "F",
        "xyz": [3.788037593687862, 5.115862074519856, 5.1231597478499715]
      },
      {
        "species": [{ "element": "F", "occu": 1 }],
        "abc": [0.76672177, 0.6110407, 0.97808577],
        "properties": { "magmom": 0.004 },
        "label": "F",
        "xyz": [3.9711803891242488, 3.5226958793515744, 10.48097817216115]
      },
      {
        "species": [{ "element": "F", "occu": 1 }],
        "abc": [0.18522786, 0.85140992, 0.09684029],
        "properties": { "magmom": 0.075 },
        "label": "F",
        "xyz": [0.9367589943245076, 4.887762224662926, 1.0378494021422409]
      },
      {
        "species": [{ "element": "F", "occu": 1 }],
        "abc": [0.31476554, 0.6486027, 0.59682769],
        "properties": { "magmom": 0.075 },
        "label": "F",
        "xyz": [1.6175432019046339, 3.7276335812721175, 6.395527703284501]
      },
      {
        "species": [{ "element": "F", "occu": 1 }],
        "abc": [0.85524543, 0.30271884, 0.65668331],
        "properties": { "magmom": 0.073 },
        "label": "F",
        "xyz": [4.441821863743385, 1.756185832273545, 7.036887173139029]
      },
      {
        "species": [{ "element": "F", "occu": 1 }],
        "abc": [0.64476054, 0.19728871, 0.15669218000000001],
        "properties": { "magmom": 0.073 },
        "label": "F",
        "xyz": [3.349612981729712, 1.1464800787905052, 1.6791177837638738]
      },
      {
        "species": [{ "element": "F", "occu": 1 }],
        "abc": [0.14475457, 0.6972811600000001, 0.34331669],
        "properties": { "magmom": 0.073 },
        "label": "F",
        "xyz": [0.7310655462566146, 4.0028568777264555, 3.6789861968609716]
      },
      {
        "species": [{ "element": "F", "occu": 1 }],
        "abc": [0.35523946, 0.80271129, 0.84330782],
        "properties": { "magmom": 0.073 },
        "label": "F",
        "xyz": [1.8232744282702882, 4.612562631209494, 9.036755586236128]
      },
      {
        "species": [{ "element": "F", "occu": 1 }],
        "abc": [0.83545116, 0.74957978, 0.73209175],
        "properties": { "magmom": 0.007 },
        "label": "F",
        "xyz": [4.3244458825623795, 4.318833138997766, 7.845009007290527]
      },
      {
        "species": [{ "element": "F", "occu": 1 }],
        "abc": [0.66451553, 0.75042087, 0.23210723],
        "properties": { "magmom": 0.007 },
        "label": "F",
        "xyz": [3.434675041592449, 4.31958239531098, 2.487328499338418]
      },
      {
        "species": [{ "element": "F", "occu": 1 }],
        "abc": [0.16454884, 0.25042022, 0.26790825],
        "properties": { "magmom": 0.007 },
        "label": "F",
        "xyz": [0.84844152743762, 1.4402095710022347, 2.8708643627094736]
      },
      {
        "species": [{ "element": "F", "occu": 1 }],
        "abc": [0.33548447000000003, 0.24957913, 0.76789277],
        "properties": { "magmom": 0.007 },
        "label": "F",
        "xyz": [1.738212368407551, 1.4394603146890192, 8.228544870661581]
      },
      {
        "species": [{ "element": "F", "occu": 1 }],
        "abc": [0.68523446, 0.351397299999999, 0.40317231000000003],
        "properties": { "magmom": 0.075 },
        "label": "F",
        "xyz": [3.555344208095366, 2.031409128727877, 4.3203456667154985]
      },
      {
        "species": [{ "element": "F", "occu": 1 }],
        "abc": [0.81477214, 0.14859008, 0.9031597100000001],
        "properties": { "magmom": 0.075 },
        "label": "F",
        "xyz": [4.236128415675492, 0.8712804853370737, 9.67802396785776]
      }
    ]
  },
  "task_ids": null,
  "uncorrected_energy_per_atom": null,
  "energy_per_atom": -17.158890413636364,
  "formation_energy_per_atom": -1.089517318181818,
  "energy_above_hull": 0.0,
  "is_stable": true,
  "equilibrium_reaction_energy_per_atom": null,
  "decomposes_to": null,
  "xas": null,
  "grain_boundaries": null,
  "band_gap": 0.5426,
  "cbm": null,
  "vbm": null,
  "efermi": -1.44582837,
  "is_gap_direct": null,
  "is_metal": null,
  "es_source_calc_id": null,
  "bandstructure": null,
  "dos": null,
  "dos_energy_up": null,
  "dos_energy_down": null,
  "is_magnetic": null,
  "ordering": null,
  "total_magnetization": 2.0,
  "total_magnetization_normalized_vol": null,
  "total_magnetization_normalized_formula_units": null,
  "num_magnetic_sites": null,
  "num_unique_magnetic_sites": null,
  "types_of_magnetic_species": null,
  "bulk_modulus": null,
  "shear_modulus": null,
  "universal_anisotropy": null,
  "homogeneous_poisson": null,
  "e_total": null,
  "e_ionic": null,
  "e_electronic": null,
  "n": null,
  "e_ij_max": null,
  "weighted_surface_energy_EV_PER_ANG2": null,
  "weighted_surface_energy": null,
  "weighted_work_function": null,
  "surface_anisotropy": null,
  "shape_factor": null,
  "has_reconstructed": null,
  "possible_species": null,
  "has_props": null,
  "theoretical": null,
  "database_IDs": null,
  "fields_not_requested": [
    "builder_meta",
    "nsites",
    "elements",
    "nelements",
    "composition",
    "composition_reduced",
    "chemsys",
    "symmetry",
    "property_name",
    "deprecated",
    "deprecation_reasons",
    "last_updated",
    "origins",
    "warnings",
    "task_ids",
    "uncorrected_energy_per_atom",
    "equilibrium_reaction_energy_per_atom",
    "decomposes_to",
    "xas",
    "grain_boundaries",
    "cbm",
    "vbm",
    "is_gap_direct",
    "is_metal",
    "es_source_calc_id",
    "bandstructure",
    "dos",
    "dos_energy_up",
    "dos_energy_down",
    "is_magnetic",
    "ordering",
    "total_magnetization_normalized_vol",
    "total_magnetization_normalized_formula_units",
    "num_magnetic_sites",
    "num_unique_magnetic_sites",
    "types_of_magnetic_species",
    "bulk_modulus",
    "shear_modulus",
    "universal_anisotropy",
    "homogeneous_poisson",
    "e_total",
    "e_ionic",
    "e_electronic",
    "n",
    "e_ij_max",
    "weighted_surface_energy_EV_PER_ANG2",
    "weighted_surface_energy",
    "weighted_work_function",
    "surface_anisotropy",
    "shape_factor",
    "has_reconstructed",
    "possible_species",
    "has_props",
    "theoretical",
    "database_IDs"
  ]
}
