{"builder_meta": null, "nsites": null, "elements": null, "nelements": null, "composition": null, "composition_reduced": null, "formula_pretty": "Au3N", "formula_anonymous": "AB3", "chemsys": null, "volume": 142.42698198817467, "density": 14.105062207153113, "density_atomic": 17.803372748521834, "symmetry": null, "property_name": null, "material_id": "mp-971657", "deprecated": null, "deprecation_reasons": null, "last_updated": null, "origins": null, "warnings": null, "structure": {"@module": "pymatgen.core.structure", "@class": "Structure", "charge": 0, "lattice": {"matrix": [[2.745273, 0.0, 0.0], [0.636695999999999, 5.524512, 0.0], [0.789256, 2.234617, 9.391021]], "pbc": [true, true, true], "a": 2.745273, "b": 5.561080347788548, "c": 9.685438224090122, "alpha": 76.20009343075945, "beta": 85.32584537427725, "gamma": 83.42570804041884, "volume": 142.42698198817467}, "properties": {}, "sites": [{"species": [{"element": "Au", "occu": 1}], "abc": [0.728708999999999, 0.343423, 0.630311], "properties": {"magmom": -0.0}, "label": "Au", "xyz": [2.7166379315809968, 3.3057481604629997, 5.919263837531]}, {"species": [{"element": "Au", "occu": 1}], "abc": [0.226063, 0.44147000000000003, 0.13308], "properties": {"magmom": -0.0}, "label": "Au", "xyz": [1.0067210217989995, 2.736289143, 1.24975707468]}, {"species": [{"element": "Au", "occu": 1}], "abc": [0.736086, 0.139288, 0.372457999999999], "properties": {"magmom": 0.0}, "label": "Au", "xyz": [2.403405845173999, 1.6017992060419979, 3.4977608996179907]}, {"species": [{"element": "Au", "occu": 1}], "abc": [0.773937, 0.5585300000000001, 0.86692], "properties": {"magmom": -0.0}, "label": "Au", "xyz": [3.1645039782009996, 5.022839857, 8.14126392532]}, {"species": [{"element": "Au", "occu": 1}], "abc": [0.263914, 0.860711999999999, 0.627541999999999], "properties": {"magmom": 0.0}, "label": "Au", "xyz": [1.7678191548259976, 6.157329793957992, 5.893260100381991]}, {"species": [{"element": "Au", "occu": 1}], "abc": [0.271291, 0.656577, 0.369689], "properties": {"magmom": -0.0}, "label": "Au", "xyz": [1.4545870684189994, 4.453380839537, 3.471757162469]}, {"species": [{"element": "N", "occu": 1}], "abc": [0.5, 0.0, 0.0], "properties": {"magmom": -0.0}, "label": "N", "xyz": [1.3726365, 0.0, 0.0]}, {"species": [{"element": "N", "occu": 1}], "abc": [0.0, 0.0, 0.0], "properties": {"magmom": -0.0}, "label": "N", "xyz": [0.0, 0.0, 0.0]}]}, "task_ids": null, "uncorrected_energy_per_atom": null, "energy_per_atom": -39.5279266453125, "formation_energy_per_atom": 0.692981135000003, "energy_above_hull": 0.692981135000003, "is_stable": false, "equilibrium_reaction_energy_per_atom": null, "decomposes_to": null, "xas": null, "grain_boundaries": null, "band_gap": 0.0, "cbm": null, "vbm": null, "efermi": 3.52393874, "is_gap_direct": null, "is_metal": null, "es_source_calc_id": null, "bandstructure": null, "dos": null, "dos_energy_up": null, "dos_energy_down": null, "is_magnetic": null, "ordering": null, "total_magnetization": 0.00020539999999900002, "total_magnetization_normalized_vol": null, "total_magnetization_normalized_formula_units": null, "num_magnetic_sites": null, "num_unique_magnetic_sites": null, "types_of_magnetic_species": null, "bulk_modulus": null, "shear_modulus": null, "universal_anisotropy": null, "homogeneous_poisson": null, "e_total": null, "e_ionic": null, "e_electronic": null, "n": null, "e_ij_max": null, "weighted_surface_energy_EV_PER_ANG2": null, "weighted_surface_energy": null, "weighted_work_function": null, "surface_anisotropy": null, "shape_factor": null, "has_reconstructed": null, "possible_species": null, "has_props": null, "theoretical": null, "database_IDs": null, "fields_not_requested": ["builder_meta", "nsites", "elements", "nelements", "composition", "composition_reduced", "chemsys", "symmetry", "property_name", "deprecated", "deprecation_reasons", "last_updated", "origins", "warnings", "task_ids", "uncorrected_energy_per_atom", "equilibrium_reaction_energy_per_atom", "decomposes_to", "xas", "grain_boundaries", "cbm", "vbm", "is_gap_direct", "is_metal", "es_source_calc_id", "bandstructure", "dos", "dos_energy_up", "dos_energy_down", "is_magnetic", "ordering", "total_magnetization_normalized_vol", "total_magnetization_normalized_formula_units", "num_magnetic_sites", "num_unique_magnetic_sites", "types_of_magnetic_species", "bulk_modulus", "shear_modulus", "universal_anisotropy", "homogeneous_poisson", "e_total", "e_ionic", "e_electronic", "n", "e_ij_max", "weighted_surface_energy_EV_PER_ANG2", "weighted_surface_energy", "weighted_work_function", "surface_anisotropy", "shape_factor", "has_reconstructed", "possible_species", "has_props", "theoretical", "database_IDs"]}