{"builder_meta": null, "nsites": null, "elements": null, "nelements": null, "composition": null, "composition_reduced": null, "formula_pretty": "Au3O", "formula_anonymous": "AB3", "chemsys": null, "volume": 141.39351666694836, "density": 14.254963033870544, "density_atomic": 17.674189583368545, "symmetry": null, "property_name": null, "material_id": "mp-984358", "deprecated": null, "deprecation_reasons": null, "last_updated": null, "origins": null, "warnings": null, "structure": {"@module": "pymatgen.core.structure", "@class": "Structure", "charge": 0, "lattice": {"matrix": [[3.729116, -6.459019, 0.0], [3.729116, 6.459019, 0.0], [0.0, 0.0, 2.935127999999999]], "pbc": [true, true, true], "a": 7.458232537526367, "b": 7.458232537526367, "c": 2.935127999999999, "alpha": 90.0, "beta": 90.0, "gamma": 120.0000047682152, "volume": 141.3935166669483}, "properties": {}, "sites": [{"species": [{"element": "Au", "occu": 1}], "abc": [0.813333, 0.186667, 0.75], "properties": {"magmom": -0.0}, "label": "Au", "xyz": [3.729116, -4.047647600653999, 2.201345999999999]}, {"species": [{"element": "Au", "occu": 1}], "abc": [0.373332999999999, 0.186667, 0.75], "properties": {"magmom": -0.0}, "label": "Au", "xyz": [2.0883049599999963, -1.2056792406539936, 2.201345999999999]}, {"species": [{"element": "Au", "occu": 1}], "abc": [0.813333, 0.626667, 0.75], "properties": {"magmom": -0.0}, "label": "Au", "xyz": [5.36992704, -1.2056792406539998, 2.201345999999999]}, {"species": [{"element": "Au", "occu": 1}], "abc": [0.186667, 0.813333, 0.25], "properties": {"magmom": -0.0}, "label": "Au", "xyz": [3.729116, 4.047647600653999, 0.7337819999999997]}, {"species": [{"element": "Au", "occu": 1}], "abc": [0.626667, 0.813333, 0.25], "properties": {"magmom": -0.0}, "label": "Au", "xyz": [5.36992704, 1.2056792406539998, 0.7337819999999997]}, {"species": [{"element": "Au", "occu": 1}], "abc": [0.186667, 0.373332999999999, 0.25], "properties": {"magmom": -0.0}, "label": "Au", "xyz": [2.0883049599999963, 1.2056792406539936, 0.7337819999999997]}, {"species": [{"element": "O", "occu": 1}], "abc": [0.666667, 0.333333, 0.25], "properties": {"magmom": 0.0}, "label": "O", "xyz": [3.729116, -2.1530106393460002, 0.7337819999999997]}, {"species": [{"element": "O", "occu": 1}], "abc": [0.333333, 0.666667, 0.75], "properties": {"magmom": 0.0}, "label": "O", "xyz": [3.729116, 2.1530106393460002, 2.201345999999999]}]}, "task_ids": null, "uncorrected_energy_per_atom": null, "energy_per_atom": -3.4958658875, "formation_energy_per_atom": 0.196535863749999, "energy_above_hull": 0.387308111666666, "is_stable": false, "equilibrium_reaction_energy_per_atom": null, "decomposes_to": null, "xas": null, "grain_boundaries": null, "band_gap": 0.0, "cbm": null, "vbm": null, "efermi": 2.99694322, "is_gap_direct": null, "is_metal": null, "es_source_calc_id": null, "bandstructure": null, "dos": null, "dos_energy_up": null, "dos_energy_down": null, "is_magnetic": null, "ordering": null, "total_magnetization": 0.000120699999999, "total_magnetization_normalized_vol": null, "total_magnetization_normalized_formula_units": null, "num_magnetic_sites": null, "num_unique_magnetic_sites": null, "types_of_magnetic_species": null, "bulk_modulus": null, "shear_modulus": null, "universal_anisotropy": null, "homogeneous_poisson": null, "e_total": null, "e_ionic": null, "e_electronic": null, "n": null, "e_ij_max": null, "weighted_surface_energy_EV_PER_ANG2": null, "weighted_surface_energy": null, "weighted_work_function": null, "surface_anisotropy": null, "shape_factor": null, "has_reconstructed": null, "possible_species": null, "has_props": null, "theoretical": null, "database_IDs": null, "fields_not_requested": ["builder_meta", "nsites", "elements", "nelements", "composition", "composition_reduced", "chemsys", "symmetry", "property_name", "deprecated", "deprecation_reasons", "last_updated", "origins", "warnings", "task_ids", "uncorrected_energy_per_atom", "equilibrium_reaction_energy_per_atom", "decomposes_to", "xas", "grain_boundaries", "cbm", "vbm", "is_gap_direct", "is_metal", "es_source_calc_id", "bandstructure", "dos", "dos_energy_up", "dos_energy_down", "is_magnetic", "ordering", "total_magnetization_normalized_vol", "total_magnetization_normalized_formula_units", "num_magnetic_sites", "num_unique_magnetic_sites", "types_of_magnetic_species", "bulk_modulus", "shear_modulus", "universal_anisotropy", "homogeneous_poisson", "e_total", "e_ionic", "e_electronic", "n", "e_ij_max", "weighted_surface_energy_EV_PER_ANG2", "weighted_surface_energy", "weighted_work_function", "surface_anisotropy", "shape_factor", "has_reconstructed", "possible_species", "has_props", "theoretical", "database_IDs"]}