{
  "builder_meta": null,
  "nsites": null,
  "elements": null,
  "nelements": null,
  "composition": null,
  "composition_reduced": null,
  "formula_pretty": "AuBr2",
  "formula_anonymous": "AB2",
  "chemsys": null,
  "volume": 234.44813059266104,
  "density": 5.0538949344254,
  "density_atomic": 39.07468843211017,
  "symmetry": null,
  "property_name": null,
  "material_id": "mp-1214775",
  "deprecated": null,
  "deprecation_reasons": null,
  "last_updated": null,
  "origins": null,
  "warnings": null,
  "structure": {
    "@module": "pymatgen.core.structure",
    "@class": "Structure",
    "charge": 0,
    "lattice": {
      "matrix": [
        [4.653933, 0.0, 0.0],
        [0.0, 4.653933, 0.0],
        [0.0, 0.0, 10.824467]
      ],
      "pbc": [true, true, true],
      "a": 4.653933,
      "b": 4.653933,
      "c": 10.824467,
      "alpha": 90.0,
      "beta": 90.0,
      "gamma": 90.0,
      "volume": 234.44813059266104
    },
    "properties": {},
    "sites": [
      {
        "species": [{ "element": "Au", "occu": 1 }],
        "abc": [0.0, 0.0, 0.75],
        "properties": { "magmom": -0.0 },
        "label": "Au",
        "xyz": [0.0, 0.0, 8.11835025]
      },
      {
        "species": [{ "element": "Au", "occu": 1 }],
        "abc": [0.0, 0.0, 0.25],
        "properties": { "magmom": -0.0 },
        "label": "Au",
        "xyz": [0.0, 0.0, 2.70611675]
      },
      {
        "species": [{ "element": "Br", "occu": 1 }],
        "abc": [0.0, 0.5, 0.853768],
        "properties": { "magmom": -0.0 },
        "label": "Br",
        "xyz": [0.0, 2.3269665, 9.241583541656]
      },
      {
        "species": [{ "element": "Br", "occu": 1 }],
        "abc": [0.5, 0.0, 0.353767999999999],
        "properties": { "magmom": -0.0 },
        "label": "Br",
        "xyz": [2.3269665, 0.0, 3.8293500416559896]
      },
      {
        "species": [{ "element": "Br", "occu": 1 }],
        "abc": [0.5, 0.0, 0.646231999999999],
        "properties": { "magmom": -0.0 },
        "label": "Br",
        "xyz": [2.3269665, 0.0, 6.995116958343989]
      },
      {
        "species": [{ "element": "Br", "occu": 1 }],
        "abc": [0.0, 0.5, 0.146232],
        "properties": { "magmom": -0.0 },
        "label": "Br",
        "xyz": [0.0, 2.3269665, 1.5828834583440001]
      }
    ]
  },
  "task_ids": null,
  "uncorrected_energy_per_atom": null,
  "energy_per_atom": -2.5203232066666663,
  "formation_energy_per_atom": -0.337731516666666,
  "energy_above_hull": 0.167926322916666,
  "is_stable": false,
  "equilibrium_reaction_energy_per_atom": null,
  "decomposes_to": null,
  "xas": null,
  "grain_boundaries": null,
  "band_gap": 0.0,
  "cbm": null,
  "vbm": null,
  "efermi": -1.02417378,
  "is_gap_direct": null,
  "is_metal": null,
  "es_source_calc_id": null,
  "bandstructure": null,
  "dos": null,
  "dos_energy_up": null,
  "dos_energy_down": null,
  "is_magnetic": null,
  "ordering": null,
  "total_magnetization": 0.0022516,
  "total_magnetization_normalized_vol": null,
  "total_magnetization_normalized_formula_units": null,
  "num_magnetic_sites": null,
  "num_unique_magnetic_sites": null,
  "types_of_magnetic_species": null,
  "bulk_modulus": null,
  "shear_modulus": null,
  "universal_anisotropy": null,
  "homogeneous_poisson": null,
  "e_total": null,
  "e_ionic": null,
  "e_electronic": null,
  "n": null,
  "e_ij_max": null,
  "weighted_surface_energy_EV_PER_ANG2": null,
  "weighted_surface_energy": null,
  "weighted_work_function": null,
  "surface_anisotropy": null,
  "shape_factor": null,
  "has_reconstructed": null,
  "possible_species": null,
  "has_props": null,
  "theoretical": null,
  "database_IDs": null,
  "fields_not_requested": [
    "builder_meta",
    "nsites",
    "elements",
    "nelements",
    "composition",
    "composition_reduced",
    "chemsys",
    "symmetry",
    "property_name",
    "deprecated",
    "deprecation_reasons",
    "last_updated",
    "origins",
    "warnings",
    "task_ids",
    "uncorrected_energy_per_atom",
    "equilibrium_reaction_energy_per_atom",
    "decomposes_to",
    "xas",
    "grain_boundaries",
    "cbm",
    "vbm",
    "is_gap_direct",
    "is_metal",
    "es_source_calc_id",
    "bandstructure",
    "dos",
    "dos_energy_up",
    "dos_energy_down",
    "is_magnetic",
    "ordering",
    "total_magnetization_normalized_vol",
    "total_magnetization_normalized_formula_units",
    "num_magnetic_sites",
    "num_unique_magnetic_sites",
    "types_of_magnetic_species",
    "bulk_modulus",
    "shear_modulus",
    "universal_anisotropy",
    "homogeneous_poisson",
    "e_total",
    "e_ionic",
    "e_electronic",
    "n",
    "e_ij_max",
    "weighted_surface_energy_EV_PER_ANG2",
    "weighted_surface_energy",
    "weighted_work_function",
    "surface_anisotropy",
    "shape_factor",
    "has_reconstructed",
    "possible_species",
    "has_props",
    "theoretical",
    "database_IDs"
  ]
}
