{"builder_meta": null, "nsites": null, "elements": null, "nelements": null, "composition": null, "composition_reduced": null, "formula_pretty": "AuC", "formula_anonymous": "AB", "chemsys": null, "volume": 60.071217121781395, "density": 11.553450581911113, "density_atomic": 15.017804280445349, "symmetry": null, "property_name": null, "material_id": "mp-1183164", "deprecated": null, "deprecation_reasons": null, "last_updated": null, "origins": null, "warnings": null, "structure": {"@module": "pymatgen.core.structure", "@class": "Structure", "charge": 0, "lattice": {"matrix": [[1.719965, -2.979066, 0.0], [1.719965, 2.979066, 0.0], [0.0, 0.0, 5.861877]], "pbc": [true, true, true], "a": 3.439929335550514, "b": 3.439929335550514, "c": 5.861877, "alpha": 90.0, "beta": 90.0, "gamma": 119.99998722077657, "volume": 60.071217121781395}, "properties": {}, "sites": [{"species": [{"element": "Au", "occu": 1}], "abc": [0.666667, 0.333333, 0.504964], "properties": {"magmom": -0.0}, "label": "Au", "xyz": [1.719965, -0.9930239860440001, 2.960036857428]}, {"species": [{"element": "Au", "occu": 1}], "abc": [0.333333, 0.666667, 0.004964], "properties": {"magmom": -0.0}, "label": "Au", "xyz": [1.719965, 0.9930239860440001, 0.029098357428]}, {"species": [{"element": "C", "occu": 1}], "abc": [0.666667, 0.333333, 0.870035999999999], "properties": {"magmom": -0.0}, "label": "C", "xyz": [1.719965, -0.9930239860440001, 5.100044017571994]}, {"species": [{"element": "C", "occu": 1}], "abc": [0.333333, 0.666667, 0.370036], "properties": {"magmom": -0.0}, "label": "C", "xyz": [1.719965, 0.9930239860440001, 2.169105517572]}]}, "task_ids": null, "uncorrected_energy_per_atom": null, "energy_per_atom": -4.3736464675, "formation_energy_per_atom": 1.877627278749999, "energy_above_hull": 1.877627278749999, "is_stable": false, "equilibrium_reaction_energy_per_atom": null, "decomposes_to": null, "xas": null, "grain_boundaries": null, "band_gap": 0.0, "cbm": null, "vbm": null, "efermi": 4.6381600800000005, "is_gap_direct": null, "is_metal": null, "es_source_calc_id": null, "bandstructure": null, "dos": null, "dos_energy_up": null, "dos_energy_down": null, "is_magnetic": null, "ordering": null, "total_magnetization": 0.0005618, "total_magnetization_normalized_vol": null, "total_magnetization_normalized_formula_units": null, "num_magnetic_sites": null, "num_unique_magnetic_sites": null, "types_of_magnetic_species": null, "bulk_modulus": null, "shear_modulus": null, "universal_anisotropy": null, "homogeneous_poisson": null, "e_total": null, "e_ionic": null, "e_electronic": null, "n": null, "e_ij_max": null, "weighted_surface_energy_EV_PER_ANG2": null, "weighted_surface_energy": null, "weighted_work_function": null, "surface_anisotropy": null, "shape_factor": null, "has_reconstructed": null, "possible_species": null, "has_props": null, "theoretical": null, "database_IDs": null, "fields_not_requested": ["builder_meta", "nsites", "elements", "nelements", "composition", "composition_reduced", "chemsys", "symmetry", "property_name", "deprecated", "deprecation_reasons", "last_updated", "origins", "warnings", "task_ids", "uncorrected_energy_per_atom", "equilibrium_reaction_energy_per_atom", "decomposes_to", "xas", "grain_boundaries", "cbm", "vbm", "is_gap_direct", "is_metal", "es_source_calc_id", "bandstructure", "dos", "dos_energy_up", "dos_energy_down", "is_magnetic", "ordering", "total_magnetization_normalized_vol", "total_magnetization_normalized_formula_units", "num_magnetic_sites", "num_unique_magnetic_sites", "types_of_magnetic_species", "bulk_modulus", "shear_modulus", "universal_anisotropy", "homogeneous_poisson", "e_total", "e_ionic", "e_electronic", "n", "e_ij_max", "weighted_surface_energy_EV_PER_ANG2", "weighted_surface_energy", "weighted_work_function", "surface_anisotropy", "shape_factor", "has_reconstructed", "possible_species", "has_props", "theoretical", "database_IDs"]}