{
  "builder_meta": null,
  "nsites": null,
  "elements": null,
  "nelements": null,
  "composition": null,
  "composition_reduced": null,
  "formula_pretty": "AuCl",
  "formula_anonymous": "AB",
  "chemsys": null,
  "volume": 205.9167224305555,
  "density": 7.497045788439865,
  "density_atomic": 25.739590303819437,
  "symmetry": null,
  "property_name": null,
  "material_id": "mp-32780",
  "deprecated": null,
  "deprecation_reasons": null,
  "last_updated": null,
  "origins": null,
  "warnings": null,
  "structure": {
    "@module": "pymatgen.core.structure",
    "@class": "Structure",
    "charge": 0,
    "lattice": {
      "matrix": [
        [6.51828191, 0.05198573, 0.07720044],
        [-2.90924391, 5.83326604, -0.07720145],
        [-2.90924289, -2.26516996, 5.37605333]
      ],
      "pbc": [true, true, true],
      "a": 6.518946347554417,
      "b": 6.518945688159357,
      "c": 6.518944588482559,
      "alpha": 96.98049784193998,
      "beta": 116.05503938842512,
      "gamma": 116.05503047544342,
      "volume": 205.9167224305555
    },
    "properties": {},
    "sites": [
      {
        "species": [{ "element": "Au", "occu": 1 }],
        "abc": [0.0, -0.0, 0.5],
        "properties": { "magmom": -0.0 },
        "label": "Au",
        "xyz": [-1.454621445, -1.13258498, 2.688026665]
      },
      {
        "species": [{ "element": "Au", "occu": 1 }],
        "abc": [0.0, -0.0, -0.0],
        "properties": { "magmom": -0.0 },
        "label": "Au",
        "xyz": [0.0, 0.0, 0.0]
      },
      {
        "species": [{ "element": "Au", "occu": 1 }],
        "abc": [0.5, 0.5, -0.0],
        "properties": { "magmom": -0.0 },
        "label": "Au",
        "xyz": [1.804519, 2.942625885, -5.050000000048072e-7]
      },
      {
        "species": [{ "element": "Au", "occu": 1 }],
        "abc": [0.5, -0.0, -0.0],
        "properties": { "magmom": -0.0 },
        "label": "Au",
        "xyz": [3.259140955, 0.025992865, 0.03860022]
      },
      {
        "species": [{ "element": "Cl", "occu": 1 }],
        "abc": [0.25, 0.82303959, 0.57303959],
        "properties": { "magmom": 0.0 },
        "label": "Cl",
        "xyz": [-2.431963790292412, 3.5159732572638065, 3.0364516562859296]
      },
      {
        "species": [{ "element": "Cl", "occu": 1 }],
        "abc": [0.25, 0.42696041, 0.17696041],
        "properties": { "magmom": 0.0 },
        "label": "Cl",
        "xyz": [-0.12738230970758802, 2.102724687736193, 0.9376867487140709]
      },
      {
        "species": [{ "element": "Cl", "occu": 1 }],
        "abc": [0.75, 0.57303959, 0.82303959],
        "properties": { "magmom": 0.0 },
        "label": "Cl",
        "xyz": [0.8271774197075876, 1.5173571222638071, 4.43836557128593]
      },
      {
        "species": [{ "element": "Cl", "occu": 1 }],
        "abc": [0.75, 0.17696041, 0.42696041],
        "properties": { "magmom": 0.0 },
        "label": "Cl",
        "xyz": [3.1317589002924118, 0.10410855273619268, 2.339600663714071]
      }
    ]
  },
  "task_ids": null,
  "uncorrected_energy_per_atom": null,
  "energy_per_atom": -28.6329015475,
  "formation_energy_per_atom": -0.264202023750002,
  "energy_above_hull": 0.0,
  "is_stable": true,
  "equilibrium_reaction_energy_per_atom": null,
  "decomposes_to": null,
  "xas": null,
  "grain_boundaries": null,
  "band_gap": 1.674399999999999,
  "cbm": null,
  "vbm": null,
  "efermi": 0.79990707,
  "is_gap_direct": null,
  "is_metal": null,
  "es_source_calc_id": null,
  "bandstructure": null,
  "dos": null,
  "dos_energy_up": null,
  "dos_energy_down": null,
  "is_magnetic": null,
  "ordering": null,
  "total_magnetization": 0.0,
  "total_magnetization_normalized_vol": null,
  "total_magnetization_normalized_formula_units": null,
  "num_magnetic_sites": null,
  "num_unique_magnetic_sites": null,
  "types_of_magnetic_species": null,
  "bulk_modulus": null,
  "shear_modulus": null,
  "universal_anisotropy": null,
  "homogeneous_poisson": null,
  "e_total": null,
  "e_ionic": null,
  "e_electronic": null,
  "n": null,
  "e_ij_max": null,
  "weighted_surface_energy_EV_PER_ANG2": null,
  "weighted_surface_energy": null,
  "weighted_work_function": null,
  "surface_anisotropy": null,
  "shape_factor": null,
  "has_reconstructed": null,
  "possible_species": null,
  "has_props": null,
  "theoretical": null,
  "database_IDs": null,
  "fields_not_requested": [
    "builder_meta",
    "nsites",
    "elements",
    "nelements",
    "composition",
    "composition_reduced",
    "chemsys",
    "symmetry",
    "property_name",
    "deprecated",
    "deprecation_reasons",
    "last_updated",
    "origins",
    "warnings",
    "task_ids",
    "uncorrected_energy_per_atom",
    "equilibrium_reaction_energy_per_atom",
    "decomposes_to",
    "xas",
    "grain_boundaries",
    "cbm",
    "vbm",
    "is_gap_direct",
    "is_metal",
    "es_source_calc_id",
    "bandstructure",
    "dos",
    "dos_energy_up",
    "dos_energy_down",
    "is_magnetic",
    "ordering",
    "total_magnetization_normalized_vol",
    "total_magnetization_normalized_formula_units",
    "num_magnetic_sites",
    "num_unique_magnetic_sites",
    "types_of_magnetic_species",
    "bulk_modulus",
    "shear_modulus",
    "universal_anisotropy",
    "homogeneous_poisson",
    "e_total",
    "e_ionic",
    "e_electronic",
    "n",
    "e_ij_max",
    "weighted_surface_energy_EV_PER_ANG2",
    "weighted_surface_energy",
    "weighted_work_function",
    "surface_anisotropy",
    "shape_factor",
    "has_reconstructed",
    "possible_species",
    "has_props",
    "theoretical",
    "database_IDs"
  ]
}
