{
  "builder_meta": null,
  "nsites": null,
  "elements": null,
  "nelements": null,
  "composition": null,
  "composition_reduced": null,
  "formula_pretty": "AuCl3",
  "formula_anonymous": "AB3",
  "chemsys": null,
  "volume": 445.8713988311508,
  "density": 4.518647830236056,
  "density_atomic": 27.866962426946927,
  "symmetry": null,
  "property_name": null,
  "material_id": "mp-27647",
  "deprecated": null,
  "deprecation_reasons": null,
  "last_updated": null,
  "origins": null,
  "warnings": null,
  "structure": {
    "@module": "pymatgen.core.structure",
    "@class": "Structure",
    "charge": 0,
    "lattice": {
      "matrix": [
        [6.67175266, -0.0251366, 0.0],
        [-2.70985444, 6.0454673, 0.0],
        [0.0, 0.0, 11.07321838]
      ],
      "pbc": [true, true, true],
      "a": 6.6718000123562335,
      "b": 6.625027242310556,
      "c": 11.07321838,
      "alpha": 90.0,
      "beta": 90.0,
      "gamma": 114.35996818540687,
      "volume": 445.8713988311508
    },
    "properties": {},
    "sites": [
      {
        "species": [{ "element": "Au", "occu": 1 }],
        "abc": [0.72997028, 0.042670480000000004, 0.41294766],
        "properties": { "magmom": -0.0 },
        "label": "Au",
        "xyz": [4.754550367626013, 0.23961402057505604, 4.572659618689991]
      },
      {
        "species": [{ "element": "Au", "occu": 1 }],
        "abc": [0.77002972, 0.95732952, 0.91294766],
        "properties": { "magmom": -0.0 },
        "label": "Au",
        "xyz": [2.5432241823739865, 5.768148379424945, 10.109268808689992]
      },
      {
        "species": [{ "element": "Au", "occu": 1 }],
        "abc": [0.27002972000000003, 0.95732952, 0.5870523400000001],
        "properties": { "magmom": -0.0 },
        "label": "Au",
        "xyz": [-0.7926521476260133, 5.780716679424945, 6.5005587613100095]
      },
      {
        "species": [{ "element": "Au", "occu": 1 }],
        "abc": [0.22997028, 0.042670480000000004, 0.08705234],
        "properties": { "magmom": -0.0 },
        "label": "Au",
        "xyz": [1.4186740376260136, 0.2521823205750561, 0.9639495713100092]
      },
      {
        "species": [{ "element": "Cl", "occu": 1 }],
        "abc": [0.88008029, 0.81648394, 0.34027949],
        "properties": { "magmom": 0.0 },
        "label": "Cl",
        "xyz": [3.659125385823378, 4.913904734027549, 3.7679891030050263]
      },
      {
        "species": [{ "element": "Cl", "occu": 1 }],
        "abc": [0.61991971, 0.18351606, 0.84027949],
        "properties": { "magmom": 0.0 },
        "label": "Cl",
        "xyz": [3.6386491641766225, 1.093857665972452, 9.304598293005027]
      },
      {
        "species": [{ "element": "Cl", "occu": 1 }],
        "abc": [0.11991971, 0.18351606, 0.65972051],
        "properties": { "magmom": 0.0 },
        "label": "Cl",
        "xyz": [0.30277283417662215, 1.106425965972452, 7.305229276994973]
      },
      {
        "species": [{ "element": "Cl", "occu": 1 }],
        "abc": [0.38008029, 0.81648394, 0.15972051],
        "properties": { "magmom": 0.0 },
        "label": "Cl",
        "xyz": [0.3232490558233776, 4.926473034027548, 1.768620086994974]
      },
      {
        "species": [{ "element": "Cl", "occu": 1 }],
        "abc": [0.05958127, 0.25919868, 0.00450082],
        "properties": { "magmom": -0.0 },
        "label": "Cl",
        "xyz": [-0.304879197231461, 1.5654794735916822, 0.0498385627490716]
      },
      {
        "species": [{ "element": "Cl", "occu": 1 }],
        "abc": [0.44041873000000004, 0.74080132, 0.50450082],
        "properties": { "magmom": -0.0 },
        "label": "Cl",
        "xyz": [0.9309010872314616, 4.467419526408317, 5.586447752749071]
      },
      {
        "species": [{ "element": "Cl", "occu": 1 }],
        "abc": [0.94041873, 0.74080132, 0.99549918],
        "properties": { "magmom": -0.0 },
        "label": "Cl",
        "xyz": [4.266777417231461, 4.4548512264083175, 11.023379817250929]
      },
      {
        "species": [{ "element": "Cl", "occu": 1 }],
        "abc": [0.55958127, 0.25919868, 0.49549918],
        "properties": { "magmom": -0.0 },
        "label": "Cl",
        "xyz": [3.0309971327685394, 1.552911173591682, 5.4867706272509285]
      },
      {
        "species": [{ "element": "Cl", "occu": 1 }],
        "abc": [0.5023316800000001, 0.34140929000000003, 0.17018039000000001],
        "properties": { "magmom": 0.0 },
        "label": "Cl",
        "xyz": [2.4262632418785213, 2.0513517881037293, 1.8844446224635685]
      },
      {
        "species": [{ "element": "Cl", "occu": 1 }],
        "abc": [0.99766832, 0.65859071, 0.67018139],
        "properties": { "magmom": 0.0 },
        "label": "Cl",
        "xyz": [4.871511308121479, 3.9564106118962714, 7.4210648856819486]
      },
      {
        "species": [{ "element": "Cl", "occu": 1 }],
        "abc": [0.49766832, 0.65859071, 0.82981861],
        "properties": { "magmom": 0.0 },
        "label": "Cl",
        "xyz": [1.5356349781214786, 3.9689789118962713, 9.188762684318052]
      },
      {
        "species": [{ "element": "Cl", "occu": 1 }],
        "abc": [0.00233168, 0.34140929000000003, 0.32981961],
        "properties": { "magmom": 0.0 },
        "label": "Cl",
        "xyz": [-0.9096130881214789, 2.0639200881037296, 3.6521645675364316]
      }
    ]
  },
  "task_ids": null,
  "uncorrected_energy_per_atom": null,
  "energy_per_atom": -17.58379035375,
  "formation_energy_per_atom": -0.323221143125,
  "energy_above_hull": 0.0,
  "is_stable": true,
  "equilibrium_reaction_energy_per_atom": null,
  "decomposes_to": null,
  "xas": null,
  "grain_boundaries": null,
  "band_gap": 1.3606,
  "cbm": null,
  "vbm": null,
  "efermi": -1.60996121,
  "is_gap_direct": null,
  "is_metal": null,
  "es_source_calc_id": null,
  "bandstructure": null,
  "dos": null,
  "dos_energy_up": null,
  "dos_energy_down": null,
  "is_magnetic": null,
  "ordering": null,
  "total_magnetization": 0.0,
  "total_magnetization_normalized_vol": null,
  "total_magnetization_normalized_formula_units": null,
  "num_magnetic_sites": null,
  "num_unique_magnetic_sites": null,
  "types_of_magnetic_species": null,
  "bulk_modulus": null,
  "shear_modulus": null,
  "universal_anisotropy": null,
  "homogeneous_poisson": null,
  "e_total": null,
  "e_ionic": null,
  "e_electronic": null,
  "n": null,
  "e_ij_max": null,
  "weighted_surface_energy_EV_PER_ANG2": null,
  "weighted_surface_energy": null,
  "weighted_work_function": null,
  "surface_anisotropy": null,
  "shape_factor": null,
  "has_reconstructed": null,
  "possible_species": null,
  "has_props": null,
  "theoretical": null,
  "database_IDs": null,
  "fields_not_requested": [
    "builder_meta",
    "nsites",
    "elements",
    "nelements",
    "composition",
    "composition_reduced",
    "chemsys",
    "symmetry",
    "property_name",
    "deprecated",
    "deprecation_reasons",
    "last_updated",
    "origins",
    "warnings",
    "task_ids",
    "uncorrected_energy_per_atom",
    "equilibrium_reaction_energy_per_atom",
    "decomposes_to",
    "xas",
    "grain_boundaries",
    "cbm",
    "vbm",
    "is_gap_direct",
    "is_metal",
    "es_source_calc_id",
    "bandstructure",
    "dos",
    "dos_energy_up",
    "dos_energy_down",
    "is_magnetic",
    "ordering",
    "total_magnetization_normalized_vol",
    "total_magnetization_normalized_formula_units",
    "num_magnetic_sites",
    "num_unique_magnetic_sites",
    "types_of_magnetic_species",
    "bulk_modulus",
    "shear_modulus",
    "universal_anisotropy",
    "homogeneous_poisson",
    "e_total",
    "e_ionic",
    "e_electronic",
    "n",
    "e_ij_max",
    "weighted_surface_energy_EV_PER_ANG2",
    "weighted_surface_energy",
    "weighted_work_function",
    "surface_anisotropy",
    "shape_factor",
    "has_reconstructed",
    "possible_species",
    "has_props",
    "theoretical",
    "database_IDs"
  ]
}
