{"builder_meta": null, "nsites": null, "elements": null, "nelements": null, "composition": null, "composition_reduced": null, "formula_pretty": "AuCl2", "formula_anonymous": "AB2", "chemsys": null, "volume": 319.5461139984167, "density": 5.568058520620383, "density_atomic": 26.62884283320139, "symmetry": null, "property_name": null, "material_id": "mp-541656", "deprecated": null, "deprecation_reasons": null, "last_updated": null, "origins": null, "warnings": null, "structure": {"@module": "pymatgen.core.structure", "@class": "Structure", "charge": 0, "lattice": {"matrix": [[6.54853209, -0.06202708, 2.22408597], [0.4076261, 6.87555975, 0.26628908], [0.11525169, 0.05328716, 7.1332802]], "pbc": [true, true, true], "a": 6.916189579122592, "b": 6.892778161768193, "c": 7.134410198830787, "alpha": 87.3042330940357, "beta": 70.32073932501045, "gamma": 86.59049765649154, "volume": 319.54611399841673}, "properties": {}, "sites": [{"species": [{"element": "Au", "occu": 1}], "abc": [0.72910777, 0.52185917, 0.46311795], "properties": {"magmom": 0.0}, "label": "Au", "xyz": [5.040684173536511, 3.5675277187425176, 5.06411386314344]}, {"species": [{"element": "Au", "occu": 1}], "abc": [0.27089223, 0.47814083, 0.53688205], "properties": {"magmom": 0.0}, "label": "Au", "xyz": [2.0307257064634885, 3.2992921112574822, 4.5595413868565595]}, {"species": [{"element": "Au", "occu": 1}], "abc": [0.6243231, 0.24410427, 0.08516779000000001], "properties": {"magmom": 0.0}, "label": "Au", "xyz": [4.197718858182791, 1.6441669043981608, 2.061076259024037]}, {"species": [{"element": "Au", "occu": 1}], "abc": [0.3756769, 0.75589573, 0.91483221], "properties": {"magmom": 0.0}, "label": "Au", "xyz": [2.873691021817209, 5.222652925601839, 7.562578990975963]}, {"species": [{"element": "Cl", "occu": 1}], "abc": [0.82825945, 0.23753383, 0.29085979], "properties": {"magmom": -0.0}, "label": "Cl", "xyz": [5.554230658262258, 1.597302617812733, 3.980157268307651]}, {"species": [{"element": "Cl", "occu": 1}], "abc": [0.17174055, 0.76246617, 0.70914021], "properties": {"magmom": -0.0}, "label": "Cl", "xyz": [1.5171792217377413, 5.269517212187268, 5.64349798169235]}, {"species": [{"element": "Cl", "occu": 1}], "abc": [0.3309566, 0.1912538, 0.3709573], "properties": {"magmom": 0.0}, "label": "Cl", "xyz": [2.2879934118443113, 1.31421591880809, 3.4331470923228657]}, {"species": [{"element": "Cl", "occu": 1}], "abc": [0.6690434, 0.8087462, 0.6290427], "properties": {"magmom": 0.0}, "label": "Cl", "xyz": [4.783416468155689, 5.552603911191909, 6.190508157677133]}, {"species": [{"element": "Cl", "occu": 1}], "abc": [0.42511842, 0.25195384, 0.88476446], "properties": {"magmom": -0.0}, "label": "Cl", "xyz": [2.9885751758662593, 1.7531014122574597, 7.323865273948327]}, {"species": [{"element": "Cl", "occu": 1}], "abc": [0.57488158, 0.74804616, 0.11523554], "properties": {"magmom": -0.0}, "label": "Cl", "xyz": [4.082834704133742, 5.11371841774254, 2.2997899760516733]}, {"species": [{"element": "Cl", "occu": 1}], "abc": [0.91060041, 0.29671362, 0.81164369], "properties": {"magmom": 0.0}, "label": "Cl", "xyz": [6.177587528739975, 2.0268405256417124, 7.893947056382455]}, {"species": [{"element": "Cl", "occu": 1}], "abc": [0.08939959, 0.70328638, 0.18835631], "properties": {"magmom": 0.0}, "label": "Cl", "xyz": [0.8938223512600251, 4.8399793043582875, 1.7297081936175447]}]}, "task_ids": null, "uncorrected_energy_per_atom": null, "energy_per_atom": -21.2804825025, "formation_energy_per_atom": -0.31720318750000104, "energy_above_hull": 0.0, "is_stable": true, "equilibrium_reaction_energy_per_atom": null, "decomposes_to": null, "xas": null, "grain_boundaries": null, "band_gap": 0.897899999999999, "cbm": null, "vbm": null, "efermi": -0.44801177000000003, "is_gap_direct": null, "is_metal": null, "es_source_calc_id": null, "bandstructure": null, "dos": null, "dos_energy_up": null, "dos_energy_down": null, "is_magnetic": null, "ordering": null, "total_magnetization": 0.0, "total_magnetization_normalized_vol": null, "total_magnetization_normalized_formula_units": null, "num_magnetic_sites": null, "num_unique_magnetic_sites": null, "types_of_magnetic_species": null, "bulk_modulus": null, "shear_modulus": null, "universal_anisotropy": null, "homogeneous_poisson": null, "e_total": null, "e_ionic": null, "e_electronic": null, "n": null, "e_ij_max": null, "weighted_surface_energy_EV_PER_ANG2": null, "weighted_surface_energy": null, "weighted_work_function": null, "surface_anisotropy": null, "shape_factor": null, "has_reconstructed": null, "possible_species": null, "has_props": null, "theoretical": null, "database_IDs": null, "fields_not_requested": ["builder_meta", "nsites", "elements", "nelements", "composition", "composition_reduced", "chemsys", "symmetry", "property_name", "deprecated", "deprecation_reasons", "last_updated", "origins", "warnings", "task_ids", "uncorrected_energy_per_atom", "equilibrium_reaction_energy_per_atom", "decomposes_to", "xas", "grain_boundaries", "cbm", "vbm", "is_gap_direct", "is_metal", "es_source_calc_id", "bandstructure", "dos", "dos_energy_up", "dos_energy_down", "is_magnetic", "ordering", "total_magnetization_normalized_vol", "total_magnetization_normalized_formula_units", "num_magnetic_sites", "num_unique_magnetic_sites", "types_of_magnetic_species", "bulk_modulus", "shear_modulus", "universal_anisotropy", "homogeneous_poisson", "e_total", "e_ionic", "e_electronic", "n", "e_ij_max", "weighted_surface_energy_EV_PER_ANG2", "weighted_surface_energy", "weighted_work_function", "surface_anisotropy", "shape_factor", "has_reconstructed", "possible_species", "has_props", "theoretical", "database_IDs"]}