{"builder_meta": null, "nsites": null, "elements": null, "nelements": null, "composition": null, "composition_reduced": null, "formula_pretty": "AuCl4", "formula_anonymous": "AB4", "chemsys": null, "volume": 844.5237539937567, "density": 1.3322420976106781, "density_atomic": 84.45237539937567, "symmetry": null, "property_name": null, "material_id": "mp-1214857", "deprecated": null, "deprecation_reasons": null, "last_updated": null, "origins": null, "warnings": null, "structure": {"@module": "pymatgen.core.structure", "@class": "Structure", "charge": 0, "lattice": {"matrix": [[-4.978407, 4.978407, 8.518656], [4.978407, -4.978407, 8.518656], [4.978407, 4.978407, -8.518656]], "pbc": [true, true, true], "a": 11.05154163732979, "b": 11.05154163732979, "c": 11.05154163732979, "alpha": 126.45209356507728, "beta": 126.45209356507728, "gamma": 79.14635627916621, "volume": 844.5237539937567}, "properties": {}, "sites": [{"species": [{"element": "Au", "occu": 1}], "abc": [0.0, 0.0, 0.0], "properties": {"magmom": 0.031}, "label": "Au", "xyz": [0.0, 0.0, 0.0]}, {"species": [{"element": "Au", "occu": 1}], "abc": [0.75, 0.25, 0.5], "properties": {"magmom": 0.031}, "label": "Au", "xyz": [4.440892098500626e-16, 4.978406999999999, 4.259328]}, {"species": [{"element": "Cl", "occu": 1}], "abc": [0.515366, 0.246317999999999, 0.269048], "properties": {"magmom": 0.181}, "label": "Cl", "xyz": [-4.6629367034256575e-15, 2.678860893072005, 4.196596617215992]}, {"species": [{"element": "Cl", "occu": 1}], "abc": [0.9772700000000001, 0.246317999999999, 0.730951999999999], "properties": {"magmom": 0.181}, "label": "Cl", "xyz": [-1.021405182655144e-14, 7.277953106928001, 4.1965966172160005]}, {"species": [{"element": "Cl", "occu": 1}], "abc": [0.996317999999999, 0.22727000000000003, 0.230952], "properties": {"magmom": 0.19}, "label": "Cl", "xyz": [-2.6788608930719953, 4.978406999999995, 8.455924617215992]}, {"species": [{"element": "Cl", "occu": 1}], "abc": [0.77273, 0.003682, 0.769048], "properties": {"magmom": 0.181}, "label": "Cl", "xyz": [0.0, 7.6572678930719995, 0.06273138278400037]}, {"species": [{"element": "Cl", "occu": 1}], "abc": [0.234633999999999, 0.003682, 0.230952], "properties": {"magmom": 0.181}, "label": "Cl", "xyz": [4.6629367034256575e-15, 2.2995461069279948, 0.06273138278399193]}, {"species": [{"element": "Cl", "occu": 1}], "abc": [0.996317999999999, 0.765366, 0.769048], "properties": {"magmom": 0.19}, "label": "Cl", "xyz": [2.678860893072004, 4.978406999999995, 8.455924617215992]}, {"species": [{"element": "Cl", "occu": 1}], "abc": [0.753682, 0.02273, 0.269048], "properties": {"magmom": 0.19}, "label": "Cl", "xyz": [-2.299546106928, 4.978407, 4.3220593827839995]}, {"species": [{"element": "Cl", "occu": 1}], "abc": [0.753682, 0.484633999999999, 0.730951999999999], "properties": {"magmom": 0.19}, "label": "Cl", "xyz": [2.2995461069279903, 4.978407, 4.3220593827839995]}]}, "task_ids": null, "uncorrected_energy_per_atom": null, "energy_per_atom": -15.257345293999999, "formation_energy_per_atom": -0.21840214599999902, "energy_above_hull": 0.040174768500000006, "is_stable": false, "equilibrium_reaction_energy_per_atom": null, "decomposes_to": null, "xas": null, "grain_boundaries": null, "band_gap": 0.0019000000000000002, "cbm": null, "vbm": null, "efermi": -5.39366509, "is_gap_direct": null, "is_metal": null, "es_source_calc_id": null, "bandstructure": null, "dos": null, "dos_energy_up": null, "dos_energy_down": null, "is_magnetic": null, "ordering": null, "total_magnetization": 2.0050894, "total_magnetization_normalized_vol": null, "total_magnetization_normalized_formula_units": null, "num_magnetic_sites": null, "num_unique_magnetic_sites": null, "types_of_magnetic_species": null, "bulk_modulus": null, "shear_modulus": null, "universal_anisotropy": null, "homogeneous_poisson": null, "e_total": null, "e_ionic": null, "e_electronic": null, "n": null, "e_ij_max": null, "weighted_surface_energy_EV_PER_ANG2": null, "weighted_surface_energy": null, "weighted_work_function": null, "surface_anisotropy": null, "shape_factor": null, "has_reconstructed": null, "possible_species": null, "has_props": null, "theoretical": null, "database_IDs": null, "fields_not_requested": ["builder_meta", "nsites", "elements", "nelements", "composition", "composition_reduced", "chemsys", "symmetry", "property_name", "deprecated", "deprecation_reasons", "last_updated", "origins", "warnings", "task_ids", "uncorrected_energy_per_atom", "equilibrium_reaction_energy_per_atom", "decomposes_to", "xas", "grain_boundaries", "cbm", "vbm", "is_gap_direct", "is_metal", "es_source_calc_id", "bandstructure", "dos", "dos_energy_up", "dos_energy_down", "is_magnetic", "ordering", "total_magnetization_normalized_vol", "total_magnetization_normalized_formula_units", "num_magnetic_sites", "num_unique_magnetic_sites", "types_of_magnetic_species", "bulk_modulus", "shear_modulus", "universal_anisotropy", "homogeneous_poisson", "e_total", "e_ionic", "e_electronic", "n", "e_ij_max", "weighted_surface_energy_EV_PER_ANG2", "weighted_surface_energy", "weighted_work_function", "surface_anisotropy", "shape_factor", "has_reconstructed", "possible_species", "has_props", "theoretical", "database_IDs"]}