{
  "builder_meta": null,
  "nsites": null,
  "elements": null,
  "nelements": null,
  "composition": null,
  "composition_reduced": null,
  "formula_pretty": "AuF3",
  "formula_anonymous": "AB3",
  "chemsys": null,
  "volume": 365.9296798512416,
  "density": 6.914663849512653,
  "density_atomic": 15.247069993801732,
  "symmetry": null,
  "property_name": null,
  "material_id": "mp-942",
  "deprecated": null,
  "deprecation_reasons": null,
  "last_updated": null,
  "origins": null,
  "warnings": null,
  "structure": {
    "@module": "pymatgen.core.structure",
    "@class": "Structure",
    "charge": 0,
    "lattice": {
      "matrix": [
        [5.05649033, -1e-8, -0.0],
        [-2.52824418, 4.37904944, 0.0],
        [0.0, -0.0, 16.52603266]
      ],
      "pbc": [true, true, true],
      "a": 5.05649033,
      "b": 5.056490149468126,
      "c": 16.52603266,
      "alpha": 90.0,
      "beta": 90.0,
      "gamma": 119.99998840654958,
      "volume": 365.9296798512416
    },
    "properties": {},
    "sites": [
      {
        "species": [{ "element": "Au", "occu": 1 }],
        "abc": [0.76031704, 0.52063507, 0.75],
        "properties": { "magmom": -0.0 },
        "label": "Au",
        "xyz": [2.5282431748628307, 2.2798867041246904, 12.394524494999999]
      },
      {
        "species": [{ "element": "Au", "occu": 1 }],
        "abc": [0.23968296, 0.76031704, 0.916667],
        "properties": { "magmom": -0.0 },
        "label": "Au",
        "xyz": [-0.7103125618290507, 3.3294659058376284, 15.148868780344218]
      },
      {
        "species": [{ "element": "Au", "occu": 1 }],
        "abc": [0.52063507, 0.76031704, 0.583333],
        "properties": { "magmom": -0.0 },
        "label": "Au",
        "xyz": [0.7103190655790457, 3.329465903028107, 9.64018020965578]
      },
      {
        "species": [{ "element": "Au", "occu": 1 }],
        "abc": [0.47936493, 0.23968296, 0.083332999999999],
        "properties": { "magmom": -0.0 },
        "label": "Au",
        "xyz": [1.8179270844209539, 1.0495835269718932, 1.3771638796557635]
      },
      {
        "species": [{ "element": "Au", "occu": 1 }],
        "abc": [0.76031704, 0.23968296, 0.416666999999999],
        "properties": { "magmom": -0.0 },
        "label": "Au",
        "xyz": [3.23855871182905, 1.049583524162372, 6.885852450344203]
      },
      {
        "species": [{ "element": "Au", "occu": 1 }],
        "abc": [0.23968296, 0.47936493, 0.25],
        "properties": { "magmom": -0.0 },
        "label": "Au",
        "xyz": [2.975137169292097e-6, 2.09916272587531, 4.131508165]
      },
      {
        "species": [{ "element": "F", "occu": 1 }],
        "abc": [0.78460014, 0.4654452, 0.16268757],
        "properties": { "magmom": -0.0 },
        "label": "F",
        "xyz": [2.79056390281771, 2.038207534564687, 2.688580095196036]
      },
      {
        "species": [{ "element": "F", "occu": 1 }],
        "abc": [0.5345548, 0.31915394, 0.49602157],
        "properties": { "magmom": -0.0 },
        "label": "F",
        "xyz": [1.896072085726015, 1.3975908768852459, 8.197268665884476]
      },
      {
        "species": [{ "element": "F", "occu": 1 }],
        "abc": [0.68084606, 0.21539986, 0.82935457],
        "properties": { "magmom": -0.0 },
        "label": "F",
        "xyz": [2.898108076190785, 0.9432466295006179, 13.705940710540256]
      },
      {
        "species": [{ "element": "F", "occu": 1 }],
        "abc": [0.31915394, 0.78460014, 0.32935457],
        "properties": { "magmom": -0.0 },
        "label": "F",
        "xyz": [-0.36986192619078495, 3.435802800499382, 5.442924380540256]
      },
      {
        "species": [{ "element": "F", "occu": 1 }],
        "abc": [0.21539986, 0.68084606, 0.50397843],
        "properties": { "magmom": -0.0 },
        "label": "F",
        "xyz": [-0.6321777794975771, 2.981458555615208, 8.328763994115523]
      },
      {
        "species": [{ "element": "F", "occu": 1 }],
        "abc": [0.21539986, 0.5345548, 0.66268757],
        "properties": { "magmom": -0.0 },
        "label": "F",
        "xyz": [-0.2623177528177103, 2.340841895435313, 10.951596425196035]
      },
      {
        "species": [{ "element": "F", "occu": 1 }],
        "abc": [0.15494538, -0.0, -0.0],
        "properties": { "magmom": 0.0 },
        "label": "F",
        "xyz": [0.7834798156481754, -1.5494538e-9, 0.0]
      },
      {
        "species": [{ "element": "F", "occu": 1 }],
        "abc": [0.15494538, 0.15494538, 0.166666999999999],
        "properties": { "magmom": 0.0 },
        "label": "F",
        "xyz": [0.391740060445287, 0.6785134779701334, 2.7543442853442035]
      },
      {
        "species": [{ "element": "F", "occu": 1 }],
        "abc": [0.0, 0.84505462, 0.833333],
        "properties": { "magmom": 0.0 },
        "label": "F",
        "xyz": [-2.1365044247971117, 3.700535960480413, 13.77168837465578]
      },
      {
        "species": [{ "element": "F", "occu": 1 }],
        "abc": [-0.0, 0.15494538, 0.333333],
        "properties": { "magmom": 0.0 },
        "label": "F",
        "xyz": [-0.3917397552028884, 0.6785134795195872, 5.508672044655779]
      },
      {
        "species": [{ "element": "F", "occu": 1 }],
        "abc": [0.84505462, 0.84505462, 0.666667],
        "properties": { "magmom": 0.0 },
        "label": "F",
        "xyz": [2.1365060895547128, 3.700535952029867, 11.017360615344218]
      },
      {
        "species": [{ "element": "F", "occu": 1 }],
        "abc": [0.84505462, 0.0, 0.5],
        "properties": { "magmom": 0.0 },
        "label": "F",
        "xyz": [4.273010514351824, -8.4505462e-9, 8.26301633]
      },
      {
        "species": [{ "element": "F", "occu": 1 }],
        "abc": [0.78460014, 0.31915394, 0.00397843],
        "properties": { "magmom": -0.0 },
        "label": "F",
        "xyz": [3.160423929497577, 1.3975908743847925, 0.0657476641155238]
      },
      {
        "species": [{ "element": "F", "occu": 1 }],
        "abc": [0.4654452, 0.78460014, 0.17064543000000001],
        "properties": { "magmom": -0.0 },
        "label": "F",
        "xyz": [0.36985841536273045, 3.4358027990364697, 2.820091949459744]
      },
      {
        "species": [{ "element": "F", "occu": 1 }],
        "abc": [0.31915394, 0.5345548, 0.83731243],
        "properties": { "magmom": -0.0 },
        "label": "F",
        "xyz": [0.26231374940033625, 2.3408418943977725, 13.837452564803963]
      },
      {
        "species": [{ "element": "F", "occu": 1 }],
        "abc": [0.68084606, 0.4654452, 0.33731243],
        "properties": { "magmom": -0.0 },
        "label": "F",
        "xyz": [2.265932400599664, 2.038207535602228, 5.574436234803963]
      },
      {
        "species": [{ "element": "F", "occu": 1 }],
        "abc": [0.5345548, 0.21539986, 0.67064543],
        "properties": { "magmom": -0.0 },
        "label": "F",
        "xyz": [2.1583877346372695, 0.9432466309635305, 11.083108279459742]
      },
      {
        "species": [{ "element": "F", "occu": 1 }],
        "abc": [0.4654452, 0.68084606, 0.99602157],
        "properties": { "magmom": -0.0 },
        "label": "F",
        "xyz": [0.6321740642739848, 2.981458553114755, 16.460284995884475]
      }
    ]
  },
  "task_ids": null,
  "uncorrected_energy_per_atom": null,
  "energy_per_atom": -16.0927427425,
  "formation_energy_per_atom": -1.101981742499999,
  "energy_above_hull": 0.0,
  "is_stable": true,
  "equilibrium_reaction_energy_per_atom": null,
  "decomposes_to": null,
  "xas": null,
  "grain_boundaries": null,
  "band_gap": 1.5542,
  "cbm": null,
  "vbm": null,
  "efermi": -1.08446019,
  "is_gap_direct": null,
  "is_metal": null,
  "es_source_calc_id": null,
  "bandstructure": null,
  "dos": null,
  "dos_energy_up": null,
  "dos_energy_down": null,
  "is_magnetic": null,
  "ordering": null,
  "total_magnetization": 0.0,
  "total_magnetization_normalized_vol": null,
  "total_magnetization_normalized_formula_units": null,
  "num_magnetic_sites": null,
  "num_unique_magnetic_sites": null,
  "types_of_magnetic_species": null,
  "bulk_modulus": null,
  "shear_modulus": null,
  "universal_anisotropy": null,
  "homogeneous_poisson": null,
  "e_total": null,
  "e_ionic": null,
  "e_electronic": null,
  "n": null,
  "e_ij_max": null,
  "weighted_surface_energy_EV_PER_ANG2": null,
  "weighted_surface_energy": null,
  "weighted_work_function": null,
  "surface_anisotropy": null,
  "shape_factor": null,
  "has_reconstructed": null,
  "possible_species": null,
  "has_props": null,
  "theoretical": null,
  "database_IDs": null,
  "fields_not_requested": [
    "builder_meta",
    "nsites",
    "elements",
    "nelements",
    "composition",
    "composition_reduced",
    "chemsys",
    "symmetry",
    "property_name",
    "deprecated",
    "deprecation_reasons",
    "last_updated",
    "origins",
    "warnings",
    "task_ids",
    "uncorrected_energy_per_atom",
    "equilibrium_reaction_energy_per_atom",
    "decomposes_to",
    "xas",
    "grain_boundaries",
    "cbm",
    "vbm",
    "is_gap_direct",
    "is_metal",
    "es_source_calc_id",
    "bandstructure",
    "dos",
    "dos_energy_up",
    "dos_energy_down",
    "is_magnetic",
    "ordering",
    "total_magnetization_normalized_vol",
    "total_magnetization_normalized_formula_units",
    "num_magnetic_sites",
    "num_unique_magnetic_sites",
    "types_of_magnetic_species",
    "bulk_modulus",
    "shear_modulus",
    "universal_anisotropy",
    "homogeneous_poisson",
    "e_total",
    "e_ionic",
    "e_electronic",
    "n",
    "e_ij_max",
    "weighted_surface_energy_EV_PER_ANG2",
    "weighted_surface_energy",
    "weighted_work_function",
    "surface_anisotropy",
    "shape_factor",
    "has_reconstructed",
    "possible_species",
    "has_props",
    "theoretical",
    "database_IDs"
  ]
}
