{"builder_meta": null, "nsites": null, "elements": null, "nelements": null, "composition": null, "composition_reduced": null, "formula_pretty": "AuF5", "formula_anonymous": "AB5", "chemsys": null, "volume": 654.3267442146367, "density": 5.927419479742083, "density_atomic": 13.631807171138265, "symmetry": null, "property_name": null, "material_id": "mp-30103", "deprecated": null, "deprecation_reasons": null, "last_updated": null, "origins": null, "warnings": null, "structure": {"@module": "pymatgen.core.structure", "@class": "Structure", "charge": 0, "lattice": {"matrix": [[4.7701576, 0.0, 0.0], [-0.0, 9.21144862, 0.0], [0.0, 0.0, 14.89134789]], "pbc": [true, true, true], "a": 4.7701576, "b": 9.21144862, "c": 14.89134789, "alpha": 90.0, "beta": 90.0, "gamma": 90.0, "volume": 654.3267442146367}, "properties": {}, "sites": [{"species": [{"element": "Au", "occu": 1}], "abc": [0.07182857000000001, 0.12922057, 0.14402464], "properties": {"magmom": -0.0}, "label": "Au", "xyz": [0.342633599082632, 1.1903086412021135, 2.14472101897201]}, {"species": [{"element": "Au", "occu": 1}], "abc": [0.57182857, 0.37077943, 0.85597536], "properties": {"magmom": -0.0}, "label": "Au", "xyz": [2.727712399082632, 3.415415668797887, 12.74662687102799]}, {"species": [{"element": "Au", "occu": 1}], "abc": [0.42817143, 0.62922057, 0.35597536], "properties": {"magmom": -0.0}, "label": "Au", "xyz": [2.042445200917368, 5.796032951202114, 5.300952926027991]}, {"species": [{"element": "Au", "occu": 1}], "abc": [0.92817143, 0.87077943, 0.64402464], "properties": {"magmom": -0.0}, "label": "Au", "xyz": [4.427524000917368, 8.021139978797887, 9.59039496397201]}, {"species": [{"element": "Au", "occu": 1}], "abc": [0.92817143, 0.87077943, 0.85597536], "properties": {"magmom": -0.0}, "label": "Au", "xyz": [4.427524000917368, 8.021139978797887, 12.74662687102799]}, {"species": [{"element": "Au", "occu": 1}], "abc": [0.42817143, 0.62922057, 0.14402464], "properties": {"magmom": -0.0}, "label": "Au", "xyz": [2.042445200917368, 5.796032951202114, 2.14472101897201]}, {"species": [{"element": "Au", "occu": 1}], "abc": [0.57182857, 0.37077943, 0.64402464], "properties": {"magmom": -0.0}, "label": "Au", "xyz": [2.727712399082632, 3.415415668797887, 9.59039496397201]}, {"species": [{"element": "Au", "occu": 1}], "abc": [0.07182857000000001, 0.12922057, 0.35597536], "properties": {"magmom": -0.0}, "label": "Au", "xyz": [0.342633599082632, 1.1903086412021135, 5.300952926027991]}, {"species": [{"element": "F", "occu": 1}], "abc": [0.25161133, 0.024563770000000002, 0.05240385], "properties": {"magmom": -0.0}, "label": "F", "xyz": [1.200225698045608, 0.22626790526849744, 0.7803639611253765]}, {"species": [{"element": "F", "occu": 1}], "abc": [0.75161133, 0.47543623, 0.94759615], "properties": {"magmom": -0.0}, "label": "F", "xyz": [3.585304498045608, 4.379456404731503, 14.110983928874624]}, {"species": [{"element": "F", "occu": 1}], "abc": [0.24838867, 0.52456377, 0.44759615], "properties": {"magmom": -0.0}, "label": "F", "xyz": [1.184853101954392, 4.831992215268498, 6.665309983874624]}, {"species": [{"element": "F", "occu": 1}], "abc": [0.74838867, 0.97543623, 0.55240385], "properties": {"magmom": -0.0}, "label": "F", "xyz": [3.569931901954392, 8.985180714731504, 8.226037906125377]}, {"species": [{"element": "F", "occu": 1}], "abc": [0.74838867, 0.97543623, 0.94759615], "properties": {"magmom": -0.0}, "label": "F", "xyz": [3.569931901954392, 8.985180714731504, 14.110983928874624]}, {"species": [{"element": "F", "occu": 1}], "abc": [0.24838867, 0.52456377, 0.05240385], "properties": {"magmom": -0.0}, "label": "F", "xyz": [1.184853101954392, 4.831992215268498, 0.7803639611253765]}, {"species": [{"element": "F", "occu": 1}], "abc": [0.75161133, 0.47543623, 0.55240385], "properties": {"magmom": -0.0}, "label": "F", "xyz": [3.585304498045608, 4.379456404731503, 8.226037906125377]}, {"species": [{"element": "F", "occu": 1}], "abc": [0.25161133, 0.024563770000000002, 0.44759615], "properties": {"magmom": -0.0}, "label": "F", "xyz": [1.200225698045608, 0.22626790526849744, 6.665309983874624]}, {"species": [{"element": "F", "occu": 1}], "abc": [0.37922843, 0.2624757, 0.35127537000000003], "properties": {"magmom": 0.0}, "label": "F", "xyz": [1.808979377500568, 2.417781424548534, 5.23096373985847]}, {"species": [{"element": "F", "occu": 1}], "abc": [0.87922943, 0.2375243, 0.64872463], "properties": {"magmom": 0.0}, "label": "F", "xyz": [4.194062947658168, 2.187942885451466, 9.660384150141532]}, {"species": [{"element": "F", "occu": 1}], "abc": [0.12077057000000001, 0.7624757, 0.14872463], "properties": {"magmom": 0.0}, "label": "F", "xyz": [0.5760946523418321, 7.023505734548534, 2.2147102051415306]}, {"species": [{"element": "F", "occu": 1}], "abc": [0.62077057, 0.7375243, 0.85127537], "properties": {"magmom": 0.0}, "label": "F", "xyz": [2.961173452341832, 6.793667195451467, 12.67663768485847]}, {"species": [{"element": "F", "occu": 1}], "abc": [0.62077057, 0.7375243, 0.64872463], "properties": {"magmom": 0.0}, "label": "F", "xyz": [2.961173452341832, 6.793667195451467, 9.660384150141532]}, {"species": [{"element": "F", "occu": 1}], "abc": [0.12077057000000001, 0.7624757, 0.35127537000000003], "properties": {"magmom": 0.0}, "label": "F", "xyz": [0.5760946523418321, 7.023505734548534, 5.23096373985847]}, {"species": [{"element": "F", "occu": 1}], "abc": [0.87922943, 0.2375243, 0.85127537], "properties": {"magmom": 0.0}, "label": "F", "xyz": [4.194062947658168, 2.187942885451466, 12.67663768485847]}, {"species": [{"element": "F", "occu": 1}], "abc": [0.37922843, 0.2624757, 0.14872463], "properties": {"magmom": 0.0}, "label": "F", "xyz": [1.808979377500568, 2.417781424548534, 2.2147102051415306]}, {"species": [{"element": "F", "occu": 1}], "abc": [0.89501377, 0.23504086000000002, 0.25], "properties": {"magmom": 0.0}, "label": "F", "xyz": [4.269356737070153, 2.1650668054906137, 3.7228369725]}, {"species": [{"element": "F", "occu": 1}], "abc": [0.39501377, 0.26495914, 0.75], "properties": {"magmom": 0.0}, "label": "F", "xyz": [1.884277937070152, 2.4406575045093866, 11.1685109175]}, {"species": [{"element": "F", "occu": 1}], "abc": [0.60498623, 0.73504086, 0.25], "properties": {"magmom": 0.0}, "label": "F", "xyz": [2.885879662929848, 6.7707911154906135, 3.7228369725]}, {"species": [{"element": "F", "occu": 1}], "abc": [0.10498623, 0.76495914, 0.75], "properties": {"magmom": 0.0}, "label": "F", "xyz": [0.500800862929848, 7.046381814509387, 11.1685109175]}, {"species": [{"element": "F", "occu": 1}], "abc": [0.24215971, 0.020253010000000002, 0.25], "properties": {"magmom": -0.0}, "label": "F", "xyz": [1.155139981070296, 0.18655956101534624, 3.7228369725]}, {"species": [{"element": "F", "occu": 1}], "abc": [0.74215971, 0.47974699, 0.75], "properties": {"magmom": -0.0}, "label": "F", "xyz": [3.5402187810702963, 4.419164748984654, 11.1685109175]}, {"species": [{"element": "F", "occu": 1}], "abc": [0.25784029, 0.52025301, 0.25], "properties": {"magmom": -0.0}, "label": "F", "xyz": [1.2299388189297042, 4.792283871015346, 3.7228369725]}, {"species": [{"element": "F", "occu": 1}], "abc": [0.75784029, 0.97974699, 0.75], "properties": {"magmom": -0.0}, "label": "F", "xyz": [3.615017618929704, 9.024889058984654, 11.1685109175]}, {"species": [{"element": "F", "occu": 1}], "abc": [0.7621085, -0.00283735, 0.35529341000000003], "properties": {"magmom": -0.0}, "label": "F", "xyz": [3.6353776532996, -0.026136103741957004, 5.290797771334406]}, {"species": [{"element": "F", "occu": 1}], "abc": [0.2621095, 0.50283735, 0.64470659], "properties": {"magmom": -0.0}, "label": "F", "xyz": [1.2503036234572, 4.631860413741957, 9.600550118665595]}, {"species": [{"element": "F", "occu": 1}], "abc": [0.737891499999999, 0.49716265, 0.14470659], "properties": {"magmom": -0.0}, "label": "F", "xyz": [3.5198587467003954, 4.579588206258043, 2.154876173665595]}, {"species": [{"element": "F", "occu": 1}], "abc": [0.237890499999999, 0.00283735, 0.85529341], "properties": {"magmom": -0.0}, "label": "F", "xyz": [1.1347751765427954, 0.026136103741957004, 12.736471716334405]}, {"species": [{"element": "F", "occu": 1}], "abc": [0.237890499999999, 0.00283735, 0.64470659], "properties": {"magmom": -0.0}, "label": "F", "xyz": [1.1347751765427954, 0.026136103741957004, 9.600550118665595]}, {"species": [{"element": "F", "occu": 1}], "abc": [0.737891499999999, 0.49716265, 0.35529341000000003], "properties": {"magmom": -0.0}, "label": "F", "xyz": [3.5198587467003954, 4.579588206258043, 5.290797771334406]}, {"species": [{"element": "F", "occu": 1}], "abc": [0.2621095, 0.50283735, 0.85529341], "properties": {"magmom": -0.0}, "label": "F", "xyz": [1.2503036234572, 4.631860413741957, 12.736471716334405]}, {"species": [{"element": "F", "occu": 1}], "abc": [0.7621085, -0.00283735, 0.14470659], "properties": {"magmom": -0.0}, "label": "F", "xyz": [3.6353776532996, -0.026136103741957004, 2.154876173665595]}, {"species": [{"element": "F", "occu": 1}], "abc": [0.9023827400000001, 0.24010949999999903, 0.44667491000000004], "properties": {"magmom": 0.0}, "label": "F", "xyz": [4.304507885319825, 2.211756322423881, 6.65159147854444]}, {"species": [{"element": "F", "occu": 1}], "abc": [0.40238274, 0.259890499999999, 0.55332509], "properties": {"magmom": 0.0}, "label": "F", "xyz": [1.9194290853198241, 2.3939679875761013, 8.23975641145556]}, {"species": [{"element": "F", "occu": 1}], "abc": [0.59761726, 0.7401095, 0.05332509], "properties": {"magmom": 0.0}, "label": "F", "xyz": [2.8507285146801764, 6.81748063242389, 0.7940824664555601]}, {"species": [{"element": "F", "occu": 1}], "abc": [0.09761726, 0.759890499999999, 0.94667491], "properties": {"magmom": 0.0}, "label": "F", "xyz": [0.465649714680176, 6.999692297576101, 14.09726542354444]}, {"species": [{"element": "F", "occu": 1}], "abc": [0.09761726, 0.759890499999999, 0.55332509], "properties": {"magmom": 0.0}, "label": "F", "xyz": [0.465649714680176, 6.999692297576101, 8.23975641145556]}, {"species": [{"element": "F", "occu": 1}], "abc": [0.59761726, 0.7401095, 0.44667491000000004], "properties": {"magmom": 0.0}, "label": "F", "xyz": [2.8507285146801764, 6.81748063242389, 6.65159147854444]}, {"species": [{"element": "F", "occu": 1}], "abc": [0.40238274, 0.259890499999999, 0.94667491], "properties": {"magmom": 0.0}, "label": "F", "xyz": [1.9194290853198241, 2.3939679875761013, 14.09726542354444]}, {"species": [{"element": "F", "occu": 1}], "abc": [0.9023827400000001, 0.24010949999999903, 0.05332509], "properties": {"magmom": 0.0}, "label": "F", "xyz": [4.304507885319825, 2.211756322423881, 0.7940824664555601]}]}, "task_ids": null, "uncorrected_energy_per_atom": null, "energy_per_atom": -11.900904966874998, "formation_energy_per_atom": -0.8650549835416661, "energy_above_hull": 0.0, "is_stable": true, "equilibrium_reaction_energy_per_atom": null, "decomposes_to": null, "xas": null, "grain_boundaries": null, "band_gap": 0.7042, "cbm": null, "vbm": null, "efermi": -3.14238685, "is_gap_direct": null, "is_metal": null, "es_source_calc_id": null, "bandstructure": null, "dos": null, "dos_energy_up": null, "dos_energy_down": null, "is_magnetic": null, "ordering": null, "total_magnetization": 0.0, "total_magnetization_normalized_vol": null, "total_magnetization_normalized_formula_units": null, "num_magnetic_sites": null, "num_unique_magnetic_sites": null, "types_of_magnetic_species": null, "bulk_modulus": null, "shear_modulus": null, "universal_anisotropy": null, "homogeneous_poisson": null, "e_total": null, "e_ionic": null, "e_electronic": null, "n": null, "e_ij_max": null, "weighted_surface_energy_EV_PER_ANG2": null, "weighted_surface_energy": null, "weighted_work_function": null, "surface_anisotropy": null, "shape_factor": null, "has_reconstructed": null, "possible_species": null, "has_props": null, "theoretical": null, "database_IDs": null, "fields_not_requested": ["builder_meta", "nsites", "elements", "nelements", "composition", "composition_reduced", "chemsys", "symmetry", "property_name", "deprecated", "deprecation_reasons", "last_updated", "origins", "warnings", "task_ids", "uncorrected_energy_per_atom", "equilibrium_reaction_energy_per_atom", "decomposes_to", "xas", "grain_boundaries", "cbm", "vbm", "is_gap_direct", "is_metal", "es_source_calc_id", "bandstructure", "dos", "dos_energy_up", "dos_energy_down", "is_magnetic", "ordering", "total_magnetization_normalized_vol", "total_magnetization_normalized_formula_units", "num_magnetic_sites", "num_unique_magnetic_sites", "types_of_magnetic_species", "bulk_modulus", "shear_modulus", "universal_anisotropy", "homogeneous_poisson", "e_total", "e_ionic", "e_electronic", "n", "e_ij_max", "weighted_surface_energy_EV_PER_ANG2", "weighted_surface_energy", "weighted_work_function", "surface_anisotropy", "shape_factor", "has_reconstructed", "possible_species", "has_props", "theoretical", "database_IDs"]}