{"builder_meta": null, "nsites": null, "elements": null, "nelements": null, "composition": null, "composition_reduced": null, "formula_pretty": "AuN2", "formula_anonymous": "AB2", "chemsys": null, "volume": 91.86040503712188, "density": 8.133820606952158, "density_atomic": 15.31006750618698, "symmetry": null, "property_name": null, "material_id": "mp-1018648", "deprecated": null, "deprecation_reasons": null, "last_updated": null, "origins": null, "warnings": null, "structure": {"@module": "pymatgen.core.structure", "@class": "Structure", "charge": 0, "lattice": {"matrix": [[2.947943, 0.0, 0.0], [0.0, 5.05298, 0.0], [0.0, 0.0, 6.166826]], "pbc": [true, true, true], "a": 2.947943, "b": 5.05298, "c": 6.166826, "alpha": 90.0, "beta": 90.0, "gamma": 90.0, "volume": 91.86040503712188}, "properties": {}, "sites": [{"species": [{"element": "Au", "occu": 1}], "abc": [0.5, 0.5, 0.5], "properties": {"magmom": 0.0}, "label": "Au", "xyz": [1.4739715, 2.52649, 3.083413]}, {"species": [{"element": "Au", "occu": 1}], "abc": [0.0, 0.0, 0.0], "properties": {"magmom": 0.0}, "label": "Au", "xyz": [0.0, 0.0, 0.0]}, {"species": [{"element": "N", "occu": 1}], "abc": [0.5, 0.082515999999999, 0.566221], "properties": {"magmom": 0.0}, "label": "N", "xyz": [1.4739715, 0.41695169767999496, 3.491786384546]}, {"species": [{"element": "N", "occu": 1}], "abc": [0.5, 0.917484, 0.433778999999999], "properties": {"magmom": 0.0}, "label": "N", "xyz": [1.4739715, 4.63602830232, 2.675039615453994]}, {"species": [{"element": "N", "occu": 1}], "abc": [0.0, 0.417483999999999, 0.066221], "properties": {"magmom": 0.0}, "label": "N", "xyz": [0.0, 2.109538302319995, 0.40837338454600003]}, {"species": [{"element": "N", "occu": 1}], "abc": [0.0, 0.582515999999999, 0.933778999999999], "properties": {"magmom": 0.0}, "label": "N", "xyz": [0.0, 2.943441697679995, 5.758452615453995]}]}, "task_ids": null, "uncorrected_energy_per_atom": null, "energy_per_atom": -22.5168070125, "formation_energy_per_atom": 0.430680151666668, "energy_above_hull": 0.43068015166667, "is_stable": false, "equilibrium_reaction_energy_per_atom": null, "decomposes_to": null, "xas": null, "grain_boundaries": null, "band_gap": 0.0, "cbm": null, "vbm": null, "efermi": 3.17685377, "is_gap_direct": null, "is_metal": null, "es_source_calc_id": null, "bandstructure": null, "dos": null, "dos_energy_up": null, "dos_energy_down": null, "is_magnetic": null, "ordering": null, "total_magnetization": 0.0102286, "total_magnetization_normalized_vol": null, "total_magnetization_normalized_formula_units": null, "num_magnetic_sites": null, "num_unique_magnetic_sites": null, "types_of_magnetic_species": null, "bulk_modulus": null, "shear_modulus": null, "universal_anisotropy": null, "homogeneous_poisson": null, "e_total": null, "e_ionic": null, "e_electronic": null, "n": null, "e_ij_max": null, "weighted_surface_energy_EV_PER_ANG2": null, "weighted_surface_energy": null, "weighted_work_function": null, "surface_anisotropy": null, "shape_factor": null, "has_reconstructed": null, "possible_species": null, "has_props": null, "theoretical": null, "database_IDs": null, "fields_not_requested": ["builder_meta", "nsites", "elements", "nelements", "composition", "composition_reduced", "chemsys", "symmetry", "property_name", "deprecated", "deprecation_reasons", "last_updated", "origins", "warnings", "task_ids", "uncorrected_energy_per_atom", "equilibrium_reaction_energy_per_atom", "decomposes_to", "xas", "grain_boundaries", "cbm", "vbm", "is_gap_direct", "is_metal", "es_source_calc_id", "bandstructure", "dos", "dos_energy_up", "dos_energy_down", "is_magnetic", "ordering", "total_magnetization_normalized_vol", "total_magnetization_normalized_formula_units", "num_magnetic_sites", "num_unique_magnetic_sites", "types_of_magnetic_species", "bulk_modulus", "shear_modulus", "universal_anisotropy", "homogeneous_poisson", "e_total", "e_ionic", "e_electronic", "n", "e_ij_max", "weighted_surface_energy_EV_PER_ANG2", "weighted_surface_energy", "weighted_work_function", "surface_anisotropy", "shape_factor", "has_reconstructed", "possible_species", "has_props", "theoretical", "database_IDs"]}