{
  "builder_meta": null,
  "nsites": null,
  "elements": null,
  "nelements": null,
  "composition": null,
  "composition_reduced": null,
  "formula_pretty": "B2H5",
  "formula_anonymous": "A2B5",
  "chemsys": null,
  "volume": 491.9534673356495,
  "density": 0.7199509282330201,
  "density_atomic": 8.784883345279455,
  "symmetry": null,
  "property_name": null,
  "material_id": "mp-27990",
  "deprecated": null,
  "deprecation_reasons": null,
  "last_updated": null,
  "origins": null,
  "warnings": null,
  "structure": {
    "@module": "pymatgen.core.structure",
    "@class": "Structure",
    "charge": 0,
    "lattice": {
      "matrix": [
        [5.79889916, -0.02830258, 0.0],
        [-2.42738785, 8.42130152, 0.0],
        [0.0, 0.0, 10.08812974]
      ],
      "pbc": [true, true, true],
      "a": 5.7989682275283565,
      "b": 8.764161743434562,
      "c": 10.08812974,
      "alpha": 90.0,
      "beta": 90.0,
      "gamma": 106.35893812641484,
      "volume": 491.9534673356495
    },
    "properties": {},
    "sites": [
      {
        "species": [{ "element": "B", "occu": 1 }],
        "abc": [0.17525578, 0.27824289, 0.41349946],
        "properties": { "magmom": -0.0 },
        "label": "B",
        "xyz": [0.3408871848922582, 2.3382070817522806, 4.17143619989994]
      },
      {
        "species": [{ "element": "B", "occu": 1 }],
        "abc": [0.32474422000000003, 0.22175711, 0.91349946],
        "properties": { "magmom": -0.0 },
        "label": "B",
        "xyz": [1.344868470107742, 1.8582923882477198, 9.21550106989994]
      },
      {
        "species": [{ "element": "B", "occu": 1 }],
        "abc": [0.82474422, 0.72175711, 0.58650054],
        "properties": { "magmom": -0.0 },
        "label": "B",
        "xyz": [3.0306241251077424, 6.05479185824772, 5.916693540100058]
      },
      {
        "species": [{ "element": "B", "occu": 1 }],
        "abc": [0.67525578, 0.77824289, 0.08650054],
        "properties": { "magmom": -0.0 },
        "label": "B",
        "xyz": [2.0266428398922582, 6.53470655175228, 0.8726286701000595]
      },
      {
        "species": [{ "element": "B", "occu": 1 }],
        "abc": [0.17520389, 0.11714376, 0.29726159],
        "properties": { "magmom": 0.0 },
        "label": "B",
        "xyz": [0.7316363508224165, 0.981544202033479, 2.9988134866386864]
      },
      {
        "species": [{ "element": "B", "occu": 1 }],
        "abc": [0.32479611, 0.38285624, 0.79726159],
        "properties": { "magmom": 0.0 },
        "label": "B",
        "xyz": [0.9541193041775838, 3.214955267966521, 8.042878356638687]
      },
      {
        "species": [{ "element": "B", "occu": 1 }],
        "abc": [0.82479611, 0.8828562400000001, 0.70273841],
        "properties": { "magmom": 0.0 },
        "label": "B",
        "xyz": [2.639874959177584, 7.411454737966522, 7.089316253361313]
      },
      {
        "species": [{ "element": "B", "occu": 1 }],
        "abc": [0.67520389, 0.61714376, 0.20273841],
        "properties": { "magmom": 0.0 },
        "label": "B",
        "xyz": [2.4173920058224168, 5.178043672033479, 2.0452513833613133]
      },
      {
        "species": [{ "element": "B", "occu": 1 }],
        "abc": [0.01855827, 0.26939401, 0.26871435],
        "properties": { "magmom": -0.0 },
        "label": "B",
        "xyz": [-0.5463062104227253, 2.2681229389705586, 2.710825225799769]
      },
      {
        "species": [{ "element": "B", "occu": 1 }],
        "abc": [0.48144173, 0.23060599, 0.76871435],
        "properties": { "magmom": -0.0 },
        "label": "B",
        "xyz": [2.2320618654227258, 1.9283765310294414, 7.754890095799769]
      },
      {
        "species": [{ "element": "B", "occu": 1 }],
        "abc": [0.98144173, 0.73060599, 0.73128565],
        "properties": { "magmom": -0.0 },
        "label": "B",
        "xyz": [3.9178175204227257, 6.124876001029442, 7.3773045142002305]
      },
      {
        "species": [{ "element": "B", "occu": 1 }],
        "abc": [0.51855827, 0.76939401, 0.23128565],
        "properties": { "magmom": -0.0 },
        "label": "B",
        "xyz": [1.1394494445772747, 6.464622408970558, 2.3332396442002308]
      },
      {
        "species": [{ "element": "B", "occu": 1 }],
        "abc": [0.84878854, 0.24638091, 0.4249078],
        "properties": { "magmom": -0.0 },
        "label": "B",
        "xyz": [4.323977124217683, 2.05082502632555, 4.286525013937972]
      },
      {
        "species": [{ "element": "B", "occu": 1 }],
        "abc": [0.65121146, 0.25361909, 0.9249078],
        "properties": { "magmom": -0.0 },
        "label": "B",
        "xyz": [3.1606776907823173, 2.11737186367445, 9.330589883937972]
      },
      {
        "species": [{ "element": "B", "occu": 1 }],
        "abc": [0.15121146, 0.75361909, 0.575092199999999],
        "properties": { "magmom": -0.0 },
        "label": "B",
        "xyz": [-0.9524658142176832, 6.34217391367445, 5.801604726062018]
      },
      {
        "species": [{ "element": "B", "occu": 1 }],
        "abc": [0.34878854, 0.7463809100000001, 0.0750922],
        "properties": { "magmom": -0.0 },
        "label": "B",
        "xyz": [0.21083361921768295, 6.275627076325551, 0.7575398560620279]
      },
      {
        "species": [{ "element": "H", "occu": 1 }],
        "abc": [0.32974217, 0.39730575, 0.43245763],
        "properties": { "magmom": 0.0 },
        "label": "H",
        "xyz": [0.9477264423444397, 3.3364989622339416, 4.3626886784929155]
      },
      {
        "species": [{ "element": "H", "occu": 1 }],
        "abc": [0.17025783, 0.10269425, 0.93245763],
        "properties": { "magmom": 0.0 },
        "label": "H",
        "xyz": [0.7380292126555604, 0.8600005077660585, 9.406753548492915]
      },
      {
        "species": [{ "element": "H", "occu": 1 }],
        "abc": [0.67025783, 0.60269425, 0.56754237],
        "properties": { "magmom": 0.0 },
        "label": "H",
        "xyz": [2.423784867655561, 5.056499977766058, 5.725441061507083]
      },
      {
        "species": [{ "element": "H", "occu": 1 }],
        "abc": [0.8297421700000001, 0.89730575, 0.06754237],
        "properties": { "magmom": 0.0 },
        "label": "H",
        "xyz": [2.6334820973444404, 7.532998432233942, 0.6813761915070838]
      },
      {
        "species": [{ "element": "H", "occu": 1 }],
        "abc": [0.25146708, 0.15782811, 0.42877407],
        "properties": { "magmom": -0.0 },
        "label": "H",
        "xyz": [1.0751222023771894, 1.3220009354926607, 4.325528447307842]
      },
      {
        "species": [{ "element": "H", "occu": 1 }],
        "abc": [0.24853292000000002, 0.34217189000000003, 0.92877407],
        "properties": { "magmom": -0.0 },
        "label": "H",
        "xyz": [0.6106334526228109, 2.8744985345073397, 9.36959331730784]
      },
      {
        "species": [{ "element": "H", "occu": 1 }],
        "abc": [0.74853292, 0.84217189, 0.57122593],
        "properties": { "magmom": -0.0 },
        "label": "H",
        "xyz": [2.296389107622811, 7.070998004507339, 5.762601292692158]
      },
      {
        "species": [{ "element": "H", "occu": 1 }],
        "abc": [0.7514670800000001, 0.65782811, 0.07122593],
        "properties": { "magmom": -0.0 },
        "label": "H",
        "xyz": [2.76087785737719, 5.518500405492661, 0.7185364226921582]
      },
      {
        "species": [{ "element": "H", "occu": 1 }],
        "abc": [0.35620864, 0.13398719, 0.23598007000000001],
        "properties": { "magmom": 0.0 },
        "label": "H",
        "xyz": [1.7403791062191012, 1.1182649032772376, 2.3805975622142816]
      },
      {
        "species": [{ "element": "H", "occu": 1 }],
        "abc": [0.14379136, 0.36601281, 0.73598007],
        "properties": { "magmom": 0.0 },
        "label": "H",
        "xyz": [-0.05462345121910095, 3.0782345667227626, 7.424662432214281]
      },
      {
        "species": [{ "element": "H", "occu": 1 }],
        "abc": [0.64379136, 0.86601281, 0.76401993],
        "properties": { "magmom": 0.0 },
        "label": "H",
        "xyz": [1.6311322037808997, 7.274734036722762, 7.707532177785718]
      },
      {
        "species": [{ "element": "H", "occu": 1 }],
        "abc": [0.85620864, 0.63398719, 0.26401993],
        "properties": { "magmom": 0.0 },
        "label": "H",
        "xyz": [3.4261347612191004, 5.314764373277238, 2.663467307785718]
      },
      {
        "species": [{ "element": "H", "occu": 1 }],
        "abc": [0.058361920000000005, 0.98491291, 0.32350564],
        "properties": { "magmom": 0.0 },
        "label": "H",
        "xyz": [-2.0523307421781567, 8.29259679314087, 3.263566867941733]
      },
      {
        "species": [{ "element": "H", "occu": 1 }],
        "abc": [0.44163808, 0.51508709, 0.82350564],
        "properties": { "magmom": 0.0 },
        "label": "H",
        "xyz": [1.3106985471781565, 4.32520419685913, 8.307631737941733]
      },
      {
        "species": [{ "element": "H", "occu": 1 }],
        "abc": [0.94163808, 0.015087090000000001, 0.67649436],
        "properties": { "magmom": 0.0 },
        "label": "H",
        "xyz": [5.4238420521781565, 0.1004021468591304, 6.824562872058266]
      },
      {
        "species": [{ "element": "H", "occu": 1 }],
        "abc": [0.5583619200000001, 0.48491291000000003, 0.17649436000000002],
        "properties": { "magmom": 0.0 },
        "label": "H",
        "xyz": [2.0608127628218442, 4.06779474314087, 1.7804980020582664]
      },
      {
        "species": [{ "element": "H", "occu": 1 }],
        "abc": [0.00807947, 0.14385533, 0.20459656],
        "properties": { "magmom": -0.0 },
        "label": "H",
        "xyz": [-0.30234064840349534, 1.211220439343069, 2.0639966416376945]
      },
      {
        "species": [{ "element": "H", "occu": 1 }],
        "abc": [0.49192053, 0.35614467, 0.70459656],
        "properties": { "magmom": -0.0 },
        "label": "H",
        "xyz": [1.9880963034034955, 2.985279030656931, 7.108061511637694]
      },
      {
        "species": [{ "element": "H", "occu": 1 }],
        "abc": [0.99192053, 0.85614467, 0.79540344],
        "properties": { "magmom": -0.0 },
        "label": "H",
        "xyz": [3.6738519584034957, 7.1817785006569315, 8.024133098362304]
      },
      {
        "species": [{ "element": "H", "occu": 1 }],
        "abc": [0.50807947, 0.6438553300000001, 0.29540344],
        "properties": { "magmom": -0.0 },
        "label": "H",
        "xyz": [1.3834150065965045, 5.4077199093430695, 2.9800682283623057]
      },
      {
        "species": [{ "element": "H", "occu": 1 }],
        "abc": [0.07900467, 0.38340512, 0.20026604],
        "properties": { "magmom": 0.0 },
        "label": "H",
        "xyz": [-0.47253281541671477, 3.2265340838387337, 2.0203097940360295]
      },
      {
        "species": [{ "element": "H", "occu": 1 }],
        "abc": [0.42099533, 0.11659488, 0.70026604],
        "properties": { "magmom": 0.0 },
        "label": "H",
        "xyz": [2.158288470416715, 0.9699653861612663, 7.06437466403603]
      },
      {
        "species": [{ "element": "H", "occu": 1 }],
        "abc": [0.92099533, 0.6165948800000001, 0.79973396],
        "properties": { "magmom": 0.0 },
        "label": "H",
        "xyz": [3.844044125416715, 5.166464856161267, 8.06781994596397]
      },
      {
        "species": [{ "element": "H", "occu": 1 }],
        "abc": [0.57900467, 0.88340512, 0.29973396],
        "properties": { "magmom": 0.0 },
        "label": "H",
        "xyz": [1.2132228395832851, 7.423033553838734, 3.0237550759639706]
      },
      {
        "species": [{ "element": "H", "occu": 1 }],
        "abc": [0.79448962, 0.22912319, 0.28828415],
        "properties": { "magmom": 0.0 },
        "label": "H",
        "xyz": [4.050994342487479, 1.9070293621850292, 2.908247907185621]
      },
      {
        "species": [{ "element": "H", "occu": 1 }],
        "abc": [0.70551038, 0.27087681, 0.78828515],
        "properties": { "magmom": 0.0 },
        "label": "H",
        "xyz": [3.4336604725125226, 2.261167527814971, 7.95232286531536]
      },
      {
        "species": [{ "element": "H", "occu": 1 }],
        "abc": [0.20551038, 0.77087681, 0.71171485],
        "properties": { "magmom": 0.0 },
        "label": "H",
        "xyz": [-0.6794830324874779, 6.485969577814971, 7.179871744684639]
      },
      {
        "species": [{ "element": "H", "occu": 1 }],
        "abc": [0.29448962, 0.72912319, 0.21171485],
        "properties": { "magmom": 0.0 },
        "label": "H",
        "xyz": [-0.062149162512522116, 6.131831412185029, 2.135806874684639]
      },
      {
        "species": [{ "element": "H", "occu": 1 }],
        "abc": [0.78817284, 0.35947863, 0.45827155],
        "properties": { "magmom": -0.0 },
        "label": "H",
        "xyz": [3.6979407610141686, 3.0049706083685903, 4.623102852550897]
      },
      {
        "species": [{ "element": "H", "occu": 1 }],
        "abc": [0.71182716, 0.14052137, 0.95827155],
        "properties": { "magmom": -0.0 },
        "label": "H",
        "xyz": [3.7867140539858313, 1.1632262816314096, 9.667167722550897]
      },
      {
        "species": [{ "element": "H", "occu": 1 }],
        "abc": [0.21182716000000001, 0.64052137, 0.54172845],
        "properties": { "magmom": -0.0 },
        "label": "H",
        "xyz": [-0.32642945101416876, 5.388028331631409, 5.465026887449103]
      },
      {
        "species": [{ "element": "H", "occu": 1 }],
        "abc": [0.28817284, 0.85947863, 0.04172845],
        "properties": { "magmom": -0.0 },
        "label": "H",
        "xyz": [-0.415202743985831, 7.229772658368591, 0.420962017449103]
      },
      {
        "species": [{ "element": "H", "occu": 1 }],
        "abc": [0.72499742, 0.11685526, 0.45415426000000003],
        "properties": { "magmom": 0.0 },
        "label": "H",
        "xyz": [3.9205338915075765, 0.9635540811786517, 4.581567096853693]
      },
      {
        "species": [{ "element": "H", "occu": 1 }],
        "abc": [0.77500258, 0.38314474, 0.95415426],
        "properties": { "magmom": 0.0 },
        "label": "H",
        "xyz": [3.5641209234924247, 3.2046428088213483, 9.625631966853692]
      },
      {
        "species": [{ "element": "H", "occu": 1 }],
        "abc": [0.27500258, 0.88314474, 0.54584574],
        "properties": { "magmom": 0.0 },
        "label": "H",
        "xyz": [-0.5490225815075762, 7.429444858821348, 5.506562643146307]
      },
      {
        "species": [{ "element": "H", "occu": 1 }],
        "abc": [0.22499742, 0.61685526, 0.04584574],
        "properties": { "magmom": 0.0 },
        "label": "H",
        "xyz": [-0.19260961349242378, 5.188356131178652, 0.4624977731463076]
      },
      {
        "species": [{ "element": "H", "occu": 1 }],
        "abc": [0.03687613, 0.24251897, 0.51222323],
        "properties": { "magmom": 0.0 },
        "label": "H",
        "xyz": [-0.37484664189146366, 2.041281681070419, 5.16737440008186]
      },
      {
        "species": [{ "element": "H", "occu": 1 }],
        "abc": [0.46312387, 0.25748103, 0.01222323],
        "properties": { "magmom": 0.0 },
        "label": "H",
        "xyz": [2.0606022968914637, 2.155217788929581, 0.12330953008186019]
      },
      {
        "species": [{ "element": "H", "occu": 1 }],
        "abc": [0.96312387, 0.75748103, 0.48777677],
        "properties": { "magmom": 0.0 },
        "label": "H",
        "xyz": [3.7463579518914636, 6.351717258929581, 4.92075533991814]
      },
      {
        "species": [{ "element": "H", "occu": 1 }],
        "abc": [0.53687613, 0.74251897, 0.98777677],
        "properties": { "magmom": 0.0 },
        "label": "H",
        "xyz": [1.3109090131085364, 6.237781151070419, 9.96482020991814]
      }
    ]
  },
  "task_ids": null,
  "uncorrected_energy_per_atom": null,
  "energy_per_atom": -4.625166534642857,
  "formation_energy_per_atom": -0.058270763035714004,
  "energy_above_hull": 0.007053553749999,
  "is_stable": false,
  "equilibrium_reaction_energy_per_atom": null,
  "decomposes_to": null,
  "xas": null,
  "grain_boundaries": null,
  "band_gap": 6.3315,
  "cbm": null,
  "vbm": null,
  "efermi": -4.08829105,
  "is_gap_direct": null,
  "is_metal": null,
  "es_source_calc_id": null,
  "bandstructure": null,
  "dos": null,
  "dos_energy_up": null,
  "dos_energy_down": null,
  "is_magnetic": null,
  "ordering": null,
  "total_magnetization": 0.0,
  "total_magnetization_normalized_vol": null,
  "total_magnetization_normalized_formula_units": null,
  "num_magnetic_sites": null,
  "num_unique_magnetic_sites": null,
  "types_of_magnetic_species": null,
  "bulk_modulus": null,
  "shear_modulus": null,
  "universal_anisotropy": null,
  "homogeneous_poisson": null,
  "e_total": null,
  "e_ionic": null,
  "e_electronic": null,
  "n": null,
  "e_ij_max": null,
  "weighted_surface_energy_EV_PER_ANG2": null,
  "weighted_surface_energy": null,
  "weighted_work_function": null,
  "surface_anisotropy": null,
  "shape_factor": null,
  "has_reconstructed": null,
  "possible_species": null,
  "has_props": null,
  "theoretical": null,
  "database_IDs": null,
  "fields_not_requested": [
    "builder_meta",
    "nsites",
    "elements",
    "nelements",
    "composition",
    "composition_reduced",
    "chemsys",
    "symmetry",
    "property_name",
    "deprecated",
    "deprecation_reasons",
    "last_updated",
    "origins",
    "warnings",
    "task_ids",
    "uncorrected_energy_per_atom",
    "equilibrium_reaction_energy_per_atom",
    "decomposes_to",
    "xas",
    "grain_boundaries",
    "cbm",
    "vbm",
    "is_gap_direct",
    "is_metal",
    "es_source_calc_id",
    "bandstructure",
    "dos",
    "dos_energy_up",
    "dos_energy_down",
    "is_magnetic",
    "ordering",
    "total_magnetization_normalized_vol",
    "total_magnetization_normalized_formula_units",
    "num_magnetic_sites",
    "num_unique_magnetic_sites",
    "types_of_magnetic_species",
    "bulk_modulus",
    "shear_modulus",
    "universal_anisotropy",
    "homogeneous_poisson",
    "e_total",
    "e_ionic",
    "e_electronic",
    "n",
    "e_ij_max",
    "weighted_surface_energy_EV_PER_ANG2",
    "weighted_surface_energy",
    "weighted_work_function",
    "surface_anisotropy",
    "shape_factor",
    "has_reconstructed",
    "possible_species",
    "has_props",
    "theoretical",
    "database_IDs"
  ]
}
