{"builder_meta": null, "nsites": null, "elements": null, "nelements": null, "composition": null, "composition_reduced": null, "formula_pretty": "B2Mo", "formula_anonymous": "AB2", "chemsys": null, "volume": 54.77808054042982, "density": 7.127533196551009, "density_atomic": 9.129680090071636, "symmetry": null, "property_name": null, "material_id": "mp-2331", "deprecated": null, "deprecation_reasons": null, "last_updated": null, "origins": null, "warnings": null, "structure": {"@module": "pymatgen.core.structure", "@class": "Structure", "charge": 0, "lattice": {"matrix": [[2.9428402, -0.00303544, 6.54214232], [1.40124907, 2.58782, 6.54214232], [-0.00509999, -0.00303544, 7.17355649]], "pbc": [true, true, true], "a": 7.173558656048406, "b": 7.173558213586256, "c": 7.173558945113305, "alpha": 24.260289878305166, "beta": 24.26029152269937, "gamma": 24.26029265002167, "volume": 54.77808054042982}, "properties": {}, "sites": [{"species": [{"element": "B", "occu": 1}], "abc": [0.81833097, 0.81833097, 0.81833097], "properties": {"magmom": -0.0}, "label": "B", "xyz": [3.5507293063220016, 2.112725261666246, 16.577618782018796]}, {"species": [{"element": "B", "occu": 1}], "abc": [0.18166903, 0.18166903, 0.18166903], "properties": {"magmom": -0.0}, "label": "B", "xyz": [0.7882599736779984, 0.4690238583337536, 3.680222347981204]}, {"species": [{"element": "B", "occu": 1}], "abc": [0.33210285, 0.33210285, 0.33210285], "properties": {"magmom": -0.0}, "label": "B", "xyz": [1.4409907060074478, 0.8574062407369919, 6.727686774120221]}, {"species": [{"element": "B", "occu": 1}], "abc": [0.66789715, 0.66789715, 0.66789715], "properties": {"magmom": -0.0}, "label": "B", "xyz": [2.897998573992552, 1.724342879263008, 13.53015435587978]}, {"species": [{"element": "Mo", "occu": 1}], "abc": [0.9243471400000001, 0.9243471400000001, 0.9243471400000001], "properties": {"magmom": 0.0}, "label": "Mo", "xyz": [4.01073233145866, 2.386432415269517, 18.72527751108987]}, {"species": [{"element": "Mo", "occu": 1}], "abc": [0.07565286, 0.07565286, 0.07565286], "properties": {"magmom": 0.0}, "label": "Mo", "xyz": [0.3282569485413408, 0.19531670473048318, 1.5325636189101317]}]}, "task_ids": null, "uncorrected_energy_per_atom": null, "energy_per_atom": -14.036870395000001, "formation_energy_per_atom": -0.44864111666666806, "energy_above_hull": 0.0, "is_stable": true, "equilibrium_reaction_energy_per_atom": null, "decomposes_to": null, "xas": null, "grain_boundaries": null, "band_gap": 0.0, "cbm": null, "vbm": null, "efermi": 8.91057059, "is_gap_direct": null, "is_metal": null, "es_source_calc_id": null, "bandstructure": null, "dos": null, "dos_energy_up": null, "dos_energy_down": null, "is_magnetic": null, "ordering": null, "total_magnetization": 0.0, "total_magnetization_normalized_vol": null, "total_magnetization_normalized_formula_units": null, "num_magnetic_sites": null, "num_unique_magnetic_sites": null, "types_of_magnetic_species": null, "bulk_modulus": null, "shear_modulus": null, "universal_anisotropy": null, "homogeneous_poisson": null, "e_total": null, "e_ionic": null, "e_electronic": null, "n": null, "e_ij_max": null, "weighted_surface_energy_EV_PER_ANG2": null, "weighted_surface_energy": null, "weighted_work_function": null, "surface_anisotropy": null, "shape_factor": null, "has_reconstructed": null, "possible_species": null, "has_props": null, "theoretical": null, "database_IDs": null, "fields_not_requested": ["builder_meta", "nsites", "elements", "nelements", "composition", "composition_reduced", "chemsys", "symmetry", "property_name", "deprecated", "deprecation_reasons", "last_updated", "origins", "warnings", "task_ids", "uncorrected_energy_per_atom", "equilibrium_reaction_energy_per_atom", "decomposes_to", "xas", "grain_boundaries", "cbm", "vbm", "is_gap_direct", "is_metal", "es_source_calc_id", "bandstructure", "dos", "dos_energy_up", "dos_energy_down", "is_magnetic", "ordering", "total_magnetization_normalized_vol", "total_magnetization_normalized_formula_units", "num_magnetic_sites", "num_unique_magnetic_sites", "types_of_magnetic_species", "bulk_modulus", "shear_modulus", "universal_anisotropy", "homogeneous_poisson", "e_total", "e_ionic", "e_electronic", "n", "e_ij_max", "weighted_surface_energy_EV_PER_ANG2", "weighted_surface_energy", "weighted_work_function", "surface_anisotropy", "shape_factor", "has_reconstructed", "possible_species", "has_props", "theoretical", "database_IDs"]}