{
  "builder_meta": null,
  "nsites": null,
  "elements": null,
  "nelements": null,
  "composition": null,
  "composition_reduced": null,
  "formula_pretty": "B2Mo3",
  "formula_anonymous": "A2B3",
  "chemsys": null,
  "volume": 113.88616439792263,
  "density": 9.023756881502456,
  "density_atomic": 11.388616439792262,
  "symmetry": null,
  "property_name": null,
  "material_id": "mp-1079053",
  "deprecated": null,
  "deprecation_reasons": null,
  "last_updated": null,
  "origins": null,
  "warnings": null,
  "structure": {
    "@module": "pymatgen.core.structure",
    "@class": "Structure",
    "charge": 0,
    "lattice": {
      "matrix": [
        [6.00980193, 0.0, 0.0],
        [0.0, 6.00980193, 0.0],
        [0.0, 0.0, 3.15319369]
      ],
      "pbc": [true, true, true],
      "a": 6.00980193,
      "b": 6.00980193,
      "c": 3.15319369,
      "alpha": 90.0,
      "beta": 90.0,
      "gamma": 90.0,
      "volume": 113.88616439792263
    },
    "properties": {},
    "sites": [
      {
        "species": [{ "element": "B", "occu": 1 }],
        "abc": [0.11278104, 0.61278104, -0.0],
        "properties": { "magmom": -0.0 },
        "label": "B",
        "xyz": [0.6777917118594072, 3.682692676859407, 0.0]
      },
      {
        "species": [{ "element": "B", "occu": 1 }],
        "abc": [0.88721896, 0.38721896, 0.0],
        "properties": { "magmom": -0.0 },
        "label": "B",
        "xyz": [5.332010218140593, 2.327109253140593, 0.0]
      },
      {
        "species": [{ "element": "B", "occu": 1 }],
        "abc": [0.61278104, 0.88721896, 0.0],
        "properties": { "magmom": -0.0 },
        "label": "B",
        "xyz": [3.682692676859407, 5.332010218140593, 0.0]
      },
      {
        "species": [{ "element": "B", "occu": 1 }],
        "abc": [0.38721896, 0.11278104, -0.0],
        "properties": { "magmom": -0.0 },
        "label": "B",
        "xyz": [2.327109253140593, 0.6777917118594072, 0.0]
      },
      {
        "species": [{ "element": "Mo", "occu": 1 }],
        "abc": [0.5, 0.5, 0.0],
        "properties": { "magmom": -0.0 },
        "label": "Mo",
        "xyz": [3.004900965, 3.004900965, 0.0]
      },
      {
        "species": [{ "element": "Mo", "occu": 1 }],
        "abc": [0.0, 0.0, 0.0],
        "properties": { "magmom": -0.0 },
        "label": "Mo",
        "xyz": [0.0, 0.0, 0.0]
      },
      {
        "species": [{ "element": "Mo", "occu": 1 }],
        "abc": [0.67256372, 0.17256372, 0.5],
        "properties": { "magmom": 0.0 },
        "label": "Mo",
        "xyz": [4.04197474250398, 1.0370737775039796, 1.576596845]
      },
      {
        "species": [{ "element": "Mo", "occu": 1 }],
        "abc": [0.32743628, 0.82743628, 0.5],
        "properties": { "magmom": 0.0 },
        "label": "Mo",
        "xyz": [1.9678271874960205, 4.97272815249602, 1.576596845]
      },
      {
        "species": [{ "element": "Mo", "occu": 1 }],
        "abc": [0.17256372, 0.32743628, 0.5],
        "properties": { "magmom": 0.0 },
        "label": "Mo",
        "xyz": [1.0370737775039796, 1.9678271874960205, 1.576596845]
      },
      {
        "species": [{ "element": "Mo", "occu": 1 }],
        "abc": [0.82743628, 0.67256372, 0.5],
        "properties": { "magmom": 0.0 },
        "label": "Mo",
        "xyz": [4.97272815249602, 4.04197474250398, 1.576596845]
      }
    ]
  },
  "task_ids": null,
  "uncorrected_energy_per_atom": null,
  "energy_per_atom": -18.977896565,
  "formation_energy_per_atom": -0.39616722200000204,
  "energy_above_hull": 0.023003367999997002,
  "is_stable": false,
  "equilibrium_reaction_energy_per_atom": null,
  "decomposes_to": null,
  "xas": null,
  "grain_boundaries": null,
  "band_gap": 0.0,
  "cbm": null,
  "vbm": null,
  "efermi": 9.14885023,
  "is_gap_direct": null,
  "is_metal": null,
  "es_source_calc_id": null,
  "bandstructure": null,
  "dos": null,
  "dos_energy_up": null,
  "dos_energy_down": null,
  "is_magnetic": null,
  "ordering": null,
  "total_magnetization": 0.0,
  "total_magnetization_normalized_vol": null,
  "total_magnetization_normalized_formula_units": null,
  "num_magnetic_sites": null,
  "num_unique_magnetic_sites": null,
  "types_of_magnetic_species": null,
  "bulk_modulus": null,
  "shear_modulus": null,
  "universal_anisotropy": null,
  "homogeneous_poisson": null,
  "e_total": null,
  "e_ionic": null,
  "e_electronic": null,
  "n": null,
  "e_ij_max": null,
  "weighted_surface_energy_EV_PER_ANG2": null,
  "weighted_surface_energy": null,
  "weighted_work_function": null,
  "surface_anisotropy": null,
  "shape_factor": null,
  "has_reconstructed": null,
  "possible_species": null,
  "has_props": null,
  "theoretical": null,
  "database_IDs": null,
  "fields_not_requested": [
    "builder_meta",
    "nsites",
    "elements",
    "nelements",
    "composition",
    "composition_reduced",
    "chemsys",
    "symmetry",
    "property_name",
    "deprecated",
    "deprecation_reasons",
    "last_updated",
    "origins",
    "warnings",
    "task_ids",
    "uncorrected_energy_per_atom",
    "equilibrium_reaction_energy_per_atom",
    "decomposes_to",
    "xas",
    "grain_boundaries",
    "cbm",
    "vbm",
    "is_gap_direct",
    "is_metal",
    "es_source_calc_id",
    "bandstructure",
    "dos",
    "dos_energy_up",
    "dos_energy_down",
    "is_magnetic",
    "ordering",
    "total_magnetization_normalized_vol",
    "total_magnetization_normalized_formula_units",
    "num_magnetic_sites",
    "num_unique_magnetic_sites",
    "types_of_magnetic_species",
    "bulk_modulus",
    "shear_modulus",
    "universal_anisotropy",
    "homogeneous_poisson",
    "e_total",
    "e_ionic",
    "e_electronic",
    "n",
    "e_ij_max",
    "weighted_surface_energy_EV_PER_ANG2",
    "weighted_surface_energy",
    "weighted_work_function",
    "surface_anisotropy",
    "shape_factor",
    "has_reconstructed",
    "possible_species",
    "has_props",
    "theoretical",
    "database_IDs"
  ]
}
