{
  "builder_meta": null,
  "nsites": null,
  "elements": null,
  "nelements": null,
  "composition": null,
  "composition_reduced": null,
  "formula_pretty": "B2O3",
  "formula_anonymous": "A2B3",
  "chemsys": null,
  "volume": 135.3764045815366,
  "density": 2.561902769138968,
  "density_atomic": 9.025093638769107,
  "symmetry": null,
  "property_name": null,
  "material_id": "mp-306",
  "deprecated": null,
  "deprecation_reasons": null,
  "last_updated": null,
  "origins": null,
  "warnings": null,
  "structure": {
    "@module": "pymatgen.core.structure",
    "@class": "Structure",
    "charge": 0,
    "lattice": {
      "matrix": [
        [4.3374166, -9.9e-7, -0.0],
        [-2.16870879, 3.75631415, 0.0],
        [0.0, 0.0, 8.30902354]
      ],
      "pbc": [true, true, true],
      "a": 4.337416600000113,
      "b": 4.337417873494954,
      "c": 8.30902354,
      "alpha": 90.0,
      "beta": 90.0,
      "gamma": 120.00001083919166,
      "volume": 135.3764045815366
    },
    "properties": {},
    "sites": [
      {
        "species": [{ "element": "B", "occu": 1 }],
        "abc": [0.1001487, 0.27065547, 0.89931969],
        "properties": { "magmom": 0.0 },
        "label": "B",
        "xyz": [-0.15258626300216144, 1.0166668725886874, 7.4724684741955025]
      },
      {
        "species": [{ "element": "B", "occu": 1 }],
        "abc": [0.17050877, 0.899851299999999, 0.56598569],
        "properties": { "magmom": 0.0 },
        "label": "B",
        "xyz": [-1.2119478545593432, 3.3801240022822094, 4.702788421513143]
      },
      {
        "species": [{ "element": "B", "occu": 1 }],
        "abc": [0.72934453, 0.82949123, 0.23265269],
        "properties": { "magmom": 0.0 },
        "label": "B",
        "xyz": [1.3645461498122864, 3.11582892249882, 1.9331166778543225]
      },
      {
        "species": [{ "element": "B", "occu": 1 }],
        "abc": [0.5665468100000001, 0.50382586, 0.68267751],
        "properties": { "magmom": -0.0 },
        "label": "B",
        "xyz": [1.3646979671597368, 1.892527646172577, 5.672383500818586]
      },
      {
        "species": [{ "element": "B", "occu": 1 }],
        "abc": [0.93727805, 0.43345319, 0.34934451],
        "properties": { "magmom": -0.0 },
        "label": "B",
        "xyz": [3.12533162967909, 1.628185423054369, 2.9027117571597656]
      },
      {
        "species": [{ "element": "B", "occu": 1 }],
        "abc": [0.49617414, 0.06272195, 0.01601151],
        "properties": { "magmom": -0.0 },
        "label": "B",
        "xyz": [2.0160883070357833, 0.23560285708819392, 0.1330400135009454]
      },
      {
        "species": [{ "element": "O", "occu": 1 }],
        "abc": [0.48233896, 0.21679708, 0.58562766],
        "properties": { "magmom": 0.0 },
        "label": "O",
        "xyz": [1.6219352788884027, 0.8143574617671117, 4.865994012615117]
      },
      {
        "species": [{ "element": "O", "occu": 1 }],
        "abc": [0.78320292, 0.26554188, 0.91896166],
        "properties": { "magmom": 0.0 },
        "label": "O",
        "xyz": [2.821194337107347, 0.9974579458907112, 7.635674065297477]
      },
      {
        "species": [{ "element": "O", "occu": 1 }],
        "abc": [0.73445812, 0.51766104, 0.25229466],
        "properties": { "magmom": 0.0 },
        "label": "O",
        "xyz": [2.0629947940042506, 1.9444967623421774, 2.0963222689562966]
      },
      {
        "species": [{ "element": "O", "occu": 1 }],
        "abc": [0.33336984000000003, 0.51095125, 0.79100187],
        "properties": { "magmom": -0.0 },
        "label": "O",
        "xyz": [0.3378594108188566, 1.919293080299046, 6.57245315801402]
      },
      {
        "species": [{ "element": "O", "occu": 1 }],
        "abc": [0.17758141, 0.66663016, 0.45766887],
        "properties": { "magmom": -0.0 },
        "label": "O",
        "xyz": [-0.6754821320857004, 2.504072127019168, 3.8027814143552]
      },
      {
        "species": [{ "element": "O", "occu": 1 }],
        "abc": [0.48904875000000003, 0.8224185900000001, 0.12433487],
        "properties": { "magmom": -0.0 },
        "label": "O",
        "xyz": [0.33762174126684386, 3.0892621026817864, 1.0331013616728397]
      },
      {
        "species": [{ "element": "O", "occu": 1 }],
        "abc": [0.88348663, 0.81565118, 0.6630372800000001],
        "properties": { "magmom": -0.0 },
        "label": "O",
        "xyz": [2.0631396912001856, 3.063841194246433, 5.509192367417572]
      },
      {
        "species": [{ "element": "O", "occu": 1 }],
        "abc": [0.93216255, 0.11651337, 0.32970428],
        "properties": { "magmom": -0.0 },
        "label": "O",
        "xyz": [3.7904937485968078, 0.43765989755426105, 2.7395206237587515]
      },
      {
        "species": [{ "element": "O", "occu": 1 }],
        "abc": [0.18434882, 0.06783745000000001, 0.99637128],
        "properties": { "magmom": -0.0 },
        "label": "O",
        "xyz": [0.6524779579522264, 0.25481859082958574, 8.278872420099932]
      }
    ]
  },
  "task_ids": null,
  "uncorrected_energy_per_atom": null,
  "energy_per_atom": -8.438589621333334,
  "formation_energy_per_atom": -2.798056310000001,
  "energy_above_hull": 0.0,
  "is_stable": true,
  "equilibrium_reaction_energy_per_atom": null,
  "decomposes_to": null,
  "xas": null,
  "grain_boundaries": null,
  "band_gap": 6.3017,
  "cbm": null,
  "vbm": null,
  "efermi": -0.41221484,
  "is_gap_direct": null,
  "is_metal": null,
  "es_source_calc_id": null,
  "bandstructure": null,
  "dos": null,
  "dos_energy_up": null,
  "dos_energy_down": null,
  "is_magnetic": null,
  "ordering": null,
  "total_magnetization": 0.0,
  "total_magnetization_normalized_vol": null,
  "total_magnetization_normalized_formula_units": null,
  "num_magnetic_sites": null,
  "num_unique_magnetic_sites": null,
  "types_of_magnetic_species": null,
  "bulk_modulus": null,
  "shear_modulus": null,
  "universal_anisotropy": null,
  "homogeneous_poisson": null,
  "e_total": null,
  "e_ionic": null,
  "e_electronic": null,
  "n": null,
  "e_ij_max": null,
  "weighted_surface_energy_EV_PER_ANG2": null,
  "weighted_surface_energy": null,
  "weighted_work_function": null,
  "surface_anisotropy": null,
  "shape_factor": null,
  "has_reconstructed": null,
  "possible_species": null,
  "has_props": null,
  "theoretical": null,
  "database_IDs": null,
  "fields_not_requested": [
    "builder_meta",
    "nsites",
    "elements",
    "nelements",
    "composition",
    "composition_reduced",
    "chemsys",
    "symmetry",
    "property_name",
    "deprecated",
    "deprecation_reasons",
    "last_updated",
    "origins",
    "warnings",
    "task_ids",
    "uncorrected_energy_per_atom",
    "equilibrium_reaction_energy_per_atom",
    "decomposes_to",
    "xas",
    "grain_boundaries",
    "cbm",
    "vbm",
    "is_gap_direct",
    "is_metal",
    "es_source_calc_id",
    "bandstructure",
    "dos",
    "dos_energy_up",
    "dos_energy_down",
    "is_magnetic",
    "ordering",
    "total_magnetization_normalized_vol",
    "total_magnetization_normalized_formula_units",
    "num_magnetic_sites",
    "num_unique_magnetic_sites",
    "types_of_magnetic_species",
    "bulk_modulus",
    "shear_modulus",
    "universal_anisotropy",
    "homogeneous_poisson",
    "e_total",
    "e_ionic",
    "e_electronic",
    "n",
    "e_ij_max",
    "weighted_surface_energy_EV_PER_ANG2",
    "weighted_surface_energy",
    "weighted_work_function",
    "surface_anisotropy",
    "shape_factor",
    "has_reconstructed",
    "possible_species",
    "has_props",
    "theoretical",
    "database_IDs"
  ]
}
