{"builder_meta": null, "nsites": null, "elements": null, "nelements": null, "composition": null, "composition_reduced": null, "formula_pretty": "B2Os", "formula_anonymous": "AB2", "chemsys": null, "volume": 55.15271742749599, "density": 12.756888100747016, "density_atomic": 9.192119571249332, "symmetry": null, "property_name": null, "material_id": "mp-2850", "deprecated": null, "deprecation_reasons": null, "last_updated": null, "origins": null, "warnings": null, "structure": {"@module": "pymatgen.core.structure", "@class": "Structure", "charge": 0, "lattice": {"matrix": [[2.88398479, -0.0, 0.0], [-0.0, 4.07754086, 0.0], [0.0, 0.0, 4.69003008]], "pbc": [true, true, true], "a": 2.88398479, "b": 4.07754086, "c": 4.69003008, "alpha": 90.0, "beta": 90.0, "gamma": 90.0, "volume": 55.15271742749599}, "properties": {}, "sites": [{"species": [{"element": "B", "occu": 1}], "abc": [0.25, 0.6389621600000001, 0.055628], "properties": {"magmom": -0.0}, "label": "B", "xyz": [0.7209961975, 2.6053943153938577, 0.26089699329023996]}, {"species": [{"element": "B", "occu": 1}], "abc": [0.75, 0.36103784, 0.944372], "properties": {"magmom": -0.0}, "label": "B", "xyz": [2.1629885925, 1.4721465446061424, 4.42913308670976]}, {"species": [{"element": "B", "occu": 1}], "abc": [0.25, 0.6389621600000001, 0.444372], "properties": {"magmom": -0.0}, "label": "B", "xyz": [0.7209961975, 2.6053943153938577, 2.0841180467097598]}, {"species": [{"element": "B", "occu": 1}], "abc": [0.75, 0.36103784, 0.555628], "properties": {"magmom": -0.0}, "label": "B", "xyz": [2.1629885925, 1.4721465446061424, 2.60591203329024]}, {"species": [{"element": "Os", "occu": 1}], "abc": [0.25, 0.15659665, 0.25], "properties": {"magmom": -0.0}, "label": "Os", "xyz": [0.7209961975, 0.6385292389141191, 1.17250752]}, {"species": [{"element": "Os", "occu": 1}], "abc": [0.75, 0.84340335, 0.75], "properties": {"magmom": -0.0}, "label": "Os", "xyz": [2.1629885925, 3.439011621085881, 3.5175225599999997]}]}, "task_ids": null, "uncorrected_energy_per_atom": null, "energy_per_atom": -22.793920386666667, "formation_energy_per_atom": -0.23460797166666703, "energy_above_hull": 0.0, "is_stable": true, "equilibrium_reaction_energy_per_atom": null, "decomposes_to": null, "xas": null, "grain_boundaries": null, "band_gap": 0.0, "cbm": null, "vbm": null, "efermi": 8.77705832, "is_gap_direct": null, "is_metal": null, "es_source_calc_id": null, "bandstructure": null, "dos": null, "dos_energy_up": null, "dos_energy_down": null, "is_magnetic": null, "ordering": null, "total_magnetization": 0.0, "total_magnetization_normalized_vol": null, "total_magnetization_normalized_formula_units": null, "num_magnetic_sites": null, "num_unique_magnetic_sites": null, "types_of_magnetic_species": null, "bulk_modulus": null, "shear_modulus": null, "universal_anisotropy": null, "homogeneous_poisson": null, "e_total": null, "e_ionic": null, "e_electronic": null, "n": null, "e_ij_max": null, "weighted_surface_energy_EV_PER_ANG2": null, "weighted_surface_energy": null, "weighted_work_function": null, "surface_anisotropy": null, "shape_factor": null, "has_reconstructed": null, "possible_species": null, "has_props": null, "theoretical": null, "database_IDs": null, "fields_not_requested": ["builder_meta", "nsites", "elements", "nelements", "composition", "composition_reduced", "chemsys", "symmetry", "property_name", "deprecated", "deprecation_reasons", "last_updated", "origins", "warnings", "task_ids", "uncorrected_energy_per_atom", "equilibrium_reaction_energy_per_atom", "decomposes_to", "xas", "grain_boundaries", "cbm", "vbm", "is_gap_direct", "is_metal", "es_source_calc_id", "bandstructure", "dos", "dos_energy_up", "dos_energy_down", "is_magnetic", "ordering", "total_magnetization_normalized_vol", "total_magnetization_normalized_formula_units", "num_magnetic_sites", "num_unique_magnetic_sites", "types_of_magnetic_species", "bulk_modulus", "shear_modulus", "universal_anisotropy", "homogeneous_poisson", "e_total", "e_ionic", "e_electronic", "n", "e_ij_max", "weighted_surface_energy_EV_PER_ANG2", "weighted_surface_energy", "weighted_work_function", "surface_anisotropy", "shape_factor", "has_reconstructed", "possible_species", "has_props", "theoretical", "database_IDs"]}