{
  "builder_meta": null,
  "nsites": null,
  "elements": null,
  "nelements": null,
  "composition": null,
  "composition_reduced": null,
  "formula_pretty": "B2Pd5",
  "formula_anonymous": "A2B5",
  "chemsys": null,
  "volume": 174.4927832333799,
  "density": 10.538854341111708,
  "density_atomic": 12.463770230955706,
  "symmetry": null,
  "property_name": null,
  "material_id": "mp-2617",
  "deprecated": null,
  "deprecation_reasons": null,
  "last_updated": null,
  "origins": null,
  "warnings": null,
  "structure": {
    "@module": "pymatgen.core.structure",
    "@class": "Structure",
    "charge": 0,
    "lattice": {
      "matrix": [
        [4.63630273, 0.0, -1.79621775],
        [-0.24440243, 5.45635851, -0.63083947],
        [0.00545374, -0.00082187, 6.8956723]
      ],
      "pbc": [true, true, true],
      "a": 4.972092236636455,
      "b": 5.498139610299943,
      "c": 6.895674505640298,
      "alpha": 96.59729753618578,
      "beta": 111.1322785253856,
      "gamma": 89.9999970657867,
      "volume": 174.4927832333799
    },
    "properties": {},
    "sites": [
      {
        "species": [{ "element": "B", "occu": 1 }],
        "abc": [0.58806133, 0.42149725, 0.77128724],
        "properties": { "magmom": 0.0 },
        "label": "B",
        "xyz": [2.627621797620391, 2.299206209135159, 3.9963607553803877]
      },
      {
        "species": [{ "element": "B", "occu": 1 }],
        "abc": [0.816773099999999, 0.07850275, 0.22871276000000001],
        "properties": { "magmom": 0.0 },
        "label": "B",
        "xyz": [3.768868430386598, 0.4281511758648413, 0.060503270642482176]
      },
      {
        "species": [{ "element": "B", "occu": 1 }],
        "abc": [0.41193867, 0.5785027500000001, 0.22871276000000001],
        "properties": { "magmom": 0.0 },
        "label": "B",
        "xyz": [1.769732242379609, 3.1563304308648417, 0.4722543246196129]
      },
      {
        "species": [{ "element": "B", "occu": 1 }],
        "abc": [0.1832269, 0.92149725, 0.77128724],
        "properties": { "magmom": 0.0 },
        "label": "B",
        "xyz": [0.6284856096133971, 5.027385464135159, 4.40811180935752]
      },
      {
        "species": [{ "element": "Pd", "occu": 1 }],
        "abc": [0.00362892, 0.41967212, 0.19191215],
        "properties": { "magmom": -0.0 },
        "label": "Pd",
        "xyz": [-0.084697475259359, 2.2897238165330207, 1.0520992285165387]
      },
      {
        "species": [{ "element": "Pd", "occu": 1 }],
        "abc": [0.81171677, 0.08032788, 0.80808785],
        "properties": { "magmom": -0.0 },
        "label": "Pd",
        "xyz": [3.7481394487000927, 0.4376335684669794, 4.063614935719464]
      },
      {
        "species": [{ "element": "Pd", "occu": 1 }],
        "abc": [0.35940462, 0.68538983, 0.57557878],
        "properties": { "magmom": -0.0 },
        "label": "Pd",
        "xyz": [1.5019367379469628, 3.739259580656035, 2.891062734737199]
      },
      {
        "species": [{ "element": "Pd", "occu": 1 }],
        "abc": [0.78382483, 0.81461017, 0.42442122],
        "properties": { "magmom": -0.0 },
        "label": "Pd",
        "xyz": [3.4372711771044355, 4.444456314343966, 1.0048613298500637]
      },
      {
        "species": [{ "element": "Pd", "occu": 1 }],
        "abc": [0.64059538, 0.31461017, 0.42442122],
        "properties": { "magmom": -0.0 },
        "label": "Pd",
        "xyz": [2.8954173020530374, 1.7162770593439656, 1.577552345262801]
      },
      {
        "species": [{ "element": "Pd", "occu": 1 }],
        "abc": [0.21617517, 0.18538983, 0.57557878],
        "properties": { "magmom": -0.0 },
        "label": "Pd",
        "xyz": [0.9600828628955643, 1.0110803256560348, 3.4637537501499365]
      },
      {
        "species": [{ "element": "Pd", "occu": 1 }],
        "abc": [0.18828323, 0.91967212, 0.19191215],
        "properties": { "magmom": -0.0 },
        "label": "Pd",
        "xyz": [0.6492145912999072, 5.017903071533021, 0.4050001442805362]
      },
      {
        "species": [{ "element": "Pd", "occu": 1 }],
        "abc": [0.9963710800000001, 0.58032788, 0.80808785],
        "properties": { "magmom": -0.0 },
        "label": "Pd",
        "xyz": [4.482051515259359, 3.1658128234669793, 3.4165158514834615]
      },
      {
        "species": [{ "element": "Pd", "occu": 1 }],
        "abc": [0.42982885, 0.25, -0.0],
        "properties": { "magmom": 0.0 },
        "label": "Pd",
        "xyz": [1.9317160631877603, 1.3640896275, -0.9297760773320876]
      },
      {
        "species": [{ "element": "Pd", "occu": 1 }],
        "abc": [0.57017115, 0.75, 0.0],
        "properties": { "magmom": 0.0 },
        "label": "Pd",
        "xyz": [2.4601842368122395, 4.0922688825, -1.4972811426679125]
      }
    ]
  },
  "task_ids": null,
  "uncorrected_energy_per_atom": null,
  "energy_per_atom": -18.758946742142857,
  "formation_energy_per_atom": -0.25966439285714005,
  "energy_above_hull": 0.008754007857142001,
  "is_stable": false,
  "equilibrium_reaction_energy_per_atom": null,
  "decomposes_to": null,
  "xas": null,
  "grain_boundaries": null,
  "band_gap": 0.0,
  "cbm": null,
  "vbm": null,
  "efermi": 5.22222431,
  "is_gap_direct": null,
  "is_metal": null,
  "es_source_calc_id": null,
  "bandstructure": null,
  "dos": null,
  "dos_energy_up": null,
  "dos_energy_down": null,
  "is_magnetic": null,
  "ordering": null,
  "total_magnetization": 0.0,
  "total_magnetization_normalized_vol": null,
  "total_magnetization_normalized_formula_units": null,
  "num_magnetic_sites": null,
  "num_unique_magnetic_sites": null,
  "types_of_magnetic_species": null,
  "bulk_modulus": null,
  "shear_modulus": null,
  "universal_anisotropy": null,
  "homogeneous_poisson": null,
  "e_total": null,
  "e_ionic": null,
  "e_electronic": null,
  "n": null,
  "e_ij_max": null,
  "weighted_surface_energy_EV_PER_ANG2": null,
  "weighted_surface_energy": null,
  "weighted_work_function": null,
  "surface_anisotropy": null,
  "shape_factor": null,
  "has_reconstructed": null,
  "possible_species": null,
  "has_props": null,
  "theoretical": null,
  "database_IDs": null,
  "fields_not_requested": [
    "builder_meta",
    "nsites",
    "elements",
    "nelements",
    "composition",
    "composition_reduced",
    "chemsys",
    "symmetry",
    "property_name",
    "deprecated",
    "deprecation_reasons",
    "last_updated",
    "origins",
    "warnings",
    "task_ids",
    "uncorrected_energy_per_atom",
    "equilibrium_reaction_energy_per_atom",
    "decomposes_to",
    "xas",
    "grain_boundaries",
    "cbm",
    "vbm",
    "is_gap_direct",
    "is_metal",
    "es_source_calc_id",
    "bandstructure",
    "dos",
    "dos_energy_up",
    "dos_energy_down",
    "is_magnetic",
    "ordering",
    "total_magnetization_normalized_vol",
    "total_magnetization_normalized_formula_units",
    "num_magnetic_sites",
    "num_unique_magnetic_sites",
    "types_of_magnetic_species",
    "bulk_modulus",
    "shear_modulus",
    "universal_anisotropy",
    "homogeneous_poisson",
    "e_total",
    "e_ionic",
    "e_electronic",
    "n",
    "e_ij_max",
    "weighted_surface_energy_EV_PER_ANG2",
    "weighted_surface_energy",
    "weighted_work_function",
    "surface_anisotropy",
    "shape_factor",
    "has_reconstructed",
    "possible_species",
    "has_props",
    "theoretical",
    "database_IDs"
  ]
}
