{
  "builder_meta": null,
  "nsites": null,
  "elements": null,
  "nelements": null,
  "composition": null,
  "composition_reduced": null,
  "formula_pretty": "B2Pt3",
  "formula_anonymous": "A2B3",
  "chemsys": null,
  "volume": 63.98981011534435,
  "density": 15.748413437816392,
  "density_atomic": 12.79796202306887,
  "symmetry": null,
  "property_name": null,
  "material_id": "mp-1228684",
  "deprecated": null,
  "deprecation_reasons": null,
  "last_updated": null,
  "origins": null,
  "warnings": null,
  "structure": {
    "@module": "pymatgen.core.structure",
    "@class": "Structure",
    "charge": 0,
    "lattice": {
      "matrix": [
        [-1.584741999999999, -2.74017, -0.007057],
        [-1.584741999999999, 2.74017, 0.007057],
        [0.0, -0.013810000000000001, -7.367953]
      ],
      "pbc": [true, true, true],
      "a": 3.165436563368945,
      "b": 3.165436563368945,
      "c": 7.367965942260388,
      "alpha": 90.2206986202233,
      "beta": 89.77930137977668,
      "gamma": 119.91538817473337,
      "volume": 63.9898101153443
    },
    "properties": {},
    "sites": [
      {
        "species": [{ "element": "B", "occu": 1 }],
        "abc": [0.000381, 0.999618999999999, 0.332750999999999],
        "properties": { "magmom": 0.0 },
        "label": "B",
        "xyz": [-1.5847419999999974, 2.7334866991499975, -2.444642106136993]
      },
      {
        "species": [{ "element": "B", "occu": 1 }],
        "abc": [0.000354, 0.999645999999999, 0.720333999999999],
        "properties": { "magmom": -0.0 },
        "label": "B",
        "xyz": [-1.5847419999999974, 2.728282147099997, -5.300335052657993]
      },
      {
        "species": [{ "element": "Pt", "occu": 1 }],
        "abc": [0.332615, 0.667385, 0.861312],
        "properties": { "magmom": 0.0 },
        "label": "Pt",
        "xyz": [-1.584741999999999, 0.9054319921799999, -6.343743862446]
      },
      {
        "species": [{ "element": "Pt", "occu": 1 }],
        "abc": [0.666818, 0.333182, 0.174333],
        "properties": { "magmom": -0.0 },
        "label": "Pt",
        "xyz": [-1.584741999999999, -0.9166268968500001, -1.2868318196009998]
      },
      {
        "species": [{ "element": "Pt", "occu": 1 }],
        "abc": [0.668832, 0.331167999999999, 0.536269],
        "properties": { "magmom": -0.0 },
        "label": "Pt",
        "xyz": [-1.5847419999999972, -0.9326626377700026, -3.953587682205]
      }
    ]
  },
  "task_ids": null,
  "uncorrected_energy_per_atom": null,
  "energy_per_atom": -33.95721779866666,
  "formation_energy_per_atom": -0.126045979666662,
  "energy_above_hull": 0.058685564083333,
  "is_stable": false,
  "equilibrium_reaction_energy_per_atom": null,
  "decomposes_to": null,
  "xas": null,
  "grain_boundaries": null,
  "band_gap": 0.0,
  "cbm": null,
  "vbm": null,
  "efermi": 7.07553418,
  "is_gap_direct": null,
  "is_metal": null,
  "es_source_calc_id": null,
  "bandstructure": null,
  "dos": null,
  "dos_energy_up": null,
  "dos_energy_down": null,
  "is_magnetic": null,
  "ordering": null,
  "total_magnetization": 0.0002082,
  "total_magnetization_normalized_vol": null,
  "total_magnetization_normalized_formula_units": null,
  "num_magnetic_sites": null,
  "num_unique_magnetic_sites": null,
  "types_of_magnetic_species": null,
  "bulk_modulus": null,
  "shear_modulus": null,
  "universal_anisotropy": null,
  "homogeneous_poisson": null,
  "e_total": null,
  "e_ionic": null,
  "e_electronic": null,
  "n": null,
  "e_ij_max": null,
  "weighted_surface_energy_EV_PER_ANG2": null,
  "weighted_surface_energy": null,
  "weighted_work_function": null,
  "surface_anisotropy": null,
  "shape_factor": null,
  "has_reconstructed": null,
  "possible_species": null,
  "has_props": null,
  "theoretical": null,
  "database_IDs": null,
  "fields_not_requested": [
    "builder_meta",
    "nsites",
    "elements",
    "nelements",
    "composition",
    "composition_reduced",
    "chemsys",
    "symmetry",
    "property_name",
    "deprecated",
    "deprecation_reasons",
    "last_updated",
    "origins",
    "warnings",
    "task_ids",
    "uncorrected_energy_per_atom",
    "equilibrium_reaction_energy_per_atom",
    "decomposes_to",
    "xas",
    "grain_boundaries",
    "cbm",
    "vbm",
    "is_gap_direct",
    "is_metal",
    "es_source_calc_id",
    "bandstructure",
    "dos",
    "dos_energy_up",
    "dos_energy_down",
    "is_magnetic",
    "ordering",
    "total_magnetization_normalized_vol",
    "total_magnetization_normalized_formula_units",
    "num_magnetic_sites",
    "num_unique_magnetic_sites",
    "types_of_magnetic_species",
    "bulk_modulus",
    "shear_modulus",
    "universal_anisotropy",
    "homogeneous_poisson",
    "e_total",
    "e_ionic",
    "e_electronic",
    "n",
    "e_ij_max",
    "weighted_surface_energy_EV_PER_ANG2",
    "weighted_surface_energy",
    "weighted_work_function",
    "surface_anisotropy",
    "shape_factor",
    "has_reconstructed",
    "possible_species",
    "has_props",
    "theoretical",
    "database_IDs"
  ]
}
