{
  "builder_meta": null,
  "nsites": null,
  "elements": null,
  "nelements": null,
  "composition": null,
  "composition_reduced": null,
  "formula_pretty": "B2W",
  "formula_anonymous": "AB2",
  "chemsys": null,
  "volume": 109.8836237456423,
  "density": 12.419600521785647,
  "density_atomic": 9.156968645470192,
  "symmetry": null,
  "property_name": null,
  "material_id": "mp-569803",
  "deprecated": null,
  "deprecation_reasons": null,
  "last_updated": null,
  "origins": null,
  "warnings": null,
  "structure": {
    "@module": "pymatgen.core.structure",
    "@class": "Structure",
    "charge": 0,
    "lattice": {
      "matrix": [
        [3.01515494, -0.0, -0.0],
        [-1.50757747, 2.61120068, 0.0],
        [0.0, 0.0, 13.9567111]
      ],
      "pbc": [true, true, true],
      "a": 3.01515494,
      "b": 3.0151548582592014,
      "c": 13.9567111,
      "alpha": 90.0,
      "beta": 90.0,
      "gamma": 120.00000089679105,
      "volume": 109.8836237456423
    },
    "properties": {},
    "sites": [
      {
        "species": [{ "element": "B", "occu": 1 }],
        "abc": [0.333333, 0.666667, 0.52328069],
        "properties": { "magmom": 0.0 },
        "label": "B",
        "xyz": [-1.507577469972432e-6, 1.74080132373356, 7.303277414538659]
      },
      {
        "species": [{ "element": "B", "occu": 1 }],
        "abc": [0.666667, 0.333333, 0.47671931],
        "properties": { "magmom": 0.0 },
        "label": "B",
        "xyz": [1.50757897757747, 0.8703993562664399, 6.653433685461341]
      },
      {
        "species": [{ "element": "B", "occu": 1 }],
        "abc": [0.0, 0.0, 0.25],
        "properties": { "magmom": -0.0 },
        "label": "B",
        "xyz": [0.0, 0.0, 3.489177775]
      },
      {
        "species": [{ "element": "B", "occu": 1 }],
        "abc": [0.333333, 0.666667, 0.97671931],
        "properties": { "magmom": 0.0 },
        "label": "B",
        "xyz": [-1.507577469972432e-6, 1.74080132373356, 13.63178923546134]
      },
      {
        "species": [{ "element": "B", "occu": 1 }],
        "abc": [0.666667, 0.333333, 0.25],
        "properties": { "magmom": -0.0 },
        "label": "B",
        "xyz": [1.50757897757747, 0.8703993562664399, 3.489177775]
      },
      {
        "species": [{ "element": "B", "occu": 1 }],
        "abc": [0.666667, 0.333333, 0.02328069],
        "properties": { "magmom": 0.0 },
        "label": "B",
        "xyz": [1.50757897757747, 0.8703993562664399, 0.324921864538659]
      },
      {
        "species": [{ "element": "B", "occu": 1 }],
        "abc": [0.333333, 0.666667, 0.75],
        "properties": { "magmom": -0.0 },
        "label": "B",
        "xyz": [-1.507577469972432e-6, 1.74080132373356, 10.467533325]
      },
      {
        "species": [{ "element": "B", "occu": 1 }],
        "abc": [0.0, 0.0, 0.75],
        "properties": { "magmom": -0.0 },
        "label": "B",
        "xyz": [0.0, 0.0, 10.467533325]
      },
      {
        "species": [{ "element": "W", "occu": 1 }],
        "abc": [0.333333, 0.666667, 0.13557818],
        "properties": { "magmom": -0.0 },
        "label": "W",
        "xyz": [-1.507577469972432e-6, 1.74080132373356, 1.8922254897237978]
      },
      {
        "species": [{ "element": "W", "occu": 1 }],
        "abc": [0.666667, 0.333333, 0.63557718],
        "properties": { "magmom": -0.0 },
        "label": "W",
        "xyz": [1.50757897757747, 0.8703993562664399, 8.870567083012697]
      },
      {
        "species": [{ "element": "W", "occu": 1 }],
        "abc": [0.333333, 0.666667, 0.36442182],
        "properties": { "magmom": -0.0 },
        "label": "W",
        "xyz": [-1.507577469972432e-6, 1.74080132373356, 5.086130060276202]
      },
      {
        "species": [{ "element": "W", "occu": 1 }],
        "abc": [0.666667, 0.333333, 0.86442282],
        "properties": { "magmom": -0.0 },
        "label": "W",
        "xyz": [1.50757897757747, 0.8703993562664399, 12.064499566987303]
      }
    ]
  },
  "task_ids": null,
  "uncorrected_energy_per_atom": null,
  "energy_per_atom": -22.340906444166666,
  "formation_energy_per_atom": -0.320738852499999,
  "energy_above_hull": 0.0,
  "is_stable": true,
  "equilibrium_reaction_energy_per_atom": null,
  "decomposes_to": null,
  "xas": null,
  "grain_boundaries": null,
  "band_gap": 0.0,
  "cbm": null,
  "vbm": null,
  "efermi": 8.40488089,
  "is_gap_direct": null,
  "is_metal": null,
  "es_source_calc_id": null,
  "bandstructure": null,
  "dos": null,
  "dos_energy_up": null,
  "dos_energy_down": null,
  "is_magnetic": null,
  "ordering": null,
  "total_magnetization": 0.0,
  "total_magnetization_normalized_vol": null,
  "total_magnetization_normalized_formula_units": null,
  "num_magnetic_sites": null,
  "num_unique_magnetic_sites": null,
  "types_of_magnetic_species": null,
  "bulk_modulus": null,
  "shear_modulus": null,
  "universal_anisotropy": null,
  "homogeneous_poisson": null,
  "e_total": null,
  "e_ionic": null,
  "e_electronic": null,
  "n": null,
  "e_ij_max": null,
  "weighted_surface_energy_EV_PER_ANG2": null,
  "weighted_surface_energy": null,
  "weighted_work_function": null,
  "surface_anisotropy": null,
  "shape_factor": null,
  "has_reconstructed": null,
  "possible_species": null,
  "has_props": null,
  "theoretical": null,
  "database_IDs": null,
  "fields_not_requested": [
    "builder_meta",
    "nsites",
    "elements",
    "nelements",
    "composition",
    "composition_reduced",
    "chemsys",
    "symmetry",
    "property_name",
    "deprecated",
    "deprecation_reasons",
    "last_updated",
    "origins",
    "warnings",
    "task_ids",
    "uncorrected_energy_per_atom",
    "equilibrium_reaction_energy_per_atom",
    "decomposes_to",
    "xas",
    "grain_boundaries",
    "cbm",
    "vbm",
    "is_gap_direct",
    "is_metal",
    "es_source_calc_id",
    "bandstructure",
    "dos",
    "dos_energy_up",
    "dos_energy_down",
    "is_magnetic",
    "ordering",
    "total_magnetization_normalized_vol",
    "total_magnetization_normalized_formula_units",
    "num_magnetic_sites",
    "num_unique_magnetic_sites",
    "types_of_magnetic_species",
    "bulk_modulus",
    "shear_modulus",
    "universal_anisotropy",
    "homogeneous_poisson",
    "e_total",
    "e_ionic",
    "e_electronic",
    "n",
    "e_ij_max",
    "weighted_surface_energy_EV_PER_ANG2",
    "weighted_surface_energy",
    "weighted_work_function",
    "surface_anisotropy",
    "shape_factor",
    "has_reconstructed",
    "possible_species",
    "has_props",
    "theoretical",
    "database_IDs"
  ]
}
