{
  "builder_meta": null,
  "nsites": null,
  "elements": null,
  "nelements": null,
  "composition": null,
  "composition_reduced": null,
  "formula_pretty": "B3H4",
  "formula_anonymous": "A3B4",
  "chemsys": null,
  "volume": 1623.1132904510334,
  "density": 0.596889041724173,
  "density_atomic": 14.492082950455655,
  "symmetry": null,
  "property_name": null,
  "material_id": "mp-29446",
  "deprecated": null,
  "deprecation_reasons": null,
  "last_updated": null,
  "origins": null,
  "warnings": null,
  "structure": {
    "@module": "pymatgen.core.structure",
    "@class": "Structure",
    "charge": 0,
    "lattice": {
      "matrix": [
        [10.430011, 0.0, 0.0],
        [0.0, 11.899338, 0.0],
        [0.0, 0.0, 13.077998]
      ],
      "pbc": [true, true, true],
      "a": 10.430011,
      "b": 11.899338,
      "c": 13.077998,
      "alpha": 90.0,
      "beta": 90.0,
      "gamma": 90.0,
      "volume": 1623.1132904510334
    },
    "properties": {},
    "sites": [
      {
        "species": [{ "element": "B", "occu": 1 }],
        "abc": [0.409881, 0.40767000000000003, 0.366102999999999],
        "properties": { "magmom": -0.0 },
        "label": "B",
        "xyz": [4.275063338691, 4.851003122460001, 4.787894301793987]
      },
      {
        "species": [{ "element": "B", "occu": 1 }],
        "abc": [0.590119, 0.59233, 0.866103],
        "properties": { "magmom": -0.0 },
        "label": "B",
        "xyz": [6.1549476613089995, 7.04833487754, 11.326893301793998]
      },
      {
        "species": [{ "element": "B", "occu": 1 }],
        "abc": [0.090118999999999, 0.9076700000000001, 0.366102999999999],
        "properties": { "magmom": -0.0 },
        "label": "B",
        "xyz": [0.9399421613089897, 10.800672122460002, 4.787894301793987]
      },
      {
        "species": [{ "element": "B", "occu": 1 }],
        "abc": [0.909880999999999, 0.09233000000000001, 0.866103],
        "properties": { "magmom": -0.0 },
        "label": "B",
        "xyz": [9.490068838690991, 1.0986658775400002, 11.326893301793998]
      },
      {
        "species": [{ "element": "B", "occu": 1 }],
        "abc": [0.378947, 0.502157, 0.114669],
        "properties": { "magmom": 0.0 },
        "label": "B",
        "xyz": [3.9524213784169997, 5.975335872065999, 1.4996409526619998]
      },
      {
        "species": [{ "element": "B", "occu": 1 }],
        "abc": [0.621053, 0.497843, 0.614669],
        "properties": { "magmom": 0.0 },
        "label": "B",
        "xyz": [6.477589621583, 5.924002127934, 8.038639952661999]
      },
      {
        "species": [{ "element": "B", "occu": 1 }],
        "abc": [0.121053, 0.002157, 0.114669],
        "properties": { "magmom": 0.0 },
        "label": "B",
        "xyz": [1.262584121583, 0.025666872066, 1.4996409526619998]
      },
      {
        "species": [{ "element": "B", "occu": 1 }],
        "abc": [0.878946999999999, 0.997842999999999, 0.614669],
        "properties": { "magmom": -0.0 },
        "label": "B",
        "xyz": [9.16742687841699, 11.873671127933989, 8.038639952661999]
      },
      {
        "species": [{ "element": "B", "occu": 1 }],
        "abc": [0.269963, 0.344757, 0.332312],
        "properties": { "magmom": 0.0 },
        "label": "B",
        "xyz": [2.815717059593, 4.102380070865999, 4.345975671375999]
      },
      {
        "species": [{ "element": "B", "occu": 1 }],
        "abc": [0.730036999999999, 0.655243, 0.832311999999999],
        "properties": { "magmom": 0.0 },
        "label": "B",
        "xyz": [7.6142939404069905, 7.796957929134001, 10.884974671375987]
      },
      {
        "species": [{ "element": "B", "occu": 1 }],
        "abc": [0.230037, 0.844757, 0.332312],
        "properties": { "magmom": 0.0 },
        "label": "B",
        "xyz": [2.399288440407, 10.052049070866, 4.345975671375999]
      },
      {
        "species": [{ "element": "B", "occu": 1 }],
        "abc": [0.769963, 0.155243, 0.832311999999999],
        "properties": { "magmom": 0.0 },
        "label": "B",
        "xyz": [8.030722559593, 1.847288929134, 10.884974671375987]
      },
      {
        "species": [{ "element": "B", "occu": 1 }],
        "abc": [0.263913, 0.473211999999999, 0.403294],
        "properties": { "magmom": 0.0 },
        "label": "B",
        "xyz": [2.7526154930430002, 5.630909533655989, 5.274278125412]
      },
      {
        "species": [{ "element": "B", "occu": 1 }],
        "abc": [0.736086999999999, 0.526787999999999, 0.903293999999999],
        "properties": { "magmom": 0.0 },
        "label": "B",
        "xyz": [7.67739550695699, 6.268428466343988, 11.813277125411986]
      },
      {
        "species": [{ "element": "B", "occu": 1 }],
        "abc": [0.236087, 0.973212, 0.403294],
        "properties": { "magmom": 0.0 },
        "label": "B",
        "xyz": [2.462390006957, 11.580578533656, 5.274278125412]
      },
      {
        "species": [{ "element": "B", "occu": 1 }],
        "abc": [0.763913, 0.026788, 0.903293999999999],
        "properties": { "magmom": 0.0 },
        "label": "B",
        "xyz": [7.967620993043, 0.318759466344, 11.813277125411986]
      },
      {
        "species": [{ "element": "B", "occu": 1 }],
        "abc": [0.400545, 0.552001, 0.33322],
        "properties": { "magmom": -0.0 },
        "label": "B",
        "xyz": [4.177688755995, 6.568446475338, 4.35785049356]
      },
      {
        "species": [{ "element": "B", "occu": 1 }],
        "abc": [0.599455, 0.447999, 0.8332200000000001],
        "properties": { "magmom": -0.0 },
        "label": "B",
        "xyz": [6.252322244005, 5.3308915246619994, 10.89684949356]
      },
      {
        "species": [{ "element": "B", "occu": 1 }],
        "abc": [0.099455, 0.052001, 0.33322],
        "properties": { "magmom": -0.0 },
        "label": "B",
        "xyz": [1.037316744005, 0.618777475338, 4.35785049356]
      },
      {
        "species": [{ "element": "B", "occu": 1 }],
        "abc": [0.900544999999999, 0.947998999999999, 0.8332200000000001],
        "properties": { "magmom": -0.0 },
        "label": "B",
        "xyz": [9.392694255994991, 11.280560524661988, 10.89684949356]
      },
      {
        "species": [{ "element": "B", "occu": 1 }],
        "abc": [0.450586, 0.464082999999999, 0.230777999999999],
        "properties": { "magmom": -0.0 },
        "label": "B",
        "xyz": [4.699616936446, 5.522280477053989, 3.018114222443987]
      },
      {
        "species": [{ "element": "B", "occu": 1 }],
        "abc": [0.549414, 0.535917, 0.730777999999999],
        "properties": { "magmom": -0.0 },
        "label": "B",
        "xyz": [5.730394063554, 6.377057522946, 9.557113222443986]
      },
      {
        "species": [{ "element": "B", "occu": 1 }],
        "abc": [0.049414, 0.964082999999999, 0.230777999999999],
        "properties": { "magmom": -0.0 },
        "label": "B",
        "xyz": [0.515388563554, 11.471949477053988, 3.018114222443987]
      },
      {
        "species": [{ "element": "B", "occu": 1 }],
        "abc": [0.950585999999999, 0.035917, 0.730777999999999],
        "properties": { "magmom": -0.0 },
        "label": "B",
        "xyz": [9.91462243644599, 0.427388522946, 9.557113222443986]
      },
      {
        "species": [{ "element": "B", "occu": 1 }],
        "abc": [0.21129799999999901, 0.476325, 0.10338000000000001],
        "properties": { "magmom": -0.0 },
        "label": "B",
        "xyz": [2.20384046427799, 5.66795217285, 1.3520034332400002]
      },
      {
        "species": [{ "element": "B", "occu": 1 }],
        "abc": [0.788702, 0.523675, 0.60338],
        "properties": { "magmom": -0.0 },
        "label": "B",
        "xyz": [8.226170535722, 6.2313858271500004, 7.89100243324]
      },
      {
        "species": [{ "element": "B", "occu": 1 }],
        "abc": [0.288702, 0.976325, 0.10338000000000001],
        "properties": { "magmom": -0.0 },
        "label": "B",
        "xyz": [3.011165035722, 11.61762117285, 1.3520034332400002]
      },
      {
        "species": [{ "element": "B", "occu": 1 }],
        "abc": [0.711298, 0.023674999999999002, 0.60338],
        "properties": { "magmom": -0.0 },
        "label": "B",
        "xyz": [7.418845964278, 0.28171682714998814, 7.89100243324]
      },
      {
        "species": [{ "element": "B", "occu": 1 }],
        "abc": [0.171442999999999, 0.716703, 0.085290999999999],
        "properties": { "magmom": 0.0 },
        "label": "B",
        "xyz": [1.7881523758729898, 8.528291242614, 1.115435527417987]
      },
      {
        "species": [{ "element": "B", "occu": 1 }],
        "abc": [0.828557, 0.283296999999999, 0.585291],
        "properties": { "magmom": 0.0 },
        "label": "B",
        "xyz": [8.641858624127, 3.3710467573859884, 7.654434527417999]
      },
      {
        "species": [{ "element": "B", "occu": 1 }],
        "abc": [0.328557, 0.216702999999999, 0.085290999999999],
        "properties": { "magmom": 0.0 },
        "label": "B",
        "xyz": [3.426853124127, 2.578622242613988, 1.115435527417987]
      },
      {
        "species": [{ "element": "B", "occu": 1 }],
        "abc": [0.671443, 0.783296999999999, 0.585291],
        "properties": { "magmom": 0.0 },
        "label": "B",
        "xyz": [7.003157875873001, 9.320715757385988, 7.654434527417999]
      },
      {
        "species": [{ "element": "B", "occu": 1 }],
        "abc": [0.264451999999999, 0.60777, 0.133141999999999],
        "properties": { "magmom": 0.0 },
        "label": "B",
        "xyz": [2.75823726897199, 7.232060656260001, 1.741230809715987]
      },
      {
        "species": [{ "element": "B", "occu": 1 }],
        "abc": [0.735548, 0.39223, 0.633142],
        "properties": { "magmom": 0.0 },
        "label": "B",
        "xyz": [7.671773731028, 4.66727734374, 8.280229809716]
      },
      {
        "species": [{ "element": "B", "occu": 1 }],
        "abc": [0.235547999999999, 0.10777, 0.133141999999999],
        "properties": { "magmom": 0.0 },
        "label": "B",
        "xyz": [2.45676823102799, 1.2823916562600002, 1.741230809715987]
      },
      {
        "species": [{ "element": "B", "occu": 1 }],
        "abc": [0.764452, 0.8922300000000001, 0.633142],
        "properties": { "magmom": 0.0 },
        "label": "B",
        "xyz": [7.973242768972001, 10.61694634374, 8.280229809716]
      },
      {
        "species": [{ "element": "B", "occu": 1 }],
        "abc": [0.402001, 0.604573, 0.210232],
        "properties": { "magmom": 0.0 },
        "label": "B",
        "xyz": [4.192874852011, 7.194018472674, 2.7494136755359997]
      },
      {
        "species": [{ "element": "B", "occu": 1 }],
        "abc": [0.597999, 0.395427, 0.710232],
        "properties": { "magmom": 0.0 },
        "label": "B",
        "xyz": [6.237136147988999, 4.705319527326, 9.288412675536]
      },
      {
        "species": [{ "element": "B", "occu": 1 }],
        "abc": [0.097998999999999, 0.104573, 0.210232],
        "properties": { "magmom": 0.0 },
        "label": "B",
        "xyz": [1.0221306479889896, 1.244349472674, 2.7494136755359997]
      },
      {
        "species": [{ "element": "B", "occu": 1 }],
        "abc": [0.902000999999999, 0.895427, 0.710232],
        "properties": { "magmom": 0.0 },
        "label": "B",
        "xyz": [9.40788035201099, 10.654988527326, 9.288412675536]
      },
      {
        "species": [{ "element": "B", "occu": 1 }],
        "abc": [0.312409, 0.385698999999999, 0.176985],
        "properties": { "magmom": -0.0 },
        "label": "B",
        "xyz": [3.258429306499, 4.589562767261988, 2.31460947603]
      },
      {
        "species": [{ "element": "B", "occu": 1 }],
        "abc": [0.687591, 0.614301, 0.676985],
        "properties": { "magmom": -0.0 },
        "label": "B",
        "xyz": [7.1715816935009995, 7.309775232738, 8.853608476029999]
      },
      {
        "species": [{ "element": "B", "occu": 1 }],
        "abc": [0.187590999999999, 0.885699, 0.176985],
        "properties": { "magmom": -0.0 },
        "label": "B",
        "xyz": [1.9565761935009898, 10.539231767262, 2.31460947603]
      },
      {
        "species": [{ "element": "B", "occu": 1 }],
        "abc": [0.812408999999999, 0.114301, 0.676985],
        "properties": { "magmom": -0.0 },
        "label": "B",
        "xyz": [8.47343480649899, 1.360106232738, 8.853608476029999]
      },
      {
        "species": [{ "element": "B", "occu": 1 }],
        "abc": [0.111298, 0.587919, 0.131553],
        "properties": { "magmom": -0.0 },
        "label": "B",
        "xyz": [1.160839364278, 6.995846897622, 1.720449870894]
      },
      {
        "species": [{ "element": "B", "occu": 1 }],
        "abc": [0.888702, 0.412081, 0.631552999999999],
        "properties": { "magmom": -0.0 },
        "label": "B",
        "xyz": [9.269171635722, 4.903491102378, 8.259448870893987]
      },
      {
        "species": [{ "element": "B", "occu": 1 }],
        "abc": [0.388702, 0.087919, 0.131553],
        "properties": { "magmom": -0.0 },
        "label": "B",
        "xyz": [4.054166135722, 1.046177897622, 1.720449870894]
      },
      {
        "species": [{ "element": "B", "occu": 1 }],
        "abc": [0.611298, 0.912080999999999, 0.631552999999999],
        "properties": { "magmom": -0.0 },
        "label": "B",
        "xyz": [6.375844864278, 10.853160102377988, 8.259448870893987]
      },
      {
        "species": [{ "element": "H", "occu": 1 }],
        "abc": [0.217787999999999, 0.371297, 0.237759],
        "properties": { "magmom": -0.0 },
        "label": "H",
        "xyz": [2.2715312356679895, 4.418188501386, 3.1094117264819996]
      },
      {
        "species": [{ "element": "H", "occu": 1 }],
        "abc": [0.782212, 0.628703, 0.737758999999999],
        "properties": { "magmom": -0.0 },
        "label": "H",
        "xyz": [8.158479764332, 7.481149498614, 9.648410726481988]
      },
      {
        "species": [{ "element": "H", "occu": 1 }],
        "abc": [0.282211999999999, 0.871297, 0.237759],
        "properties": { "magmom": -0.0 },
        "label": "H",
        "xyz": [2.9434742643319898, 10.367857501386, 3.1094117264819996]
      },
      {
        "species": [{ "element": "H", "occu": 1 }],
        "abc": [0.717788, 0.128702999999999, 0.737758999999999],
        "properties": { "magmom": -0.0 },
        "label": "H",
        "xyz": [7.486536735668, 1.5314804986139883, 9.648410726481988]
      },
      {
        "species": [{ "element": "H", "occu": 1 }],
        "abc": [0.153184, 0.474881999999999, 0.372728],
        "properties": { "magmom": -0.0 },
        "label": "H",
        "xyz": [1.5977108050239999, 5.650781428115988, 4.874536038544]
      },
      {
        "species": [{ "element": "H", "occu": 1 }],
        "abc": [0.846816, 0.525118, 0.872728],
        "properties": { "magmom": -0.0 },
        "label": "H",
        "xyz": [8.832300194976, 6.2485565718839995, 11.413535038543998]
      },
      {
        "species": [{ "element": "H", "occu": 1 }],
        "abc": [0.346815999999999, 0.974881999999999, 0.372728],
        "properties": { "magmom": -0.0 },
        "label": "H",
        "xyz": [3.61729469497599, 11.60045042811599, 4.874536038544]
      },
      {
        "species": [{ "element": "H", "occu": 1 }],
        "abc": [0.653184, 0.025117999999999002, 0.872728],
        "properties": { "magmom": -0.0 },
        "label": "H",
        "xyz": [6.812716305024, 0.2988875718839881, 11.413535038543998]
      },
      {
        "species": [{ "element": "H", "occu": 1 }],
        "abc": [0.277787, 0.568811, 0.349584],
        "properties": { "magmom": 0.0 },
        "label": "H",
        "xyz": [2.8973214656570003, 6.768474347118, 4.571858852831999]
      },
      {
        "species": [{ "element": "H", "occu": 1 }],
        "abc": [0.722213, 0.431189, 0.849584],
        "properties": { "magmom": 0.0 },
        "label": "H",
        "xyz": [7.5326895343430005, 5.130863652882, 11.110857852832]
      },
      {
        "species": [{ "element": "H", "occu": 1 }],
        "abc": [0.222213, 0.068811, 0.349584],
        "properties": { "magmom": 0.0 },
        "label": "H",
        "xyz": [2.317684034343, 0.818805347118, 4.571858852831999]
      },
      {
        "species": [{ "element": "H", "occu": 1 }],
        "abc": [0.777787, 0.931188999999999, 0.849584],
        "properties": { "magmom": 0.0 },
        "label": "H",
        "xyz": [8.112326965657001, 11.080532652881988, 11.110857852832]
      },
      {
        "species": [{ "element": "H", "occu": 1 }],
        "abc": [0.289873, 0.708643, 0.068456],
        "properties": { "magmom": -0.0 },
        "label": "H",
        "xyz": [3.023378578603, 8.432382578334, 0.895267431088]
      },
      {
        "species": [{ "element": "H", "occu": 1 }],
        "abc": [0.710127, 0.291357, 0.568456],
        "properties": { "magmom": -0.0 },
        "label": "H",
        "xyz": [7.406632421397, 3.466955421666, 7.434266431087999]
      },
      {
        "species": [{ "element": "H", "occu": 1 }],
        "abc": [0.210126999999999, 0.208643, 0.068456],
        "properties": { "magmom": -0.0 },
        "label": "H",
        "xyz": [2.1916269213969897, 2.482713578334, 0.895267431088]
      },
      {
        "species": [{ "element": "H", "occu": 1 }],
        "abc": [0.789872999999999, 0.791357, 0.568456],
        "properties": { "magmom": -0.0 },
        "label": "H",
        "xyz": [8.23838407860299, 9.416624421666, 7.434266431087999]
      },
      {
        "species": [{ "element": "H", "occu": 1 }],
        "abc": [0.47413000000000005, 0.680690999999999, 0.192687],
        "properties": { "magmom": -0.0 },
        "label": "H",
        "xyz": [4.9451811154300005, 8.09977228255799, 2.519960200626]
      },
      {
        "species": [{ "element": "H", "occu": 1 }],
        "abc": [0.5258700000000001, 0.319309, 0.692686999999999],
        "properties": { "magmom": -0.0 },
        "label": "H",
        "xyz": [5.484829884570001, 3.7995657174420003, 9.058959200625987]
      },
      {
        "species": [{ "element": "H", "occu": 1 }],
        "abc": [0.02587, 0.180691, 0.192687],
        "properties": { "magmom": -0.0 },
        "label": "H",
        "xyz": [0.26982438457, 2.1501032825579998, 2.519960200626]
      },
      {
        "species": [{ "element": "H", "occu": 1 }],
        "abc": [0.97413, 0.819309, 0.692686999999999],
        "properties": { "magmom": -0.0 },
        "label": "H",
        "xyz": [10.160186615430002, 9.749234717442, 9.058959200625987]
      },
      {
        "species": [{ "element": "H", "occu": 1 }],
        "abc": [0.439532, 0.48148799999999903, 0.039458],
        "properties": { "magmom": -0.0 },
        "label": "H",
        "xyz": [4.584323594852, 5.729388454943988, 0.516031645084]
      },
      {
        "species": [{ "element": "H", "occu": 1 }],
        "abc": [0.560468, 0.518512, 0.539458],
        "properties": { "magmom": -0.0 },
        "label": "H",
        "xyz": [5.8456874051479994, 6.169949545055999, 7.055030645083999]
      },
      {
        "species": [{ "element": "H", "occu": 1 }],
        "abc": [0.060467999999999, 0.981487999999999, 0.039458],
        "properties": { "magmom": -0.0 },
        "label": "H",
        "xyz": [0.6306819051479896, 11.679057454943989, 0.516031645084]
      },
      {
        "species": [{ "element": "H", "occu": 1 }],
        "abc": [0.939531999999999, 0.018512, 0.539458],
        "properties": { "magmom": -0.0 },
        "label": "H",
        "xyz": [9.79932909485199, 0.220280545056, 7.055030645083999]
      },
      {
        "species": [{ "element": "H", "occu": 1 }],
        "abc": [0.485342, 0.379501, 0.429936999999999],
        "properties": { "magmom": 0.0 },
        "label": "H",
        "xyz": [5.062122398762, 4.515810670337999, 5.622715226125987]
      },
      {
        "species": [{ "element": "H", "occu": 1 }],
        "abc": [0.514658, 0.620499, 0.9299369999999991],
        "properties": { "magmom": 0.0 },
        "label": "H",
        "xyz": [5.367888601238, 7.383527329662001, 12.161714226125987]
      },
      {
        "species": [{ "element": "H", "occu": 1 }],
        "abc": [0.014658, 0.879501, 0.429936999999999],
        "properties": { "magmom": 0.0 },
        "label": "H",
        "xyz": [0.152883101238, 10.465479670338, 5.622715226125987]
      },
      {
        "species": [{ "element": "H", "occu": 1 }],
        "abc": [0.143721, 0.435218999999999, 0.038860000000000006],
        "properties": { "magmom": 0.0 },
        "label": "H",
        "xyz": [1.4990116109309999, 5.178817985021989, 0.50821100228]
      },
      {
        "species": [{ "element": "H", "occu": 1 }],
        "abc": [0.985341999999999, 0.120499, 0.9299369999999991],
        "properties": { "magmom": 0.0 },
        "label": "H",
        "xyz": [10.277127898761991, 1.433858329662, 12.161714226125987]
      },
      {
        "species": [{ "element": "H", "occu": 1 }],
        "abc": [0.635856, 0.709704999999999, 0.657835],
        "properties": { "magmom": -0.0 },
        "label": "H",
        "xyz": [6.631985074416, 8.445019675289988, 8.603164814329999]
      },
      {
        "species": [{ "element": "H", "occu": 1 }],
        "abc": [0.135856, 0.790295, 0.157835],
        "properties": { "magmom": -0.0 },
        "label": "H",
        "xyz": [1.416979574416, 9.40398732471, 2.06416581433]
      },
      {
        "species": [{ "element": "H", "occu": 1 }],
        "abc": [0.864143999999999, 0.209705, 0.657835],
        "properties": { "magmom": -0.0 },
        "label": "H",
        "xyz": [9.013031425583991, 2.49535067529, 8.603164814329999]
      },
      {
        "species": [{ "element": "H", "occu": 1 }],
        "abc": [0.201428, 0.267557999999999, 0.351776],
        "properties": { "magmom": -0.0 },
        "label": "H",
        "xyz": [2.100896255708, 3.1837630766039884, 4.600525824447999]
      },
      {
        "species": [{ "element": "H", "occu": 1 }],
        "abc": [0.798572, 0.732441999999999, 0.851776],
        "properties": { "magmom": -0.0 },
        "label": "H",
        "xyz": [8.329114744292, 8.71557492339599, 11.139524824448]
      },
      {
        "species": [{ "element": "H", "occu": 1 }],
        "abc": [0.298572, 0.767558, 0.351776],
        "properties": { "magmom": -0.0 },
        "label": "H",
        "xyz": [3.114109244292, 9.133432076604, 4.600525824447999]
      },
      {
        "species": [{ "element": "H", "occu": 1 }],
        "abc": [0.701427999999999, 0.232441999999999, 0.851776],
        "properties": { "magmom": -0.0 },
        "label": "H",
        "xyz": [7.315901755707991, 2.765905923395988, 11.139524824448]
      },
      {
        "species": [{ "element": "H", "occu": 1 }],
        "abc": [0.266505, 0.480983, 0.494591],
        "properties": { "magmom": -0.0 },
        "label": "H",
        "xyz": [2.779650081555, 5.723379289254, 6.468260108818]
      },
      {
        "species": [{ "element": "H", "occu": 1 }],
        "abc": [0.733495, 0.519017, 0.994591],
        "properties": { "magmom": -0.0 },
        "label": "H",
        "xyz": [7.650360918445, 6.1759587107459994, 13.007259108818]
      },
      {
        "species": [{ "element": "H", "occu": 1 }],
        "abc": [0.233494999999999, 0.980982999999999, 0.494591],
        "properties": { "magmom": -0.0 },
        "label": "H",
        "xyz": [2.4353554184449897, 11.67304828925399, 6.468260108818]
      },
      {
        "species": [{ "element": "H", "occu": 1 }],
        "abc": [0.766505, 0.019017, 0.994591],
        "properties": { "magmom": -0.0 },
        "label": "H",
        "xyz": [7.9946555815550004, 0.226289710746, 13.007259108818]
      },
      {
        "species": [{ "element": "H", "occu": 1 }],
        "abc": [0.46983199999999903, 0.598441, 0.392360999999999],
        "properties": { "magmom": 0.0 },
        "label": "H",
        "xyz": [4.90035292815199, 7.1210517320580005, 5.131296373277987]
      },
      {
        "species": [{ "element": "H", "occu": 1 }],
        "abc": [0.530168, 0.401559, 0.892361],
        "properties": { "magmom": 0.0 },
        "label": "H",
        "xyz": [5.529658071848, 4.778286267942, 11.670295373277998]
      },
      {
        "species": [{ "element": "H", "occu": 1 }],
        "abc": [0.030167999999999, 0.098441, 0.392360999999999],
        "properties": { "magmom": 0.0 },
        "label": "H",
        "xyz": [0.3146525718479896, 1.171382732058, 5.131296373277987]
      },
      {
        "species": [{ "element": "H", "occu": 1 }],
        "abc": [0.969831999999999, 0.901559, 0.892361],
        "properties": { "magmom": 0.0 },
        "label": "H",
        "xyz": [10.11535842815199, 10.727955267942, 11.670295373277998]
      },
      {
        "species": [{ "element": "H", "occu": 1 }],
        "abc": [0.55855, 0.43157, 0.220396999999999],
        "properties": { "magmom": 0.0 },
        "label": "H",
        "xyz": [5.8256826440500005, 5.13539730066, 2.882351525205987]
      },
      {
        "species": [{ "element": "H", "occu": 1 }],
        "abc": [0.44145, 0.5684300000000001, 0.720397],
        "properties": { "magmom": 0.0 },
        "label": "H",
        "xyz": [4.60432835595, 6.763940699340002, 9.421350525205998]
      },
      {
        "species": [{ "element": "H", "occu": 1 }],
        "abc": [0.9414500000000001, 0.9315700000000001, 0.220396999999999],
        "properties": { "magmom": 0.0 },
        "label": "H",
        "xyz": [9.819333855950001, 11.085066300660001, 2.882351525205987]
      },
      {
        "species": [{ "element": "H", "occu": 1 }],
        "abc": [0.058550000000000005, 0.06843, 0.720397],
        "properties": { "magmom": 0.0 },
        "label": "H",
        "xyz": [0.6106771440500001, 0.8142716993400001, 9.421350525205998]
      },
      {
        "species": [{ "element": "H", "occu": 1 }],
        "abc": [0.49917599999999906, 0.9238600000000001, 0.638822999999999],
        "properties": { "magmom": 0.0 },
        "label": "H",
        "xyz": [5.206411170935991, 10.993322404680002, 8.354525916353987]
      },
      {
        "species": [{ "element": "H", "occu": 1 }],
        "abc": [0.500823999999999, 0.07614, 0.138823],
        "properties": { "magmom": 0.0 },
        "label": "H",
        "xyz": [5.22359982906399, 0.90601559532, 1.815526916354]
      },
      {
        "species": [{ "element": "H", "occu": 1 }],
        "abc": [0.000824, 0.42386, 0.638822999999999],
        "properties": { "magmom": 0.0 },
        "label": "H",
        "xyz": [0.008594329064, 5.043653404680001, 8.354525916353987]
      },
      {
        "species": [{ "element": "H", "occu": 1 }],
        "abc": [0.999176, 0.5761400000000001, 0.138823],
        "properties": { "magmom": 0.0 },
        "label": "H",
        "xyz": [10.421416670935999, 6.855684595320001, 1.815526916354]
      },
      {
        "species": [{ "element": "H", "occu": 1 }],
        "abc": [0.6173700000000001, 0.699665, 0.836102],
        "properties": { "magmom": -0.0 },
        "label": "H",
        "xyz": [6.439175891070001, 8.32555032177, 10.934540283796]
      },
      {
        "species": [{ "element": "H", "occu": 1 }],
        "abc": [0.38263, 0.300334999999999, 0.336102],
        "properties": { "magmom": -0.0 },
        "label": "H",
        "xyz": [3.9908351089300003, 3.5737876782299884, 4.395541283796]
      },
      {
        "species": [{ "element": "H", "occu": 1 }],
        "abc": [0.88263, 0.199664999999999, 0.836102],
        "properties": { "magmom": -0.0 },
        "label": "H",
        "xyz": [9.20584060893, 2.375881321769988, 10.934540283796]
      },
      {
        "species": [{ "element": "H", "occu": 1 }],
        "abc": [0.11737000000000002, 0.800335, 0.336102],
        "properties": { "magmom": -0.0 },
        "label": "H",
        "xyz": [1.2241703910700001, 9.52345667823, 4.395541283796]
      },
      {
        "species": [{ "element": "H", "occu": 1 }],
        "abc": [0.618257, 0.754216999999999, 0.508788],
        "properties": { "magmom": -0.0 },
        "label": "H",
        "xyz": [6.448427310826999, 8.97468300834599, 6.653928446424]
      },
      {
        "species": [{ "element": "H", "occu": 1 }],
        "abc": [0.381743, 0.245783, 0.008787999999999001],
        "properties": { "magmom": -0.0 },
        "label": "H",
        "xyz": [3.981583689173, 2.924654991654, 0.11492944642398693]
      },
      {
        "species": [{ "element": "H", "occu": 1 }],
        "abc": [0.881742999999999, 0.254216999999999, 0.508788],
        "properties": { "magmom": -0.0 },
        "label": "H",
        "xyz": [9.19658918917299, 3.0250140083459884, 6.653928446424]
      },
      {
        "species": [{ "element": "H", "occu": 1 }],
        "abc": [0.118257, 0.745783, 0.008787999999999001],
        "properties": { "magmom": -0.0 },
        "label": "H",
        "xyz": [1.233421810827, 8.874323991654, 0.11492944642398693]
      },
      {
        "species": [{ "element": "H", "occu": 1 }],
        "abc": [0.643721, 0.064780999999999, 0.53886],
        "properties": { "magmom": 0.0 },
        "label": "H",
        "xyz": [6.7140171109310005, 0.7708510149779881, 7.04721000228]
      },
      {
        "species": [{ "element": "H", "occu": 1 }],
        "abc": [0.356278999999999, 0.935218999999999, 0.038860000000000006],
        "properties": { "magmom": 0.0 },
        "label": "H",
        "xyz": [3.7159938890689896, 11.128486985021988, 0.50821100228]
      },
      {
        "species": [{ "element": "H", "occu": 1 }],
        "abc": [0.856279, 0.564781, 0.53886],
        "properties": { "magmom": 0.0 },
        "label": "H",
        "xyz": [8.930999389069001, 6.720520014978, 7.04721000228]
      },
      {
        "species": [{ "element": "H", "occu": 1 }],
        "abc": [0.364143999999999, 0.290294999999999, 0.157835],
        "properties": { "magmom": -0.0 },
        "label": "H",
        "xyz": [3.79802592558399, 3.4543183247099885, 2.06416581433]
      }
    ]
  },
  "task_ids": null,
  "uncorrected_energy_per_atom": null,
  "energy_per_atom": -5.05128916325893,
  "formation_energy_per_atom": 0.07149829352678301,
  "energy_above_hull": 0.167773144352677,
  "is_stable": false,
  "equilibrium_reaction_energy_per_atom": null,
  "decomposes_to": null,
  "xas": null,
  "grain_boundaries": null,
  "band_gap": 2.3449,
  "cbm": null,
  "vbm": null,
  "efermi": -2.46679185,
  "is_gap_direct": null,
  "is_metal": null,
  "es_source_calc_id": null,
  "bandstructure": null,
  "dos": null,
  "dos_energy_up": null,
  "dos_energy_down": null,
  "is_magnetic": null,
  "ordering": null,
  "total_magnetization": 0.0,
  "total_magnetization_normalized_vol": null,
  "total_magnetization_normalized_formula_units": null,
  "num_magnetic_sites": null,
  "num_unique_magnetic_sites": null,
  "types_of_magnetic_species": null,
  "bulk_modulus": null,
  "shear_modulus": null,
  "universal_anisotropy": null,
  "homogeneous_poisson": null,
  "e_total": null,
  "e_ionic": null,
  "e_electronic": null,
  "n": null,
  "e_ij_max": null,
  "weighted_surface_energy_EV_PER_ANG2": null,
  "weighted_surface_energy": null,
  "weighted_work_function": null,
  "surface_anisotropy": null,
  "shape_factor": null,
  "has_reconstructed": null,
  "possible_species": null,
  "has_props": null,
  "theoretical": null,
  "database_IDs": null,
  "fields_not_requested": [
    "builder_meta",
    "nsites",
    "elements",
    "nelements",
    "composition",
    "composition_reduced",
    "chemsys",
    "symmetry",
    "property_name",
    "deprecated",
    "deprecation_reasons",
    "last_updated",
    "origins",
    "warnings",
    "task_ids",
    "uncorrected_energy_per_atom",
    "equilibrium_reaction_energy_per_atom",
    "decomposes_to",
    "xas",
    "grain_boundaries",
    "cbm",
    "vbm",
    "is_gap_direct",
    "is_metal",
    "es_source_calc_id",
    "bandstructure",
    "dos",
    "dos_energy_up",
    "dos_energy_down",
    "is_magnetic",
    "ordering",
    "total_magnetization_normalized_vol",
    "total_magnetization_normalized_formula_units",
    "num_magnetic_sites",
    "num_unique_magnetic_sites",
    "types_of_magnetic_species",
    "bulk_modulus",
    "shear_modulus",
    "universal_anisotropy",
    "homogeneous_poisson",
    "e_total",
    "e_ionic",
    "e_electronic",
    "n",
    "e_ij_max",
    "weighted_surface_energy_EV_PER_ANG2",
    "weighted_surface_energy",
    "weighted_work_function",
    "surface_anisotropy",
    "shape_factor",
    "has_reconstructed",
    "possible_species",
    "has_props",
    "theoretical",
    "database_IDs"
  ]
}
