{
  "builder_meta": null,
  "nsites": null,
  "elements": null,
  "nelements": null,
  "composition": null,
  "composition_reduced": null,
  "formula_pretty": "B3H5",
  "formula_anonymous": "A3B5",
  "chemsys": null,
  "volume": 920.0339432608655,
  "density": 0.811598955496431,
  "density_atomic": 9.58368690896735,
  "symmetry": null,
  "property_name": null,
  "material_id": "mp-569405",
  "deprecated": null,
  "deprecation_reasons": null,
  "last_updated": null,
  "origins": null,
  "warnings": null,
  "structure": {
    "@module": "pymatgen.core.structure",
    "@class": "Structure",
    "charge": 0,
    "lattice": {
      "matrix": [
        [7.126046, 0.0, 0.0],
        [0.0, 11.46633, 0.0],
        [0.0, 7.716496, 11.259803]
      ],
      "pbc": [true, true, true],
      "a": 7.126046,
      "b": 11.46633,
      "c": 13.650182200865489,
      "alpha": 55.576629304306245,
      "beta": 90.0,
      "gamma": 90.0,
      "volume": 920.0339432608655
    },
    "properties": {},
    "sites": [
      {
        "species": [{ "element": "B", "occu": 1 }],
        "abc": [0.198472999999999, 0.12723399999999901, 0.658624],
        "properties": { "magmom": 0.0 },
        "label": "B",
        "xyz": [1.4143277277579929, 6.541176492723989, 7.415976491072]
      },
      {
        "species": [{ "element": "B", "occu": 1 }],
        "abc": [0.870896, 0.712067999999999, 0.468985],
        "properties": { "magmom": 0.0 },
        "label": "B",
        "xyz": [6.206044957216, 11.783727546999987, 5.280678709955]
      },
      {
        "species": [{ "element": "B", "occu": 1 }],
        "abc": [0.76766, 0.009873999999999002, 0.37007],
        "properties": { "magmom": 0.0 },
        "label": "B",
        "xyz": [5.47038047236, 2.9688622171399888, 4.16691529621]
      },
      {
        "species": [{ "element": "B", "occu": 1 }],
        "abc": [0.23234000000000002, 0.990126, 0.6299300000000001],
        "properties": { "magmom": 0.0 },
        "label": "B",
        "xyz": [1.65566552764, 16.21396378286, 7.092887703790001]
      },
      {
        "species": [{ "element": "B", "occu": 1 }],
        "abc": [0.508381, 0.319505, 0.454713],
        "properties": { "magmom": 0.0 },
        "label": "B",
        "xyz": [3.6227463915259994, 7.172340812298, 5.119978801538999]
      },
      {
        "species": [{ "element": "B", "occu": 1 }],
        "abc": [0.134404, 0.324331, 0.847541999999999],
        "properties": { "magmom": 0.0 },
        "label": "B",
        "xyz": [0.957769086584, 10.258940728061992, 9.54315595422599]
      },
      {
        "species": [{ "element": "B", "occu": 1 }],
        "abc": [0.008381, 0.680495, 0.045287],
        "properties": { "magmom": 0.0 },
        "label": "B",
        "xyz": [0.059723391525999994, 8.152237187702, 0.509922698461]
      },
      {
        "species": [{ "element": "B", "occu": 1 }],
        "abc": [0.791202, 0.597214, 0.081507],
        "properties": { "magmom": 0.0 },
        "label": "B",
        "xyz": [5.638141847291999, 7.476801244092, 0.917752763121]
      },
      {
        "species": [{ "element": "B", "occu": 1 }],
        "abc": [0.26766, 0.990126, 0.12993000000000002],
        "properties": { "magmom": 0.0 },
        "label": "B",
        "xyz": [1.90735747236, 12.355715782859999, 1.46298620379]
      },
      {
        "species": [{ "element": "B", "occu": 1 }],
        "abc": [0.365596, 0.324331, 0.347541999999999],
        "properties": { "magmom": 0.0 },
        "label": "B",
        "xyz": [2.6052539134159995, 6.400692728061992, 3.913254454225989]
      },
      {
        "species": [{ "element": "B", "occu": 1 }],
        "abc": [0.872087, 0.703885, 0.600704],
        "properties": { "magmom": 0.0 },
        "label": "B",
        "xyz": [6.214532078002, 12.706307705234, 6.763808701312]
      },
      {
        "species": [{ "element": "B", "occu": 1 }],
        "abc": [0.627912999999999, 0.703885, 0.100704],
        "properties": { "magmom": 0.0 },
        "label": "B",
        "xyz": [4.474536921997993, 8.848059705233998, 1.133907201312]
      },
      {
        "species": [{ "element": "B", "occu": 1 }],
        "abc": [0.698473, 0.872765999999999, 0.841376],
        "properties": { "magmom": 0.0 },
        "label": "B",
        "xyz": [4.977350727758, 16.49989750727599, 9.473728008928]
      },
      {
        "species": [{ "element": "B", "occu": 1 }],
        "abc": [0.301527, 0.12723399999999901, 0.158624],
        "properties": { "magmom": 0.0 },
        "label": "B",
        "xyz": [2.1486952722419996, 2.6829284927239883, 1.7860749910719997]
      },
      {
        "species": [{ "element": "B", "occu": 1 }],
        "abc": [0.629104, 0.712067999999999, 0.968985],
        "properties": { "magmom": 0.0 },
        "label": "B",
        "xyz": [4.483024042784, 15.641975546999989, 10.910580209955]
      },
      {
        "species": [{ "element": "B", "occu": 1 }],
        "abc": [0.860074, 0.710337999999999, 0.927068],
        "properties": { "magmom": 0.0 },
        "label": "B",
        "xyz": [6.128926887404, 15.298686433267989, 10.438603047604]
      },
      {
        "species": [{ "element": "B", "occu": 1 }],
        "abc": [0.372087, 0.296114999999999, 0.899296],
        "properties": { "magmom": 0.0 },
        "label": "B",
        "xyz": [2.651509078002, 10.33476629476599, 10.125895798688]
      },
      {
        "species": [{ "element": "B", "occu": 1 }],
        "abc": [0.991618999999999, 0.319505, 0.954712999999999],
        "properties": { "magmom": 0.0 },
        "label": "B",
        "xyz": [7.0663226084739925, 11.030588812297992, 10.749880301538989]
      },
      {
        "species": [{ "element": "B", "occu": 1 }],
        "abc": [0.055817, 0.130938, 0.550323],
        "properties": { "magmom": 0.0 },
        "label": "B",
        "xyz": [0.397754509582, 5.747943545748001, 6.1965285663689995]
      },
      {
        "species": [{ "element": "B", "occu": 1 }],
        "abc": [0.639926, 0.710337999999999, 0.427068],
        "properties": { "magmom": 0.0 },
        "label": "B",
        "xyz": [4.560142112596, 11.440438433267989, 4.808701547604]
      },
      {
        "species": [{ "element": "B", "occu": 1 }],
        "abc": [0.444183, 0.130938, 0.050323],
        "properties": { "magmom": 0.0 },
        "label": "B",
        "xyz": [3.1652684904179997, 1.889695545748, 0.566627066369]
      },
      {
        "species": [{ "element": "B", "occu": 1 }],
        "abc": [0.7323400000000001, 0.009873999999999002, 0.8700700000000001],
        "properties": { "magmom": 0.0 },
        "label": "B",
        "xyz": [5.21868852764, 6.82711021713999, 9.79681679621]
      },
      {
        "species": [{ "element": "B", "occu": 1 }],
        "abc": [0.865595999999999, 0.675669, 0.152457999999999],
        "properties": { "magmom": 0.0 },
        "label": "B",
        "xyz": [6.168276913415993, 8.92388527193799, 1.7166470457739889]
      },
      {
        "species": [{ "element": "B", "occu": 1 }],
        "abc": [0.708797999999999, 0.597214, 0.581507],
        "properties": { "magmom": 0.0 },
        "label": "B",
        "xyz": [5.050927152707993, 11.335049244092, 6.547654263121]
      },
      {
        "species": [{ "element": "B", "occu": 1 }],
        "abc": [0.127913, 0.296114999999999, 0.399296],
        "properties": { "magmom": 0.0 },
        "label": "B",
        "xyz": [0.911513921998, 6.476518294765988, 4.495994298688]
      },
      {
        "species": [{ "element": "B", "occu": 1 }],
        "abc": [0.634404, 0.675669, 0.652458],
        "properties": { "magmom": 0.0 },
        "label": "B",
        "xyz": [4.520792086584, 12.782133271938, 7.346548545774]
      },
      {
        "species": [{ "element": "B", "occu": 1 }],
        "abc": [0.208797999999999, 0.402786, 0.918493],
        "properties": { "magmom": 0.0 },
        "label": "B",
        "xyz": [1.4879041527079928, 11.706024755908, 10.342050236879]
      },
      {
        "species": [{ "element": "B", "occu": 1 }],
        "abc": [0.555817, 0.869062, 0.949677],
        "properties": { "magmom": 0.0 },
        "label": "B",
        "xyz": [3.960777509582, 17.293130454252, 10.693175933631]
      },
      {
        "species": [{ "element": "B", "occu": 1 }],
        "abc": [0.360074, 0.289662, 0.572932],
        "properties": { "magmom": 0.0 },
        "label": "B",
        "xyz": [2.565903887404, 7.742387566731999, 6.451101452396]
      },
      {
        "species": [{ "element": "B", "occu": 1 }],
        "abc": [0.291201999999999, 0.402786, 0.418493],
        "properties": { "magmom": 0.0 },
        "label": "B",
        "xyz": [2.075118847291993, 7.847776755908, 4.712148736879]
      },
      {
        "species": [{ "element": "B", "occu": 1 }],
        "abc": [0.129104, 0.287931999999999, 0.531015],
        "properties": { "magmom": 0.0 },
        "label": "B",
        "xyz": [0.920001042784, 7.399098452999989, 5.979124290045]
      },
      {
        "species": [{ "element": "B", "occu": 1 }],
        "abc": [0.944183, 0.869062, 0.449677],
        "properties": { "magmom": 0.0 },
        "label": "B",
        "xyz": [6.728291490418, 13.434882454252, 5.063274433631]
      },
      {
        "species": [{ "element": "B", "occu": 1 }],
        "abc": [0.491619, 0.680495, 0.545287],
        "properties": { "magmom": 0.0 },
        "label": "B",
        "xyz": [3.503299608474, 12.010485187701999, 6.139824198461]
      },
      {
        "species": [{ "element": "B", "occu": 1 }],
        "abc": [0.801527, 0.872765999999999, 0.341375999999999],
        "properties": { "magmom": 0.0 },
        "label": "B",
        "xyz": [5.711718272242, 12.64164950727598, 3.8438265089279886]
      },
      {
        "species": [{ "element": "B", "occu": 1 }],
        "abc": [0.370896, 0.287931999999999, 0.031014999999999],
        "properties": { "magmom": 0.0 },
        "label": "B",
        "xyz": [2.643021957216, 3.540850452999981, 0.34922279004498874]
      },
      {
        "species": [{ "element": "B", "occu": 1 }],
        "abc": [0.139926, 0.289662, 0.072932],
        "properties": { "magmom": 0.0 },
        "label": "B",
        "xyz": [0.997119112596, 3.8841395667319993, 0.821199952396]
      },
      {
        "species": [{ "element": "H", "occu": 1 }],
        "abc": [0.166603, 0.87758, 0.704108],
        "properties": { "magmom": -0.0 },
        "label": "H",
        "xyz": [1.187220641738, 15.495868446968, 7.928117370723999]
      },
      {
        "species": [{ "element": "H", "occu": 1 }],
        "abc": [0.36588000000000004, 0.096755, 0.251077],
        "properties": { "magmom": 0.0 },
        "label": "H",
        "xyz": [2.60727771048, 3.0468594253420003, 2.8270775578309997]
      },
      {
        "species": [{ "element": "H", "occu": 1 }],
        "abc": [0.492886, 0.3437, 0.050532999999999],
        "properties": { "magmom": -0.0 },
        "label": "H",
        "xyz": [3.5123283087559996, 4.330915313367992, 0.5689916249989888]
      },
      {
        "species": [{ "element": "H", "occu": 1 }],
        "abc": [0.393076, 0.898782, 0.932025],
        "properties": { "magmom": -0.0 },
        "label": "H",
        "xyz": [2.8010776574959997, 17.49769819446, 10.494417891074999]
      },
      {
        "species": [{ "element": "H", "occu": 1 }],
        "abc": [0.724322, 0.472377999999999, 0.632506],
        "properties": { "magmom": -0.0 },
        "label": "H",
        "xyz": [5.1615518908119995, 10.29717205171599, 7.121892956318]
      },
      {
        "species": [{ "element": "H", "occu": 1 }],
        "abc": [0.007114, 0.3437, 0.550532999999999],
        "properties": { "magmom": -0.0 },
        "label": "H",
        "xyz": [0.050694691243999994, 8.189163313367992, 6.198893124998989]
      },
      {
        "species": [{ "element": "H", "occu": 1 }],
        "abc": [0.509706, 0.653397999999999, 0.175473],
        "properties": { "magmom": 0.0 },
        "label": "H",
        "xyz": [3.632188402476, 8.846113791947989, 1.9757914118189999]
      },
      {
        "species": [{ "element": "H", "occu": 1 }],
        "abc": [0.758748, 0.776629, 0.6251300000000001],
        "properties": { "magmom": -0.0 },
        "label": "H",
        "xyz": [5.406873150408, 13.72889754605, 7.038840649390001]
      },
      {
        "species": [{ "element": "H", "occu": 1 }],
        "abc": [0.106923999999999, 0.898782, 0.432025],
        "properties": { "magmom": -0.0 },
        "label": "H",
        "xyz": [0.7619453425039929, 13.639450194459998, 4.864516391075]
      },
      {
        "species": [{ "element": "H", "occu": 1 }],
        "abc": [0.000312999999999, 0.767907999999999, 0.081666],
        "properties": { "magmom": 0.0 },
        "label": "H",
        "xyz": [0.002230452397992874, 9.43526189997599, 0.919543071798]
      },
      {
        "species": [{ "element": "H", "occu": 1 }],
        "abc": [0.507114, 0.6563, 0.949467],
        "properties": { "magmom": -0.0 },
        "label": "H",
        "xyz": [3.6137176912439997, 14.851910686632, 10.690811375001]
      },
      {
        "species": [{ "element": "H", "occu": 1 }],
        "abc": [0.837858999999999, 0.368334999999999, 0.933458999999999],
        "properties": { "magmom": -0.0 },
        "label": "H",
        "xyz": [5.970621775513993, 11.426483300213981, 10.51056444857699]
      },
      {
        "species": [{ "element": "H", "occu": 1 }],
        "abc": [0.637177, 0.9443419999999991, 0.978765999999999],
        "properties": { "magmom": -0.0 },
        "label": "H",
        "xyz": [4.540552612142, 18.380780928795982, 11.020712343097989]
      },
      {
        "species": [{ "element": "H", "occu": 1 }],
        "abc": [0.362823, 0.055658, 0.021234],
        "properties": { "magmom": -0.0 },
        "label": "H",
        "xyz": [2.585493387858, 0.8020450712039999, 0.239090656902]
      },
      {
        "species": [{ "element": "H", "occu": 1 }],
        "abc": [0.224322, 0.527621999999999, 0.867494],
        "properties": { "magmom": -0.0 },
        "label": "H",
        "xyz": [1.598528890812, 12.743901948283987, 9.767811543681999]
      },
      {
        "species": [{ "element": "H", "occu": 1 }],
        "abc": [0.775678, 0.472377999999999, 0.132505999999999],
        "properties": { "magmom": -0.0 },
        "label": "H",
        "xyz": [5.5275171091879995, 6.438924051715981, 1.4919914563179888]
      },
      {
        "species": [{ "element": "H", "occu": 1 }],
        "abc": [0.275678, 0.527621999999999, 0.367494],
        "properties": { "magmom": -0.0 },
        "label": "H",
        "xyz": [1.9644941091879997, 8.885653948283988, 4.137910043682]
      },
      {
        "species": [{ "element": "H", "occu": 1 }],
        "abc": [0.13412000000000002, 0.096755, 0.751077],
        "properties": { "magmom": 0.0 },
        "label": "H",
        "xyz": [0.95574528952, 6.905107425342001, 8.456979057831]
      },
      {
        "species": [{ "element": "H", "occu": 1 }],
        "abc": [0.083331999999999, 0.335871, 0.12656],
        "properties": { "magmom": 0.0 },
        "label": "H",
        "xyz": [0.5938276652719928, 4.82780745719, 1.42504066768]
      },
      {
        "species": [{ "element": "H", "occu": 1 }],
        "abc": [0.862823, 0.9443419999999991, 0.478765999999999],
        "properties": { "magmom": -0.0 },
        "label": "H",
        "xyz": [6.148516387858, 14.522532928795982, 5.390810843097989]
      },
      {
        "species": [{ "element": "H", "occu": 1 }],
        "abc": [0.085188, 0.376594, 0.747779],
        "properties": { "magmom": -0.0 },
        "label": "H",
        "xyz": [0.607053606648, 10.088384742404, 8.419844227537]
      },
      {
        "species": [{ "element": "H", "occu": 1 }],
        "abc": [0.241252, 0.223371, 0.37487000000000004],
        "properties": { "magmom": -0.0 },
        "label": "H",
        "xyz": [1.7191728495919998, 5.453928453950001, 4.220962350610001]
      },
      {
        "species": [{ "element": "H", "occu": 1 }],
        "abc": [0.8658800000000001, 0.903245, 0.248922999999999],
        "properties": { "magmom": 0.0 },
        "label": "H",
        "xyz": [6.17030071048, 12.27771857465799, 2.8028239421689887]
      },
      {
        "species": [{ "element": "H", "occu": 1 }],
        "abc": [0.893076, 0.101217999999999, 0.567975],
        "properties": { "magmom": -0.0 },
        "label": "H",
        "xyz": [6.3641006574959995, 5.543375805539988, 6.395286608925]
      },
      {
        "species": [{ "element": "H", "occu": 1 }],
        "abc": [0.333397, 0.87758, 0.204107999999999],
        "properties": { "magmom": -0.0 },
        "label": "H",
        "xyz": [2.375802358262, 11.637620446967993, 2.298215870723989]
      },
      {
        "species": [{ "element": "H", "occu": 1 }],
        "abc": [0.339277999999999, 0.04755, 0.679176999999999],
        "properties": { "magmom": 0.0 },
        "label": "H",
        "xyz": [2.417710634787993, 5.786090595291993, 7.647399222130989]
      },
      {
        "species": [{ "element": "H", "occu": 1 }],
        "abc": [0.416668, 0.335871, 0.62656],
        "properties": { "magmom": 0.0 },
        "label": "H",
        "xyz": [2.9691953347279996, 8.68605545719, 7.05494216768]
      },
      {
        "species": [{ "element": "H", "occu": 1 }],
        "abc": [0.914812, 0.623406, 0.252221],
        "properties": { "magmom": -0.0 },
        "label": "H",
        "xyz": [6.518992393352, 9.094441257596, 2.8399587724629995]
      },
      {
        "species": [{ "element": "H", "occu": 1 }],
        "abc": [0.49029399999999906, 0.346601999999999, 0.824527],
        "properties": { "magmom": 0.0 },
        "label": "H",
        "xyz": [3.493857597523993, 10.336712208051988, 9.284011588181]
      },
      {
        "species": [{ "element": "H", "occu": 1 }],
        "abc": [0.872377, 0.013644, 0.918945999999999],
        "properties": { "magmom": 0.0 },
        "label": "H",
        "xyz": [6.216598631341999, 7.247489739735993, 10.347150927637989]
      },
      {
        "species": [{ "element": "H", "occu": 1 }],
        "abc": [0.999687, 0.232092, 0.918334],
        "properties": { "magmom": 0.0 },
        "label": "H",
        "xyz": [7.123815547602, 9.747564100024, 10.340259928202]
      },
      {
        "species": [{ "element": "H", "occu": 1 }],
        "abc": [0.162140999999999, 0.631664999999999, 0.066541],
        "properties": { "magmom": -0.0 },
        "label": "H",
        "xyz": [1.155424224485993, 7.756342699785988, 0.749238551423]
      },
      {
        "species": [{ "element": "H", "occu": 1 }],
        "abc": [0.833396999999999, 0.12242000000000001, 0.295892],
        "properties": { "magmom": -0.0 },
        "label": "H",
        "xyz": [5.938825358261993, 3.686957553032, 3.331685629276]
      },
      {
        "species": [{ "element": "H", "occu": 1 }],
        "abc": [0.666603, 0.12242000000000001, 0.795891999999999],
        "properties": { "magmom": -0.0 },
        "label": "H",
        "xyz": [4.750243641737999, 7.545205553031993, 8.961587129275989]
      },
      {
        "species": [{ "element": "H", "occu": 1 }],
        "abc": [0.499687, 0.767907999999999, 0.581666],
        "properties": { "magmom": 0.0 },
        "label": "H",
        "xyz": [3.560792547602, 13.293509899975989, 6.549444571798]
      },
      {
        "species": [{ "element": "H", "occu": 1 }],
        "abc": [0.627622999999999, 0.013644, 0.418946],
        "properties": { "magmom": 0.0 },
        "label": "H",
        "xyz": [4.4724703686579925, 3.3892417397359997, 4.7172494276379995]
      },
      {
        "species": [{ "element": "H", "occu": 1 }],
        "abc": [0.585187999999999, 0.623406, 0.752220999999999],
        "properties": { "magmom": -0.0 },
        "label": "H",
        "xyz": [4.170076606647993, 12.952689257595992, 8.46986027246299]
      },
      {
        "species": [{ "element": "H", "occu": 1 }],
        "abc": [0.160722, 0.04755, 0.179177],
        "properties": { "magmom": 0.0 },
        "label": "H",
        "xyz": [1.1453123652119999, 1.9278425952920002, 2.017497722131]
      },
      {
        "species": [{ "element": "H", "occu": 1 }],
        "abc": [0.000452, 0.214496, 0.069634],
        "properties": { "magmom": 0.0 },
        "label": "H",
        "xyz": [0.0032209727919999998, 2.996812402144, 0.784065122102]
      },
      {
        "species": [{ "element": "H", "occu": 1 }],
        "abc": [0.258748, 0.223371, 0.87487],
        "properties": { "magmom": -0.0 },
        "label": "H",
        "xyz": [1.8438501504079998, 9.31217645395, 9.85086385061]
      },
      {
        "species": [{ "element": "H", "occu": 1 }],
        "abc": [0.990294, 0.653397999999999, 0.675473],
        "properties": { "magmom": 0.0 },
        "label": "H",
        "xyz": [7.056880597524, 12.704361791947989, 7.605692911818999]
      },
      {
        "species": [{ "element": "H", "occu": 1 }],
        "abc": [0.63412, 0.903245, 0.748923],
        "properties": { "magmom": 0.0 },
        "label": "H",
        "xyz": [4.51876828952, 16.135966574658, 8.432725442169]
      },
      {
        "species": [{ "element": "H", "occu": 1 }],
        "abc": [0.337858999999999, 0.631664999999999, 0.566541],
        "properties": { "magmom": -0.0 },
        "label": "H",
        "xyz": [2.4075987755139927, 11.614590699785989, 6.379140051423]
      },
      {
        "species": [{ "element": "H", "occu": 1 }],
        "abc": [0.372376999999999, 0.986356, 0.581054],
        "properties": { "magmom": 0.0 },
        "label": "H",
        "xyz": [2.653575631341993, 15.793584260264, 6.542553572361999]
      },
      {
        "species": [{ "element": "H", "occu": 1 }],
        "abc": [0.500452, 0.785504, 0.430365999999999],
        "properties": { "magmom": 0.0 },
        "label": "H",
        "xyz": [3.566243972792, 12.327765597855992, 4.845836377897989]
      },
      {
        "species": [{ "element": "H", "occu": 1 }],
        "abc": [0.127623, 0.986356, 0.081054],
        "properties": { "magmom": 0.0 },
        "label": "H",
        "xyz": [0.9094473686579999, 11.935336260264, 0.912652072362]
      },
      {
        "species": [{ "element": "H", "occu": 1 }],
        "abc": [0.992885999999999, 0.6563, 0.449467],
        "properties": { "magmom": -0.0 },
        "label": "H",
        "xyz": [7.075351308755993, 10.993662686632, 5.060909875001]
      },
      {
        "species": [{ "element": "H", "occu": 1 }],
        "abc": [0.606924, 0.101217999999999, 0.067975],
        "properties": { "magmom": -0.0 },
        "label": "H",
        "xyz": [4.3249683425039995, 1.6851278055399885, 0.7653851089249999]
      },
      {
        "species": [{ "element": "H", "occu": 1 }],
        "abc": [0.137177, 0.055658, 0.521234],
        "properties": { "magmom": -0.0 },
        "label": "H",
        "xyz": [0.977529612142, 4.660293071203999, 5.868992156901999]
      },
      {
        "species": [{ "element": "H", "occu": 1 }],
        "abc": [0.660721999999999, 0.9524500000000001, 0.320822999999999],
        "properties": { "magmom": 0.0 },
        "label": "H",
        "xyz": [4.708335365211993, 13.396735404707993, 3.612403777868989]
      },
      {
        "species": [{ "element": "H", "occu": 1 }],
        "abc": [0.414811999999999, 0.376594, 0.247779],
        "properties": { "magmom": -0.0 },
        "label": "H",
        "xyz": [2.955969393351993, 6.2301367424039995, 2.789942727537]
      },
      {
        "species": [{ "element": "H", "occu": 1 }],
        "abc": [0.839278, 0.9524500000000001, 0.820823],
        "properties": { "magmom": 0.0 },
        "label": "H",
        "xyz": [5.980733634788, 17.254983404708, 9.242305277868999]
      },
      {
        "species": [{ "element": "H", "occu": 1 }],
        "abc": [0.999548, 0.785504, 0.930365999999999],
        "properties": { "magmom": 0.0 },
        "label": "H",
        "xyz": [7.122825027208, 16.186013597855993, 10.47573787789799]
      },
      {
        "species": [{ "element": "H", "occu": 1 }],
        "abc": [0.916667999999999, 0.664129, 0.8734400000000001],
        "properties": { "magmom": 0.0 },
        "label": "H",
        "xyz": [6.532218334727993, 14.35501854281, 9.83476233232]
      },
      {
        "species": [{ "element": "H", "occu": 1 }],
        "abc": [0.009706, 0.346601999999999, 0.324527],
        "properties": { "magmom": 0.0 },
        "label": "H",
        "xyz": [0.06916540247599999, 6.478464208051989, 3.654110088181]
      },
      {
        "species": [{ "element": "H", "occu": 1 }],
        "abc": [0.583332, 0.664129, 0.37344000000000005],
        "properties": { "magmom": 0.0 },
        "label": "H",
        "xyz": [4.156850665272, 10.49677054281, 4.2048608323200005]
      },
      {
        "species": [{ "element": "H", "occu": 1 }],
        "abc": [0.500313, 0.232092, 0.418334],
        "properties": { "magmom": 0.0 },
        "label": "H",
        "xyz": [3.5652534523979997, 5.889316100024, 4.7103584282019995]
      },
      {
        "species": [{ "element": "H", "occu": 1 }],
        "abc": [0.499548, 0.214496, 0.569634],
        "properties": { "magmom": 0.0 },
        "label": "H",
        "xyz": [3.5598020272079998, 6.855060402144, 6.4139666221019995]
      },
      {
        "species": [{ "element": "H", "occu": 1 }],
        "abc": [0.741251999999999, 0.776629, 0.12513000000000002],
        "properties": { "magmom": -0.0 },
        "label": "H",
        "xyz": [5.282195849591993, 9.87064954605, 1.40893914939]
      },
      {
        "species": [{ "element": "H", "occu": 1 }],
        "abc": [0.662141, 0.368334999999999, 0.433459],
        "properties": { "magmom": -0.0 },
        "label": "H",
        "xyz": [4.718447224486, 7.568235300213988, 4.880662948577]
      }
    ]
  },
  "task_ids": null,
  "uncorrected_energy_per_atom": null,
  "energy_per_atom": -4.988453513120267,
  "formation_energy_per_atom": -0.074125438276517,
  "energy_above_hull": 0.011612727504734001,
  "is_stable": false,
  "equilibrium_reaction_energy_per_atom": null,
  "decomposes_to": null,
  "xas": null,
  "grain_boundaries": null,
  "band_gap": 3.7409,
  "cbm": null,
  "vbm": null,
  "efermi": -2.6708369100000002,
  "is_gap_direct": null,
  "is_metal": null,
  "es_source_calc_id": null,
  "bandstructure": null,
  "dos": null,
  "dos_energy_up": null,
  "dos_energy_down": null,
  "is_magnetic": null,
  "ordering": null,
  "total_magnetization": 0.0028683,
  "total_magnetization_normalized_vol": null,
  "total_magnetization_normalized_formula_units": null,
  "num_magnetic_sites": null,
  "num_unique_magnetic_sites": null,
  "types_of_magnetic_species": null,
  "bulk_modulus": null,
  "shear_modulus": null,
  "universal_anisotropy": null,
  "homogeneous_poisson": null,
  "e_total": null,
  "e_ionic": null,
  "e_electronic": null,
  "n": null,
  "e_ij_max": null,
  "weighted_surface_energy_EV_PER_ANG2": null,
  "weighted_surface_energy": null,
  "weighted_work_function": null,
  "surface_anisotropy": null,
  "shape_factor": null,
  "has_reconstructed": null,
  "possible_species": null,
  "has_props": null,
  "theoretical": null,
  "database_IDs": null,
  "fields_not_requested": [
    "builder_meta",
    "nsites",
    "elements",
    "nelements",
    "composition",
    "composition_reduced",
    "chemsys",
    "symmetry",
    "property_name",
    "deprecated",
    "deprecation_reasons",
    "last_updated",
    "origins",
    "warnings",
    "task_ids",
    "uncorrected_energy_per_atom",
    "equilibrium_reaction_energy_per_atom",
    "decomposes_to",
    "xas",
    "grain_boundaries",
    "cbm",
    "vbm",
    "is_gap_direct",
    "is_metal",
    "es_source_calc_id",
    "bandstructure",
    "dos",
    "dos_energy_up",
    "dos_energy_down",
    "is_magnetic",
    "ordering",
    "total_magnetization_normalized_vol",
    "total_magnetization_normalized_formula_units",
    "num_magnetic_sites",
    "num_unique_magnetic_sites",
    "types_of_magnetic_species",
    "bulk_modulus",
    "shear_modulus",
    "universal_anisotropy",
    "homogeneous_poisson",
    "e_total",
    "e_ionic",
    "e_electronic",
    "n",
    "e_ij_max",
    "weighted_surface_energy_EV_PER_ANG2",
    "weighted_surface_energy",
    "weighted_work_function",
    "surface_anisotropy",
    "shape_factor",
    "has_reconstructed",
    "possible_species",
    "has_props",
    "theoretical",
    "database_IDs"
  ]
}
