{
  "builder_meta": null,
  "nsites": null,
  "elements": null,
  "nelements": null,
  "composition": null,
  "composition_reduced": null,
  "formula_pretty": "B3Ir2",
  "formula_anonymous": "A2B3",
  "chemsys": null,
  "volume": 102.28571768831038,
  "density": 13.53510450375326,
  "density_atomic": 10.228571768831038,
  "symmetry": null,
  "property_name": null,
  "material_id": "mp-1228647",
  "deprecated": null,
  "deprecation_reasons": null,
  "last_updated": null,
  "origins": null,
  "warnings": null,
  "structure": {
    "@module": "pymatgen.core.structure",
    "@class": "Structure",
    "charge": 0,
    "lattice": {
      "matrix": [
        [0.0, -3.117149, 0.0],
        [-5.249599, -1.5585740000000001, 0.067912],
        [-0.033635, 0.0, -6.250303]
      ],
      "pbc": [true, true, true],
      "a": 3.117149,
      "b": 5.476500215833192,
      "c": 6.250393500015338,
      "alpha": 90.41494739130876,
      "beta": 90.0,
      "gamma": 73.46547413516909,
      "volume": 102.28571768831038
    },
    "properties": {},
    "sites": [
      {
        "species": [{ "element": "B", "occu": 1 }],
        "abc": [0.825616, 0.348767999999999, 0.472081],
        "properties": { "magmom": 0.0 },
        "label": "B",
        "xyz": [-1.8467705884669947, -3.1171488256159985, -2.9269637581269996]
      },
      {
        "species": [{ "element": "B", "occu": 1 }],
        "abc": [0.174383999999999, 0.651231999999999, 0.527919],
        "properties": { "magmom": 0.0 },
        "label": "B",
        "xyz": [-3.436463411532995, -1.5585741743839954, -3.255427241873]
      },
      {
        "species": [{ "element": "B", "occu": 1 }],
        "abc": [0.441137, 0.117726, 0.386210999999999],
        "properties": { "magmom": 0.0 },
        "label": "B",
        "xyz": [-0.6310044988589999, -1.558574441137, -2.4059407638209938]
      },
      {
        "species": [{ "element": "B", "occu": 1 }],
        "abc": [0.558863, 0.882274, 0.613788999999999],
        "properties": { "magmom": 0.0 },
        "label": "B",
        "xyz": [-4.652229501141, -3.117148558863, -3.776450236178994]
      },
      {
        "species": [{ "element": "B", "occu": 1 }],
        "abc": [0.258851, 0.482299, 0.076217],
        "properties": { "magmom": 0.0 },
        "label": "B",
        "xyz": [-2.534439906896, -1.558575817425, -0.4436254540629999]
      },
      {
        "species": [{ "element": "B", "occu": 1 }],
        "abc": [0.741149, 0.517701, 0.923782999999999],
        "properties": { "magmom": 0.0 },
        "label": "B",
        "xyz": [-2.748794093104, -3.1171471825749997, -5.738765545936994]
      },
      {
        "species": [{ "element": "Ir", "occu": 1 }],
        "abc": [0.896848, 0.206304, 0.147847],
        "properties": { "magmom": 0.0 },
        "label": "Ir",
        "xyz": [-1.0879861059409999, -3.1171488968479997, -0.9100780303930001]
      },
      {
        "species": [{ "element": "Ir", "occu": 1 }],
        "abc": [0.103152, 0.793696, 0.852152999999999],
        "properties": { "magmom": 0.0 },
        "label": "Ir",
        "xyz": [-4.1952478940589994, -1.5585741031520002, -5.272312969606994]
      },
      {
        "species": [{ "element": "Ir", "occu": 1 }],
        "abc": [0.640103, 0.719793, 0.299797],
        "properties": { "magmom": -0.0 },
        "label": "Ir",
        "xyz": [-3.788708285102, -3.117147081529, -1.8249395062749998]
      },
      {
        "species": [{ "element": "Ir", "occu": 1 }],
        "abc": [0.359896999999999, 0.280207, 0.700203],
        "properties": { "magmom": -0.0 },
        "label": "Ir",
        "xyz": [-1.4945257148979998, -1.5585759184709969, -4.357451493725]
      }
    ]
  },
  "task_ids": null,
  "uncorrected_energy_per_atom": null,
  "energy_per_atom": -25.462738625333333,
  "formation_energy_per_atom": -0.11118472683333201,
  "energy_above_hull": 0.060853226166667,
  "is_stable": false,
  "equilibrium_reaction_energy_per_atom": null,
  "decomposes_to": null,
  "xas": null,
  "grain_boundaries": null,
  "band_gap": 0.0,
  "cbm": null,
  "vbm": null,
  "efermi": 9.13854441,
  "is_gap_direct": null,
  "is_metal": null,
  "es_source_calc_id": null,
  "bandstructure": null,
  "dos": null,
  "dos_energy_up": null,
  "dos_energy_down": null,
  "is_magnetic": null,
  "ordering": null,
  "total_magnetization": 0.0010676,
  "total_magnetization_normalized_vol": null,
  "total_magnetization_normalized_formula_units": null,
  "num_magnetic_sites": null,
  "num_unique_magnetic_sites": null,
  "types_of_magnetic_species": null,
  "bulk_modulus": null,
  "shear_modulus": null,
  "universal_anisotropy": null,
  "homogeneous_poisson": null,
  "e_total": null,
  "e_ionic": null,
  "e_electronic": null,
  "n": null,
  "e_ij_max": null,
  "weighted_surface_energy_EV_PER_ANG2": null,
  "weighted_surface_energy": null,
  "weighted_work_function": null,
  "surface_anisotropy": null,
  "shape_factor": null,
  "has_reconstructed": null,
  "possible_species": null,
  "has_props": null,
  "theoretical": null,
  "database_IDs": null,
  "fields_not_requested": [
    "builder_meta",
    "nsites",
    "elements",
    "nelements",
    "composition",
    "composition_reduced",
    "chemsys",
    "symmetry",
    "property_name",
    "deprecated",
    "deprecation_reasons",
    "last_updated",
    "origins",
    "warnings",
    "task_ids",
    "uncorrected_energy_per_atom",
    "equilibrium_reaction_energy_per_atom",
    "decomposes_to",
    "xas",
    "grain_boundaries",
    "cbm",
    "vbm",
    "is_gap_direct",
    "is_metal",
    "es_source_calc_id",
    "bandstructure",
    "dos",
    "dos_energy_up",
    "dos_energy_down",
    "is_magnetic",
    "ordering",
    "total_magnetization_normalized_vol",
    "total_magnetization_normalized_formula_units",
    "num_magnetic_sites",
    "num_unique_magnetic_sites",
    "types_of_magnetic_species",
    "bulk_modulus",
    "shear_modulus",
    "universal_anisotropy",
    "homogeneous_poisson",
    "e_total",
    "e_ionic",
    "e_electronic",
    "n",
    "e_ij_max",
    "weighted_surface_energy_EV_PER_ANG2",
    "weighted_surface_energy",
    "weighted_work_function",
    "surface_anisotropy",
    "shape_factor",
    "has_reconstructed",
    "possible_species",
    "has_props",
    "theoretical",
    "database_IDs"
  ]
}
