{
  "builder_meta": null,
  "nsites": null,
  "elements": null,
  "nelements": null,
  "composition": null,
  "composition_reduced": null,
  "formula_pretty": "B3Os2",
  "formula_anonymous": "A2B3",
  "chemsys": null,
  "volume": 96.0283368767353,
  "density": 14.279638263563001,
  "density_atomic": 9.60283368767353,
  "symmetry": null,
  "property_name": null,
  "material_id": "mp-1079348",
  "deprecated": null,
  "deprecation_reasons": null,
  "last_updated": null,
  "origins": null,
  "warnings": null,
  "structure": {
    "@module": "pymatgen.core.structure",
    "@class": "Structure",
    "charge": 0,
    "lattice": {
      "matrix": [
        [-1.466360949999999, -2.53980394, 0.0],
        [-1.466360949999999, 2.53980394, -0.0],
        [0.0, 0.0, -12.89223854]
      ],
      "pbc": [true, true, true],
      "a": 2.932715207674353,
      "b": 2.932715207674353,
      "c": 12.89223854,
      "alpha": 90.0,
      "beta": 90.0,
      "gamma": 119.9998490269809,
      "volume": 96.02833687673522
    },
    "properties": {},
    "sites": [
      {
        "species": [{ "element": "B", "occu": 1 }],
        "abc": [0.66666751, 0.33333249, 0.46921941],
        "properties": { "magmom": 0.0 },
        "label": "B",
        "xyz": [-1.466360949999999, -0.8466055971359788, -6.049288561318061]
      },
      {
        "species": [{ "element": "B", "occu": 1 }],
        "abc": [0.33333249, 0.66666751, 0.53078059],
        "properties": { "magmom": 0.0 },
        "label": "B",
        "xyz": [-1.466360949999999, 0.8466055971359788, -6.842949978681938]
      },
      {
        "species": [{ "element": "B", "occu": 1 }],
        "abc": [0.33333249, 0.66666751, 0.96921941],
        "properties": { "magmom": 0.0 },
        "label": "B",
        "xyz": [-1.466360949999999, 0.8466055971359788, -12.49540783131806]
      },
      {
        "species": [{ "element": "B", "occu": 1 }],
        "abc": [0.66666751, 0.33333249, 0.03078059],
        "properties": { "magmom": 0.0 },
        "label": "B",
        "xyz": [-1.466360949999999, -0.8466055971359788, -0.3968307086819386]
      },
      {
        "species": [{ "element": "B", "occu": 1 }],
        "abc": [0.66666853, 0.33333147, 0.25],
        "properties": { "magmom": 0.0 },
        "label": "B",
        "xyz": [-1.466360949999999, -0.8466107783360165, -3.223059635]
      },
      {
        "species": [{ "element": "B", "occu": 1 }],
        "abc": [0.33333147, 0.66666853, 0.75],
        "properties": { "magmom": 0.0 },
        "label": "B",
        "xyz": [-1.466360949999999, 0.8466107783360165, -9.669178904999999]
      },
      {
        "species": [{ "element": "Os", "occu": 1 }],
        "abc": [0.66666574, 0.33333426, 0.63977546],
        "properties": { "magmom": -0.0 },
        "label": "Os",
        "xyz": [-1.466360949999999, -0.8465966062300313, -8.248137842358227]
      },
      {
        "species": [{ "element": "Os", "occu": 1 }],
        "abc": [0.33333426, 0.66666574, 0.36022454],
        "properties": { "magmom": -0.0 },
        "label": "Os",
        "xyz": [-1.466360949999999, 0.8465966062300313, -4.644100697641771]
      },
      {
        "species": [{ "element": "Os", "occu": 1 }],
        "abc": [0.33333426, 0.66666574, 0.13977546],
        "properties": { "magmom": -0.0 },
        "label": "Os",
        "xyz": [-1.466360949999999, 0.8465966062300313, -1.8020185723582283]
      },
      {
        "species": [{ "element": "Os", "occu": 1 }],
        "abc": [0.66666574, 0.33333426, 0.86022454],
        "properties": { "magmom": -0.0 },
        "label": "Os",
        "xyz": [-1.466360949999999, -0.8465966062300313, -11.090219967641772]
      }
    ]
  },
  "task_ids": null,
  "uncorrected_energy_per_atom": null,
  "energy_per_atom": -25.875358249999998,
  "formation_energy_per_atom": -0.273454191500002,
  "energy_above_hull": 0.0,
  "is_stable": true,
  "equilibrium_reaction_energy_per_atom": null,
  "decomposes_to": null,
  "xas": null,
  "grain_boundaries": null,
  "band_gap": 0.0,
  "cbm": null,
  "vbm": null,
  "efermi": 8.9755723,
  "is_gap_direct": null,
  "is_metal": null,
  "es_source_calc_id": null,
  "bandstructure": null,
  "dos": null,
  "dos_energy_up": null,
  "dos_energy_down": null,
  "is_magnetic": null,
  "ordering": null,
  "total_magnetization": 0.0,
  "total_magnetization_normalized_vol": null,
  "total_magnetization_normalized_formula_units": null,
  "num_magnetic_sites": null,
  "num_unique_magnetic_sites": null,
  "types_of_magnetic_species": null,
  "bulk_modulus": null,
  "shear_modulus": null,
  "universal_anisotropy": null,
  "homogeneous_poisson": null,
  "e_total": null,
  "e_ionic": null,
  "e_electronic": null,
  "n": null,
  "e_ij_max": null,
  "weighted_surface_energy_EV_PER_ANG2": null,
  "weighted_surface_energy": null,
  "weighted_work_function": null,
  "surface_anisotropy": null,
  "shape_factor": null,
  "has_reconstructed": null,
  "possible_species": null,
  "has_props": null,
  "theoretical": null,
  "database_IDs": null,
  "fields_not_requested": [
    "builder_meta",
    "nsites",
    "elements",
    "nelements",
    "composition",
    "composition_reduced",
    "chemsys",
    "symmetry",
    "property_name",
    "deprecated",
    "deprecation_reasons",
    "last_updated",
    "origins",
    "warnings",
    "task_ids",
    "uncorrected_energy_per_atom",
    "equilibrium_reaction_energy_per_atom",
    "decomposes_to",
    "xas",
    "grain_boundaries",
    "cbm",
    "vbm",
    "is_gap_direct",
    "is_metal",
    "es_source_calc_id",
    "bandstructure",
    "dos",
    "dos_energy_up",
    "dos_energy_down",
    "is_magnetic",
    "ordering",
    "total_magnetization_normalized_vol",
    "total_magnetization_normalized_formula_units",
    "num_magnetic_sites",
    "num_unique_magnetic_sites",
    "types_of_magnetic_species",
    "bulk_modulus",
    "shear_modulus",
    "universal_anisotropy",
    "homogeneous_poisson",
    "e_total",
    "e_ionic",
    "e_electronic",
    "n",
    "e_ij_max",
    "weighted_surface_energy_EV_PER_ANG2",
    "weighted_surface_energy",
    "weighted_work_function",
    "surface_anisotropy",
    "shape_factor",
    "has_reconstructed",
    "possible_species",
    "has_props",
    "theoretical",
    "database_IDs"
  ]
}
