{
  "builder_meta": null,
  "nsites": null,
  "elements": null,
  "nelements": null,
  "composition": null,
  "composition_reduced": null,
  "formula_pretty": "B3Rh7",
  "formula_anonymous": "A3B7",
  "chemsys": null,
  "volume": 232.59974796582623,
  "density": 10.74813274653018,
  "density_atomic": 11.629987398291311,
  "symmetry": null,
  "property_name": null,
  "material_id": "mp-1106065",
  "deprecated": null,
  "deprecation_reasons": null,
  "last_updated": null,
  "origins": null,
  "warnings": null,
  "structure": {
    "@module": "pymatgen.core.structure",
    "@class": "Structure",
    "charge": 0,
    "lattice": {
      "matrix": [
        [3.72967876, -6.4599942200000005, -0.0],
        [3.72967876, 6.4599942200000005, 0.0],
        [0.0, 0.0, 4.82698209]
      ],
      "pbc": [true, true, true],
      "a": 7.459358482820661,
      "b": 7.459358482820661,
      "c": 4.82698209,
      "alpha": 90.0,
      "beta": 90.0,
      "gamma": 120.00000853956826,
      "volume": 232.59974796582625
    },
    "properties": {},
    "sites": [
      {
        "species": [{ "element": "B", "occu": 1 }],
        "abc": [0.18887913, 0.37775927, 0.83352755],
        "properties": { "magmom": -0.0 },
        "label": "B",
        "xyz": [2.113379205080384, 1.220164612672791, 4.023422555371579]
      },
      {
        "species": [{ "element": "B", "occu": 1 }],
        "abc": [0.62224073, 0.81112087, 0.83352755],
        "properties": { "magmom": -0.0 },
        "label": "B",
        "xyz": [5.345978314919616, 1.2201646126727912, 4.023422555371579]
      },
      {
        "species": [{ "element": "B", "occu": 1 }],
        "abc": [0.18887913, 0.81112087, 0.83352755],
        "properties": { "magmom": -0.0 },
        "label": "B",
        "xyz": [3.7296787600000005, 4.0196780438427435, 4.023422555371579]
      },
      {
        "species": [{ "element": "B", "occu": 1 }],
        "abc": [0.81112087, 0.62224073, 0.33352755],
        "properties": { "magmom": -0.0 },
        "label": "B",
        "xyz": [5.345978314919616, -1.2201646126727912, 1.6099315103715794]
      },
      {
        "species": [{ "element": "B", "occu": 1 }],
        "abc": [0.37775927, 0.18887913, 0.33352755],
        "properties": { "magmom": -0.0 },
        "label": "B",
        "xyz": [2.113379205080384, -1.220164612672791, 1.6099315103715794]
      },
      {
        "species": [{ "element": "B", "occu": 1 }],
        "abc": [0.81112087, 0.18887913, 0.33352755],
        "properties": { "magmom": -0.0 },
        "label": "B",
        "xyz": [3.7296787600000005, -4.0196780438427435, 1.6099315103715794]
      },
      {
        "species": [{ "element": "Rh", "occu": 1 }],
        "abc": [0.666667, 0.333333, 0.5774596200000001],
        "properties": { "magmom": 0.0 },
        "label": "Rh",
        "xyz": [3.7296787600000005, -2.1533357133294806, 2.787387243438206]
      },
      {
        "species": [{ "element": "Rh", "occu": 1 }],
        "abc": [0.333333, 0.666667, 0.07745962],
        "properties": { "magmom": 0.0 },
        "label": "Rh",
        "xyz": [3.7296787600000005, 2.1533357133294806, 0.3738961984382058]
      },
      {
        "species": [{ "element": "Rh", "occu": 1 }],
        "abc": [0.87732664, 0.75465328, 0.72635476],
        "properties": { "magmom": 0.0 },
        "label": "Rh",
        "xyz": [6.086760844370499, -0.7924691965479793, 3.506101417506248]
      },
      {
        "species": [{ "element": "Rh", "occu": 1 }],
        "abc": [0.24534672000000002, 0.12267336000000001, 0.72635476],
        "properties": { "magmom": 0.0 },
        "label": "Rh",
        "xyz": [1.372596675629501, -0.7924691965479793, 3.506101417506248]
      },
      {
        "species": [{ "element": "Rh", "occu": 1 }],
        "abc": [0.87732664, 0.12267336000000001, 0.72635476],
        "properties": { "magmom": 0.0 },
        "label": "Rh",
        "xyz": [3.72967876, -4.875055826904042, 3.506101417506248]
      },
      {
        "species": [{ "element": "Rh", "occu": 1 }],
        "abc": [0.12267336000000001, 0.24534672000000002, 0.22635476000000002],
        "properties": { "magmom": 0.0 },
        "label": "Rh",
        "xyz": [1.372596675629501, 0.7924691965479793, 1.0926103725062484]
      },
      {
        "species": [{ "element": "Rh", "occu": 1 }],
        "abc": [0.75465328, 0.87732664, 0.22635476000000002],
        "properties": { "magmom": 0.0 },
        "label": "Rh",
        "xyz": [6.086760844370499, 0.7924691965479793, 1.0926103725062484]
      },
      {
        "species": [{ "element": "Rh", "occu": 1 }],
        "abc": [0.12267336000000001, 0.87732664, 0.22635476000000002],
        "properties": { "magmom": 0.0 },
        "label": "Rh",
        "xyz": [3.72967876, 4.875055826904042, 1.0926103725062484]
      },
      {
        "species": [{ "element": "Rh", "occu": 1 }],
        "abc": [0.45598996, 0.91197891, 0.58480415],
        "properties": { "magmom": 0.0 },
        "label": "Rh",
        "xyz": [5.102084438780201, 2.945685981383869, 2.8228391582076733]
      },
      {
        "species": [{ "element": "Rh", "occu": 1 }],
        "abc": [0.08802109, 0.54401004, 0.58480415],
        "properties": { "magmom": 0.0 },
        "label": "Rh",
        "xyz": [2.3572730812197986, 2.945685981383869, 2.8228391582076733]
      },
      {
        "species": [{ "element": "Rh", "occu": 1 }],
        "abc": [0.45598996, 0.54401004, 0.58480415],
        "properties": { "magmom": 0.0 },
        "label": "Rh",
        "xyz": [3.72967876, 0.5686092080439371, 2.8228391582076733]
      },
      {
        "species": [{ "element": "Rh", "occu": 1 }],
        "abc": [0.54401004, 0.08802109, 0.08480415000000001],
        "properties": { "magmom": 0.0 },
        "label": "Rh",
        "xyz": [2.3572730812197986, -2.945685981383869, 0.4093481132076735]
      },
      {
        "species": [{ "element": "Rh", "occu": 1 }],
        "abc": [0.91197891, 0.45598996, 0.08480415000000001],
        "properties": { "magmom": 0.0 },
        "label": "Rh",
        "xyz": [5.102084438780201, -2.945685981383869, 0.4093481132076735]
      },
      {
        "species": [{ "element": "Rh", "occu": 1 }],
        "abc": [0.54401004, 0.45598996, 0.08480415000000001],
        "properties": { "magmom": 0.0 },
        "label": "Rh",
        "xyz": [3.72967876, -0.5686092080439371, 0.4093481132076735]
      }
    ]
  },
  "task_ids": null,
  "uncorrected_energy_per_atom": null,
  "energy_per_atom": -19.362419148,
  "formation_energy_per_atom": -0.26315284775000103,
  "energy_above_hull": 0.012482750499998,
  "is_stable": false,
  "equilibrium_reaction_energy_per_atom": null,
  "decomposes_to": null,
  "xas": null,
  "grain_boundaries": null,
  "band_gap": 0.0,
  "cbm": null,
  "vbm": null,
  "efermi": 6.93587886,
  "is_gap_direct": null,
  "is_metal": null,
  "es_source_calc_id": null,
  "bandstructure": null,
  "dos": null,
  "dos_energy_up": null,
  "dos_energy_down": null,
  "is_magnetic": null,
  "ordering": null,
  "total_magnetization": 4.7e-6,
  "total_magnetization_normalized_vol": null,
  "total_magnetization_normalized_formula_units": null,
  "num_magnetic_sites": null,
  "num_unique_magnetic_sites": null,
  "types_of_magnetic_species": null,
  "bulk_modulus": null,
  "shear_modulus": null,
  "universal_anisotropy": null,
  "homogeneous_poisson": null,
  "e_total": null,
  "e_ionic": null,
  "e_electronic": null,
  "n": null,
  "e_ij_max": null,
  "weighted_surface_energy_EV_PER_ANG2": null,
  "weighted_surface_energy": null,
  "weighted_work_function": null,
  "surface_anisotropy": null,
  "shape_factor": null,
  "has_reconstructed": null,
  "possible_species": null,
  "has_props": null,
  "theoretical": null,
  "database_IDs": null,
  "fields_not_requested": [
    "builder_meta",
    "nsites",
    "elements",
    "nelements",
    "composition",
    "composition_reduced",
    "chemsys",
    "symmetry",
    "property_name",
    "deprecated",
    "deprecation_reasons",
    "last_updated",
    "origins",
    "warnings",
    "task_ids",
    "uncorrected_energy_per_atom",
    "equilibrium_reaction_energy_per_atom",
    "decomposes_to",
    "xas",
    "grain_boundaries",
    "cbm",
    "vbm",
    "is_gap_direct",
    "is_metal",
    "es_source_calc_id",
    "bandstructure",
    "dos",
    "dos_energy_up",
    "dos_energy_down",
    "is_magnetic",
    "ordering",
    "total_magnetization_normalized_vol",
    "total_magnetization_normalized_formula_units",
    "num_magnetic_sites",
    "num_unique_magnetic_sites",
    "types_of_magnetic_species",
    "bulk_modulus",
    "shear_modulus",
    "universal_anisotropy",
    "homogeneous_poisson",
    "e_total",
    "e_ionic",
    "e_electronic",
    "n",
    "e_ij_max",
    "weighted_surface_energy_EV_PER_ANG2",
    "weighted_surface_energy",
    "weighted_work_function",
    "surface_anisotropy",
    "shape_factor",
    "has_reconstructed",
    "possible_species",
    "has_props",
    "theoretical",
    "database_IDs"
  ]
}
