{"builder_meta": null, "nsites": null, "elements": null, "nelements": null, "composition": null, "composition_reduced": null, "formula_pretty": "B3Ru7", "formula_anonymous": "A3B7", "chemsys": null, "volume": 227.51686860585468, "density": 10.80070286923995, "density_atomic": 11.375843430292734, "symmetry": null, "property_name": null, "material_id": "mp-17535", "deprecated": null, "deprecation_reasons": null, "last_updated": null, "origins": null, "warnings": null, "structure": {"@module": "pymatgen.core.structure", "@class": "Structure", "charge": 0, "lattice": {"matrix": [[7.46881453, -1.02e-06, 0.0], [-3.7344082800000002, 6.46818309, 0.0], [-0.0, 0.0, 4.70955265]], "pbc": [true, true, true], "a": 7.46881453000007, "b": 7.468815012268982, "c": 4.70955265, "alpha": 90.0, "beta": 90.0, "gamma": 120.00001467973573, "volume": 227.51686860585468}, "properties": {}, "sites": [{"species": [{"element": "B", "occu": 1}], "abc": [0.18957071, 0.81042929, 0.83322226], "properties": {"magmom": 0.0}, "label": "B", "xyz": [-1.610605377620105, 5.242004835856582, 3.924104102621989]}, {"species": [{"element": "B", "occu": 1}], "abc": [0.37908831, 0.18954466, 0.33321913000000003], "properties": {"magmom": -0.0}, "label": "B", "xyz": [2.1235031301473595, 1.2260091779417233, 1.5693130367221946]}, {"species": [{"element": "B", "occu": 1}], "abc": [0.81045534, 0.62091169, 0.33322013], "properties": {"magmom": -0.0}, "label": "B", "xyz": [3.7344028630232966, 4.016169666976875, 1.5693177462748444]}, {"species": [{"element": "B", "occu": 1}], "abc": [0.18957071, 0.37914141, 0.83322226], "properties": {"magmom": 0.0}, "label": "B", "xyz": [-3.4748445854049237e-07, 2.452355863518633, 3.924104102621989]}, {"species": [{"element": "B", "occu": 1}], "abc": [0.62085859, 0.81042929, 0.83322226], "properties": {"magmom": 0.0}, "label": "B", "xyz": [1.6106038071367919, 5.242004395942945, 3.924104102621989]}, {"species": [{"element": "B", "occu": 1}], "abc": [0.81045534, 0.18954466, 0.33321913000000003], "properties": {"magmom": -0.0}, "label": "B", "xyz": [5.345303471574305, 1.2260087379473525, 1.5693130367221946]}, {"species": [{"element": "Ru", "occu": 1}], "abc": [0.12120803000000001, 0.87879197, 0.24319738000000002], "properties": {"magmom": -0.0}, "label": "Ru", "xyz": [-2.376487713548836, 5.684187236349596, 1.145350865452057]}, {"species": [{"element": "Ru", "occu": 1}], "abc": [0.24235368000000002, 0.12117634000000001, 0.7432675400000001], "properties": {"magmom": -0.0}, "label": "Ru", "xyz": [1.3575727591468754, 0.7837905060953371, 3.5004576126659814]}, {"species": [{"element": "Ru", "occu": 1}], "abc": [0.87882266, 0.75764632, 0.7432675400000001], "properties": {"magmom": -0.0}, "label": "Ru", "xyz": [3.7344027615817197, 4.900594218825615, 3.5004576126659814]}, {"species": [{"element": "Ru", "occu": 1}], "abc": [0.12120803000000001, 0.24241605, 0.24319638000000002], "properties": {"magmom": -0.0}, "label": "Ru", "xyz": [-2.0870821804130912e-07, 1.5679912717224038, 1.1453461558994071]}, {"species": [{"element": "Ru", "occu": 1}], "abc": [0.75758395, 0.87879197, 0.24319638000000002], "properties": {"magmom": -0.0}, "label": "Ru", "xyz": [2.376486004289282, 5.684186587246158, 1.1453461558994071]}, {"species": [{"element": "Ru", "occu": 1}], "abc": [0.87882266, 0.12117734000000001, 0.7432675400000001], "properties": {"magmom": -0.0}, "label": "Ru", "xyz": [6.111237790456874, 0.7837963250800675, 3.5004576126659814]}, {"species": [{"element": "Ru", "occu": 1}], "abc": [0.333333, 0.666667, 0.07159938], "properties": {"magmom": -0.0}, "label": "Ru", "xyz": [-4.4110742698499905e-06, 4.31212387606137, 0.33720104981735705]}, {"species": [{"element": "Ru", "occu": 1}], "abc": [0.666667, 0.333333, 0.57166259], "properties": {"magmom": 0.0}, "label": "Ru", "xyz": [3.7344106610742704, 2.15605819393863, 2.6922750656403633]}, {"species": [{"element": "Ru", "occu": 1}], "abc": [0.45673576, 0.5432642400000001, 0.57034641], "properties": {"magmom": -0.0}, "label": "Ru", "xyz": [1.3825042045746851, 3.513932104699227, 2.6860764466334865]}, {"species": [{"element": "Ru", "occu": 1}], "abc": [0.91354373, 0.45677137, 0.07032495], "properties": {"magmom": 0.0}, "label": "Ru", "xyz": [5.117317898219453, 2.9544799196155287, 0.3311990546336175]}, {"species": [{"element": "Ru", "occu": 1}], "abc": [0.54322863, 0.08645627, 0.07032495], "properties": {"magmom": 0.0}, "label": "Ru", "xyz": [3.7344108743100786, 0.5592144295452717, 0.3311990546336175]}, {"species": [{"element": "Ru", "occu": 1}], "abc": [0.45673576, 0.91347053, 0.57034641], "properties": {"magmom": -0.0}, "label": "Ru", "xyz": [2.7698906039930193e-06, 5.908494169488862, 2.6860764466334865]}, {"species": [{"element": "Ru", "occu": 1}], "abc": [0.08652947, 0.5432642400000001, 0.57034641], "properties": {"magmom": -0.0}, "label": "Ru", "xyz": [-1.3824979132747086, 3.513932482309643, 2.6860764466334865]}, {"species": [{"element": "Ru", "occu": 1}], "abc": [0.54322863, 0.45677237, 0.07032495], "properties": {"magmom": 0.0}, "label": "Ru", "xyz": [2.3514993642527706, 2.954486765520021, 0.3311990546336175]}]}, "task_ids": null, "uncorrected_energy_per_atom": null, "energy_per_atom": -20.142726945, "formation_energy_per_atom": -0.14164597925000302, "energy_above_hull": 0.034602373999998, "is_stable": false, "equilibrium_reaction_energy_per_atom": null, "decomposes_to": null, "xas": null, "grain_boundaries": null, "band_gap": 0.0, "cbm": null, "vbm": null, "efermi": 8.40883721, "is_gap_direct": null, "is_metal": null, "es_source_calc_id": null, "bandstructure": null, "dos": null, "dos_energy_up": null, "dos_energy_down": null, "is_magnetic": null, "ordering": null, "total_magnetization": 1e-07, "total_magnetization_normalized_vol": null, "total_magnetization_normalized_formula_units": null, "num_magnetic_sites": null, "num_unique_magnetic_sites": null, "types_of_magnetic_species": null, "bulk_modulus": null, "shear_modulus": null, "universal_anisotropy": null, "homogeneous_poisson": null, "e_total": null, "e_ionic": null, "e_electronic": null, "n": null, "e_ij_max": null, "weighted_surface_energy_EV_PER_ANG2": null, "weighted_surface_energy": null, "weighted_work_function": null, "surface_anisotropy": null, "shape_factor": null, "has_reconstructed": null, "possible_species": null, "has_props": null, "theoretical": null, "database_IDs": null, "fields_not_requested": ["builder_meta", "nsites", "elements", "nelements", "composition", "composition_reduced", "chemsys", "symmetry", "property_name", "deprecated", "deprecation_reasons", "last_updated", "origins", "warnings", "task_ids", "uncorrected_energy_per_atom", "equilibrium_reaction_energy_per_atom", "decomposes_to", "xas", "grain_boundaries", "cbm", "vbm", "is_gap_direct", "is_metal", "es_source_calc_id", "bandstructure", "dos", "dos_energy_up", "dos_energy_down", "is_magnetic", "ordering", "total_magnetization_normalized_vol", "total_magnetization_normalized_formula_units", "num_magnetic_sites", "num_unique_magnetic_sites", "types_of_magnetic_species", "bulk_modulus", "shear_modulus", "universal_anisotropy", "homogeneous_poisson", "e_total", "e_ionic", "e_electronic", "n", "e_ij_max", "weighted_surface_energy_EV_PER_ANG2", "weighted_surface_energy", "weighted_work_function", "surface_anisotropy", "shape_factor", "has_reconstructed", "possible_species", "has_props", "theoretical", "database_IDs"]}