{
  "builder_meta": null,
  "nsites": null,
  "elements": null,
  "nelements": null,
  "composition": null,
  "composition_reduced": null,
  "formula_pretty": "B3Ru2",
  "formula_anonymous": "A2B3",
  "chemsys": null,
  "volume": 93.7296653990079,
  "density": 8.31151223705712,
  "density_atomic": 9.37296653990079,
  "symmetry": null,
  "property_name": null,
  "material_id": "mp-13854",
  "deprecated": null,
  "deprecation_reasons": null,
  "last_updated": null,
  "origins": null,
  "warnings": null,
  "structure": {
    "@module": "pymatgen.core.structure",
    "@class": "Structure",
    "charge": 0,
    "lattice": {
      "matrix": [
        [2.90999329, -0.0, -0.0],
        [-1.45499715, 2.52012888, 0.0],
        [0.0, -0.0, 12.78092622]
      ],
      "pbc": [true, true, true],
      "a": 2.90999329,
      "b": 2.909994205890826,
      "c": 12.78092622,
      "alpha": 90.0,
      "beta": 90.0,
      "gamma": 120.00000106979815,
      "volume": 93.7296653990079
    },
    "properties": {},
    "sites": [
      {
        "species": [{ "element": "B", "occu": 1 }],
        "abc": [0.666667, 0.333333, 0.25],
        "properties": { "magmom": -0.0 },
        "label": "B",
        "xyz": [1.45499793166348, 0.84004211995704, 3.195231555]
      },
      {
        "species": [{ "element": "B", "occu": 1 }],
        "abc": [0.333333, 0.666667, 0.75],
        "properties": { "magmom": -0.0 },
        "label": "B",
        "xyz": [-1.7916634801329323e-6, 1.68008676004296, 9.585694665]
      },
      {
        "species": [{ "element": "B", "occu": 1 }],
        "abc": [0.333333, 0.666667, 0.53056007],
        "properties": { "magmom": -0.0 },
        "label": "B",
        "xyz": [-1.7916634801329323e-6, 1.68008676004296, 6.781049109948036]
      },
      {
        "species": [{ "element": "B", "occu": 1 }],
        "abc": [0.666667, 0.333333, 0.03056007],
        "properties": { "magmom": -0.0 },
        "label": "B",
        "xyz": [1.45499793166348, 0.84004211995704, 0.3905859999480354]
      },
      {
        "species": [{ "element": "B", "occu": 1 }],
        "abc": [0.333333, 0.666667, 0.9694399300000001],
        "properties": { "magmom": -0.0 },
        "label": "B",
        "xyz": [-1.7916634801329323e-6, 1.68008676004296, 12.390340220051964]
      },
      {
        "species": [{ "element": "B", "occu": 1 }],
        "abc": [0.666667, 0.333333, 0.46943993],
        "properties": { "magmom": -0.0 },
        "label": "B",
        "xyz": [1.45499793166348, 0.84004211995704, 5.999877110051965]
      },
      {
        "species": [{ "element": "Ru", "occu": 1 }],
        "abc": [0.333333, 0.666667, 0.36006491],
        "properties": { "magmom": 0.0 },
        "label": "Ru",
        "xyz": [-1.7916634801329323e-6, 1.68008676004296, 4.601963049120941]
      },
      {
        "species": [{ "element": "Ru", "occu": 1 }],
        "abc": [0.666667, 0.333333, 0.8600649100000001],
        "properties": { "magmom": 0.0 },
        "label": "Ru",
        "xyz": [1.45499793166348, 0.84004211995704, 10.99242615912094]
      },
      {
        "species": [{ "element": "Ru", "occu": 1 }],
        "abc": [0.666667, 0.333333, 0.63993509],
        "properties": { "magmom": 0.0 },
        "label": "Ru",
        "xyz": [1.45499793166348, 0.84004211995704, 8.17896317087906]
      },
      {
        "species": [{ "element": "Ru", "occu": 1 }],
        "abc": [0.333333, 0.666667, 0.13993509],
        "properties": { "magmom": 0.0 },
        "label": "Ru",
        "xyz": [-1.7916634801329323e-6, 1.68008676004296, 1.78850006087906]
      }
    ]
  },
  "task_ids": null,
  "uncorrected_energy_per_atom": null,
  "energy_per_atom": -14.930123343,
  "formation_energy_per_atom": -0.35249670649999904,
  "energy_above_hull": 0.0,
  "is_stable": true,
  "equilibrium_reaction_energy_per_atom": null,
  "decomposes_to": null,
  "xas": null,
  "grain_boundaries": null,
  "band_gap": 0.0,
  "cbm": null,
  "vbm": null,
  "efermi": 8.43365585,
  "is_gap_direct": null,
  "is_metal": null,
  "es_source_calc_id": null,
  "bandstructure": null,
  "dos": null,
  "dos_energy_up": null,
  "dos_energy_down": null,
  "is_magnetic": null,
  "ordering": null,
  "total_magnetization": 0.0,
  "total_magnetization_normalized_vol": null,
  "total_magnetization_normalized_formula_units": null,
  "num_magnetic_sites": null,
  "num_unique_magnetic_sites": null,
  "types_of_magnetic_species": null,
  "bulk_modulus": null,
  "shear_modulus": null,
  "universal_anisotropy": null,
  "homogeneous_poisson": null,
  "e_total": null,
  "e_ionic": null,
  "e_electronic": null,
  "n": null,
  "e_ij_max": null,
  "weighted_surface_energy_EV_PER_ANG2": null,
  "weighted_surface_energy": null,
  "weighted_work_function": null,
  "surface_anisotropy": null,
  "shape_factor": null,
  "has_reconstructed": null,
  "possible_species": null,
  "has_props": null,
  "theoretical": null,
  "database_IDs": null,
  "fields_not_requested": [
    "builder_meta",
    "nsites",
    "elements",
    "nelements",
    "composition",
    "composition_reduced",
    "chemsys",
    "symmetry",
    "property_name",
    "deprecated",
    "deprecation_reasons",
    "last_updated",
    "origins",
    "warnings",
    "task_ids",
    "uncorrected_energy_per_atom",
    "equilibrium_reaction_energy_per_atom",
    "decomposes_to",
    "xas",
    "grain_boundaries",
    "cbm",
    "vbm",
    "is_gap_direct",
    "is_metal",
    "es_source_calc_id",
    "bandstructure",
    "dos",
    "dos_energy_up",
    "dos_energy_down",
    "is_magnetic",
    "ordering",
    "total_magnetization_normalized_vol",
    "total_magnetization_normalized_formula_units",
    "num_magnetic_sites",
    "num_unique_magnetic_sites",
    "types_of_magnetic_species",
    "bulk_modulus",
    "shear_modulus",
    "universal_anisotropy",
    "homogeneous_poisson",
    "e_total",
    "e_ionic",
    "e_electronic",
    "n",
    "e_ij_max",
    "weighted_surface_energy_EV_PER_ANG2",
    "weighted_surface_energy",
    "weighted_work_function",
    "surface_anisotropy",
    "shape_factor",
    "has_reconstructed",
    "possible_species",
    "has_props",
    "theoretical",
    "database_IDs"
  ]
}
