{
  "builder_meta": null,
  "nsites": null,
  "elements": null,
  "nelements": null,
  "composition": null,
  "composition_reduced": null,
  "formula_pretty": "B4C",
  "formula_anonymous": "AB4",
  "chemsys": null,
  "volume": 108.28781431659964,
  "density": 2.541908945405635,
  "density_atomic": 7.219187621106642,
  "symmetry": null,
  "property_name": null,
  "material_id": "mp-1238815",
  "deprecated": null,
  "deprecation_reasons": null,
  "last_updated": null,
  "origins": null,
  "warnings": null,
  "structure": {
    "@module": "pymatgen.core.structure",
    "@class": "Structure",
    "charge": 0,
    "lattice": {
      "matrix": [
        [-1.24835924, -4.48885674, -1.93870647],
        [-4.72062656, -0.12331366, -2.16479745],
        [-0.01733734, -0.12330732, -5.19328647]
      ],
      "pbc": [true, true, true],
      "a": 5.04646593183355,
      "b": 5.194792524947125,
      "c": 5.1947790749952905,
      "alpha": 65.15271732206465,
      "beta": 66.04617267581237,
      "gamma": 66.04606696649225,
      "volume": 108.28781431659964
    },
    "properties": {},
    "sites": [
      {
        "species": [{ "element": "B", "occu": 1 }],
        "abc": [0.83739316, 0.50818714, 0.50832026],
        "properties": { "magmom": 0.0 },
        "label": "B",
        "xyz": [-3.453142120509745, -3.8842839554565343, -5.363434490705421]
      },
      {
        "species": [{ "element": "B", "occu": 1 }],
        "abc": [0.48467638, 0.17578767, 0.497942799999999],
        "properties": { "magmom": 0.0 },
        "label": "B",
        "xyz": [-1.4435111849294187, -2.2587198482336697, -3.9061495395935313]
      },
      {
        "species": [{ "element": "B", "occu": 1 }],
        "abc": [0.50469531, 0.8310968200000001, 0.50613717],
        "properties": { "magmom": 0.0 },
        "label": "B",
        "xyz": [-4.562113848249632, -2.4304009526135353, -5.406127656439855]
      },
      {
        "species": [{ "element": "B", "occu": 1 }],
        "abc": [0.48467604000000003, 0.49781151, 0.17591985000000002],
        "properties": { "magmom": 0.0 },
        "label": "B",
        "xyz": [-2.9580820311725144, -2.2587204733970387, -2.9309078388400582]
      },
      {
        "species": [{ "element": "B", "occu": 1 }],
        "abc": [0.5046956, 0.50600438, 0.83122934],
        "properties": { "magmom": -0.0 },
        "label": "B",
        "xyz": [-3.0331104370372324, -2.430400160002944, -6.390665701502394]
      },
      {
        "species": [{ "element": "B", "occu": 1 }],
        "abc": [0.18075553, 0.6933779800000001, 0.69350738],
        "properties": { "magmom": -0.0 },
        "label": "B",
        "xyz": [-3.510849917803316, -0.9824031920380007, -5.453037291888579]
      },
      {
        "species": [{ "element": "B", "occu": 1 }],
        "abc": [0.81175301, 0.31002864, 0.31016019],
        "properties": { "magmom": -0.0 },
        "label": "B",
        "xyz": [-2.482266155644486, -3.7203187582566004, -3.8556507400875724]
      },
      {
        "species": [{ "element": "B", "occu": 1 }],
        "abc": [0.69481862, 0.18808678, 0.69702729],
        "properties": { "magmom": -0.0 },
        "label": "B",
        "xyz": [-1.7673552927699343, -3.2280834818006765, -5.374081530170949]
      },
      {
        "species": [{ "element": "B", "occu": 1 }],
        "abc": [0.29914309, 0.8175482, 0.3039635],
        "properties": { "magmom": -0.0 },
        "label": "B",
        "xyz": [-4.238047706030934, -1.4811062611021588, -3.9283464345747277]
      },
      {
        "species": [{ "element": "B", "occu": 1 }],
        "abc": [0.69481868, 0.69689492, 0.18821656],
        "properties": { "magmom": 0.0 },
        "label": "B",
        "xyz": [-4.160427162678029, -3.2280866576097296, -3.833148330604757]
      },
      {
        "species": [{ "element": "B", "occu": 1 }],
        "abc": [0.29914286, 0.30383447, 0.81767766],
        "properties": { "magmom": 0.0 },
        "label": "B",
        "xyz": [-1.8219031778883743, -1.4811020247422078, -5.484124612513666]
      },
      {
        "species": [{ "element": "B", "occu": 1 }],
        "abc": [0.98897429, 0.99947612, 0.99960816],
        "properties": { "magmom": -0.0 },
        "label": "B",
        "xyz": [-5.970079257738381, -4.685871969052745, -9.272245743228146]
      },
      {
        "species": [{ "element": "C", "occu": 1 }],
        "abc": [0.175051899999999, 0.49695927, 0.49709092],
        "properties": { "magmom": -0.0 },
        "label": "C",
        "xyz": [-2.573105020335719, -0.9083597167609642, -3.996725960761505]
      },
      {
        "species": [{ "element": "C", "occu": 1 }],
        "abc": [0.88191391, 0.87574306, 0.87587383],
        "properties": { "magmom": -0.0 },
        "label": "C",
        "xyz": [-5.250186649592514, -4.174777935586889, -8.154242257209276]
      },
      {
        "species": [{ "element": "C", "occu": 1 }],
        "abc": [0.10357464, 0.12051503000000001, 0.12064412000000001],
        "properties": { "magmom": 0.0 },
        "label": "C",
        "xyz": [-0.7002964584983112, -0.4946691734023418, -1.0882309304076507]
      }
    ]
  },
  "task_ids": null,
  "uncorrected_energy_per_atom": null,
  "energy_per_atom": -7.289591404666667,
  "formation_energy_per_atom": -0.1003448895,
  "energy_above_hull": 0.0,
  "is_stable": true,
  "equilibrium_reaction_energy_per_atom": null,
  "decomposes_to": null,
  "xas": null,
  "grain_boundaries": null,
  "band_gap": 3.0415,
  "cbm": null,
  "vbm": null,
  "efermi": 5.1070427,
  "is_gap_direct": null,
  "is_metal": null,
  "es_source_calc_id": null,
  "bandstructure": null,
  "dos": null,
  "dos_energy_up": null,
  "dos_energy_down": null,
  "is_magnetic": null,
  "ordering": null,
  "total_magnetization": 0.0,
  "total_magnetization_normalized_vol": null,
  "total_magnetization_normalized_formula_units": null,
  "num_magnetic_sites": null,
  "num_unique_magnetic_sites": null,
  "types_of_magnetic_species": null,
  "bulk_modulus": null,
  "shear_modulus": null,
  "universal_anisotropy": null,
  "homogeneous_poisson": null,
  "e_total": null,
  "e_ionic": null,
  "e_electronic": null,
  "n": null,
  "e_ij_max": null,
  "weighted_surface_energy_EV_PER_ANG2": null,
  "weighted_surface_energy": null,
  "weighted_work_function": null,
  "surface_anisotropy": null,
  "shape_factor": null,
  "has_reconstructed": null,
  "possible_species": null,
  "has_props": null,
  "theoretical": null,
  "database_IDs": null,
  "fields_not_requested": [
    "builder_meta",
    "nsites",
    "elements",
    "nelements",
    "composition",
    "composition_reduced",
    "chemsys",
    "symmetry",
    "property_name",
    "deprecated",
    "deprecation_reasons",
    "last_updated",
    "origins",
    "warnings",
    "task_ids",
    "uncorrected_energy_per_atom",
    "equilibrium_reaction_energy_per_atom",
    "decomposes_to",
    "xas",
    "grain_boundaries",
    "cbm",
    "vbm",
    "is_gap_direct",
    "is_metal",
    "es_source_calc_id",
    "bandstructure",
    "dos",
    "dos_energy_up",
    "dos_energy_down",
    "is_magnetic",
    "ordering",
    "total_magnetization_normalized_vol",
    "total_magnetization_normalized_formula_units",
    "num_magnetic_sites",
    "num_unique_magnetic_sites",
    "types_of_magnetic_species",
    "bulk_modulus",
    "shear_modulus",
    "universal_anisotropy",
    "homogeneous_poisson",
    "e_total",
    "e_ionic",
    "e_electronic",
    "n",
    "e_ij_max",
    "weighted_surface_energy_EV_PER_ANG2",
    "weighted_surface_energy",
    "weighted_work_function",
    "surface_anisotropy",
    "shape_factor",
    "has_reconstructed",
    "possible_species",
    "has_props",
    "theoretical",
    "database_IDs"
  ]
}
