{
  "builder_meta": null,
  "nsites": null,
  "elements": null,
  "nelements": null,
  "composition": null,
  "composition_reduced": null,
  "formula_pretty": "B4Os",
  "formula_anonymous": "AB4",
  "chemsys": null,
  "volume": 159.4541294045176,
  "density": 9.725497846514457,
  "density_atomic": 7.97270647022588,
  "symmetry": null,
  "property_name": null,
  "material_id": "mp-1188147",
  "deprecated": null,
  "deprecation_reasons": null,
  "last_updated": null,
  "origins": null,
  "warnings": null,
  "structure": {
    "@module": "pymatgen.core.structure",
    "@class": "Structure",
    "charge": 0,
    "lattice": {
      "matrix": [
        [2.671199, -4.626652, 0.0],
        [2.671199, 4.626652, 0.0],
        [0.0, 0.0, 6.451084]
      ],
      "pbc": [true, true, true],
      "a": 5.342397666470084,
      "b": 5.342397666470084,
      "c": 6.451084,
      "alpha": 90.0,
      "beta": 90.0,
      "gamma": 119.99999586961451,
      "volume": 159.4541294045176
    },
    "properties": {},
    "sites": [
      {
        "species": [{ "element": "B", "occu": 1 }],
        "abc": [0.334636999999999, 0.334636999999999, 0.5],
        "properties": { "magmom": 0.0 },
        "label": "B",
        "xyz": [1.7877640395259948, 0.0, 3.225542]
      },
      {
        "species": [{ "element": "B", "occu": 1 }],
        "abc": [0.665362999999999, 0.0, 0.5],
        "properties": { "magmom": 0.0 },
        "label": "B",
        "xyz": [1.7773169802369975, -3.0784030546759955, 3.225542]
      },
      {
        "species": [{ "element": "B", "occu": 1 }],
        "abc": [0.0, 0.665362999999999, 0.5],
        "properties": { "magmom": 0.0 },
        "label": "B",
        "xyz": [1.7773169802369975, 3.0784030546759955, 3.225542]
      },
      {
        "species": [{ "element": "B", "occu": 1 }],
        "abc": [0.665362999999999, 0.665362999999999, 0.5],
        "properties": { "magmom": 0.0 },
        "label": "B",
        "xyz": [3.554633960473995, 0.0, 3.225542]
      },
      {
        "species": [{ "element": "B", "occu": 1 }],
        "abc": [0.0, 0.334636999999999, 0.5],
        "properties": { "magmom": 0.0 },
        "label": "B",
        "xyz": [0.8938820197629974, 1.5482489453239954, 3.225542]
      },
      {
        "species": [{ "element": "B", "occu": 1 }],
        "abc": [0.334636999999999, 0.0, 0.5],
        "properties": { "magmom": 0.0 },
        "label": "B",
        "xyz": [0.8938820197629974, -1.5482489453239954, 3.225542]
      },
      {
        "species": [{ "element": "B", "occu": 1 }],
        "abc": [0.665362999999999, 0.665362999999999, 0.0],
        "properties": { "magmom": 0.0 },
        "label": "B",
        "xyz": [3.554633960473995, 0.0, 0.0]
      },
      {
        "species": [{ "element": "B", "occu": 1 }],
        "abc": [0.334636999999999, 0.0, 0.0],
        "properties": { "magmom": 0.0 },
        "label": "B",
        "xyz": [0.8938820197629974, -1.5482489453239954, 0.0]
      },
      {
        "species": [{ "element": "B", "occu": 1 }],
        "abc": [0.0, 0.334636999999999, 0.0],
        "properties": { "magmom": 0.0 },
        "label": "B",
        "xyz": [0.8938820197629974, 1.5482489453239954, 0.0]
      },
      {
        "species": [{ "element": "B", "occu": 1 }],
        "abc": [0.334636999999999, 0.334636999999999, 0.0],
        "properties": { "magmom": 0.0 },
        "label": "B",
        "xyz": [1.7877640395259948, 0.0, 0.0]
      },
      {
        "species": [{ "element": "B", "occu": 1 }],
        "abc": [0.0, 0.665362999999999, 0.0],
        "properties": { "magmom": 0.0 },
        "label": "B",
        "xyz": [1.7773169802369975, 3.0784030546759955, 0.0]
      },
      {
        "species": [{ "element": "B", "occu": 1 }],
        "abc": [0.665362999999999, 0.0, 0.0],
        "properties": { "magmom": 0.0 },
        "label": "B",
        "xyz": [1.7773169802369975, -3.0784030546759955, 0.0]
      },
      {
        "species": [{ "element": "B", "occu": 1 }],
        "abc": [0.333333, 0.666667, 0.883706],
        "properties": { "magmom": 0.0 },
        "label": "B",
        "xyz": [2.671199, 1.5422204177680001, 5.7008616373039995]
      },
      {
        "species": [{ "element": "B", "occu": 1 }],
        "abc": [0.666667, 0.333333, 0.116294],
        "properties": { "magmom": 0.0 },
        "label": "B",
        "xyz": [2.671199, -1.5422204177680001, 0.750222362696]
      },
      {
        "species": [{ "element": "B", "occu": 1 }],
        "abc": [0.666667, 0.333333, 0.383706],
        "properties": { "magmom": 0.0 },
        "label": "B",
        "xyz": [2.671199, -1.5422204177680001, 2.475319637304]
      },
      {
        "species": [{ "element": "B", "occu": 1 }],
        "abc": [0.333333, 0.666667, 0.616294],
        "properties": { "magmom": 0.0 },
        "label": "B",
        "xyz": [2.671199, 1.5422204177680001, 3.9757643626959998]
      },
      {
        "species": [{ "element": "Os", "occu": 1 }],
        "abc": [0.333333, 0.666667, 0.25],
        "properties": { "magmom": 0.0 },
        "label": "Os",
        "xyz": [2.671199, 1.5422204177680001, 1.612771]
      },
      {
        "species": [{ "element": "Os", "occu": 1 }],
        "abc": [0.666667, 0.333333, 0.75],
        "properties": { "magmom": 0.0 },
        "label": "Os",
        "xyz": [2.671199, -1.5422204177680001, 4.838312999999999]
      },
      {
        "species": [{ "element": "Os", "occu": 1 }],
        "abc": [0.0, 0.0, 0.25],
        "properties": { "magmom": 0.0 },
        "label": "Os",
        "xyz": [0.0, 0.0, 1.612771]
      },
      {
        "species": [{ "element": "Os", "occu": 1 }],
        "abc": [0.0, 0.0, 0.75],
        "properties": { "magmom": 0.0 },
        "label": "Os",
        "xyz": [0.0, 0.0, 4.838312999999999]
      }
    ]
  },
  "task_ids": null,
  "uncorrected_energy_per_atom": null,
  "energy_per_atom": -15.83218086716667,
  "formation_energy_per_atom": 0.641948260833328,
  "energy_above_hull": 0.7827130438333321,
  "is_stable": false,
  "equilibrium_reaction_energy_per_atom": null,
  "decomposes_to": null,
  "xas": null,
  "grain_boundaries": null,
  "band_gap": 0.0,
  "cbm": null,
  "vbm": null,
  "efermi": 9.06616852,
  "is_gap_direct": null,
  "is_metal": null,
  "es_source_calc_id": null,
  "bandstructure": null,
  "dos": null,
  "dos_energy_up": null,
  "dos_energy_down": null,
  "is_magnetic": null,
  "ordering": null,
  "total_magnetization": 0.000214,
  "total_magnetization_normalized_vol": null,
  "total_magnetization_normalized_formula_units": null,
  "num_magnetic_sites": null,
  "num_unique_magnetic_sites": null,
  "types_of_magnetic_species": null,
  "bulk_modulus": null,
  "shear_modulus": null,
  "universal_anisotropy": null,
  "homogeneous_poisson": null,
  "e_total": null,
  "e_ionic": null,
  "e_electronic": null,
  "n": null,
  "e_ij_max": null,
  "weighted_surface_energy_EV_PER_ANG2": null,
  "weighted_surface_energy": null,
  "weighted_work_function": null,
  "surface_anisotropy": null,
  "shape_factor": null,
  "has_reconstructed": null,
  "possible_species": null,
  "has_props": null,
  "theoretical": null,
  "database_IDs": null,
  "fields_not_requested": [
    "builder_meta",
    "nsites",
    "elements",
    "nelements",
    "composition",
    "composition_reduced",
    "chemsys",
    "symmetry",
    "property_name",
    "deprecated",
    "deprecation_reasons",
    "last_updated",
    "origins",
    "warnings",
    "task_ids",
    "uncorrected_energy_per_atom",
    "equilibrium_reaction_energy_per_atom",
    "decomposes_to",
    "xas",
    "grain_boundaries",
    "cbm",
    "vbm",
    "is_gap_direct",
    "is_metal",
    "es_source_calc_id",
    "bandstructure",
    "dos",
    "dos_energy_up",
    "dos_energy_down",
    "is_magnetic",
    "ordering",
    "total_magnetization_normalized_vol",
    "total_magnetization_normalized_formula_units",
    "num_magnetic_sites",
    "num_unique_magnetic_sites",
    "types_of_magnetic_species",
    "bulk_modulus",
    "shear_modulus",
    "universal_anisotropy",
    "homogeneous_poisson",
    "e_total",
    "e_ionic",
    "e_electronic",
    "n",
    "e_ij_max",
    "weighted_surface_energy_EV_PER_ANG2",
    "weighted_surface_energy",
    "weighted_work_function",
    "surface_anisotropy",
    "shape_factor",
    "has_reconstructed",
    "possible_species",
    "has_props",
    "theoretical",
    "database_IDs"
  ]
}
