{
  "builder_meta": null,
  "nsites": null,
  "elements": null,
  "nelements": null,
  "composition": null,
  "composition_reduced": null,
  "formula_pretty": "B4Rh5",
  "formula_anonymous": "A4B5",
  "chemsys": null,
  "volume": 194.14206885393608,
  "density": 9.541480334001333,
  "density_atomic": 10.785670491885337,
  "symmetry": null,
  "property_name": null,
  "material_id": "mp-567926",
  "deprecated": null,
  "deprecation_reasons": null,
  "last_updated": null,
  "origins": null,
  "warnings": null,
  "structure": {
    "@module": "pymatgen.core.structure",
    "@class": "Structure",
    "charge": 0,
    "lattice": {
      "matrix": [
        [3.32321096, -1e-8, -0.0],
        [-1.66160649, 2.87798573, 0.0],
        [-0.0, -0.0, 20.29892815]
      ],
      "pbc": [true, true, true],
      "a": 3.32321096,
      "b": 3.3232119989091506,
      "c": 20.29892815,
      "alpha": 90.0,
      "beta": 90.0,
      "gamma": 120.00000993833184,
      "volume": 194.14206885393608
    },
    "properties": {},
    "sites": [
      {
        "species": [{ "element": "B", "occu": 1 }],
        "abc": [0.666667, 0.333333, 0.08594646],
        "properties": { "magmom": -0.0 },
        "label": "B",
        "xyz": [1.66160680493915, 0.9593276106714199, 1.744621016286849]
      },
      {
        "species": [{ "element": "B", "occu": 1 }],
        "abc": [0.333333, 0.666667, 0.5859464600000001],
        "properties": { "magmom": -0.0 },
        "label": "B",
        "xyz": [-2.3349391502502925e-6, 1.91865810932858, 11.894085091286849]
      },
      {
        "species": [{ "element": "B", "occu": 1 }],
        "abc": [0.666667, 0.333333, 0.30366413000000003],
        "properties": { "magmom": -0.0 },
        "label": "B",
        "xyz": [1.66160680493915, 0.9593276106714199, 6.164056356602259]
      },
      {
        "species": [{ "element": "B", "occu": 1 }],
        "abc": [0.333333, 0.666667, 0.69633587],
        "properties": { "magmom": -0.0 },
        "label": "B",
        "xyz": [-2.3349391502502925e-6, 1.91865810932858, 14.134871793397739]
      },
      {
        "species": [{ "element": "B", "occu": 1 }],
        "abc": [0.666667, 0.333333, 0.19633587],
        "properties": { "magmom": -0.0 },
        "label": "B",
        "xyz": [1.66160680493915, 0.9593276106714199, 3.98540771839774]
      },
      {
        "species": [{ "element": "B", "occu": 1 }],
        "abc": [0.333333, 0.666667, 0.80366413],
        "properties": { "magmom": -0.0 },
        "label": "B",
        "xyz": [-2.3349391502502925e-6, 1.91865810932858, 16.31352043160226]
      },
      {
        "species": [{ "element": "B", "occu": 1 }],
        "abc": [0.333333, 0.666667, 0.91405354],
        "properties": { "magmom": -0.0 },
        "label": "B",
        "xyz": [-2.3349391502502925e-6, 1.91865810932858, 18.554307133713152]
      },
      {
        "species": [{ "element": "B", "occu": 1 }],
        "abc": [0.666667, 0.333333, 0.41405354],
        "properties": { "magmom": -0.0 },
        "label": "B",
        "xyz": [1.66160680493915, 0.9593276106714199, 8.40484305871315]
      },
      {
        "species": [{ "element": "Rh", "occu": 1 }],
        "abc": [0.0, -0.0, 0.85243355],
        "properties": { "magmom": 0.0 },
        "label": "Rh",
        "xyz": [0.0, 0.0, 17.30348738409943]
      },
      {
        "species": [{ "element": "Rh", "occu": 1 }],
        "abc": [0.0, -0.0, 0.64756645],
        "properties": { "magmom": 0.0 },
        "label": "Rh",
        "xyz": [0.0, 0.0, 13.144904840900567]
      },
      {
        "species": [{ "element": "Rh", "occu": 1 }],
        "abc": [-0.0, 0.0, 0.35243355],
        "properties": { "magmom": 0.0 },
        "label": "Rh",
        "xyz": [0.0, 0.0, 7.154023309099432]
      },
      {
        "species": [{ "element": "Rh", "occu": 1 }],
        "abc": [0.666667, 0.333333, 0.9526113900000001],
        "properties": { "magmom": 0.0 },
        "label": "Rh",
        "xyz": [1.66160680493915, 0.9593276106714199, 19.336990160481626]
      },
      {
        "species": [{ "element": "Rh", "occu": 1 }],
        "abc": [0.666667, 0.333333, 0.54738861],
        "properties": { "magmom": 0.0 },
        "label": "Rh",
        "xyz": [1.66160680493915, 0.9593276106714199, 11.111402064518371]
      },
      {
        "species": [{ "element": "Rh", "occu": 1 }],
        "abc": [0.666667, 0.333333, 0.75],
        "properties": { "magmom": 0.0 },
        "label": "Rh",
        "xyz": [1.66160680493915, 0.9593276106714199, 15.2241961125]
      },
      {
        "species": [{ "element": "Rh", "occu": 1 }],
        "abc": [-0.0, 0.0, 0.14756645000000002],
        "properties": { "magmom": 0.0 },
        "label": "Rh",
        "xyz": [0.0, 0.0, 2.9954407659005677]
      },
      {
        "species": [{ "element": "Rh", "occu": 1 }],
        "abc": [0.333333, 0.666667, 0.45261139],
        "properties": { "magmom": 0.0 },
        "label": "Rh",
        "xyz": [-2.3349391502502925e-6, 1.91865810932858, 9.187526085481627]
      },
      {
        "species": [{ "element": "Rh", "occu": 1 }],
        "abc": [0.333333, 0.666667, 0.04738861],
        "properties": { "magmom": 0.0 },
        "label": "Rh",
        "xyz": [-2.3349391502502925e-6, 1.91865810932858, 0.9619379895183714]
      },
      {
        "species": [{ "element": "Rh", "occu": 1 }],
        "abc": [0.333333, 0.666667, 0.25],
        "properties": { "magmom": 0.0 },
        "label": "Rh",
        "xyz": [-2.3349391502502925e-6, 1.91865810932858, 5.0747320375]
      }
    ]
  },
  "task_ids": null,
  "uncorrected_energy_per_atom": null,
  "energy_per_atom": -17.08241125,
  "formation_energy_per_atom": -0.40834903444444204,
  "energy_above_hull": 0.0,
  "is_stable": true,
  "equilibrium_reaction_energy_per_atom": null,
  "decomposes_to": null,
  "xas": null,
  "grain_boundaries": null,
  "band_gap": 0.0,
  "cbm": null,
  "vbm": null,
  "efermi": 6.66563718,
  "is_gap_direct": null,
  "is_metal": null,
  "es_source_calc_id": null,
  "bandstructure": null,
  "dos": null,
  "dos_energy_up": null,
  "dos_energy_down": null,
  "is_magnetic": null,
  "ordering": null,
  "total_magnetization": 1.38e-5,
  "total_magnetization_normalized_vol": null,
  "total_magnetization_normalized_formula_units": null,
  "num_magnetic_sites": null,
  "num_unique_magnetic_sites": null,
  "types_of_magnetic_species": null,
  "bulk_modulus": null,
  "shear_modulus": null,
  "universal_anisotropy": null,
  "homogeneous_poisson": null,
  "e_total": null,
  "e_ionic": null,
  "e_electronic": null,
  "n": null,
  "e_ij_max": null,
  "weighted_surface_energy_EV_PER_ANG2": null,
  "weighted_surface_energy": null,
  "weighted_work_function": null,
  "surface_anisotropy": null,
  "shape_factor": null,
  "has_reconstructed": null,
  "possible_species": null,
  "has_props": null,
  "theoretical": null,
  "database_IDs": null,
  "fields_not_requested": [
    "builder_meta",
    "nsites",
    "elements",
    "nelements",
    "composition",
    "composition_reduced",
    "chemsys",
    "symmetry",
    "property_name",
    "deprecated",
    "deprecation_reasons",
    "last_updated",
    "origins",
    "warnings",
    "task_ids",
    "uncorrected_energy_per_atom",
    "equilibrium_reaction_energy_per_atom",
    "decomposes_to",
    "xas",
    "grain_boundaries",
    "cbm",
    "vbm",
    "is_gap_direct",
    "is_metal",
    "es_source_calc_id",
    "bandstructure",
    "dos",
    "dos_energy_up",
    "dos_energy_down",
    "is_magnetic",
    "ordering",
    "total_magnetization_normalized_vol",
    "total_magnetization_normalized_formula_units",
    "num_magnetic_sites",
    "num_unique_magnetic_sites",
    "types_of_magnetic_species",
    "bulk_modulus",
    "shear_modulus",
    "universal_anisotropy",
    "homogeneous_poisson",
    "e_total",
    "e_ionic",
    "e_electronic",
    "n",
    "e_ij_max",
    "weighted_surface_energy_EV_PER_ANG2",
    "weighted_surface_energy",
    "weighted_work_function",
    "surface_anisotropy",
    "shape_factor",
    "has_reconstructed",
    "possible_species",
    "has_props",
    "theoretical",
    "database_IDs"
  ]
}
