{"builder_meta": null, "nsites": null, "elements": null, "nelements": null, "composition": null, "composition_reduced": null, "formula_pretty": "B4W", "formula_anonymous": "AB4", "chemsys": null, "volume": 161.3102177442281, "density": 9.35047658289549, "density_atomic": 8.065510887211406, "symmetry": null, "property_name": null, "material_id": "mp-29651", "deprecated": null, "deprecation_reasons": null, "last_updated": null, "origins": null, "warnings": null, "structure": {"@module": "pymatgen.core.structure", "@class": "Structure", "charge": 0, "lattice": {"matrix": [[2.68284, -4.646815, 0.0], [2.68284, 4.646815, 0.0], [0.0, 0.0, 6.469664]], "pbc": [true, true, true], "a": 5.365679836686587, "b": 5.365679836686587, "c": 6.469664, "alpha": 90.0, "beta": 90.0, "gamma": 119.99999798632629, "volume": 161.3102177442281}, "properties": {}, "sites": [{"species": [{"element": "B", "occu": 1}], "abc": [0.333333, 0.666667, 0.881045], "properties": {"magmom": 0.0}, "label": "B", "xyz": [2.68284, 1.5489414312100003, 5.70006511888]}, {"species": [{"element": "B", "occu": 1}], "abc": [0.666667, 0.333333, 0.381044999999999], "properties": {"magmom": 0.0}, "label": "B", "xyz": [2.68284, -1.5489414312100003, 2.4652331188799934]}, {"species": [{"element": "B", "occu": 1}], "abc": [0.666667, 0.333333, 0.118954999999999], "properties": {"magmom": 0.0}, "label": "B", "xyz": [2.68284, -1.5489414312100003, 0.7695988811199935]}, {"species": [{"element": "B", "occu": 1}], "abc": [0.333333, 0.666667, 0.618954999999999], "properties": {"magmom": 0.0}, "label": "B", "xyz": [2.68284, 1.5489414312100003, 4.004430881119994]}, {"species": [{"element": "B", "occu": 1}], "abc": [0.337194, 0.0, 0.0], "properties": {"magmom": 0.0}, "label": "B", "xyz": [0.90463755096, -1.56687813711, 0.0]}, {"species": [{"element": "B", "occu": 1}], "abc": [0.337194, 0.337194, 0.5], "properties": {"magmom": -0.0}, "label": "B", "xyz": [1.80927510192, 0.0, 3.234832]}, {"species": [{"element": "B", "occu": 1}], "abc": [0.0, 0.662806, 0.5], "properties": {"magmom": 0.0}, "label": "B", "xyz": [1.7782024490400001, 3.07993686289, 3.234832]}, {"species": [{"element": "B", "occu": 1}], "abc": [0.0, 0.337194, 0.0], "properties": {"magmom": 0.0}, "label": "B", "xyz": [0.90463755096, 1.56687813711, 0.0]}, {"species": [{"element": "B", "occu": 1}], "abc": [0.662806, 0.662806, 0.0], "properties": {"magmom": -0.0}, "label": "B", "xyz": [3.5564048980800003, 0.0, 0.0]}, {"species": [{"element": "B", "occu": 1}], "abc": [0.662806, 0.0, 0.5], "properties": {"magmom": 0.0}, "label": "B", "xyz": [1.7782024490400001, -3.07993686289, 3.234832]}, {"species": [{"element": "B", "occu": 1}], "abc": [0.662806, 0.0, 0.0], "properties": {"magmom": 0.0}, "label": "B", "xyz": [1.7782024490400001, -3.07993686289, 0.0]}, {"species": [{"element": "B", "occu": 1}], "abc": [0.662806, 0.662806, 0.5], "properties": {"magmom": -0.0}, "label": "B", "xyz": [3.5564048980800003, 0.0, 3.234832]}, {"species": [{"element": "B", "occu": 1}], "abc": [0.0, 0.337194, 0.5], "properties": {"magmom": 0.0}, "label": "B", "xyz": [0.90463755096, 1.56687813711, 3.234832]}, {"species": [{"element": "B", "occu": 1}], "abc": [0.0, 0.662806, 0.0], "properties": {"magmom": 0.0}, "label": "B", "xyz": [1.7782024490400001, 3.07993686289, 0.0]}, {"species": [{"element": "B", "occu": 1}], "abc": [0.337194, 0.337194, 0.0], "properties": {"magmom": -0.0}, "label": "B", "xyz": [1.80927510192, 0.0, 0.0]}, {"species": [{"element": "B", "occu": 1}], "abc": [0.337194, 0.0, 0.5], "properties": {"magmom": 0.0}, "label": "B", "xyz": [0.90463755096, -1.56687813711, 3.234832]}, {"species": [{"element": "W", "occu": 1}], "abc": [0.0, 0.0, 0.75], "properties": {"magmom": -0.0}, "label": "W", "xyz": [0.0, 0.0, 4.8522479999999995]}, {"species": [{"element": "W", "occu": 1}], "abc": [0.0, 0.0, 0.25], "properties": {"magmom": -0.0}, "label": "W", "xyz": [0.0, 0.0, 1.617416]}, {"species": [{"element": "W", "occu": 1}], "abc": [0.666667, 0.333333, 0.75], "properties": {"magmom": 0.001}, "label": "W", "xyz": [2.68284, -1.5489414312100003, 4.8522479999999995]}, {"species": [{"element": "W", "occu": 1}], "abc": [0.333333, 0.666667, 0.25], "properties": {"magmom": 0.001}, "label": "W", "xyz": [2.68284, 1.5489414312100003, 1.617416]}]}, "task_ids": null, "uncorrected_energy_per_atom": null, "energy_per_atom": -15.742241898166668, "formation_energy_per_atom": 0.408400335833331, "energy_above_hull": 0.6008436473333341, "is_stable": false, "equilibrium_reaction_energy_per_atom": null, "decomposes_to": null, "xas": null, "grain_boundaries": null, "band_gap": 0.0, "cbm": null, "vbm": null, "efermi": 9.28465024, "is_gap_direct": null, "is_metal": null, "es_source_calc_id": null, "bandstructure": null, "dos": null, "dos_energy_up": null, "dos_energy_down": null, "is_magnetic": null, "ordering": null, "total_magnetization": 0.0015608999999990002, "total_magnetization_normalized_vol": null, "total_magnetization_normalized_formula_units": null, "num_magnetic_sites": null, "num_unique_magnetic_sites": null, "types_of_magnetic_species": null, "bulk_modulus": null, "shear_modulus": null, "universal_anisotropy": null, "homogeneous_poisson": null, "e_total": null, "e_ionic": null, "e_electronic": null, "n": null, "e_ij_max": null, "weighted_surface_energy_EV_PER_ANG2": null, "weighted_surface_energy": null, "weighted_work_function": null, "surface_anisotropy": null, "shape_factor": null, "has_reconstructed": null, "possible_species": null, "has_props": null, "theoretical": null, "database_IDs": null, "fields_not_requested": ["builder_meta", "nsites", "elements", "nelements", "composition", "composition_reduced", "chemsys", "symmetry", "property_name", "deprecated", "deprecation_reasons", "last_updated", "origins", "warnings", "task_ids", "uncorrected_energy_per_atom", "equilibrium_reaction_energy_per_atom", "decomposes_to", "xas", "grain_boundaries", "cbm", "vbm", "is_gap_direct", "is_metal", "es_source_calc_id", "bandstructure", "dos", "dos_energy_up", "dos_energy_down", "is_magnetic", "ordering", "total_magnetization_normalized_vol", "total_magnetization_normalized_formula_units", "num_magnetic_sites", "num_unique_magnetic_sites", "types_of_magnetic_species", "bulk_modulus", "shear_modulus", "universal_anisotropy", "homogeneous_poisson", "e_total", "e_ionic", "e_electronic", "n", "e_ij_max", "weighted_surface_energy_EV_PER_ANG2", "weighted_surface_energy", "weighted_work_function", "surface_anisotropy", "shape_factor", "has_reconstructed", "possible_species", "has_props", "theoretical", "database_IDs"]}