{"builder_meta": null, "nsites": null, "elements": null, "nelements": null, "composition": null, "composition_reduced": null, "formula_pretty": "B5F6", "formula_anonymous": "A5B6", "chemsys": null, "volume": 604.1077878675553, "density": 1.8476569191718601, "density_atomic": 13.729722451535348, "symmetry": null, "property_name": null, "material_id": "mp-30936", "deprecated": null, "deprecation_reasons": null, "last_updated": null, "origins": null, "warnings": null, "structure": {"@module": "pymatgen.core.structure", "@class": "Structure", "charge": 0, "lattice": {"matrix": [[-3.282378, 3.282378, 14.017716], [3.282378, -3.282378, 14.017716], [3.282378, 3.282378, -14.017716]], "pbc": [true, true, true], "a": 14.766325627129588, "b": 14.766325627129588, "c": 14.766325627129588, "alpha": 154.31308421495822, "beta": 154.31308421495822, "gamma": 36.644701930803954, "volume": 604.1077878675553}, "properties": {}, "sites": [{"species": [{"element": "B", "occu": 1}], "abc": [0.395321, 0.567525, 0.010672], "properties": {"magmom": 0.0}, "label": "B", "xyz": [0.6002681591279999, -0.530209083096, 13.347304714584]}, {"species": [{"element": "B", "occu": 1}], "abc": [0.317525, 0.806852999999999, 0.672204], "properties": {"magmom": 0.0}, "label": "B", "xyz": [3.812587083095997, 0.6002681591280035, 6.338446714583986]}, {"species": [{"element": "B", "occu": 1}], "abc": [0.134649, 0.645320999999999, 0.327796], "properties": {"magmom": 0.0}, "label": "B", "xyz": [2.7521689169039965, -0.6002681591279968, 6.338446714583986]}, {"species": [{"element": "B", "occu": 1}], "abc": [0.556852999999999, 0.384648999999999, 0.989328], "properties": {"magmom": 0.0}, "label": "B", "xyz": [2.682109840872, 3.812587083096, -0.6704112854160282]}, {"species": [{"element": "B", "occu": 1}], "abc": [0.354678999999999, 0.682474999999999, 0.489328], "properties": {"magmom": 0.0}, "label": "B", "xyz": [2.682109840872, 0.530209083096, 7.679269285415972]}, {"species": [{"element": "B", "occu": 1}], "abc": [0.432475, 0.443146999999999, 0.827796], "properties": {"magmom": 0.0}, "label": "B", "xyz": [2.7521689169039965, 2.6821098408720037, 0.6704112854159856]}, {"species": [{"element": "B", "occu": 1}], "abc": [0.615351, 0.604679, 0.172204], "properties": {"magmom": 0.0}, "label": "B", "xyz": [0.5302090830959998, 0.6002681591280001, 14.688127285415996]}, {"species": [{"element": "B", "occu": 1}], "abc": [0.19314699999999901, 0.865351, 0.510672], "properties": {"magmom": 0.0}, "label": "B", "xyz": [3.8826461591280035, -0.5302090830960033, 7.679269285415985]}, {"species": [{"element": "B", "occu": 1}], "abc": [0.418824, 0.418824, 0.0], "properties": {"magmom": 0.0}, "label": "B", "xyz": [0.0, 0.0, 11.741911771967999]}, {"species": [{"element": "B", "occu": 1}], "abc": [0.168824, 0.668824, 0.5], "properties": {"magmom": 0.0}, "label": "B", "xyz": [3.282378, 0.0, 4.733053771967999]}, {"species": [{"element": "B", "occu": 1}], "abc": [0.331175999999999, 0.831175999999999, 0.5], "properties": {"magmom": 0.0}, "label": "B", "xyz": [3.2823779999999996, 2.220446049250313e-16, 9.284662228031973]}, {"species": [{"element": "B", "occu": 1}], "abc": [0.581176, 0.581176, 0.0], "properties": {"magmom": 0.0}, "label": "B", "xyz": [0.0, 0.0, 16.293520228032]}, {"species": [{"element": "B", "occu": 1}], "abc": [0.203410999999999, 0.720752, 0.013108999999999002], "properties": {"magmom": 0.0}, "label": "B", "xyz": [1.7411374101, -1.6550800236960064, 12.770896232664]}, {"species": [{"element": "B", "occu": 1}], "abc": [0.470752, 0.957642999999999, 0.017341], "properties": {"magmom": 0.0}, "label": "B", "xyz": [1.6550800236959968, -1.5412405898999968, 19.779754232663986]}, {"species": [{"element": "B", "occu": 1}], "abc": [0.940302, 0.453410999999999, 0.982659], "properties": {"magmom": 0.0}, "label": "B", "xyz": [1.6272979763039968, 4.823618589900002, 5.762038232663988]}, {"species": [{"element": "B", "occu": 1}], "abc": [0.707643, 0.190302, 0.986891], "properties": {"magmom": 0.0}, "label": "B", "xyz": [1.5412405898999997, 4.937458023695999, -1.2468197673359995]}, {"species": [{"element": "B", "occu": 1}], "abc": [0.546589, 0.529247999999999, 0.486890999999999], "properties": {"magmom": 0.0}, "label": "B", "xyz": [1.5412405898999937, 1.655080023696, 8.255677767336]}, {"species": [{"element": "B", "occu": 1}], "abc": [0.279248, 0.292357, 0.482659], "properties": {"magmom": 0.0}, "label": "B", "xyz": [1.6272979763039999, 1.5412405899000001, 1.2468197673359995]}, {"species": [{"element": "B", "occu": 1}], "abc": [0.809697999999999, 0.796589, 0.517340999999999], "properties": {"magmom": 0.0}, "label": "B", "xyz": [1.6550800236960002, 1.7411374100999937, 15.264535767336]}, {"species": [{"element": "B", "occu": 1}], "abc": [0.042357, 0.059697999999999, 0.513108999999999], "properties": {"magmom": 0.0}, "label": "B", "xyz": [1.7411374100999935, 1.627297976304, -5.7620382326640005]}, {"species": [{"element": "F", "occu": 1}], "abc": [0.255096999999999, 0.287341, 0.754873999999999], "properties": {"magmom": 0.0}, "label": "F", "xyz": [2.583618806604, 2.3719448141399937, -2.9778675161759995]}, {"species": [{"element": "F", "occu": 1}], "abc": [0.037341, 0.782467999999999, 0.532243999999999], "properties": {"magmom": 0.0}, "label": "F", "xyz": [4.1928144682379935, -0.6987624757739999, 4.03100450154]}, {"species": [{"element": "F", "occu": 1}], "abc": [0.250223, 0.505097, 0.467756], "properties": {"magmom": 0.0}, "label": "F", "xyz": [2.37194481414, 0.6987591933959998, 4.030990483824]}, {"species": [{"element": "F", "occu": 1}], "abc": [0.532467999999999, 0.500223, 0.245125999999999], "properties": {"magmom": 0.0}, "label": "F", "xyz": [0.6987559110179997, 0.9104364682379937, 11.03986250154]}, {"species": [{"element": "F", "occu": 1}], "abc": [0.494903, 0.962658999999999, 0.745126], "properties": {"magmom": 0.0}, "label": "F", "xyz": [3.9811371933959965, 0.910433185860003, 9.986725516175989]}, {"species": [{"element": "F", "occu": 1}], "abc": [0.712658999999999, 0.467532, 0.967756], "properties": {"magmom": 0.0}, "label": "F", "xyz": [2.371941531762003, 3.981140475773997, 2.9778534984599876]}, {"species": [{"element": "F", "occu": 1}], "abc": [0.499776999999999, 0.744903, 0.032244], "properties": {"magmom": 0.0}, "label": "F", "xyz": [0.9104331858600032, -0.6987591933960031, 16.995583516175987]}, {"species": [{"element": "F", "occu": 1}], "abc": [0.217532, 0.749776999999999, 0.254874], "properties": {"magmom": 0.0}, "label": "F", "xyz": [2.583622088981997, -0.9104364682379968, 9.986711498459986]}, {"species": [{"element": "F", "occu": 1}], "abc": [0.010145999999999001, 0.646594, 0.788922999999999], "properties": {"magmom": -0.0}, "label": "F", "xyz": [4.6786064122380004, 0.5004805855499934, -1.8529037540279987]}, {"species": [{"element": "F", "occu": 1}], "abc": [0.396594, 0.107670999999999, 0.13644799999999901], "properties": {"magmom": -0.0}, "label": "F", "xyz": [-0.5004805855500065, 1.3962284122380002, 5.155954245972]}, {"species": [{"element": "F", "occu": 1}], "abc": [0.971223, 0.260146, 0.863552], "properties": {"magmom": -0.0}, "label": "F", "xyz": [0.5004805855500001, 5.168527587762, 5.155954245972]}, {"species": [{"element": "F", "occu": 1}], "abc": [0.857671, 0.221223, 0.211077], "properties": {"magmom": -0.0}, "label": "F", "xyz": [-1.3962284122379998, 2.7818974144499995, 12.164812245972]}, {"species": [{"element": "F", "occu": 1}], "abc": [0.739854, 0.603406, 0.711077], "properties": {"magmom": -0.0}, "label": "F", "xyz": [1.8861495877619998, 2.7818974144500004, 8.861761754028]}, {"species": [{"element": "F", "occu": 1}], "abc": [0.353406, 0.142328999999999, 0.363552], "properties": {"magmom": -0.0}, "label": "F", "xyz": [0.5004805855499967, 1.8861495877620034, 1.8529037540279862]}, {"species": [{"element": "F", "occu": 1}], "abc": [0.778776999999999, 0.9898539999999991, 0.636448], "properties": {"magmom": -0.0}, "label": "F", "xyz": [2.7818974144500004, 1.396228412238, 15.870619754027976]}, {"species": [{"element": "F", "occu": 1}], "abc": [0.892328999999999, 0.028776999999999, 0.288923], "properties": {"magmom": -0.0}, "label": "F", "xyz": [-1.8861495877620005, 3.7828585855500005, 8.861761754027972]}, {"species": [{"element": "F", "occu": 1}], "abc": [0.242923, 0.927136, 0.242616], "properties": {"magmom": 0.0}, "label": "F", "xyz": [3.042203119362, -1.449488277666, 13.000632580188]}, {"species": [{"element": "F", "occu": 1}], "abc": [0.677136, 0.9345200000000001, 0.184213], "properties": {"magmom": 0.0}, "label": "F", "xyz": [1.449488277666, -0.2401748806380003, 20.009490580188]}, {"species": [{"element": "F", "occu": 1}], "abc": [0.750307, 0.492923, 0.815786999999999], "properties": {"magmom": 0.0}, "label": "F", "xyz": [1.832889722333997, 3.5225528806379973, 5.991774580188011]}, {"species": [{"element": "F", "occu": 1}], "abc": [0.68452, 0.000307, 0.757384], "properties": {"magmom": 0.0}, "label": "F", "xyz": [0.24017488063799997, 4.7318662776660005, -1.0170834198119998]}, {"species": [{"element": "F", "occu": 1}], "abc": [0.507077, 0.322864, 0.257384], "properties": {"magmom": 0.0}, "label": "F", "xyz": [0.24017488063799997, 1.449488277666, 8.025941419812]}, {"species": [{"element": "F", "occu": 1}], "abc": [0.072864, 0.31548000000000004, 0.315787], "properties": {"magmom": 0.0}, "label": "F", "xyz": [1.832889722334, 0.24017488063799985, 1.0170834198120007]}, {"species": [{"element": "F", "occu": 1}], "abc": [0.999692999999999, 0.757077, 0.684213], "properties": {"magmom": 0.0}, "label": "F", "xyz": [1.4494882776660032, 3.042203119361997, 15.034799419811986]}, {"species": [{"element": "F", "occu": 1}], "abc": [0.06548000000000001, 0.249693, 0.742615999999999], "properties": {"magmom": 0.0}, "label": "F", "xyz": [3.042203119361997, 1.8328897223339973, -5.991774580187986]}]}, "task_ids": null, "uncorrected_energy_per_atom": null, "energy_per_atom": -7.004659669772729, "formation_energy_per_atom": -1.960301607272729, "energy_above_hull": 0.16890393159090702, "is_stable": false, "equilibrium_reaction_energy_per_atom": null, "decomposes_to": null, "xas": null, "grain_boundaries": null, "band_gap": 3.296999999999999, "cbm": null, "vbm": null, "efermi": -2.18273375, "is_gap_direct": null, "is_metal": null, "es_source_calc_id": null, "bandstructure": null, "dos": null, "dos_energy_up": null, "dos_energy_down": null, "is_magnetic": null, "ordering": null, "total_magnetization": 0.0009379, "total_magnetization_normalized_vol": null, "total_magnetization_normalized_formula_units": null, "num_magnetic_sites": null, "num_unique_magnetic_sites": null, "types_of_magnetic_species": null, "bulk_modulus": null, "shear_modulus": null, "universal_anisotropy": null, "homogeneous_poisson": null, "e_total": null, "e_ionic": null, "e_electronic": null, "n": null, "e_ij_max": null, "weighted_surface_energy_EV_PER_ANG2": null, "weighted_surface_energy": null, "weighted_work_function": null, "surface_anisotropy": null, "shape_factor": null, "has_reconstructed": null, "possible_species": null, "has_props": null, "theoretical": null, "database_IDs": null, "fields_not_requested": ["builder_meta", "nsites", "elements", "nelements", "composition", "composition_reduced", "chemsys", "symmetry", "property_name", "deprecated", "deprecation_reasons", "last_updated", "origins", "warnings", "task_ids", "uncorrected_energy_per_atom", "equilibrium_reaction_energy_per_atom", "decomposes_to", "xas", "grain_boundaries", "cbm", "vbm", "is_gap_direct", "is_metal", "es_source_calc_id", "bandstructure", "dos", "dos_energy_up", "dos_energy_down", "is_magnetic", "ordering", "total_magnetization_normalized_vol", "total_magnetization_normalized_formula_units", "num_magnetic_sites", "num_unique_magnetic_sites", "types_of_magnetic_species", "bulk_modulus", "shear_modulus", "universal_anisotropy", "homogeneous_poisson", "e_total", "e_ionic", "e_electronic", "n", "e_ij_max", "weighted_surface_energy_EV_PER_ANG2", "weighted_surface_energy", "weighted_work_function", "surface_anisotropy", "shape_factor", "has_reconstructed", "possible_species", "has_props", "theoretical", "database_IDs"]}