{
  "builder_meta": null,
  "nsites": null,
  "elements": null,
  "nelements": null,
  "composition": null,
  "composition_reduced": null,
  "formula_pretty": "B5H7",
  "formula_anonymous": "A5B7",
  "chemsys": null,
  "volume": 846.837625843031,
  "density": 0.958639553801726,
  "density_atomic": 8.821225269198239,
  "symmetry": null,
  "property_name": null,
  "material_id": "mp-706630",
  "deprecated": null,
  "deprecation_reasons": null,
  "last_updated": null,
  "origins": null,
  "warnings": null,
  "structure": {
    "@module": "pymatgen.core.structure",
    "@class": "Structure",
    "charge": 0,
    "lattice": {
      "matrix": [
        [5.68608996, -3.7e-7, 1.7000000000000001e-7],
        [-8.3e-7, 12.577137369999999, 0.01830225],
        [-2e-7, 8.30165853, 11.8535232]
      ],
      "pbc": [true, true, true],
      "a": 5.6860899600000145,
      "b": 12.577150686709858,
      "c": 14.471473546313796,
      "alpha": 54.911005261627096,
      "beta": 90.00000152749521,
      "gamma": 90.00000750690398,
      "volume": 846.837625843031
    },
    "properties": {},
    "sites": [
      {
        "species": [{ "element": "B", "occu": 1 }],
        "abc": [0.00044661, 0.66092788, 0.20244408],
        "properties": { "magmom": -0.0 },
        "label": "B",
        "xyz": [0.0025388755780792, 9.993202361837632, 2.4117720663503097]
      },
      {
        "species": [{ "element": "B", "occu": 1 }],
        "abc": [-0.00044692, 0.33907218, 0.7975557400000001],
        "properties": { "magmom": 0.0 },
        "label": "B",
        "xyz": [-0.0025416682659806004, 10.885592798492189, 9.460051251113597]
      },
      {
        "species": [{ "element": "B", "occu": 1 }],
        "abc": [-0.00044691, 0.66092776, 0.70244432],
        "properties": { "magmom": -0.0 },
        "label": "B",
        "xyz": [-0.0025418595229284003, 14.144032110309798, 8.33853650884771]
      },
      {
        "species": [{ "element": "B", "occu": 1 }],
        "abc": [0.00044683, 0.3390722, 0.29755589],
        "properties": { "magmom": 0.0 },
        "label": "B",
        "xyz": [0.0025403746357228, 6.734765029953028, 3.533291429660059]
      },
      {
        "species": [{ "element": "B", "occu": 1 }],
        "abc": [0.49518186000000003, 0.83928958, 0.36429277],
        "properties": { "magmom": 0.0 },
        "label": "B",
        "xyz": [2.8156478330512207, 13.580094339140143, 4.333513772683735]
      },
      {
        "species": [{ "element": "B", "occu": 1 }],
        "abc": [0.50481814, 0.16071048000000002, 0.63570719],
        "properties": { "magmom": -0.0 },
        "label": "B",
        "xyz": [2.8704410969487384, 7.2987016134217555, 7.538311374273472]
      },
      {
        "species": [{ "element": "B", "occu": 1 }],
        "abc": [0.50481809, 0.8392895300000001, 0.86429278],
        "properties": { "magmom": -0.0 },
        "label": "B",
        "xyz": [2.8704402037065107, 17.730923054734458, 10.260275491942014]
      },
      {
        "species": [{ "element": "B", "occu": 1 }],
        "abc": [0.49518191, 0.16071042, 0.13570724],
        "properties": { "magmom": -0.0 },
        "label": "B",
        "xyz": [2.815648726293527, 3.1478720124418453, 1.6115503642133377]
      },
      {
        "species": [{ "element": "B", "occu": 1 }],
        "abc": [0.001173499999999, 0.4012048, 0.39591356],
        "properties": { "magmom": -0.0 },
        "label": "B",
        "xyz": [0.006672214385358315, 8.332747065185847, 4.700313519404887]
      },
      {
        "species": [{ "element": "B", "occu": 1 }],
        "abc": [-0.00117439, 0.5987954400000001, 0.6040861200000001],
        "properties": { "magmom": 0.0 },
        "label": "B",
        "xyz": [-0.006678305005563601, 12.546049196796721, 7.171508141860078]
      },
      {
        "species": [{ "element": "B", "occu": 1 }],
        "abc": [-0.00117439, 0.40120452, 0.89591392],
        "properties": { "magmom": 0.0 },
        "label": "B",
        "xyz": [-0.00667819937066, 12.483575798053174, 10.627079381149468]
      },
      {
        "species": [{ "element": "B", "occu": 1 }],
        "abc": [0.00117342, 0.598795299999999, 0.10408645],
        "properties": { "magmom": 0.0 },
        "label": "B",
        "xyz": [0.006671653863474201, 8.395220909676102, 1.2447504513595464]
      },
      {
        "species": [{ "element": "B", "occu": 1 }],
        "abc": [0.49562819, 0.09993147000000001, 0.2957527],
        "properties": { "magmom": 0.0 },
        "label": "B",
        "xyz": [2.818186332958313, 3.7120895671191345, 3.5075405459162394]
      },
      {
        "species": [{ "element": "B", "occu": 1 }],
        "abc": [0.50437236, 0.90006854, 0.70424731],
        "properties": { "magmom": 0.0 },
        "label": "B",
        "xyz": [2.8679057243911554, 17.16670617166862, 8.364285192802107]
      },
      {
        "species": [{ "element": "B", "occu": 1 }],
        "abc": [0.50437233, 0.09993146, 0.79575267],
        "properties": { "magmom": 0.0 },
        "label": "B",
        "xyz": [2.867906199621161, 7.862918454062672, 9.434301791614025]
      },
      {
        "species": [{ "element": "B", "occu": 1 }],
        "abc": [0.49562813, 0.90006855, 0.2042473],
        "properties": { "magmom": 0.0 },
        "label": "B",
        "xyz": [2.818185345980219, 13.015876952658774, 2.4375234729633792]
      },
      {
        "species": [{ "element": "B", "occu": 1 }],
        "abc": [0.17121506, 0.54705463, 0.32400673],
        "properties": { "magmom": 0.0 },
        "label": "B",
        "xyz": [0.9735437148101088, 9.570174400936857, 3.850633650719614]
      },
      {
        "species": [{ "element": "B", "occu": 1 }],
        "abc": [0.8287849700000001, 0.45294549, 0.67599321],
        "properties": { "magmom": -0.0 },
        "label": "B",
        "xyz": [4.712545385772503, 11.308622140220102, 8.021191260265269]
      },
      {
        "species": [{ "element": "B", "occu": 1 }],
        "abc": [0.82878503, 0.54705443, 0.8240068500000001],
        "properties": { "magmom": 0.0 },
        "label": "B",
        "xyz": [4.712545619224753, 13.721001903407519, 9.777396781268843]
      },
      {
        "species": [{ "element": "B", "occu": 1 }],
        "abc": [0.17121512, 0.45294558, 0.17599327],
        "properties": { "magmom": -0.0 },
        "label": "B",
        "xyz": [0.9735441636887099, 7.157794748562823, 2.0944302613369894]
      },
      {
        "species": [{ "element": "B", "occu": 1 }],
        "abc": [0.32492031, 0.95430726, 0.37061721000000003],
        "properties": { "magmom": 0.0 },
        "label": "B",
        "xyz": [1.8475252462926197, 15.079190904749094, 4.41058572234006]
      },
      {
        "species": [{ "element": "B", "occu": 1 }],
        "abc": [0.6750793700000001, 0.04569318, 0.62938248],
        "properties": { "magmom": 0.0 },
        "label": "B",
        "xyz": [3.8385618641582906, 5.7996075856773235, 7.461236231120684]
      },
      {
        "species": [{ "element": "B", "occu": 1 }],
        "abc": [0.6750794, 0.95430685, 0.87061751],
        "properties": { "magmom": 0.0 },
        "label": "B",
        "xyz": [3.8385612323446368, 19.230017374061465, 10.337350930420142]
      },
      {
        "species": [{ "element": "B", "occu": 1 }],
        "abc": [0.32492029, 0.04569276, 0.12938282],
        "properties": { "magmom": 0.0 },
        "label": "B",
        "xyz": [1.8475259349677338, 1.6487759904023884, 1.5344785941045833]
      },
      {
        "species": [{ "element": "B", "occu": 1 }],
        "abc": [0.23636473, 0.4184466, 0.31061638],
        "properties": { "magmom": 0.0 },
        "label": "B",
        "xyz": [1.3439907087171568, 7.841491403339213, 3.6895570210968702]
      },
      {
        "species": [{ "element": "B", "occu": 1 }],
        "abc": [0.76363509, 0.58155388, 0.68938347],
        "properties": { "magmom": 0.0 },
        "label": "B",
        "xyz": [4.342097197786282, 13.03730891843801, 8.182266829659698]
      },
      {
        "species": [{ "element": "B", "occu": 1 }],
        "abc": [0.76363517, 0.41844606, 0.81061659],
        "properties": { "magmom": -0.0 },
        "label": "B",
        "xyz": [4.342097763806346, 11.99231542494326, 9.616321190089502]
      },
      {
        "species": [{ "element": "B", "occu": 1 }],
        "abc": [0.23636491, 0.5815537, 0.18938352],
        "properties": { "magmom": 0.0 },
        "label": "B",
        "xyz": [1.3439916210810288, 8.886477999726177, 2.255505729405524]
      },
      {
        "species": [{ "element": "B", "occu": 1 }],
        "abc": [0.25973913, 0.08184229, 0.22847421],
        "properties": { "magmom": -0.0 },
        "label": "B",
        "xyz": [1.4768999456881922, 2.9260565022334104, 2.7097222910444767]
      },
      {
        "species": [{ "element": "B", "occu": 1 }],
        "abc": [0.7402612, 0.918157599999999, 0.77152573],
        "properties": { "magmom": -0.0 },
        "label": "B",
        "xyz": [4.2091908607215975, 17.952737146181832, 9.16210261573094]
      },
      {
        "species": [{ "element": "B", "occu": 1 }],
        "abc": [0.74026119, 0.08184245, 0.72847424],
        "properties": { "magmom": -0.0 },
        "label": "B",
        "xyz": [4.209191506612571, 7.076887850831983, 8.636484331267283]
      },
      {
        "species": [{ "element": "B", "occu": 1 }],
        "abc": [0.25973904000000003, 0.9181577200000001, 0.27152581],
        "properties": { "magmom": -0.0 },
        "label": "B",
        "xyz": [1.4768987311879693, 13.801910232364209, 3.2353418845202984]
      },
      {
        "species": [{ "element": "B", "occu": 1 }],
        "abc": [0.87311719, 0.55626995, 0.33879613000000003],
        "properties": { "magmom": -0.0 },
        "label": "B",
        "xyz": [4.9646223584991285, 9.80885303544516, 4.026108927147526]
      },
      {
        "species": [{ "element": "B", "occu": 1 }],
        "abc": [0.12688301, 0.44373031, 0.66120374],
        "properties": { "magmom": 0.0 },
        "label": "B",
        "xyz": [0.7214677087186743, 11.069944685394873, 7.845715156653077]
      },
      {
        "species": [{ "element": "B", "occu": 1 }],
        "abc": [0.12688305, 0.55626968, 0.83879625],
        "properties": { "magmom": 0.0 },
        "label": "B",
        "xyz": [0.7214678072360936, 13.959680176923726, 9.9528718177689]
      },
      {
        "species": [{ "element": "B", "occu": 1 }],
        "abc": [0.87311743, 0.44373007000000003, 0.16120386],
        "properties": { "magmom": -0.0 },
        "label": "B",
        "xyz": [4.964623852087273, 6.919113121974192, 1.9189551015431727]
      },
      {
        "species": [{ "element": "B", "occu": 1 }],
        "abc": [0.62295951, 0.94502897, 0.39483046],
        "properties": { "magmom": -0.0 },
        "label": "B",
        "xyz": [3.5422029519573828, 15.163506599987413, 4.697428280045972]
      },
      {
        "species": [{ "element": "B", "occu": 1 }],
        "abc": [0.37703966, 0.05497112, 0.60516982],
        "properties": { "magmom": -0.0 },
        "label": "B",
        "xyz": [2.14388125858782, 5.7152923864196445, 7.174400660587585]
      },
      {
        "species": [{ "element": "B", "occu": 1 }],
        "abc": [0.37703965, 0.94502889, 0.89483015],
        "properties": { "magmom": 0.0 },
        "label": "B",
        "xyz": [2.1438804050469056, 19.314332376292626, 10.624186162183221]
      },
      {
        "species": [{ "element": "B", "occu": 1 }],
        "abc": [0.62295948, 0.05497102, 0.10516956],
        "properties": { "magmom": -0.0 },
        "label": "B",
        "xyz": [3.5422035780549623, 1.5644596142843565, 1.2476360186476985]
      },
      {
        "species": [{ "element": "H", "occu": 1 }],
        "abc": [0.99216985, 0.77490291, 0.15640581],
        "properties": { "magmom": 0.0 },
        "label": "H",
        "xyz": [5.641566348249129, 11.044487607107962, 1.868142532903214]
      },
      {
        "species": [{ "element": "H", "occu": 1 }],
        "abc": [0.00783081, 0.22509688, 0.84359421],
        "properties": { "magmom": 0.0 },
        "label": "H",
        "xyz": [0.0445263345704152, 9.834305447726116, 10.003683320323889]
      },
      {
        "species": [{ "element": "H", "occu": 1 }],
        "abc": [0.00783081, 0.7749031, 0.6564058500000001],
        "properties": { "magmom": 0.0 },
        "label": "H",
        "xyz": [0.0445259156689246, 15.195319958035846, 7.794904443183933]
      },
      {
        "species": [{ "element": "H", "occu": 1 }],
        "abc": [0.9921705900000001, 0.22509721, 0.343594199999999],
        "properties": { "magmom": -0.0 },
        "label": "H",
        "xyz": [5.641570974856752, 5.683479885959137, 4.076921775166151]
      },
      {
        "species": [{ "element": "H", "occu": 1 }],
        "abc": [0.50237501, 0.72546351, 0.43290283],
        "properties": { "magmom": -0.0 },
        "label": "H",
        "xyz": [2.8565488118006206, 12.718065507644253, 5.144701438680305]
      },
      {
        "species": [{ "element": "H", "occu": 1 }],
        "abc": [0.49762418, 0.27453703, 0.56709788],
        "properties": { "magmom": 0.0 },
        "label": "H",
        "xyz": [2.8295355124659225, 8.16074270818778, 6.727132607204244]
      },
      {
        "species": [{ "element": "H", "occu": 1 }],
        "abc": [0.49762412, 0.72546299, 0.93290207],
        "properties": { "magmom": 0.0 },
        "label": "H",
        "xyz": [2.82953472387114, 16.868881925030166, 11.071454019677853]
      },
      {
        "species": [{ "element": "H", "occu": 1 }],
        "abc": [0.50237513, 0.27453651, 0.06709718],
        "properties": { "magmom": 0.0 },
        "label": "H",
        "xyz": [2.8565499415619557, 4.009901090157526, 0.8003627010284957]
      },
      {
        "species": [{ "element": "H", "occu": 1 }],
        "abc": [0.30639653, 0.57581401, 0.36858706],
        "properties": { "magmom": -0.0 },
        "label": "H",
        "xyz": [1.7421976813687985, 10.301975700670459, 4.379594010981725]
      },
      {
        "species": [{ "element": "H", "occu": 1 }],
        "abc": [0.69360398, 0.42418582, 0.63141291],
        "properties": { "magmom": 0.0 },
        "label": "H",
        "xyz": [3.943894148537228, 10.576817442166242, 7.492231250301283]
      },
      {
        "species": [{ "element": "H", "occu": 1 }],
        "abc": [0.69360394, 0.5758140700000001, 0.86858717],
        "properties": { "magmom": -0.0 },
        "label": "H",
        "xyz": [3.9438937478073304, 14.452806490214398, 10.306356981792671]
      },
      {
        "species": [{ "element": "H", "occu": 1 }],
        "abc": [0.30639719, 0.42418645, 0.13141292000000002],
        "properties": { "magmom": -0.0 },
        "label": "H",
        "xyz": [1.7422016074738746, 6.425996327045883, 1.565469714541779]
      },
      {
        "species": [{ "element": "H", "occu": 1 }],
        "abc": [0.18980046, 0.92660244, 0.44369469],
        "properties": { "magmom": -0.0 },
        "label": "H",
        "xyz": [1.0792216321904184, 15.337407912985217, 5.276304243405376]
      },
      {
        "species": [{ "element": "H", "occu": 1 }],
        "abc": [0.8101986, 0.07339746, 0.55630499],
        "properties": { "magmom": -0.0 },
        "label": "H",
        "xyz": [4.606861952885167, 5.541383702770662, 6.595517581636815]
      },
      {
        "species": [{ "element": "H", "occu": 1 }],
        "abc": [0.81019856, 0.92660257, 0.94369497],
        "properties": { "magmom": -0.0 },
        "label": "H",
        "xyz": [4.6068609398033304, 19.48824090793017, 11.20306927023884]
      },
      {
        "species": [{ "element": "H", "occu": 1 }],
        "abc": [0.18980038, 0.07339755, 0.05630536],
        "properties": { "magmom": -0.0 },
        "label": "H",
        "xyz": [1.0792219629411464, 1.3905588708740235, 0.668760263619904]
      },
      {
        "species": [{ "element": "H", "occu": 1 }],
        "abc": [0.76608988, 0.58851274, 0.38884328],
        "properties": { "magmom": -0.0 },
        "label": "H",
        "xyz": [4.3560554088913745, 10.629849423767016, 4.61993407817504]
      },
      {
        "species": [{ "element": "H", "occu": 1 }],
        "abc": [0.23391047, 0.41148684, 0.61115718],
        "properties": { "magmom": 0.0 },
        "label": "H",
        "xyz": [1.330035511240368, 10.248944642598083, 7.251896986758745]
      },
      {
        "species": [{ "element": "H", "occu": 1 }],
        "abc": [0.23391062, 0.58851315, 0.88884286],
        "properties": { "magmom": 0.0 },
        "label": "H",
        "xyz": [1.3300361616848886, 14.78068055560308, 10.546690616728744]
      },
      {
        "species": [{ "element": "H", "occu": 1 }],
        "abc": [0.76609036, 0.41148716, 0.1111567],
        "properties": { "magmom": -0.0 },
        "label": "H",
        "xyz": [4.356058340683102, 6.098115220579387, 1.325129793394911]
      },
      {
        "species": [{ "element": "H", "occu": 1 }],
        "abc": [0.72931119, 0.91409032, 0.47691336],
        "properties": { "magmom": 0.0 },
        "label": "H",
        "xyz": [4.146928181097015, 15.455811116497078, 5.6698336106920735]
      },
      {
        "species": [{ "element": "H", "occu": 1 }],
        "abc": [0.27068632, 0.08590918, 0.52308743],
        "properties": { "magmom": 0.0 },
        "label": "H",
        "xyz": [1.5391465905392419, 5.422984683245396, 6.202001364439706]
      },
      {
        "species": [{ "element": "H", "occu": 1 }],
        "abc": [0.27068633000000003, 0.91409079, 0.97691255],
        "properties": { "magmom": -0.0 },
        "label": "H",
        "xyz": [1.5391458692443816, 19.60663973809943, 11.596585539974113]
      },
      {
        "species": [{ "element": "H", "occu": 1 }],
        "abc": [0.72931113, 0.08590971, 0.023086640000000002],
        "properties": { "magmom": 0.0 },
        "label": "H",
        "xyz": [4.146928618086868, 1.2721553561267838, 0.27523048782278764]
      },
      {
        "species": [{ "element": "H", "occu": 1 }],
        "abc": [0.9940501900000001, 0.32082688, 0.49458295],
        "properties": { "magmom": 0.0 },
        "label": "H",
        "xyz": [5.652258439892194, 8.140942139609997, 5.868422494902452]
      },
      {
        "species": [{ "element": "H", "occu": 1 }],
        "abc": [0.00595091, 0.67917427, 0.50541658],
        "properties": { "magmom": -0.0 },
        "label": "H",
        "xyz": [0.0338367448059035, 12.737863952318058, 6.003397574989418]
      },
      {
        "species": [{ "element": "H", "occu": 1 }],
        "abc": [0.00595094, 0.32082572, 0.99458349],
        "properties": { "magmom": 0.0 },
        "label": "H",
        "xyz": [0.0338371149845168, 12.291761663622976, 11.795190306597497]
      },
      {
        "species": [{ "element": "H", "occu": 1 }],
        "abc": [0.99405018, 0.67917324, 0.005417],
        "properties": { "magmom": -0.0 },
        "label": "H",
        "xyz": [5.652258183437004, 8.58702485396642, 0.0766411025947206]
      },
      {
        "species": [{ "element": "H", "occu": 1 }],
        "abc": [0.50273029, 0.18087607, 0.31343106],
        "properties": { "magmom": -0.0 },
        "label": "H",
        "xyz": [2.8585694417435383, 4.87690062614147, 3.7185728658268986]
      },
      {
        "species": [{ "element": "H", "occu": 1 }],
        "abc": [0.49726888, 0.81912354, 0.6865694],
        "properties": { "magmom": 0.0 },
        "label": "H",
        "xyz": [2.8275147688020272, 16.001893817538186, 8.153258199655754]
      },
      {
        "species": [{ "element": "H", "occu": 1 }],
        "abc": [0.49726884, 0.18087648, 0.81343055],
        "properties": { "magmom": -0.0 },
        "label": "H",
        "xyz": [2.8275150457312583, 9.027730815942677, 9.645328427105543]
      },
      {
        "species": [{ "element": "H", "occu": 1 }],
        "abc": [0.50273008, 0.8191239, 0.186568999999999],
        "properties": { "magmom": 0.0 },
        "label": "H",
        "xyz": [2.8585677432913594, 11.851065757623573, 2.226491865763677]
      },
      {
        "species": [{ "element": "H", "occu": 1 }],
        "abc": [0.40025251, 0.35028207, 0.36104167],
        "properties": { "magmom": -0.0 },
        "label": "H",
        "xyz": [2.2758714156333477, 7.4027902239854715, 4.286026829570328]
      },
      {
        "species": [{ "element": "H", "occu": 1 }],
        "abc": [0.59974782, 0.64971793, 0.63895848],
        "properties": { "magmom": -0.0 },
        "label": "H",
        "xyz": [3.41021939077631, 13.476006551263183, 7.5858005684582075]
      },
      {
        "species": [{ "element": "H", "occu": 1 }],
        "abc": [0.59974788, 0.35028193, 0.8610416],
        "properties": { "magmom": 0.0 },
        "label": "H",
        "xyz": [3.410219936056963, 11.553617073256856, 10.212787631175601]
      },
      {
        "species": [{ "element": "H", "occu": 1 }],
        "abc": [0.40025263, 0.64971795, 0.13895818000000001],
        "properties": { "magmom": -0.0 },
        "label": "H",
        "xyz": [2.27587189384906, 9.325175121121593, 1.6590353788531107]
      },
      {
        "species": [{ "element": "H", "occu": 1 }],
        "abc": [0.09619873, 0.15041077, 0.21028855],
        "properties": { "magmom": 0.0 },
        "label": "H",
        "xyz": [0.5469944659191017, 3.637480615492776, 2.4954130779883763]
      },
      {
        "species": [{ "element": "H", "occu": 1 }],
        "abc": [0.90380078, 0.849589199999999, 0.78971089],
        "properties": { "magmom": 0.0 },
        "label": "H",
        "xyz": [5.139091677896955, 17.241309888264496, 9.37640590348948]
      },
      {
        "species": [{ "element": "H", "occu": 1 }],
        "abc": [0.90380072, 0.15041087, 0.7102890900000001],
        "properties": { "magmom": 0.0 },
        "label": "H",
        "xyz": [5.1390919329339315, 7.7883153222893835, 8.422181218013469]
      },
      {
        "species": [{ "element": "H", "occu": 1 }],
        "abc": [0.0961987, 0.84958926, 0.28971145],
        "properties": { "magmom": 0.0 },
        "label": "H",
        "xyz": [0.5469936991336762, 13.090486325634295, 3.4496508052682535]
      },
      {
        "species": [{ "element": "H", "occu": 1 }],
        "abc": [0.7823462, 0.62085192, 0.23441895000000001],
        "properties": { "magmom": 0.0 },
        "label": "H",
        "xyz": [4.448490310873268, 9.7546056706613, 2.790053582396314]
      },
      {
        "species": [{ "element": "H", "occu": 1 }],
        "abc": [0.21765248, 0.37914857, 0.7655813300000001],
        "properties": { "magmom": 0.0 },
        "label": "H",
        "xyz": [1.2375911134875217, 11.124198346600888, 9.08177536555806]
      },
      {
        "species": [{ "element": "H", "occu": 1 }],
        "abc": [0.21765253, 0.620851399999999, 0.73441871],
        "properties": { "magmom": -0.0 },
        "label": "H",
        "xyz": [1.2375912034111949, 13.905426612088466, 8.716812232035652]
      },
      {
        "species": [{ "element": "H", "occu": 1 }],
        "abc": [0.78234629, 0.37914805, 0.26558104],
        "properties": { "magmom": -0.0 },
        "label": "H",
        "xyz": [4.448491017003159, 6.9733599250717715, 3.15501041451711]
      },
      {
        "species": [{ "element": "H", "occu": 1 }],
        "abc": [0.71363099, 0.87871358, 0.35665512],
        "properties": { "magmom": 0.0 },
        "label": "H",
        "xyz": [4.0577692067205655, 14.01253015971719, 4.2437022962556075]
      },
      {
        "species": [{ "element": "H", "occu": 1 }],
        "abc": [0.28636947, 0.12128592, 0.64334586],
        "properties": { "magmom": 0.0 },
        "label": "H",
        "xyz": [1.6283223388810357, 6.866267217339312, 7.628134931046082]
      },
      {
        "species": [{ "element": "H", "occu": 1 }],
        "abc": [0.28636947, 0.87871406, 0.85665413],
        "properties": { "magmom": 0.0 },
        "label": "H",
        "xyz": [1.6283216675540255, 18.163357401187945, 10.170452097418261]
      },
      {
        "species": [{ "element": "H", "occu": 1 }],
        "abc": [0.71363099, 0.12128644000000001, 0.14334486],
        "properties": { "magmom": 0.0 },
        "label": "H",
        "xyz": [4.057769878047143, 2.715436032705452, 1.7013615596745102]
      },
      {
        "species": [{ "element": "H", "occu": 1 }],
        "abc": [0.78255976, 0.44267914, 0.36754074000000003],
        "properties": { "magmom": 0.0 },
        "label": "H",
        "xyz": [4.449704753504176, 8.618833784409862, 4.364754845860392]
      },
      {
        "species": [{ "element": "H", "occu": 1 }],
        "abc": [0.21743943000000002, 0.55732109, 0.63245971],
        "properties": { "magmom": -0.0 },
        "label": "H",
        "xyz": [1.2363795707626763, 12.259968374078369, 7.507076112434428]
      },
      {
        "species": [{ "element": "H", "occu": 1 }],
        "abc": [0.21743948000000002, 0.4426789, 0.86754032],
        "properties": { "magmom": -0.0 },
        "label": "H",
        "xyz": [1.23637990320407, 12.769656753294814, 10.29151136691766]
      },
      {
        "species": [{ "element": "H", "occu": 1 }],
        "abc": [0.7825597400000001, 0.55732087, 0.13245923],
        "properties": { "magmom": -0.0 },
        "label": "H",
        "xyz": [4.449704591646043, 8.10913214821754, 1.5803089147872493]
      },
      {
        "species": [{ "element": "H", "occu": 1 }],
        "abc": [0.713861099999999, 0.05787014, 0.3091022],
        "properties": { "magmom": 0.0 },
        "label": "H",
        "xyz": [4.059078323691894, 3.2939013515442905, 3.6650093739972416]
      },
      {
        "species": [{ "element": "H", "occu": 1 }],
        "abc": [0.28613941, 0.9421297200000001, 0.690898599999999],
        "properties": { "magmom": 0.0 },
        "label": "H",
        "xyz": [1.627013506213936, 17.584899058983105, 8.206825726259078]
      },
      {
        "species": [{ "element": "H", "occu": 1 }],
        "abc": [0.28613944, 0.05787025, 0.80910136],
        "properties": { "magmom": -0.0 },
        "label": "H",
        "xyz": [1.627014387091443, 7.444725184893249, 9.591760946338319]
      },
      {
        "species": [{ "element": "H", "occu": 1 }],
        "abc": [0.71386097, 0.94212986, 0.190897799999999],
        "properties": { "magmom": 0.0 },
        "label": "H",
        "xyz": [4.059076874205518, 13.434064755198534, 2.280054718715498]
      }
    ]
  },
  "task_ids": null,
  "uncorrected_energy_per_atom": null,
  "energy_per_atom": -5.171727778333333,
  "formation_energy_per_atom": -0.095264628645833,
  "energy_above_hull": 0.0,
  "is_stable": true,
  "equilibrium_reaction_energy_per_atom": null,
  "decomposes_to": null,
  "xas": null,
  "grain_boundaries": null,
  "band_gap": 3.606099999999999,
  "cbm": null,
  "vbm": null,
  "efermi": -2.36828734,
  "is_gap_direct": null,
  "is_metal": null,
  "es_source_calc_id": null,
  "bandstructure": null,
  "dos": null,
  "dos_energy_up": null,
  "dos_energy_down": null,
  "is_magnetic": null,
  "ordering": null,
  "total_magnetization": 0.0,
  "total_magnetization_normalized_vol": null,
  "total_magnetization_normalized_formula_units": null,
  "num_magnetic_sites": null,
  "num_unique_magnetic_sites": null,
  "types_of_magnetic_species": null,
  "bulk_modulus": null,
  "shear_modulus": null,
  "universal_anisotropy": null,
  "homogeneous_poisson": null,
  "e_total": null,
  "e_ionic": null,
  "e_electronic": null,
  "n": null,
  "e_ij_max": null,
  "weighted_surface_energy_EV_PER_ANG2": null,
  "weighted_surface_energy": null,
  "weighted_work_function": null,
  "surface_anisotropy": null,
  "shape_factor": null,
  "has_reconstructed": null,
  "possible_species": null,
  "has_props": null,
  "theoretical": null,
  "database_IDs": null,
  "fields_not_requested": [
    "builder_meta",
    "nsites",
    "elements",
    "nelements",
    "composition",
    "composition_reduced",
    "chemsys",
    "symmetry",
    "property_name",
    "deprecated",
    "deprecation_reasons",
    "last_updated",
    "origins",
    "warnings",
    "task_ids",
    "uncorrected_energy_per_atom",
    "equilibrium_reaction_energy_per_atom",
    "decomposes_to",
    "xas",
    "grain_boundaries",
    "cbm",
    "vbm",
    "is_gap_direct",
    "is_metal",
    "es_source_calc_id",
    "bandstructure",
    "dos",
    "dos_energy_up",
    "dos_energy_down",
    "is_magnetic",
    "ordering",
    "total_magnetization_normalized_vol",
    "total_magnetization_normalized_formula_units",
    "num_magnetic_sites",
    "num_unique_magnetic_sites",
    "types_of_magnetic_species",
    "bulk_modulus",
    "shear_modulus",
    "universal_anisotropy",
    "homogeneous_poisson",
    "e_total",
    "e_ionic",
    "e_electronic",
    "n",
    "e_ij_max",
    "weighted_surface_energy_EV_PER_ANG2",
    "weighted_surface_energy",
    "weighted_work_function",
    "surface_anisotropy",
    "shape_factor",
    "has_reconstructed",
    "possible_species",
    "has_props",
    "theoretical",
    "database_IDs"
  ]
}
