{"builder_meta": null, "nsites": null, "elements": null, "nelements": null, "composition": null, "composition_reduced": null, "formula_pretty": "B5H8", "formula_anonymous": "A5B8", "chemsys": null, "volume": 1050.286593699945, "density": 0.78569205653475, "density_atomic": 10.098909554807163, "symmetry": null, "property_name": null, "material_id": "mp-29611", "deprecated": null, "deprecation_reasons": null, "last_updated": null, "origins": null, "warnings": null, "structure": {"@module": "pymatgen.core.structure", "@class": "Structure", "charge": 0, "lattice": {"matrix": [[6.061127, 0.0, 0.0], [0.0, 11.412392, 0.0], [0.0, 0.0, 15.183705]], "pbc": [true, true, true], "a": 6.061127, "b": 11.412392, "c": 15.183705, "alpha": 90.0, "beta": 90.0, "gamma": 90.0, "volume": 1050.286593699945}, "properties": {}, "sites": [{"species": [{"element": "B", "occu": 1}], "abc": [0.062241, 0.15183000000000002, 0.110425], "properties": {"magmom": -0.0}, "label": "B", "xyz": [0.37725060560699997, 1.7327434773600003, 1.676660624625]}, {"species": [{"element": "B", "occu": 1}], "abc": [0.937759, 0.8481700000000001, 0.610425], "properties": {"magmom": -0.0}, "label": "B", "xyz": [5.683876394393, 9.67964852264, 9.268513124625]}, {"species": [{"element": "B", "occu": 1}], "abc": [0.437758999999999, 0.65183, 0.110425], "properties": {"magmom": -0.0}, "label": "B", "xyz": [2.653312894392994, 7.438939477360001, 1.676660624625]}, {"species": [{"element": "B", "occu": 1}], "abc": [0.562241, 0.34817000000000004, 0.610425], "properties": {"magmom": -0.0}, "label": "B", "xyz": [3.4078141056069997, 3.9734525226400006, 9.268513124625]}, {"species": [{"element": "B", "occu": 1}], "abc": [0.176069, 0.042086, 0.039582], "properties": {"magmom": -0.0}, "label": "B", "xyz": [1.067176569763, 0.48030192971200003, 0.60100141131]}, {"species": [{"element": "B", "occu": 1}], "abc": [0.823931, 0.957913999999999, 0.539582], "properties": {"magmom": -0.0}, "label": "B", "xyz": [4.993950430237, 10.93209007028799, 8.19285391131]}, {"species": [{"element": "B", "occu": 1}], "abc": [0.323930999999999, 0.542086, 0.039582], "properties": {"magmom": -0.0}, "label": "B", "xyz": [1.9633869302369942, 6.186497929712, 0.60100141131]}, {"species": [{"element": "B", "occu": 1}], "abc": [0.676068999999999, 0.457914, 0.539582], "properties": {"magmom": -0.0}, "label": "B", "xyz": [4.097740069762994, 5.225894070288, 8.19285391131]}, {"species": [{"element": "B", "occu": 1}], "abc": [0.403779, 0.025875, 0.113235999999999], "properties": {"magmom": -0.0}, "label": "B", "xyz": [2.447355798933, 0.295295643, 1.7193420193799849]}, {"species": [{"element": "B", "occu": 1}], "abc": [0.596221, 0.9741249999999991, 0.613236], "properties": {"magmom": -0.0}, "label": "B", "xyz": [3.613771201067, 11.11709635699999, 9.31119451938]}, {"species": [{"element": "B", "occu": 1}], "abc": [0.096221, 0.525875, 0.113235999999999], "properties": {"magmom": -0.0}, "label": "B", "xyz": [0.583207701067, 6.0014916430000005, 1.7193420193799849]}, {"species": [{"element": "B", "occu": 1}], "abc": [0.903779, 0.474124999999999, 0.613236], "properties": {"magmom": -0.0}, "label": "B", "xyz": [5.477919298933, 5.410900356999989, 9.31119451938]}, {"species": [{"element": "B", "occu": 1}], "abc": [0.293425999999999, 0.138014, 0.18491000000000002], "properties": {"magmom": -0.0}, "label": "B", "xyz": [1.778492251101994, 1.575069869488, 2.80761889155]}, {"species": [{"element": "B", "occu": 1}], "abc": [0.706573999999999, 0.861985999999999, 0.68491], "properties": {"magmom": -0.0}, "label": "B", "xyz": [4.282634748897994, 9.83732213051199, 10.39947139155]}, {"species": [{"element": "B", "occu": 1}], "abc": [0.206573999999999, 0.638014, 0.18491000000000002], "properties": {"magmom": -0.0}, "label": "B", "xyz": [1.252071248897994, 7.281265869488, 2.80761889155]}, {"species": [{"element": "B", "occu": 1}], "abc": [0.793426, 0.361986, 0.68491], "properties": {"magmom": -0.0}, "label": "B", "xyz": [4.809055751102, 4.1311261305119995, 10.39947139155]}, {"species": [{"element": "B", "occu": 1}], "abc": [0.326219, 0.158635, 0.074361], "properties": {"magmom": -0.0}, "label": "B", "xyz": [1.9772547888129999, 1.81040480492, 1.129075487505]}, {"species": [{"element": "B", "occu": 1}], "abc": [0.673781, 0.841364999999999, 0.574361], "properties": {"magmom": -0.0}, "label": "B", "xyz": [4.083872211187, 9.601987195079989, 8.720927987505]}, {"species": [{"element": "B", "occu": 1}], "abc": [0.173781, 0.658635, 0.074361], "properties": {"magmom": -0.0}, "label": "B", "xyz": [1.0533087111869999, 7.51660080492, 1.129075487505]}, {"species": [{"element": "B", "occu": 1}], "abc": [0.826218999999999, 0.341365, 0.574361], "properties": {"magmom": -0.0}, "label": "B", "xyz": [5.007818288812994, 3.8957911950799997, 8.720927987505]}, {"species": [{"element": "B", "occu": 1}], "abc": [0.540423, 0.334671, 0.282993999999999], "properties": {"magmom": -0.0}, "label": "B", "xyz": [3.2755724367209997, 3.8193966430320003, 4.296897412769985]}, {"species": [{"element": "B", "occu": 1}], "abc": [0.459576999999999, 0.665329, 0.782994], "properties": {"magmom": -0.0}, "label": "B", "xyz": [2.785554563278994, 7.592995356968, 11.888749912769999]}, {"species": [{"element": "B", "occu": 1}], "abc": [0.9595769999999991, 0.834670999999999, 0.282993999999999], "properties": {"magmom": -0.0}, "label": "B", "xyz": [5.816118063278995, 9.52559264303199, 4.296897412769985]}, {"species": [{"element": "B", "occu": 1}], "abc": [0.040423, 0.165329, 0.782994], "properties": {"magmom": -0.0}, "label": "B", "xyz": [0.245008936721, 1.8867993569680002, 11.888749912769999]}, {"species": [{"element": "B", "occu": 1}], "abc": [0.276701, 0.322226, 0.334623], "properties": {"magmom": -0.0}, "label": "B", "xyz": [1.6771199020269998, 3.6773694245920003, 5.080816918215]}, {"species": [{"element": "B", "occu": 1}], "abc": [0.723298999999999, 0.677774, 0.834623], "properties": {"magmom": -0.0}, "label": "B", "xyz": [4.384007097972994, 7.735022575408, 12.672669418215]}, {"species": [{"element": "B", "occu": 1}], "abc": [0.223299, 0.822226, 0.334623], "properties": {"magmom": -0.0}, "label": "B", "xyz": [1.353443597973, 9.383565424592, 5.080816918215]}, {"species": [{"element": "B", "occu": 1}], "abc": [0.776701, 0.177774, 0.834623], "properties": {"magmom": -0.0}, "label": "B", "xyz": [4.7076834020269995, 2.028826575408, 12.672669418215]}, {"species": [{"element": "B", "occu": 1}], "abc": [0.360908, 0.188333, 0.385111], "properties": {"magmom": -0.0}, "label": "B", "xyz": [2.187509223316, 2.149330022536, 5.847411816255]}, {"species": [{"element": "B", "occu": 1}], "abc": [0.639092, 0.811666999999999, 0.885111], "properties": {"magmom": -0.0}, "label": "B", "xyz": [3.873617776684, 9.26306197746399, 13.439264316254999]}, {"species": [{"element": "B", "occu": 1}], "abc": [0.139092, 0.688333, 0.385111], "properties": {"magmom": -0.0}, "label": "B", "xyz": [0.8430542766839999, 7.855526022536, 5.847411816255]}, {"species": [{"element": "B", "occu": 1}], "abc": [0.860908, 0.31166699999999903, 0.885111], "properties": {"magmom": -0.0}, "label": "B", "xyz": [5.218072723316, 3.556865977463989, 13.439264316254999]}, {"species": [{"element": "B", "occu": 1}], "abc": [0.623397, 0.200457, 0.33298099999999903], "properties": {"magmom": -0.0}, "label": "B", "xyz": [3.778488388419, 2.2876938631440003, 5.055885274604985]}, {"species": [{"element": "B", "occu": 1}], "abc": [0.376602999999999, 0.799543, 0.832981], "properties": {"magmom": -0.0}, "label": "B", "xyz": [2.2826386115809942, 9.124698136856, 12.647737774605]}, {"species": [{"element": "B", "occu": 1}], "abc": [0.876602999999999, 0.700457, 0.33298099999999903], "properties": {"magmom": -0.0}, "label": "B", "xyz": [5.313202111580994, 7.993889863144, 5.055885274604985]}, {"species": [{"element": "B", "occu": 1}], "abc": [0.12339699999999901, 0.299543, 0.832981], "properties": {"magmom": -0.0}, "label": "B", "xyz": [0.747924888418994, 3.418502136856, 12.647737774605]}, {"species": [{"element": "B", "occu": 1}], "abc": [0.385022, 0.210579, 0.274316], "properties": {"magmom": -0.0}, "label": "B", "xyz": [2.333667239794, 2.403210094968, 4.16513322078]}, {"species": [{"element": "B", "occu": 1}], "abc": [0.614978, 0.789420999999999, 0.774316], "properties": {"magmom": -0.0}, "label": "B", "xyz": [3.727459760206, 9.009181905031989, 11.75698572078]}, {"species": [{"element": "B", "occu": 1}], "abc": [0.114978, 0.710579, 0.274316], "properties": {"magmom": -0.0}, "label": "B", "xyz": [0.6968962602059999, 8.109406094968, 4.16513322078]}, {"species": [{"element": "B", "occu": 1}], "abc": [0.885022, 0.289421, 0.774316], "properties": {"magmom": -0.0}, "label": "B", "xyz": [5.3642307397939994, 3.302985905032, 11.75698572078]}, {"species": [{"element": "H", "occu": 1}], "abc": [0.985655, 0.045184999999999004, 0.085037], "properties": {"magmom": -0.0}, "label": "H", "xyz": [5.9741801331849995, 0.5156689325199887, 1.291176722085]}, {"species": [{"element": "H", "occu": 1}], "abc": [0.014345, 0.954815, 0.585036999999999], "properties": {"magmom": -0.0}, "label": "H", "xyz": [0.086946866815, 10.89672306748, 8.883029222084986]}, {"species": [{"element": "H", "occu": 1}], "abc": [0.514344999999999, 0.545185, 0.085037], "properties": {"magmom": -0.0}, "label": "H", "xyz": [3.117510366814994, 6.221864932520001, 1.291176722085]}, {"species": [{"element": "H", "occu": 1}], "abc": [0.485655, 0.454814999999999, 0.585036999999999], "properties": {"magmom": -0.0}, "label": "H", "xyz": [2.943616633185, 5.190527067479989, 8.883029222084986]}, {"species": [{"element": "H", "occu": 1}], "abc": [0.072022999999999, 0.116165999999999, 0.19409099999999901], "properties": {"magmom": -0.0}, "label": "H", "xyz": [0.43654054992099395, 1.3257319290719887, 2.947020487154985]}, {"species": [{"element": "H", "occu": 1}], "abc": [0.927976999999999, 0.883834, 0.694091], "properties": {"magmom": -0.0}, "label": "H", "xyz": [5.624586450078994, 10.086660070928001, 10.538872987155]}, {"species": [{"element": "H", "occu": 1}], "abc": [0.427977, 0.616166, 0.19409099999999901], "properties": {"magmom": -0.0}, "label": "H", "xyz": [2.5940229500789997, 7.031927929072, 2.947020487154985]}, {"species": [{"element": "H", "occu": 1}], "abc": [0.572023, 0.383834, 0.694091], "properties": {"magmom": -0.0}, "label": "H", "xyz": [3.4671040499209997, 4.380464070928, 10.538872987155]}, {"species": [{"element": "H", "occu": 1}], "abc": [0.13498000000000002, 0.0072900000000000005, 0.967383], "properties": {"magmom": -0.0}, "label": "H", "xyz": [0.8181309224600001, 0.08319633768000001, 14.688458094015]}, {"species": [{"element": "H", "occu": 1}], "abc": [0.8650200000000001, 0.9927100000000001, 0.467383], "properties": {"magmom": -0.0}, "label": "H", "xyz": [5.242996077540001, 11.329195662320002, 7.096605594015]}, {"species": [{"element": "H", "occu": 1}], "abc": [0.36502, 0.50729, 0.967383], "properties": {"magmom": -0.0}, "label": "H", "xyz": [2.21243257754, 5.789392337680001, 14.688458094015]}, {"species": [{"element": "H", "occu": 1}], "abc": [0.6349800000000001, 0.49271000000000004, 0.467383], "properties": {"magmom": -0.0}, "label": "H", "xyz": [3.8486944224600004, 5.622999662320001, 7.096605594015]}, {"species": [{"element": "H", "occu": 1}], "abc": [0.9121, 0.218747, 0.103897999999999], "properties": {"magmom": -0.0}, "label": "H", "xyz": [5.5283539367, 2.496426512824, 1.5775565820899848]}, {"species": [{"element": "H", "occu": 1}], "abc": [0.0879, 0.781253, 0.603897999999999], "properties": {"magmom": -0.0}, "label": "H", "xyz": [0.5327730633000001, 8.915965487176, 9.169409082089985]}, {"species": [{"element": "H", "occu": 1}], "abc": [0.5879, 0.718746999999999, 0.103897999999999], "properties": {"magmom": -0.0}, "label": "H", "xyz": [3.5633365633, 8.20262251282399, 1.5775565820899848]}, {"species": [{"element": "H", "occu": 1}], "abc": [0.4121, 0.281253, 0.603897999999999], "properties": {"magmom": -0.0}, "label": "H", "xyz": [2.4977904367, 3.209769487176, 9.169409082089985]}, {"species": [{"element": "H", "occu": 1}], "abc": [0.574731, 0.974529, 0.109525], "properties": {"magmom": -0.0}, "label": "H", "xyz": [3.483517581837, 11.121706963368, 1.662995290125]}, {"species": [{"element": "H", "occu": 1}], "abc": [0.425269, 0.025470999999999, 0.609525], "properties": {"magmom": -0.0}, "label": "H", "xyz": [2.577609418163, 0.29068503663198864, 9.254847790125]}, {"species": [{"element": "H", "occu": 1}], "abc": [0.925269, 0.474529, 0.109525], "properties": {"magmom": -0.0}, "label": "H", "xyz": [5.608172918163, 5.415510963368, 1.662995290125]}, {"species": [{"element": "H", "occu": 1}], "abc": [0.074730999999999, 0.525471, 0.609525], "properties": {"magmom": -0.0}, "label": "H", "xyz": [0.452954081836994, 5.996881036632001, 9.254847790125]}, {"species": [{"element": "H", "occu": 1}], "abc": [0.424212, 0.231623, 0.034120000000000004], "properties": {"magmom": -0.0}, "label": "H", "xyz": [2.571202806924, 2.643372472216, 0.5180680146000001]}, {"species": [{"element": "H", "occu": 1}], "abc": [0.575788, 0.768377, 0.53412], "properties": {"magmom": -0.0}, "label": "H", "xyz": [3.489924193076, 8.769019527784, 8.1099205146]}, {"species": [{"element": "H", "occu": 1}], "abc": [0.075788, 0.731622999999999, 0.034120000000000004], "properties": {"magmom": -0.0}, "label": "H", "xyz": [0.45936069307599997, 8.349568472215989, 0.5180680146000001]}, {"species": [{"element": "H", "occu": 1}], "abc": [0.924211999999999, 0.268377, 0.53412], "properties": {"magmom": -0.0}, "label": "H", "xyz": [5.601766306923994, 3.062823527784, 8.1099205146]}, {"species": [{"element": "H", "occu": 1}], "abc": [0.617167999999999, 0.397034999999999, 0.228031999999999], "properties": {"magmom": -0.0}, "label": "H", "xyz": [3.740733628335994, 4.531119057719989, 3.462370618559985]}, {"species": [{"element": "H", "occu": 1}], "abc": [0.33165, 0.020562, 0.196193999999999], "properties": {"magmom": -0.0}, "label": "H", "xyz": [2.01017276955, 0.23466160430400002, 2.978951818769985]}, {"species": [{"element": "H", "occu": 1}], "abc": [0.382832, 0.602965, 0.728032], "properties": {"magmom": -0.0}, "label": "H", "xyz": [2.320393371664, 6.88127294228, 11.05422311856]}, {"species": [{"element": "H", "occu": 1}], "abc": [0.117168, 0.102965, 0.728032], "properties": {"magmom": -0.0}, "label": "H", "xyz": [0.7101701283359999, 1.17507694228, 11.05422311856]}, {"species": [{"element": "H", "occu": 1}], "abc": [0.107061999999999, 0.374332, 0.328646999999999], "properties": {"magmom": -0.0}, "label": "H", "xyz": [0.648916378873994, 4.272023522144, 4.990079097134985]}, {"species": [{"element": "H", "occu": 1}], "abc": [0.892938, 0.625668, 0.828646999999999], "properties": {"magmom": -0.0}, "label": "H", "xyz": [5.412210621126, 7.140368477856001, 12.581931597134986]}, {"species": [{"element": "H", "occu": 1}], "abc": [0.392938, 0.874332, 0.328646999999999], "properties": {"magmom": -0.0}, "label": "H", "xyz": [2.381647121126, 9.978219522144, 4.990079097134985]}, {"species": [{"element": "H", "occu": 1}], "abc": [0.607062, 0.125668, 0.828646999999999], "properties": {"magmom": -0.0}, "label": "H", "xyz": [3.679479878874, 1.434172477856, 12.581931597134986]}, {"species": [{"element": "H", "occu": 1}], "abc": [0.269862, 0.11391899999999901, 0.426351999999999], "properties": {"magmom": 0.0}, "label": "H", "xyz": [1.635667854474, 1.3000882842479888, 6.473602994159985]}, {"species": [{"element": "H", "occu": 1}], "abc": [0.730138, 0.886081, 0.926352], "properties": {"magmom": 0.0}, "label": "H", "xyz": [4.425459145525999, 10.112303715752, 14.065455494159998]}, {"species": [{"element": "H", "occu": 1}], "abc": [0.230137999999999, 0.613919, 0.426351999999999], "properties": {"magmom": 0.0}, "label": "H", "xyz": [1.394895645525994, 7.006284284248, 6.473602994159985]}, {"species": [{"element": "H", "occu": 1}], "abc": [0.769861999999999, 0.386081, 0.926352], "properties": {"magmom": 0.0}, "label": "H", "xyz": [4.666231354473994, 4.406107715752, 14.065455494159998]}, {"species": [{"element": "H", "occu": 1}], "abc": [0.779148, 0.137536, 0.325853], "properties": {"magmom": -0.0}, "label": "H", "xyz": [4.722514979795999, 1.569614746112, 4.947655825365]}, {"species": [{"element": "H", "occu": 1}], "abc": [0.220852, 0.862464, 0.825853], "properties": {"magmom": -0.0}, "label": "H", "xyz": [1.338612020204, 9.842777253888, 12.539508325364999]}, {"species": [{"element": "H", "occu": 1}], "abc": [0.720851999999999, 0.637536, 0.325853], "properties": {"magmom": -0.0}, "label": "H", "xyz": [4.369175520203994, 7.2758107461120005, 4.947655825365]}, {"species": [{"element": "H", "occu": 1}], "abc": [0.279148, 0.362464, 0.825853], "properties": {"magmom": -0.0}, "label": "H", "xyz": [1.691951479796, 4.136581253888, 12.539508325364999]}, {"species": [{"element": "H", "occu": 1}], "abc": [0.065302, 0.299334, 0.919022999999999], "properties": {"magmom": -0.0}, "label": "H", "xyz": [0.395803715354, 3.416116946928, 13.954174120214985]}, {"species": [{"element": "H", "occu": 1}], "abc": [0.934697999999999, 0.700666, 0.419023], "properties": {"magmom": -0.0}, "label": "H", "xyz": [5.665323284645994, 7.996275053072001, 6.362321620215]}, {"species": [{"element": "H", "occu": 1}], "abc": [0.434698, 0.799334, 0.919022999999999], "properties": {"magmom": -0.0}, "label": "H", "xyz": [2.634759784646, 9.122312946928, 13.954174120214985]}, {"species": [{"element": "H", "occu": 1}], "abc": [0.565302, 0.200665999999999, 0.419023], "properties": {"magmom": -0.0}, "label": "H", "xyz": [3.426367215354, 2.290079053071989, 6.362321620215]}, {"species": [{"element": "H", "occu": 1}], "abc": [0.938639, 0.09682299999999901, 0.842957], "properties": {"magmom": -0.0}, "label": "H", "xyz": [5.689210186153, 1.1049820306159888, 12.799210415685]}, {"species": [{"element": "H", "occu": 1}], "abc": [0.061361, 0.903177, 0.342957], "properties": {"magmom": -0.0}, "label": "H", "xyz": [0.371916813847, 10.307409969384, 5.207357915685]}, {"species": [{"element": "H", "occu": 1}], "abc": [0.561361, 0.596823, 0.842957], "properties": {"magmom": -0.0}, "label": "H", "xyz": [3.402480313847, 6.811178030616, 12.799210415685]}, {"species": [{"element": "H", "occu": 1}], "abc": [0.438639, 0.403177, 0.342957], "properties": {"magmom": -0.0}, "label": "H", "xyz": [2.658646686153, 4.601213969384, 5.207357915685]}, {"species": [{"element": "H", "occu": 1}], "abc": [0.744425999999999, 0.55035, 0.587305], "properties": {"magmom": -0.0}, "label": "H", "xyz": [4.512060528101994, 6.280809937200001, 8.917465865025]}, {"species": [{"element": "H", "occu": 1}], "abc": [0.255573999999999, 0.44965000000000005, 0.087305], "properties": {"magmom": -0.0}, "label": "H", "xyz": [1.549066471897994, 5.131582062800001, 1.325613365025]}, {"species": [{"element": "H", "occu": 1}], "abc": [0.755574, 0.050350000000000006, 0.587305], "properties": {"magmom": -0.0}, "label": "H", "xyz": [4.579629971898, 0.5746139372000001, 8.917465865025]}, {"species": [{"element": "H", "occu": 1}], "abc": [0.244425999999999, 0.9496500000000001, 0.087305], "properties": {"magmom": -0.0}, "label": "H", "xyz": [1.481497028101994, 10.837778062800002, 1.325613365025]}, {"species": [{"element": "H", "occu": 1}], "abc": [0.801481999999999, 0.207597999999999, 0.920226999999999], "properties": {"magmom": -0.0}, "label": "H", "xyz": [4.857884190213994, 2.369189754415989, 13.972455301034985]}, {"species": [{"element": "H", "occu": 1}], "abc": [0.198518, 0.792401999999999, 0.420226999999999], "properties": {"magmom": -0.0}, "label": "H", "xyz": [1.203242809786, 9.04320224558399, 6.380602801034985]}, {"species": [{"element": "H", "occu": 1}], "abc": [0.698518, 0.707598, 0.920226999999999], "properties": {"magmom": -0.0}, "label": "H", "xyz": [4.233806309786, 8.075385754416, 13.972455301034985]}, {"species": [{"element": "H", "occu": 1}], "abc": [0.30148199999999903, 0.292402, 0.420226999999999], "properties": {"magmom": -0.0}, "label": "H", "xyz": [1.827320690213994, 3.337006245584, 6.380602801034985]}, {"species": [{"element": "H", "occu": 1}], "abc": [0.201163999999999, 0.188893999999999, 0.841714], "properties": {"magmom": -0.0}, "label": "H", "xyz": [1.2192805518279939, 2.1557323744479886, 12.780337070369999]}, {"species": [{"element": "H", "occu": 1}], "abc": [0.798836, 0.811106, 0.341713999999999], "properties": {"magmom": -0.0}, "label": "H", "xyz": [4.841846448172, 9.256659625552, 5.188484570369985]}, {"species": [{"element": "H", "occu": 1}], "abc": [0.298836, 0.688894, 0.841714], "properties": {"magmom": -0.0}, "label": "H", "xyz": [1.8112829481719999, 7.861928374448, 12.780337070369999]}, {"species": [{"element": "H", "occu": 1}], "abc": [0.701164, 0.311106, 0.341713999999999], "properties": {"magmom": -0.0}, "label": "H", "xyz": [4.249844051828, 3.550463625552, 5.188484570369985]}, {"species": [{"element": "H", "occu": 1}], "abc": [0.8316500000000001, 0.479438, 0.696194], "properties": {"magmom": -0.0}, "label": "H", "xyz": [5.040736269550001, 5.471534395696, 10.57080431877]}, {"species": [{"element": "H", "occu": 1}], "abc": [0.16835000000000003, 0.520562, 0.196193999999999], "properties": {"magmom": -0.0}, "label": "H", "xyz": [1.0203907304500002, 5.940857604304, 2.978951818769985]}, {"species": [{"element": "H", "occu": 1}], "abc": [0.66835, 0.979437999999999, 0.696194], "properties": {"magmom": -0.0}, "label": "H", "xyz": [4.05095423045, 11.17773039569599, 10.57080431877]}, {"species": [{"element": "H", "occu": 1}], "abc": [0.882832, 0.897034999999999, 0.228031999999999], "properties": {"magmom": -0.0}, "label": "H", "xyz": [5.350956871664, 10.23731505771999, 3.462370618559985]}]}, "task_ids": null, "uncorrected_energy_per_atom": null, "energy_per_atom": -5.006976068994756, "formation_energy_per_atom": -0.055232207648601005, "energy_above_hull": 0.03270437263986, "is_stable": false, "equilibrium_reaction_energy_per_atom": null, "decomposes_to": null, "xas": null, "grain_boundaries": null, "band_gap": 5.4958, "cbm": null, "vbm": null, "efermi": -2.51645456, "is_gap_direct": null, "is_metal": null, "es_source_calc_id": null, "bandstructure": null, "dos": null, "dos_energy_up": null, "dos_energy_down": null, "is_magnetic": null, "ordering": null, "total_magnetization": 0.000129, "total_magnetization_normalized_vol": null, "total_magnetization_normalized_formula_units": null, "num_magnetic_sites": null, "num_unique_magnetic_sites": null, "types_of_magnetic_species": null, "bulk_modulus": null, "shear_modulus": null, "universal_anisotropy": null, "homogeneous_poisson": null, "e_total": null, "e_ionic": null, "e_electronic": null, "n": null, "e_ij_max": null, "weighted_surface_energy_EV_PER_ANG2": null, "weighted_surface_energy": null, "weighted_work_function": null, "surface_anisotropy": null, "shape_factor": null, "has_reconstructed": null, "possible_species": null, "has_props": null, "theoretical": null, "database_IDs": null, "fields_not_requested": ["builder_meta", "nsites", "elements", "nelements", "composition", "composition_reduced", "chemsys", "symmetry", "property_name", "deprecated", "deprecation_reasons", "last_updated", "origins", "warnings", "task_ids", "uncorrected_energy_per_atom", "equilibrium_reaction_energy_per_atom", "decomposes_to", "xas", "grain_boundaries", "cbm", "vbm", "is_gap_direct", "is_metal", "es_source_calc_id", "bandstructure", "dos", "dos_energy_up", "dos_energy_down", "is_magnetic", "ordering", "total_magnetization_normalized_vol", "total_magnetization_normalized_formula_units", "num_magnetic_sites", "num_unique_magnetic_sites", "types_of_magnetic_species", "bulk_modulus", "shear_modulus", "universal_anisotropy", "homogeneous_poisson", "e_total", "e_ionic", "e_electronic", "n", "e_ij_max", "weighted_surface_energy_EV_PER_ANG2", "weighted_surface_energy", "weighted_work_function", "surface_anisotropy", "shape_factor", "has_reconstructed", "possible_species", "has_props", "theoretical", "database_IDs"]}