{"builder_meta": null, "nsites": null, "elements": null, "nelements": null, "composition": null, "composition_reduced": null, "formula_pretty": "B5I", "formula_anonymous": "AB5", "chemsys": null, "volume": 377.18385520724587, "density": 3.186671595380184, "density_atomic": 15.715993966968577, "symmetry": null, "property_name": null, "material_id": "mp-1182499", "deprecated": null, "deprecation_reasons": null, "last_updated": null, "origins": null, "warnings": null, "structure": {"@module": "pymatgen.core.structure", "@class": "Structure", "charge": 0, "lattice": {"matrix": [[6.026152, 3.039044999999999, 0.0], [-6.026152, 3.039044999999999, 0.0], [0.0, 1.941218, 10.297834]], "pbc": [true, true, true], "a": 6.7490964164937655, "b": 6.7490964164937655, "c": 10.479203806352848, "alpha": 85.21518589814863, "beta": 85.21518589814863, "gamma": 126.4755238297679, "volume": 377.1838552072457}, "properties": {}, "sites": [{"species": [{"element": "B", "occu": 1}], "abc": [0.70906, 0.572348, 0.721703], "properties": {"magmom": -0.0}, "label": "B", "xyz": [0.8238472922240003, 5.295239429613998, 7.4319776913019995]}, {"species": [{"element": "B", "occu": 1}], "abc": [0.427652, 0.29094000000000003, 0.778297], "properties": {"magmom": -0.0}, "label": "B", "xyz": [0.8238472922239997, 3.6946775703859993, 8.014773308698]}, {"species": [{"element": "B", "occu": 1}], "abc": [0.29094000000000003, 0.427652, 0.278296999999999], "properties": {"magmom": -0.0}, "label": "B", "xyz": [-0.8238472922239997, 2.724068570385997, 2.86585630869799]}, {"species": [{"element": "B", "occu": 1}], "abc": [0.572348, 0.70906, 0.221702999999999], "properties": {"magmom": -0.0}, "label": "B", "xyz": [-0.8238472922240003, 4.324630429613997, 2.2830606913019897]}, {"species": [{"element": "B", "occu": 1}], "abc": [0.077547999999999, 0.511782, 0.693825999999999], "properties": {"magmom": -0.0}, "label": "B", "xyz": [-2.6167600875680055, 3.1378679099179942, 7.144904972883991]}, {"species": [{"element": "B", "occu": 1}], "abc": [0.488218, 0.922451999999999, 0.806174], "properties": {"magmom": -0.0}, "label": "B", "xyz": [-2.6167600875679944, 5.852049090081995, 8.301846027116]}, {"species": [{"element": "B", "occu": 1}], "abc": [0.922451999999999, 0.488218, 0.306174], "properties": {"magmom": -0.0}, "label": "B", "xyz": [2.6167600875679944, 4.881440090081996, 3.152929027116]}, {"species": [{"element": "B", "occu": 1}], "abc": [0.511782, 0.077547999999999, 0.193826], "properties": {"magmom": -0.0}, "label": "B", "xyz": [2.6167600875680055, 2.1672589099179964, 1.995987972884]}, {"species": [{"element": "B", "occu": 1}], "abc": [0.050549, 0.446245, 0.550442], "properties": {"magmom": -0.0}, "label": "B", "xyz": [-2.3845242417919996, 2.5783072400859997, 5.668360342628]}, {"species": [{"element": "B", "occu": 1}], "abc": [0.553755, 0.949450999999999, 0.9495579999999991], "properties": {"magmom": -0.0}, "label": "B", "xyz": [-2.3845242417919943, 6.411609759913993, 9.778390657371991]}, {"species": [{"element": "B", "occu": 1}], "abc": [0.949450999999999, 0.553755, 0.449557999999999], "properties": {"magmom": -0.0}, "label": "B", "xyz": [2.3845242417919943, 5.441000759913993, 4.62947365737199]}, {"species": [{"element": "B", "occu": 1}], "abc": [0.446245, 0.050549, 0.050442], "properties": {"magmom": -0.0}, "label": "B", "xyz": [2.3845242417919996, 1.6076982400859996, 0.519443342628]}, {"species": [{"element": "B", "occu": 1}], "abc": [0.898656, 0.552966, 0.610655], "properties": {"magmom": -0.0}, "label": "B", "xyz": [2.08318048488, 5.596959058779999, 6.288423821269999]}, {"species": [{"element": "B", "occu": 1}], "abc": [0.447034, 0.101343999999999, 0.889344999999999], "properties": {"magmom": -0.0}, "label": "B", "xyz": [2.083180484880006, 3.3929579412199944, 9.15832717872999]}, {"species": [{"element": "B", "occu": 1}], "abc": [0.101343999999999, 0.447034, 0.389345], "properties": {"magmom": -0.0}, "label": "B", "xyz": [-2.083180484880006, 2.422348941219996, 4.00941017873]}, {"species": [{"element": "B", "occu": 1}], "abc": [0.552966, 0.898656, 0.110654999999999], "properties": {"magmom": -0.0}, "label": "B", "xyz": [-2.08318048488, 4.626350058779996, 1.1395068212699897]}, {"species": [{"element": "B", "occu": 1}], "abc": [0.016048, 0.726405, 0.732767], "properties": {"magmom": -0.0}, "label": "B", "xyz": [-4.280719256264, 3.678808567590999, 7.545912926678]}, {"species": [{"element": "B", "occu": 1}], "abc": [0.273595, 0.983951999999999, 0.767232999999999], "properties": {"magmom": -0.0}, "label": "B", "xyz": [-4.280719256263994, 5.311108432408994, 7.9008380733219905]}, {"species": [{"element": "B", "occu": 1}], "abc": [0.983951999999999, 0.273595, 0.267233], "properties": {"magmom": -0.0}, "label": "B", "xyz": [4.280719256263994, 4.340499432408996, 2.751921073322]}, {"species": [{"element": "B", "occu": 1}], "abc": [0.726405, 0.016048, 0.232767], "properties": {"magmom": -0.0}, "label": "B", "xyz": [4.280719256264, 2.7081995675909996, 2.396995926678]}, {"species": [{"element": "I", "occu": 1}], "abc": [0.658727, 0.876239, 0.634257], "properties": {"magmom": -0.0}, "label": "I", "xyz": [-1.310760373824, 5.896061852495997, 6.531473299338]}, {"species": [{"element": "I", "occu": 1}], "abc": [0.123761, 0.341273, 0.865742999999999], "properties": {"magmom": -0.0}, "label": "I", "xyz": [-1.3107603738239997, 3.093855147503998, 8.91527770066199]}, {"species": [{"element": "I", "occu": 1}], "abc": [0.341273, 0.123761, 0.365743], "properties": {"magmom": -0.0}, "label": "I", "xyz": [1.3107603738239997, 2.123246147503999, 3.7663607006619997]}, {"species": [{"element": "I", "occu": 1}], "abc": [0.876239, 0.658727, 0.134257], "properties": {"magmom": -0.0}, "label": "I", "xyz": [1.310760373824, 4.925452852495997, 1.3825562993379998]}]}, "task_ids": null, "uncorrected_energy_per_atom": null, "energy_per_atom": -5.245404997916666, "formation_energy_per_atom": 0.574756913611111, "energy_above_hull": 0.6519446582870381, "is_stable": false, "equilibrium_reaction_energy_per_atom": null, "decomposes_to": null, "xas": null, "grain_boundaries": null, "band_gap": 0.099499999999999, "cbm": null, "vbm": null, "efermi": 3.59725354, "is_gap_direct": null, "is_metal": null, "es_source_calc_id": null, "bandstructure": null, "dos": null, "dos_energy_up": null, "dos_energy_down": null, "is_magnetic": null, "ordering": null, "total_magnetization": 0.0007377999999990001, "total_magnetization_normalized_vol": null, "total_magnetization_normalized_formula_units": null, "num_magnetic_sites": null, "num_unique_magnetic_sites": null, "types_of_magnetic_species": null, "bulk_modulus": null, "shear_modulus": null, "universal_anisotropy": null, "homogeneous_poisson": null, "e_total": null, "e_ionic": null, "e_electronic": null, "n": null, "e_ij_max": null, "weighted_surface_energy_EV_PER_ANG2": null, "weighted_surface_energy": null, "weighted_work_function": null, "surface_anisotropy": null, "shape_factor": null, "has_reconstructed": null, "possible_species": null, "has_props": null, "theoretical": null, "database_IDs": null, "fields_not_requested": ["builder_meta", "nsites", "elements", "nelements", "composition", "composition_reduced", "chemsys", "symmetry", "property_name", "deprecated", "deprecation_reasons", "last_updated", "origins", "warnings", "task_ids", "uncorrected_energy_per_atom", "equilibrium_reaction_energy_per_atom", "decomposes_to", "xas", "grain_boundaries", "cbm", "vbm", "is_gap_direct", "is_metal", "es_source_calc_id", "bandstructure", "dos", "dos_energy_up", "dos_energy_down", "is_magnetic", "ordering", "total_magnetization_normalized_vol", "total_magnetization_normalized_formula_units", "num_magnetic_sites", "num_unique_magnetic_sites", "types_of_magnetic_species", "bulk_modulus", "shear_modulus", "universal_anisotropy", "homogeneous_poisson", "e_total", "e_ionic", "e_electronic", "n", "e_ij_max", "weighted_surface_energy_EV_PER_ANG2", "weighted_surface_energy", "weighted_work_function", "surface_anisotropy", "shape_factor", "has_reconstructed", "possible_species", "has_props", "theoretical", "database_IDs"]}