{"builder_meta": null, "nsites": null, "elements": null, "nelements": null, "composition": null, "composition_reduced": null, "formula_pretty": "B5Mo2", "formula_anonymous": "A2B5", "chemsys": null, "volume": 59.09541989544843, "density": 6.910597742884047, "density_atomic": 8.44220284220692, "symmetry": null, "property_name": null, "material_id": "mp-7229", "deprecated": null, "deprecation_reasons": null, "last_updated": null, "origins": null, "warnings": null, "structure": {"@module": "pymatgen.core.structure", "@class": "Structure", "charge": 0, "lattice": {"matrix": [[7.220133, -1.543031, 0.0], [7.220133, 1.543031, 0.0], [6.890369, 0.0, 2.652186]], "pbc": [true, true, true], "a": 7.383174466626804, "b": 7.383174466626804, "c": 7.383175166197603, "alpha": 24.12667957842873, "beta": 24.12667957842873, "gamma": 24.126679615700006, "volume": 59.09541989544843}, "properties": {}, "sites": [{"species": [{"element": "B", "occu": 1}], "abc": [0.6684100000000001, 0.6684100000000001, 0.6684100000000001], "properties": {"magmom": 0.0}, "label": "B", "xyz": [14.25760974035, 0.0, 1.77274764426]}, {"species": [{"element": "B", "occu": 1}], "abc": [0.33159000000000005, 0.33159000000000005, 0.33159000000000005], "properties": {"magmom": 0.0}, "label": "B", "xyz": [7.0730252596500005, 0.0, 0.8794383557400001]}, {"species": [{"element": "B", "occu": 1}], "abc": [0.815738, 0.815738, 0.815738], "properties": {"magmom": 0.0}, "label": "B", "xyz": [17.400209533629997, 0.0, 2.163488903268]}, {"species": [{"element": "B", "occu": 1}], "abc": [0.184261999999999, 0.184261999999999, 0.184261999999999], "properties": {"magmom": 0.0}, "label": "B", "xyz": [3.9304254663699787, 0.0, 0.48869709673199735]}, {"species": [{"element": "B", "occu": 1}], "abc": [0.5, 0.5, 0.5], "properties": {"magmom": -0.0}, "label": "B", "xyz": [10.6653175, 0.0, 1.326093]}, {"species": [{"element": "Mo", "occu": 1}], "abc": [0.924414, 0.924414, 0.924414], "properties": {"magmom": -0.003}, "label": "Mo", "xyz": [19.718337622889997, 0.0, 2.451717869004]}, {"species": [{"element": "Mo", "occu": 1}], "abc": [0.075586, 0.075586, 0.075586], "properties": {"magmom": -0.003}, "label": "Mo", "xyz": [1.61229737711, 0.0, 0.200468130996]}]}, "task_ids": null, "uncorrected_energy_per_atom": null, "energy_per_atom": -12.645608756666665, "formation_energy_per_atom": 0.05092408154762, "energy_above_hull": 0.43547361011905006, "is_stable": false, "equilibrium_reaction_energy_per_atom": null, "decomposes_to": null, "xas": null, "grain_boundaries": null, "band_gap": 0.0, "cbm": null, "vbm": null, "efermi": 9.93901936, "is_gap_direct": null, "is_metal": null, "es_source_calc_id": null, "bandstructure": null, "dos": null, "dos_energy_up": null, "dos_energy_down": null, "is_magnetic": null, "ordering": null, "total_magnetization": 0.0189101, "total_magnetization_normalized_vol": null, "total_magnetization_normalized_formula_units": null, "num_magnetic_sites": null, "num_unique_magnetic_sites": null, "types_of_magnetic_species": null, "bulk_modulus": null, "shear_modulus": null, "universal_anisotropy": null, "homogeneous_poisson": null, "e_total": null, "e_ionic": null, "e_electronic": null, "n": null, "e_ij_max": null, "weighted_surface_energy_EV_PER_ANG2": null, "weighted_surface_energy": null, "weighted_work_function": null, "surface_anisotropy": null, "shape_factor": null, "has_reconstructed": null, "possible_species": null, "has_props": null, "theoretical": null, "database_IDs": null, "fields_not_requested": ["builder_meta", "nsites", "elements", "nelements", "composition", "composition_reduced", "chemsys", "symmetry", "property_name", "deprecated", "deprecation_reasons", "last_updated", "origins", "warnings", "task_ids", "uncorrected_energy_per_atom", "equilibrium_reaction_energy_per_atom", "decomposes_to", "xas", "grain_boundaries", "cbm", "vbm", "is_gap_direct", "is_metal", "es_source_calc_id", "bandstructure", "dos", "dos_energy_up", "dos_energy_down", "is_magnetic", "ordering", "total_magnetization_normalized_vol", "total_magnetization_normalized_formula_units", "num_magnetic_sites", "num_unique_magnetic_sites", "types_of_magnetic_species", "bulk_modulus", "shear_modulus", "universal_anisotropy", "homogeneous_poisson", "e_total", "e_ionic", "e_electronic", "n", "e_ij_max", "weighted_surface_energy_EV_PER_ANG2", "weighted_surface_energy", "weighted_work_function", "surface_anisotropy", "shape_factor", "has_reconstructed", "possible_species", "has_props", "theoretical", "database_IDs"]}