{
  "builder_meta": null,
  "nsites": null,
  "elements": null,
  "nelements": null,
  "composition": null,
  "composition_reduced": null,
  "formula_pretty": "B5W2",
  "formula_anonymous": "A2B5",
  "chemsys": null,
  "volume": 59.52405036447197,
  "density": 11.765117443529052,
  "density_atomic": 8.503435766353139,
  "symmetry": null,
  "property_name": null,
  "material_id": "mp-8079",
  "deprecated": null,
  "deprecation_reasons": null,
  "last_updated": null,
  "origins": null,
  "warnings": null,
  "structure": {
    "@module": "pymatgen.core.structure",
    "@class": "Structure",
    "charge": 0,
    "lattice": {
      "matrix": [
        [7.211683, -1.549589, 0.0],
        [7.211683, 1.549589, 0.0],
        [6.87872, 0.0, 2.663234]
      ],
      "pbc": [true, true, true],
      "a": 7.376286176756566,
      "b": 7.376286176756566,
      "c": 7.376286611646541,
      "alpha": 24.253745301104225,
      "beta": 24.253745301104225,
      "gamma": 24.25374411536966,
      "volume": 59.52405036447197
    },
    "properties": {},
    "sites": [
      {
        "species": [{ "element": "B", "occu": 1 }],
        "abc": [0.5, 0.5, 0.5],
        "properties": { "magmom": -0.001 },
        "label": "B",
        "xyz": [10.651043, 0.0, 1.331617]
      },
      {
        "species": [{ "element": "B", "occu": 1 }],
        "abc": [0.814917999999999, 0.814917999999999, 0.814917999999999],
        "properties": { "magmom": 0.0 },
        "label": "B",
        "xyz": [17.359453318947978, 0.0, 2.1703173248119976]
      },
      {
        "species": [{ "element": "B", "occu": 1 }],
        "abc": [0.33109000000000005, 0.33109000000000005, 0.33109000000000005],
        "properties": { "magmom": 0.0 },
        "label": "B",
        "xyz": [7.052907653740001, 0.0, 0.8817701450600002]
      },
      {
        "species": [{ "element": "B", "occu": 1 }],
        "abc": [0.66891, 0.66891, 0.66891],
        "properties": { "magmom": 0.0 },
        "label": "B",
        "xyz": [14.24917834626, 0.0, 1.7814638549400001]
      },
      {
        "species": [{ "element": "B", "occu": 1 }],
        "abc": [0.185082, 0.185082, 0.185082],
        "properties": { "magmom": 0.0 },
        "label": "B",
        "xyz": [3.9426326810520003, 0.0, 0.49291667518800003]
      },
      {
        "species": [{ "element": "W", "occu": 1 }],
        "abc": [0.923558, 0.923558, 0.923558],
        "properties": { "magmom": -0.002 },
        "label": "W",
        "xyz": [19.673711941988, 0.0, 2.459651066572]
      },
      {
        "species": [{ "element": "W", "occu": 1 }],
        "abc": [0.076442, 0.076442, 0.076442],
        "properties": { "magmom": -0.002 },
        "label": "W",
        "xyz": [1.628374058012, 0.0, 0.203582933428]
      }
    ]
  },
  "task_ids": null,
  "uncorrected_energy_per_atom": null,
  "energy_per_atom": -19.664537521666663,
  "formation_energy_per_atom": 0.259371013690477,
  "energy_above_hull": 0.5342900301190491,
  "is_stable": false,
  "equilibrium_reaction_energy_per_atom": null,
  "decomposes_to": null,
  "xas": null,
  "grain_boundaries": null,
  "band_gap": 0.0,
  "cbm": null,
  "vbm": null,
  "efermi": 9.48425681,
  "is_gap_direct": null,
  "is_metal": null,
  "es_source_calc_id": null,
  "bandstructure": null,
  "dos": null,
  "dos_energy_up": null,
  "dos_energy_down": null,
  "is_magnetic": null,
  "ordering": null,
  "total_magnetization": 0.014268999999999001,
  "total_magnetization_normalized_vol": null,
  "total_magnetization_normalized_formula_units": null,
  "num_magnetic_sites": null,
  "num_unique_magnetic_sites": null,
  "types_of_magnetic_species": null,
  "bulk_modulus": null,
  "shear_modulus": null,
  "universal_anisotropy": null,
  "homogeneous_poisson": null,
  "e_total": null,
  "e_ionic": null,
  "e_electronic": null,
  "n": null,
  "e_ij_max": null,
  "weighted_surface_energy_EV_PER_ANG2": null,
  "weighted_surface_energy": null,
  "weighted_work_function": null,
  "surface_anisotropy": null,
  "shape_factor": null,
  "has_reconstructed": null,
  "possible_species": null,
  "has_props": null,
  "theoretical": null,
  "database_IDs": null,
  "fields_not_requested": [
    "builder_meta",
    "nsites",
    "elements",
    "nelements",
    "composition",
    "composition_reduced",
    "chemsys",
    "symmetry",
    "property_name",
    "deprecated",
    "deprecation_reasons",
    "last_updated",
    "origins",
    "warnings",
    "task_ids",
    "uncorrected_energy_per_atom",
    "equilibrium_reaction_energy_per_atom",
    "decomposes_to",
    "xas",
    "grain_boundaries",
    "cbm",
    "vbm",
    "is_gap_direct",
    "is_metal",
    "es_source_calc_id",
    "bandstructure",
    "dos",
    "dos_energy_up",
    "dos_energy_down",
    "is_magnetic",
    "ordering",
    "total_magnetization_normalized_vol",
    "total_magnetization_normalized_formula_units",
    "num_magnetic_sites",
    "num_unique_magnetic_sites",
    "types_of_magnetic_species",
    "bulk_modulus",
    "shear_modulus",
    "universal_anisotropy",
    "homogeneous_poisson",
    "e_total",
    "e_ionic",
    "e_electronic",
    "n",
    "e_ij_max",
    "weighted_surface_energy_EV_PER_ANG2",
    "weighted_surface_energy",
    "weighted_work_function",
    "surface_anisotropy",
    "shape_factor",
    "has_reconstructed",
    "possible_species",
    "has_props",
    "theoretical",
    "database_IDs"
  ]
}
