{"builder_meta": null, "nsites": null, "elements": null, "nelements": null, "composition": null, "composition_reduced": null, "formula_pretty": "B6As", "formula_anonymous": "AB6", "chemsys": null, "volume": 129.317419464123, "density": 3.589969113026614, "density_atomic": 9.236958533151642, "symmetry": null, "property_name": null, "material_id": "mp-624", "deprecated": null, "deprecation_reasons": null, "last_updated": null, "origins": null, "warnings": null, "structure": {"@module": "pymatgen.core.structure", "@class": "Structure", "charge": 0, "lattice": {"matrix": [[5.00781138, -0.009604960000000001, 1.787754909999999], [1.2569157, 4.8475176, 1.787754909999999], [-0.012438910000000001, -0.009604960000000001, 5.31733854]], "pbc": [true, true, true], "a": 5.317361628772601, "b": 5.3173613359866145, "c": 5.317361764137166, "alpha": 70.48766733403626, "beta": 70.48767831113392, "gamma": 70.48766479059096, "volume": 129.317419464123}, "properties": {}, "sites": [{"species": [{"element": "B", "occu": 1}], "abc": [0.01528972, 0.01528972, 0.32487848], "properties": {"magmom": 0.0}, "label": "B", "xyz": [0.0917447887559608, 0.07084988484479998, 1.7821574065256696]}, {"species": [{"element": "B", "occu": 1}], "abc": [0.01528972, 0.32487848, 0.01528972], "properties": {"magmom": 0.0}, "label": "B", "xyz": [0.4847227084661444, 1.5745604353632254, 0.6894379871976705]}, {"species": [{"element": "B", "occu": 1}], "abc": [0.8218557, 0.27248649, 0.8218557], "properties": {"magmom": -0.0}, "label": "B", "xyz": [4.4479678854114715, 1.3050952737886798, 6.32650061132133]}, {"species": [{"element": "B", "occu": 1}], "abc": [0.8218557, 0.8218557, 0.27248649], "properties": {"magmom": -0.0}, "label": "B", "xyz": [5.145312224717029, 3.9734488574490574, 4.387456040879297]}, {"species": [{"element": "B", "occu": 1}], "abc": [0.27248649, 0.8218557, 0.8218557], "properties": {"magmom": -0.0}, "label": "B", "xyz": [2.387341288897459, 3.9734488574490574, 6.32650061132133]}, {"species": [{"element": "B", "occu": 1}], "abc": [0.72751351, 0.1781443, 0.1781443], "properties": {"magmom": -0.0}, "label": "B", "xyz": [3.8649468811025405, 0.8548588225509424, 2.5663477486786683]}, {"species": [{"element": "B", "occu": 1}], "abc": [0.1781443, 0.72751351, 0.1781443], "properties": {"magmom": -0.0}, "label": "B", "xyz": [1.804320284588528, 3.5232124062113197, 2.5663477486786683]}, {"species": [{"element": "B", "occu": 1}], "abc": [0.1781443, 0.1781443, 0.72751351], "properties": {"magmom": -0.0}, "label": "B", "xyz": [1.1069759452829697, 0.8548588225509424, 4.5053923191207]}, {"species": [{"element": "B", "occu": 1}], "abc": [0.98471028, 0.67512052, 0.98471028], "properties": {"magmom": 0.0}, "label": "B", "xyz": [5.767564204618155, 3.253742397119175, 8.203408585047418]}, {"species": [{"element": "B", "occu": 1}], "abc": [0.98471028, 0.98471028, 0.67512052], "properties": {"magmom": 0.0}, "label": "B", "xyz": [6.160543393682949, 4.75745780476016, 7.110685636135788]}, {"species": [{"element": "B", "occu": 1}], "abc": [0.67512052, 0.98471028, 0.98471028], "properties": {"magmom": 0.0}, "label": "B", "xyz": [4.606325311261919, 4.75745780476016, 8.203408585047418]}, {"species": [{"element": "B", "occu": 1}], "abc": [0.32487848, 0.01528972, 0.01528972], "properties": {"magmom": 0.0}, "label": "B", "xyz": [1.645957850926701, 0.07084988484479998, 0.6894379871976705]}, {"species": [{"element": "As", "occu": 1}], "abc": [0.6005523500000001, 0.6005523500000001, 0.6005523500000001], "properties": {"magmom": 0.0}, "label": "As", "xyz": [3.7548263533707, 2.899651523747049, 5.340620980791645]}, {"species": [{"element": "As", "occu": 1}], "abc": [0.39944765, 0.39944765, 0.39944765], "properties": {"magmom": 0.0}, "label": "As", "xyz": [2.4974618166293006, 1.9286561562529516, 3.552227379208353]}]}, "task_ids": null, "uncorrected_energy_per_atom": null, "energy_per_atom": -8.607139822857143, "formation_energy_per_atom": -0.20918894107142802, "energy_above_hull": 0.0, "is_stable": true, "equilibrium_reaction_energy_per_atom": null, "decomposes_to": null, "xas": null, "grain_boundaries": null, "band_gap": 2.6454, "cbm": null, "vbm": null, "efermi": 4.53115495, "is_gap_direct": null, "is_metal": null, "es_source_calc_id": null, "bandstructure": null, "dos": null, "dos_energy_up": null, "dos_energy_down": null, "is_magnetic": null, "ordering": null, "total_magnetization": 0.0, "total_magnetization_normalized_vol": null, "total_magnetization_normalized_formula_units": null, "num_magnetic_sites": null, "num_unique_magnetic_sites": null, "types_of_magnetic_species": null, "bulk_modulus": null, "shear_modulus": null, "universal_anisotropy": null, "homogeneous_poisson": null, "e_total": null, "e_ionic": null, "e_electronic": null, "n": null, "e_ij_max": null, "weighted_surface_energy_EV_PER_ANG2": null, "weighted_surface_energy": null, "weighted_work_function": null, "surface_anisotropy": null, "shape_factor": null, "has_reconstructed": null, "possible_species": null, "has_props": null, "theoretical": null, "database_IDs": null, "fields_not_requested": ["builder_meta", "nsites", "elements", "nelements", "composition", "composition_reduced", "chemsys", "symmetry", "property_name", "deprecated", "deprecation_reasons", "last_updated", "origins", "warnings", "task_ids", "uncorrected_energy_per_atom", "equilibrium_reaction_energy_per_atom", "decomposes_to", "xas", "grain_boundaries", "cbm", "vbm", "is_gap_direct", "is_metal", "es_source_calc_id", "bandstructure", "dos", "dos_energy_up", "dos_energy_down", "is_magnetic", "ordering", "total_magnetization_normalized_vol", "total_magnetization_normalized_formula_units", "num_magnetic_sites", "num_unique_magnetic_sites", "types_of_magnetic_species", "bulk_modulus", "shear_modulus", "universal_anisotropy", "homogeneous_poisson", "e_total", "e_ionic", "e_electronic", "n", "e_ij_max", "weighted_surface_energy_EV_PER_ANG2", "weighted_surface_energy", "weighted_work_function", "surface_anisotropy", "shape_factor", "has_reconstructed", "possible_species", "has_props", "theoretical", "database_IDs"]}