{
  "builder_meta": null,
  "nsites": null,
  "elements": null,
  "nelements": null,
  "composition": null,
  "composition_reduced": null,
  "formula_pretty": "B6O",
  "formula_anonymous": "AB6",
  "chemsys": null,
  "volume": 102.43459585845005,
  "density": 2.621773527017992,
  "density_atomic": 7.316756847032146,
  "symmetry": null,
  "property_name": null,
  "material_id": "mp-1346",
  "deprecated": null,
  "deprecation_reasons": null,
  "last_updated": null,
  "origins": null,
  "warnings": null,
  "structure": {
    "@module": "pymatgen.core.structure",
    "@class": "Structure",
    "charge": 0,
    "lattice": {
      "matrix": [
        [4.57963831, -0.00249812, 2.3250242],
        [1.42603843, 4.35195504, 2.3250242],
        [-0.00345015, -0.00249812, 5.13603114]
      ],
      "pbc": [true, true, true],
      "a": 5.1360325954581745,
      "b": 5.136033080559733,
      "c": 5.136032906357616,
      "alpha": 63.122150719299306,
      "beta": 63.122153932933735,
      "gamma": 63.12214625802739,
      "volume": 102.43459585845005
    },
    "properties": {},
    "sites": [
      {
        "species": [{ "element": "B", "occu": 1 }],
        "abc": [0.79861792, 0.32391046, 0.79861792],
        "properties": { "magmom": -0.0 },
        "label": "B",
        "xyz": [4.116534633706805, 1.4056536721090975, 6.711632154768825]
      },
      {
        "species": [{ "element": "B", "occu": 1 }],
        "abc": [0.79861792, 0.79861792, 0.32391046],
        "properties": { "magmom": -0.0 },
        "label": "B",
        "xyz": [4.795123526617612, 3.4727450713816714, 5.377226190239052]
      },
      {
        "species": [{ "element": "B", "occu": 1 }],
        "abc": [0.32391046, 0.79861792, 0.79861792],
        "properties": { "magmom": -0.0 },
        "label": "B",
        "xyz": [2.6194972448157006, 3.4727450713816714, 6.711632154768825]
      },
      {
        "species": [{ "element": "B", "occu": 1 }],
        "abc": [0.67608954, 0.20138208, 0.20138208],
        "properties": { "magmom": -0.0 },
        "label": "B",
        "xyz": [3.3827293451842997, 0.8742137286183288, 3.074447385231175]
      },
      {
        "species": [{ "element": "B", "occu": 1 }],
        "abc": [0.20138208, 0.67608954, 0.20138208],
        "properties": { "magmom": -0.0 },
        "label": "B",
        "xyz": [1.8856919562931949, 2.9413051278909026, 3.074447385231175]
      },
      {
        "species": [{ "element": "B", "occu": 1 }],
        "abc": [0.20138208, 0.20138208, 0.67608954],
        "properties": { "magmom": -0.0 },
        "label": "B",
        "xyz": [1.207103063382388, 0.8742137286183288, 4.408853349760948]
      },
      {
        "species": [{ "element": "B", "occu": 1 }],
        "abc": [0.9977964500000001, 0.66660797, 0.9977964500000001],
        "properties": { "magmom": 0.0 },
        "label": "B",
        "xyz": [5.5167128835443195, 2.8960626842103214, 8.994494193668418]
      },
      {
        "species": [{ "element": "B", "occu": 1 }],
        "abc": [0.9977964500000001, 0.9977964500000001, 0.66660797],
        "properties": { "magmom": 0.0 },
        "label": "B",
        "xyz": [5.990143033531878, 4.338207407501918, 8.063521077940367]
      },
      {
        "species": [{ "element": "B", "occu": 1 }],
        "abc": [0.66660797, 0.9977964500000001, 0.9977964500000001],
        "properties": { "magmom": 0.0 },
        "label": "B",
        "xyz": [4.472276932758937, 4.338207407501918, 8.994494193668418]
      },
      {
        "species": [{ "element": "B", "occu": 1 }],
        "abc": [0.33339203, 0.00220355, 0.00220355],
        "properties": { "magmom": 0.0 },
        "label": "B",
        "xyz": [1.5299496572410634, 0.0087513924980824, 0.7915853463315831]
      },
      {
        "species": [{ "element": "B", "occu": 1 }],
        "abc": [0.00220355, 0.33339203, 0.00220355],
        "properties": { "magmom": 0.0 },
        "label": "B",
        "xyz": [0.48551370645568087, 1.4508961157896794, 0.7915853463315831]
      },
      {
        "species": [{ "element": "B", "occu": 1 }],
        "abc": [0.00220355, 0.00220355, 0.33339203],
        "properties": { "magmom": 0.0 },
        "label": "B",
        "xyz": [0.0120835564681225, 0.0087513924980824, 1.7225584620596344]
      },
      {
        "species": [{ "element": "O", "occu": 1 }],
        "abc": [0.37789722000000003, 0.37789722000000003, 0.37789722000000003],
        "properties": { "magmom": -0.0 },
        "label": "O",
        "xyz": [2.2682247421710797, 1.642703645974536, 3.6981322528648795]
      },
      {
        "species": [{ "element": "O", "occu": 1 }],
        "abc": [0.62210278, 0.62210278, 0.62210278],
        "properties": { "magmom": -0.0 },
        "label": "O",
        "xyz": [3.73400184782892, 2.7042551540254642, 6.087947287135121]
      }
    ]
  },
  "task_ids": null,
  "uncorrected_energy_per_atom": null,
  "energy_per_atom": -7.237317123571429,
  "formation_energy_per_atom": -0.8052726050000011,
  "energy_above_hull": 0.0,
  "is_stable": true,
  "equilibrium_reaction_energy_per_atom": null,
  "decomposes_to": null,
  "xas": null,
  "grain_boundaries": null,
  "band_gap": 1.856399999999999,
  "cbm": null,
  "vbm": null,
  "efermi": 5.28513093,
  "is_gap_direct": null,
  "is_metal": null,
  "es_source_calc_id": null,
  "bandstructure": null,
  "dos": null,
  "dos_energy_up": null,
  "dos_energy_down": null,
  "is_magnetic": null,
  "ordering": null,
  "total_magnetization": 0.0,
  "total_magnetization_normalized_vol": null,
  "total_magnetization_normalized_formula_units": null,
  "num_magnetic_sites": null,
  "num_unique_magnetic_sites": null,
  "types_of_magnetic_species": null,
  "bulk_modulus": null,
  "shear_modulus": null,
  "universal_anisotropy": null,
  "homogeneous_poisson": null,
  "e_total": null,
  "e_ionic": null,
  "e_electronic": null,
  "n": null,
  "e_ij_max": null,
  "weighted_surface_energy_EV_PER_ANG2": null,
  "weighted_surface_energy": null,
  "weighted_work_function": null,
  "surface_anisotropy": null,
  "shape_factor": null,
  "has_reconstructed": null,
  "possible_species": null,
  "has_props": null,
  "theoretical": null,
  "database_IDs": null,
  "fields_not_requested": [
    "builder_meta",
    "nsites",
    "elements",
    "nelements",
    "composition",
    "composition_reduced",
    "chemsys",
    "symmetry",
    "property_name",
    "deprecated",
    "deprecation_reasons",
    "last_updated",
    "origins",
    "warnings",
    "task_ids",
    "uncorrected_energy_per_atom",
    "equilibrium_reaction_energy_per_atom",
    "decomposes_to",
    "xas",
    "grain_boundaries",
    "cbm",
    "vbm",
    "is_gap_direct",
    "is_metal",
    "es_source_calc_id",
    "bandstructure",
    "dos",
    "dos_energy_up",
    "dos_energy_down",
    "is_magnetic",
    "ordering",
    "total_magnetization_normalized_vol",
    "total_magnetization_normalized_formula_units",
    "num_magnetic_sites",
    "num_unique_magnetic_sites",
    "types_of_magnetic_species",
    "bulk_modulus",
    "shear_modulus",
    "universal_anisotropy",
    "homogeneous_poisson",
    "e_total",
    "e_ionic",
    "e_electronic",
    "n",
    "e_ij_max",
    "weighted_surface_energy_EV_PER_ANG2",
    "weighted_surface_energy",
    "weighted_work_function",
    "surface_anisotropy",
    "shape_factor",
    "has_reconstructed",
    "possible_species",
    "has_props",
    "theoretical",
    "database_IDs"
  ]
}
