{
  "builder_meta": null,
  "nsites": null,
  "elements": null,
  "nelements": null,
  "composition": null,
  "composition_reduced": null,
  "formula_pretty": "B6P",
  "formula_anonymous": "AB6",
  "chemsys": null,
  "volume": 122.07265749137633,
  "density": 2.6073925513727563,
  "density_atomic": 8.71947553509831,
  "symmetry": null,
  "property_name": null,
  "material_id": "mp-28395",
  "deprecated": null,
  "deprecation_reasons": null,
  "last_updated": null,
  "origins": null,
  "warnings": null,
  "structure": {
    "@module": "pymatgen.core.structure",
    "@class": "Structure",
    "charge": 0,
    "lattice": {
      "matrix": [
        [4.91148639, 0.0015298, 1.827189269999999],
        [1.2702941700000001, 4.74437099, 1.827189269999999],
        [0.00199217, 0.0015298, 5.24035432]
      ],
      "pbc": [true, true, true],
      "a": 5.240355095587169,
      "b": 5.2403553312244675,
      "c": 5.240354921965879,
      "alpha": 69.57181903788177,
      "beta": 69.57182191789741,
      "gamma": 69.57181233262722,
      "volume": 122.07265749137633
    },
    "properties": {},
    "sites": [
      {
        "species": [{ "element": "B", "occu": 1 }],
        "abc": [0.1840465, 0.7173267, 0.1840465],
        "properties": { "magmom": -0.0 },
        "label": "B",
        "xyz": [1.815524456788379, 3.4038270945038334, 2.611448310661443]
      },
      {
        "species": [{ "element": "B", "occu": 1 }],
        "abc": [0.1840465, 0.1840465, 0.7173267],
        "properties": { "magmom": -0.0 },
        "label": "B",
        "xyz": [1.139164112567979, 0.8745637961323951, 4.431621651158453]
      },
      {
        "species": [{ "element": "B", "occu": 1 }],
        "abc": [0.7173267, 0.1840465, 0.1840465],
        "properties": { "magmom": -0.0 },
        "label": "B",
        "xyz": [3.757300172108423, 0.8745637961323951, 2.611448310661443]
      },
      {
        "species": [{ "element": "B", "occu": 1 }],
        "abc": [0.282673299999999, 0.8159535, 0.8159535],
        "properties": { "magmom": -0.0 },
        "label": "B",
        "xyz": [2.426472557891572, 3.872866793867605, 6.283284549338553]
      },
      {
        "species": [{ "element": "B", "occu": 1 }],
        "abc": [0.8159535, 0.282673299999999, 0.8159535],
        "properties": { "magmom": -0.0 },
        "label": "B",
        "xyz": [4.36824827321162, 1.3436034954961622, 6.283284549338553]
      },
      {
        "species": [{ "element": "B", "occu": 1 }],
        "abc": [0.8159535, 0.8159535, 0.282673299999999],
        "properties": { "magmom": -0.0 },
        "label": "B",
        "xyz": [5.044608617432021, 3.872866793867605, 4.463111208841539]
      },
      {
        "species": [{ "element": "B", "occu": 1 }],
        "abc": [0.01281765, 0.32655965, 0.01281765],
        "properties": { "magmom": 0.0 },
        "label": "B",
        "xyz": [0.4778060680168245, 1.5493593468464935, 0.6872755885913185]
      },
      {
        "species": [{ "element": "B", "occu": 1 }],
        "abc": [0.01281765, 0.01281765, 0.32655965],
        "properties": { "magmom": 0.0 },
        "label": "B",
        "xyz": [0.0798864619328245, 0.0613308662135135, 1.758128817708419]
      },
      {
        "species": [{ "element": "B", "occu": 1 }],
        "abc": [0.32655965, 0.01281765, 0.01281765],
        "properties": { "magmom": 0.0 },
        "label": "B",
        "xyz": [1.6202009975040645, 0.0613308662135135, 0.6872755885913185]
      },
      {
        "species": [{ "element": "B", "occu": 1 }],
        "abc": [0.67344035, 0.98718235, 0.98718235],
        "properties": { "magmom": 0.0 },
        "label": "B",
        "xyz": [4.5635717324959355, 4.686099723786486, 8.207457271408678]
      },
      {
        "species": [{ "element": "B", "occu": 1 }],
        "abc": [0.98718235, 0.67344035, 0.98718235],
        "properties": { "magmom": 0.0 },
        "label": "B",
        "xyz": [5.705966661983176, 3.1980712431535068, 8.207457271408678]
      },
      {
        "species": [{ "element": "B", "occu": 1 }],
        "abc": [0.98718235, 0.98718235, 0.67344035],
        "properties": { "magmom": 0.0 },
        "label": "B",
        "xyz": [6.103886268067176, 4.686099723786486, 7.136604042291578]
      },
      {
        "species": [{ "element": "P", "occu": 1 }],
        "abc": [0.40525432, 0.40525432, 0.40525432],
        "properties": { "magmom": 0.0 },
        "label": "P",
        "xyz": [2.506000612730694, 1.923916755497649, 3.604628916760954]
      },
      {
        "species": [{ "element": "P", "occu": 1 }],
        "abc": [0.59474568, 0.59474568, 0.59474568],
        "properties": { "magmom": 0.0 },
        "label": "P",
        "xyz": [3.677772117269307, 2.8235138345023514, 5.290103943239044]
      }
    ]
  },
  "task_ids": null,
  "uncorrected_energy_per_atom": null,
  "energy_per_atom": -7.909109577857143,
  "formation_energy_per_atom": -0.326223649710885,
  "energy_above_hull": 0.0,
  "is_stable": true,
  "equilibrium_reaction_energy_per_atom": null,
  "decomposes_to": null,
  "xas": null,
  "grain_boundaries": null,
  "band_gap": 2.4757,
  "cbm": null,
  "vbm": null,
  "efermi": 5.21319273,
  "is_gap_direct": null,
  "is_metal": null,
  "es_source_calc_id": null,
  "bandstructure": null,
  "dos": null,
  "dos_energy_up": null,
  "dos_energy_down": null,
  "is_magnetic": null,
  "ordering": null,
  "total_magnetization": 0.0,
  "total_magnetization_normalized_vol": null,
  "total_magnetization_normalized_formula_units": null,
  "num_magnetic_sites": null,
  "num_unique_magnetic_sites": null,
  "types_of_magnetic_species": null,
  "bulk_modulus": null,
  "shear_modulus": null,
  "universal_anisotropy": null,
  "homogeneous_poisson": null,
  "e_total": null,
  "e_ionic": null,
  "e_electronic": null,
  "n": null,
  "e_ij_max": null,
  "weighted_surface_energy_EV_PER_ANG2": null,
  "weighted_surface_energy": null,
  "weighted_work_function": null,
  "surface_anisotropy": null,
  "shape_factor": null,
  "has_reconstructed": null,
  "possible_species": null,
  "has_props": null,
  "theoretical": null,
  "database_IDs": null,
  "fields_not_requested": [
    "builder_meta",
    "nsites",
    "elements",
    "nelements",
    "composition",
    "composition_reduced",
    "chemsys",
    "symmetry",
    "property_name",
    "deprecated",
    "deprecation_reasons",
    "last_updated",
    "origins",
    "warnings",
    "task_ids",
    "uncorrected_energy_per_atom",
    "equilibrium_reaction_energy_per_atom",
    "decomposes_to",
    "xas",
    "grain_boundaries",
    "cbm",
    "vbm",
    "is_gap_direct",
    "is_metal",
    "es_source_calc_id",
    "bandstructure",
    "dos",
    "dos_energy_up",
    "dos_energy_down",
    "is_magnetic",
    "ordering",
    "total_magnetization_normalized_vol",
    "total_magnetization_normalized_formula_units",
    "num_magnetic_sites",
    "num_unique_magnetic_sites",
    "types_of_magnetic_species",
    "bulk_modulus",
    "shear_modulus",
    "universal_anisotropy",
    "homogeneous_poisson",
    "e_total",
    "e_ionic",
    "e_electronic",
    "n",
    "e_ij_max",
    "weighted_surface_energy_EV_PER_ANG2",
    "weighted_surface_energy",
    "weighted_work_function",
    "surface_anisotropy",
    "shape_factor",
    "has_reconstructed",
    "possible_species",
    "has_props",
    "theoretical",
    "database_IDs"
  ]
}
