{"builder_meta": null, "nsites": null, "elements": null, "nelements": null, "composition": null, "composition_reduced": null, "formula_pretty": "B6Pb", "formula_anonymous": "AB6", "chemsys": null, "volume": 75.2481356223294, "density": 6.003819469509007, "density_atomic": 10.74973366033277, "symmetry": null, "property_name": null, "material_id": "mp-1096825", "deprecated": null, "deprecation_reasons": null, "last_updated": null, "origins": null, "warnings": null, "structure": {"@module": "pymatgen.core.structure", "@class": "Structure", "charge": 0, "lattice": {"matrix": [[4.221809, 0.0, 0.0], [0.0, 4.221809, 0.0], [0.0, 0.0, 4.221809]], "pbc": [true, true, true], "a": 4.221809, "b": 4.221809, "c": 4.221809, "alpha": 90.0, "beta": 90.0, "gamma": 90.0, "volume": 75.2481356223294}, "properties": {}, "sites": [{"species": [{"element": "B", "occu": 1}], "abc": [0.203003, 0.5, 0.5], "properties": {"magmom": 0.0}, "label": "B", "xyz": [0.8570398924270001, 2.1109045, 2.1109045]}, {"species": [{"element": "B", "occu": 1}], "abc": [0.5, 0.5, 0.796997], "properties": {"magmom": 0.0}, "label": "B", "xyz": [2.1109045, 2.1109045, 3.364769107573]}, {"species": [{"element": "B", "occu": 1}], "abc": [0.5, 0.5, 0.203003], "properties": {"magmom": 0.0}, "label": "B", "xyz": [2.1109045, 2.1109045, 0.8570398924270001]}, {"species": [{"element": "B", "occu": 1}], "abc": [0.5, 0.203003, 0.5], "properties": {"magmom": 0.0}, "label": "B", "xyz": [2.1109045, 0.8570398924270001, 2.1109045]}, {"species": [{"element": "B", "occu": 1}], "abc": [0.5, 0.796997, 0.5], "properties": {"magmom": 0.0}, "label": "B", "xyz": [2.1109045, 3.364769107573, 2.1109045]}, {"species": [{"element": "B", "occu": 1}], "abc": [0.796997, 0.5, 0.5], "properties": {"magmom": 0.0}, "label": "B", "xyz": [3.364769107573, 2.1109045, 2.1109045]}, {"species": [{"element": "Pb", "occu": 1}], "abc": [0.0, 0.0, 0.0], "properties": {"magmom": -0.0}, "label": "Pb", "xyz": [0.0, 0.0, 0.0]}]}, "task_ids": null, "uncorrected_energy_per_atom": null, "energy_per_atom": -14.222508455714282, "formation_energy_per_atom": 0.11510001500000401, "energy_above_hull": 0.11510001500000301, "is_stable": false, "equilibrium_reaction_energy_per_atom": null, "decomposes_to": null, "xas": null, "grain_boundaries": null, "band_gap": 0.9206000000000001, "cbm": null, "vbm": null, "efermi": 6.19390313, "is_gap_direct": null, "is_metal": null, "es_source_calc_id": null, "bandstructure": null, "dos": null, "dos_energy_up": null, "dos_energy_down": null, "is_magnetic": null, "ordering": null, "total_magnetization": 0.000125399999999, "total_magnetization_normalized_vol": null, "total_magnetization_normalized_formula_units": null, "num_magnetic_sites": null, "num_unique_magnetic_sites": null, "types_of_magnetic_species": null, "bulk_modulus": null, "shear_modulus": null, "universal_anisotropy": null, "homogeneous_poisson": null, "e_total": null, "e_ionic": null, "e_electronic": null, "n": null, "e_ij_max": null, "weighted_surface_energy_EV_PER_ANG2": null, "weighted_surface_energy": null, "weighted_work_function": null, "surface_anisotropy": null, "shape_factor": null, "has_reconstructed": null, "possible_species": null, "has_props": null, "theoretical": null, "database_IDs": null, "fields_not_requested": ["builder_meta", "nsites", "elements", "nelements", "composition", "composition_reduced", "chemsys", "symmetry", "property_name", "deprecated", "deprecation_reasons", "last_updated", "origins", "warnings", "task_ids", "uncorrected_energy_per_atom", "equilibrium_reaction_energy_per_atom", "decomposes_to", "xas", "grain_boundaries", "cbm", "vbm", "is_gap_direct", "is_metal", "es_source_calc_id", "bandstructure", "dos", "dos_energy_up", "dos_energy_down", "is_magnetic", "ordering", "total_magnetization_normalized_vol", "total_magnetization_normalized_formula_units", "num_magnetic_sites", "num_unique_magnetic_sites", "types_of_magnetic_species", "bulk_modulus", "shear_modulus", "universal_anisotropy", "homogeneous_poisson", "e_total", "e_ionic", "e_electronic", "n", "e_ij_max", "weighted_surface_energy_EV_PER_ANG2", "weighted_surface_energy", "weighted_work_function", "surface_anisotropy", "shape_factor", "has_reconstructed", "possible_species", "has_props", "theoretical", "database_IDs"]}