{
  "builder_meta": null,
  "nsites": null,
  "elements": null,
  "nelements": null,
  "composition": null,
  "composition_reduced": null,
  "formula_pretty": "B8O",
  "formula_anonymous": "AB8",
  "chemsys": null,
  "volume": 199.15796018462936,
  "density": 2.563558062803387,
  "density_atomic": 7.376220747578865,
  "symmetry": null,
  "property_name": null,
  "material_id": "mp-1228685",
  "deprecated": null,
  "deprecation_reasons": null,
  "last_updated": null,
  "origins": null,
  "warnings": null,
  "structure": {
    "@module": "pymatgen.core.structure",
    "@class": "Structure",
    "charge": 0,
    "lattice": {
      "matrix": [
        [2.65303448, 4.38456514, 0.00029258],
        [-2.65303448, 4.38456514, 0.00029258],
        [0.0, 3.15228165, 8.56069303]
      ],
      "pbc": [true, true, true],
      "a": 5.124744237966921,
      "b": 5.124744237966921,
      "c": 9.122628171465573,
      "alpha": 72.80102426818091,
      "beta": 72.80102426818091,
      "gamma": 62.35500414869438,
      "volume": 199.15796018462936
    },
    "properties": {},
    "sites": [
      {
        "species": [{ "element": "B", "occu": 1 }],
        "abc": [0.16922916000000002, 0.50080907, 0.50197692],
        "properties": { "magmom": -0.0 },
        "label": "B",
        "xyz": [-0.8796929341052966, 4.5201988993648206, 4.297466360050201]
      },
      {
        "species": [{ "element": "B", "occu": 1 }],
        "abc": [0.66096596, -0.00028176, 0.99710513],
        "properties": { "magmom": -0.0 },
        "label": "B",
        "xyz": [1.7543130009813854, 6.039969116288653, 8.536104239551479]
      },
      {
        "species": [{ "element": "B", "occu": 1 }],
        "abc": [0.33413371000000003, 0.33413371000000003, 0.66966075],
        "properties": { "magmom": 0.0 },
        "label": "B",
        "xyz": [0.0, 5.041021327879977, 5.732955636671316]
      },
      {
        "species": [{ "element": "B", "occu": 1 }],
        "abc": [0.8318515200000001, 0.8318515200000001, 0.1661495],
        "properties": { "magmom": -0.0 },
        "label": "B",
        "xyz": [0.0, 7.818364372502701, 1.4228416328234283]
      },
      {
        "species": [{ "element": "B", "occu": 1 }],
        "abc": [0.50080907, 0.16922916000000002, 0.50197692],
        "properties": { "magmom": -0.0 },
        "label": "B",
        "xyz": [0.8796929341052966, 4.5201988993648206, 4.297466360050201]
      },
      {
        "species": [{ "element": "B", "occu": 1 }],
        "abc": [-0.00028176, 0.66096596, 0.99710513],
        "properties": { "magmom": -0.0 },
        "label": "B",
        "xyz": [-1.7543130009813854, 6.039969116288653, 8.536104239551479]
      },
      {
        "species": [{ "element": "B", "occu": 1 }],
        "abc": [0.33564361, 0.9963264, 0.99249915],
        "properties": { "magmom": 0.0 },
        "label": "B",
        "xyz": [-1.7528142222125993, 8.96874613155705, 8.49687026347145]
      },
      {
        "species": [{ "element": "B", "occu": 1 }],
        "abc": [0.83566231, 0.50469773, 0.50791143],
        "properties": { "magmom": -0.0 },
        "label": "B",
        "xyz": [0.8780604423987186, 7.477975787047265, 4.348466001198837]
      },
      {
        "species": [{ "element": "B", "occu": 1 }],
        "abc": [0.16482285, 0.16482285, 0.8269832300000001],
        "properties": { "magmom": 0.0 },
        "label": "B",
        "xyz": [0.0, 4.052237105557628, 7.079646020726793]
      },
      {
        "species": [{ "element": "B", "occu": 1 }],
        "abc": [0.67107824, 0.67107824, 0.33678892],
        "properties": { "magmom": 0.0 },
        "label": "B",
        "xyz": [0.0, 6.946426047072427, 2.883539248168146]
      },
      {
        "species": [{ "element": "B", "occu": 1 }],
        "abc": [0.9963264, 0.33564361, 0.99249915],
        "properties": { "magmom": 0.0 },
        "label": "B",
        "xyz": [1.7528142222125993, 8.96874613155705, 8.49687026347145]
      },
      {
        "species": [{ "element": "B", "occu": 1 }],
        "abc": [0.50469773, 0.83566231, 0.50791143],
        "properties": { "magmom": -0.0 },
        "label": "B",
        "xyz": [-0.8780604423987186, 7.477975787047265, 4.348466001198837]
      },
      {
        "species": [{ "element": "B", "occu": 1 }],
        "abc": [0.75556501, 0.3145, 0.88967926],
        "properties": { "magmom": 0.0 },
        "label": "B",
        "xyz": [1.1701606794515447, 7.496289346063331, 7.616584119638183]
      },
      {
        "species": [{ "element": "B", "occu": 1 }],
        "abc": [0.28008356, 0.8050205300000001, 0.40122607],
        "properties": { "magmom": -0.0 },
        "label": "B",
        "xyz": [-1.392675881236726, 6.022487144248038, 3.4350907006579443]
      },
      {
        "species": [{ "element": "B", "occu": 1 }],
        "abc": [0.53729397, 0.53729397, 0.68341929],
        "properties": { "magmom": -0.0 },
        "label": "B",
        "xyz": [0.0, 6.865930908711441, 5.850857155410034]
      },
      {
        "species": [{ "element": "B", "occu": 1 }],
        "abc": [0.04015387, 0.04015387, 0.15888699],
        "properties": { "magmom": -0.0 },
        "label": "B",
        "xyz": [0.0, 0.8529710602769172, 1.3602062442892489]
      },
      {
        "species": [{ "element": "B", "occu": 1 }],
        "abc": [0.3145, 0.75556501, 0.88967926],
        "properties": { "magmom": 0.0 },
        "label": "B",
        "xyz": [-1.1701606794515447, 7.496289346063331, 7.616584119638183]
      },
      {
        "species": [{ "element": "B", "occu": 1 }],
        "abc": [0.8050205300000001, 0.28008356, 0.40122607],
        "properties": { "magmom": -0.0 },
        "label": "B",
        "xyz": [1.392675881236726, 6.022487144248038, 3.4350907006579443]
      },
      {
        "species": [{ "element": "B", "occu": 1 }],
        "abc": [0.72274527, 0.20152153, 0.6048822500000001],
        "properties": { "magmom": -0.0 },
        "label": "B",
        "xyz": [1.3828245540145552, 5.959267208425064, 5.178481683526062]
      },
      {
        "species": [{ "element": "B", "occu": 1 }],
        "abc": [0.22537812000000002, 0.69554783, 0.09652379999999901],
        "properties": { "magmom": 0.0 },
        "label": "B",
        "xyz": [-1.2473764520816009, 4.34213002041965, 0.8265800664035564]
      },
      {
        "species": [{ "element": "B", "occu": 1 }],
        "abc": [0.95797319, 0.95797319, 0.83612388],
        "properties": { "magmom": 0.0 },
        "label": "B",
        "xyz": [0.0, 11.036289671907996, 7.158360439324417]
      },
      {
        "species": [{ "element": "B", "occu": 1 }],
        "abc": [0.46344287, 0.46344287, 0.33840871],
        "properties": { "magmom": 0.0 },
        "label": "B",
        "xyz": [0.0, 5.130750471100276, 2.8972842732181006]
      },
      {
        "species": [{ "element": "B", "occu": 1 }],
        "abc": [0.20152153, 0.72274527, 0.6048822500000001],
        "properties": { "magmom": -0.0 },
        "label": "B",
        "xyz": [-1.3828245540145552, 5.959267208425064, 5.178481683526062]
      },
      {
        "species": [{ "element": "B", "occu": 1 }],
        "abc": [0.69554783, 0.22537812000000002, 0.09652379999999901],
        "properties": { "magmom": 0.0 },
        "label": "B",
        "xyz": [1.2473764520816009, 4.34213002041965, 0.8265800664035564]
      },
      {
        "species": [{ "element": "O", "occu": 1 }],
        "abc": [0.071652399999999, 0.071652399999999, 0.30978366],
        "properties": { "magmom": 0.0 },
        "label": "O",
        "xyz": [0.0, 1.6048545773625023, 2.6520047470882737]
      },
      {
        "species": [{ "element": "O", "occu": 1 }],
        "abc": [0.9268424, 0.9268424, 0.68987131],
        "properties": { "magmom": 0.0 },
        "label": "O",
        "xyz": [0.0, 10.302270426002334, 5.906318866212753]
      },
      {
        "species": [{ "element": "O", "occu": 1 }],
        "abc": [0.43483866, 0.43483866, 0.18781574],
        "properties": { "magmom": -0.0 },
        "label": "O",
        "xyz": [0.0, 4.405204971103796, 1.6080873465325778]
      }
    ]
  },
  "task_ids": null,
  "uncorrected_energy_per_atom": null,
  "energy_per_atom": -7.091271447777779,
  "formation_energy_per_atom": -0.604260873148149,
  "energy_above_hull": 0.022062264074073003,
  "is_stable": false,
  "equilibrium_reaction_energy_per_atom": null,
  "decomposes_to": null,
  "xas": null,
  "grain_boundaries": null,
  "band_gap": 0.00030000000000000003,
  "cbm": null,
  "vbm": null,
  "efermi": 5.07141953,
  "is_gap_direct": null,
  "is_metal": null,
  "es_source_calc_id": null,
  "bandstructure": null,
  "dos": null,
  "dos_energy_up": null,
  "dos_energy_down": null,
  "is_magnetic": null,
  "ordering": null,
  "total_magnetization": 0.0,
  "total_magnetization_normalized_vol": null,
  "total_magnetization_normalized_formula_units": null,
  "num_magnetic_sites": null,
  "num_unique_magnetic_sites": null,
  "types_of_magnetic_species": null,
  "bulk_modulus": null,
  "shear_modulus": null,
  "universal_anisotropy": null,
  "homogeneous_poisson": null,
  "e_total": null,
  "e_ionic": null,
  "e_electronic": null,
  "n": null,
  "e_ij_max": null,
  "weighted_surface_energy_EV_PER_ANG2": null,
  "weighted_surface_energy": null,
  "weighted_work_function": null,
  "surface_anisotropy": null,
  "shape_factor": null,
  "has_reconstructed": null,
  "possible_species": null,
  "has_props": null,
  "theoretical": null,
  "database_IDs": null,
  "fields_not_requested": [
    "builder_meta",
    "nsites",
    "elements",
    "nelements",
    "composition",
    "composition_reduced",
    "chemsys",
    "symmetry",
    "property_name",
    "deprecated",
    "deprecation_reasons",
    "last_updated",
    "origins",
    "warnings",
    "task_ids",
    "uncorrected_energy_per_atom",
    "equilibrium_reaction_energy_per_atom",
    "decomposes_to",
    "xas",
    "grain_boundaries",
    "cbm",
    "vbm",
    "is_gap_direct",
    "is_metal",
    "es_source_calc_id",
    "bandstructure",
    "dos",
    "dos_energy_up",
    "dos_energy_down",
    "is_magnetic",
    "ordering",
    "total_magnetization_normalized_vol",
    "total_magnetization_normalized_formula_units",
    "num_magnetic_sites",
    "num_unique_magnetic_sites",
    "types_of_magnetic_species",
    "bulk_modulus",
    "shear_modulus",
    "universal_anisotropy",
    "homogeneous_poisson",
    "e_total",
    "e_ionic",
    "e_electronic",
    "n",
    "e_ij_max",
    "weighted_surface_energy_EV_PER_ANG2",
    "weighted_surface_energy",
    "weighted_work_function",
    "surface_anisotropy",
    "shape_factor",
    "has_reconstructed",
    "possible_species",
    "has_props",
    "theoretical",
    "database_IDs"
  ]
}
