{"builder_meta": null, "nsites": null, "elements": null, "nelements": null, "composition": null, "composition_reduced": null, "formula_pretty": "Ba2Bi3", "formula_anonymous": "A2B3", "chemsys": null, "volume": 198.61976216691716, "density": 7.537689278878859, "density_atomic": 39.72395243338343, "symmetry": null, "property_name": null, "material_id": "mp-569529", "deprecated": null, "deprecation_reasons": null, "last_updated": null, "origins": null, "warnings": null, "structure": {"@module": "pymatgen.core.structure", "@class": "Structure", "charge": 0, "lattice": {"matrix": [[4.49731247, -0.0, 1.6949705800000001], [1.7169398, 6.35048059, 2.25830216], [-0.053047, 0.0796182, 6.95465791]], "pbc": [true, true, true], "a": 4.806115346085967, "b": 6.955315567725986, "c": 6.9553159300714595, "alpha": 70.53533428246917, "beta": 69.78771569537173, "gamma": 69.78771664589026, "volume": 198.61976216691716}, "properties": {}, "sites": [{"species": [{"element": "Ba", "occu": 1}], "abc": [0.77591686, 0.7240831400000001, 0.7240831400000001], "properties": {"magmom": 0.0}, "label": "Ba", "xyz": [4.694337293408636, 4.655926122373401, 7.986105306406199]}, {"species": [{"element": "Ba", "occu": 1}], "abc": [0.22408314000000001, 0.27591686, 0.27591686], "properties": {"magmom": 0.0}, "label": "Ba", "xyz": [1.466867976591364, 1.7741726676265994, 2.921825343593801]}, {"species": [{"element": "Bi", "occu": 1}], "abc": [0.5, 0.29556664, 0.70443336], "properties": {"magmom": -0.0}, "label": "Bi", "xyz": [2.718758286320352, 1.9330759265146695, 6.41405711072782]}, {"species": [{"element": "Bi", "occu": 1}], "abc": [-0.0, 0.0, -0.0], "properties": {"magmom": 0.0}, "label": "Bi", "xyz": [0.0, 0.0, 0.0]}, {"species": [{"element": "Bi", "occu": 1}], "abc": [0.5, 0.70443336, 0.29556664], "properties": {"magmom": -0.0}, "label": "Bi", "xyz": [3.442446983679648, 4.497022863485331, 4.49387353927218]}]}, "task_ids": null, "uncorrected_energy_per_atom": null, "energy_per_atom": -3.8677339600000042, "formation_energy_per_atom": -0.7661233980000051, "energy_above_hull": 0.0, "is_stable": true, "equilibrium_reaction_energy_per_atom": null, "decomposes_to": null, "xas": null, "grain_boundaries": null, "band_gap": 0.0, "cbm": null, "vbm": null, "efermi": 4.07220782, "is_gap_direct": null, "is_metal": null, "es_source_calc_id": null, "bandstructure": null, "dos": null, "dos_energy_up": null, "dos_energy_down": null, "is_magnetic": null, "ordering": null, "total_magnetization": 2e-07, "total_magnetization_normalized_vol": null, "total_magnetization_normalized_formula_units": null, "num_magnetic_sites": null, "num_unique_magnetic_sites": null, "types_of_magnetic_species": null, "bulk_modulus": null, "shear_modulus": null, "universal_anisotropy": null, "homogeneous_poisson": null, "e_total": null, "e_ionic": null, "e_electronic": null, "n": null, "e_ij_max": null, "weighted_surface_energy_EV_PER_ANG2": null, "weighted_surface_energy": null, "weighted_work_function": null, "surface_anisotropy": null, "shape_factor": null, "has_reconstructed": null, "possible_species": null, "has_props": null, "theoretical": null, "database_IDs": null, "fields_not_requested": ["builder_meta", "nsites", "elements", "nelements", "composition", "composition_reduced", "chemsys", "symmetry", "property_name", "deprecated", "deprecation_reasons", "last_updated", "origins", "warnings", "task_ids", "uncorrected_energy_per_atom", "equilibrium_reaction_energy_per_atom", "decomposes_to", "xas", "grain_boundaries", "cbm", "vbm", "is_gap_direct", "is_metal", "es_source_calc_id", "bandstructure", "dos", "dos_energy_up", "dos_energy_down", "is_magnetic", "ordering", "total_magnetization_normalized_vol", "total_magnetization_normalized_formula_units", "num_magnetic_sites", "num_unique_magnetic_sites", "types_of_magnetic_species", "bulk_modulus", "shear_modulus", "universal_anisotropy", "homogeneous_poisson", "e_total", "e_ionic", "e_electronic", "n", "e_ij_max", "weighted_surface_energy_EV_PER_ANG2", "weighted_surface_energy", "weighted_work_function", "surface_anisotropy", "shape_factor", "has_reconstructed", "possible_species", "has_props", "theoretical", "database_IDs"]}