{
  "builder_meta": null,
  "nsites": null,
  "elements": null,
  "nelements": null,
  "composition": null,
  "composition_reduced": null,
  "formula_pretty": "Ba2Bi",
  "formula_anonymous": "AB2",
  "chemsys": null,
  "volume": 277.05580780614787,
  "density": 5.797343297084497,
  "density_atomic": 46.175967967691314,
  "symmetry": null,
  "property_name": null,
  "material_id": "mp-567872",
  "deprecated": null,
  "deprecation_reasons": null,
  "last_updated": null,
  "origins": null,
  "warnings": null,
  "structure": {
    "@module": "pymatgen.core.structure",
    "@class": "Structure",
    "charge": 0,
    "lattice": {
      "matrix": [
        [5.16787637, -2e-8, -1.4000728],
        [-0.37930647, 5.15393787, -1.4000728],
        [0.03841152, 0.04134244, 10.37951739]
      ],
      "pbc": [true, true, true],
      "a": 5.3541712730266875,
      "b": 5.354171533608523,
      "c": 10.379670798803124,
      "alpha": 104.94645236320655,
      "beta": 104.94645379412961,
      "gamma": 90.00001039517078,
      "volume": 277.05580780614787
    },
    "properties": {},
    "sites": [
      {
        "species": [{ "element": "Ba", "occu": 1 }],
        "abc": [0.5, 0.0, 0.0],
        "properties": { "magmom": 0.0 },
        "label": "Ba",
        "xyz": [2.583938185, -1e-8, -0.7000364]
      },
      {
        "species": [{ "element": "Ba", "occu": 1 }],
        "abc": [0.67997604, 0.67997604, 0.35995207],
        "properties": { "magmom": 0.0 },
        "label": "Ba",
        "xyz": [3.2699391040010424, 3.5194355465059655, 1.8320968536200735]
      },
      {
        "species": [{ "element": "Ba", "occu": 1 }],
        "abc": [0.32002396, 0.32002396, 0.64004893],
        "properties": { "magmom": 0.0 },
        "label": "Ba",
        "xyz": [1.5570423544104774, 1.675844784836475, 5.747285315897317]
      },
      {
        "species": [{ "element": "Ba", "occu": 1 }],
        "abc": [0.0, 0.5, 0.0],
        "properties": { "magmom": 0.0 },
        "label": "Ba",
        "xyz": [-0.189653235, 2.576968935, -0.7000364]
      },
      {
        "species": [{ "element": "Bi", "occu": 1 }],
        "abc": [0.86589081, 0.86589081, 0.73178263],
        "properties": { "magmom": 0.0 },
        "label": "Bi",
        "xyz": [4.1744875525805165, 4.493001099099975, 5.1709301920829995]
      },
      {
        "species": [{ "element": "Bi", "occu": 1 }],
        "abc": [0.13410919, 0.13410919, 0.26821737],
        "properties": { "magmom": 0.0 },
        "label": "Bi",
        "xyz": [0.6524938674194833, 0.7022791909000242, 2.4084415979170006]
      }
    ]
  },
  "task_ids": null,
  "uncorrected_energy_per_atom": null,
  "energy_per_atom": -3.348408833333328,
  "formation_energy_per_atom": -0.772414103333328,
  "energy_above_hull": 0.02359222777778,
  "is_stable": false,
  "equilibrium_reaction_energy_per_atom": null,
  "decomposes_to": null,
  "xas": null,
  "grain_boundaries": null,
  "band_gap": 0.0,
  "cbm": null,
  "vbm": null,
  "efermi": 3.15764114,
  "is_gap_direct": null,
  "is_metal": null,
  "es_source_calc_id": null,
  "bandstructure": null,
  "dos": null,
  "dos_energy_up": null,
  "dos_energy_down": null,
  "is_magnetic": null,
  "ordering": null,
  "total_magnetization": 0.0002015,
  "total_magnetization_normalized_vol": null,
  "total_magnetization_normalized_formula_units": null,
  "num_magnetic_sites": null,
  "num_unique_magnetic_sites": null,
  "types_of_magnetic_species": null,
  "bulk_modulus": null,
  "shear_modulus": null,
  "universal_anisotropy": null,
  "homogeneous_poisson": null,
  "e_total": null,
  "e_ionic": null,
  "e_electronic": null,
  "n": null,
  "e_ij_max": null,
  "weighted_surface_energy_EV_PER_ANG2": null,
  "weighted_surface_energy": null,
  "weighted_work_function": null,
  "surface_anisotropy": null,
  "shape_factor": null,
  "has_reconstructed": null,
  "possible_species": null,
  "has_props": null,
  "theoretical": null,
  "database_IDs": null,
  "fields_not_requested": [
    "builder_meta",
    "nsites",
    "elements",
    "nelements",
    "composition",
    "composition_reduced",
    "chemsys",
    "symmetry",
    "property_name",
    "deprecated",
    "deprecation_reasons",
    "last_updated",
    "origins",
    "warnings",
    "task_ids",
    "uncorrected_energy_per_atom",
    "equilibrium_reaction_energy_per_atom",
    "decomposes_to",
    "xas",
    "grain_boundaries",
    "cbm",
    "vbm",
    "is_gap_direct",
    "is_metal",
    "es_source_calc_id",
    "bandstructure",
    "dos",
    "dos_energy_up",
    "dos_energy_down",
    "is_magnetic",
    "ordering",
    "total_magnetization_normalized_vol",
    "total_magnetization_normalized_formula_units",
    "num_magnetic_sites",
    "num_unique_magnetic_sites",
    "types_of_magnetic_species",
    "bulk_modulus",
    "shear_modulus",
    "universal_anisotropy",
    "homogeneous_poisson",
    "e_total",
    "e_ionic",
    "e_electronic",
    "n",
    "e_ij_max",
    "weighted_surface_energy_EV_PER_ANG2",
    "weighted_surface_energy",
    "weighted_work_function",
    "surface_anisotropy",
    "shape_factor",
    "has_reconstructed",
    "possible_species",
    "has_props",
    "theoretical",
    "database_IDs"
  ]
}
