{"builder_meta": null, "nsites": null, "elements": null, "nelements": null, "composition": null, "composition_reduced": null, "formula_pretty": "Ba2Cd", "formula_anonymous": "AB2", "chemsys": null, "volume": 142.1692220278101, "density": 4.520926151567472, "density_atomic": 47.3897406759367, "symmetry": null, "property_name": null, "material_id": "mp-8093", "deprecated": null, "deprecation_reasons": null, "last_updated": null, "origins": null, "warnings": null, "structure": {"@module": "pymatgen.core.structure", "@class": "Structure", "charge": 0, "lattice": {"matrix": [[4.13935013, -1e-08, -1.11998157], [-0.30303356, 4.12824342, -1.11998156], [0.025793260000000002, 0.02775656, 8.30464839]], "pbc": [true, true, true], "a": 4.288190552653962, "b": 4.288190966829673, "c": 8.304734830228721, "alpha": 104.96193511425288, "beta": 104.96194052659659, "gamma": 90.00001041101068, "volume": 142.1692220278101}, "properties": {}, "sites": [{"species": [{"element": "Ba", "occu": 1}], "abc": [0.63051221, 0.63051221, 0.26102542], "properties": {"magmom": 0.001}, "label": "Ba", "xyz": [2.425577135334989, 2.6101530435887916, 0.7554002305372567]}, {"species": [{"element": "Ba", "occu": 1}], "abc": [0.36948779, 0.36948779, 0.73897458], "properties": {"magmom": 0.001}, "label": "Ba", "xyz": [1.4365326946650112, 1.5458469264112087, 5.309285029462744]}, {"species": [{"element": "Cd", "occu": 1}], "abc": [-0.0, -0.0, -0.0], "properties": {"magmom": -0.001}, "label": "Cd", "xyz": [0.0, 0.0, 0.0]}]}, "task_ids": null, "uncorrected_energy_per_atom": null, "energy_per_atom": -1.824733423333332, "formation_energy_per_atom": -0.22541339999999802, "energy_above_hull": 0.0, "is_stable": true, "equilibrium_reaction_energy_per_atom": null, "decomposes_to": null, "xas": null, "grain_boundaries": null, "band_gap": 0.0, "cbm": null, "vbm": null, "efermi": 1.6997109400000001, "is_gap_direct": null, "is_metal": null, "es_source_calc_id": null, "bandstructure": null, "dos": null, "dos_energy_up": null, "dos_energy_down": null, "is_magnetic": null, "ordering": null, "total_magnetization": 0.011278199999999001, "total_magnetization_normalized_vol": null, "total_magnetization_normalized_formula_units": null, "num_magnetic_sites": null, "num_unique_magnetic_sites": null, "types_of_magnetic_species": null, "bulk_modulus": null, "shear_modulus": null, "universal_anisotropy": null, "homogeneous_poisson": null, "e_total": null, "e_ionic": null, "e_electronic": null, "n": null, "e_ij_max": null, "weighted_surface_energy_EV_PER_ANG2": null, "weighted_surface_energy": null, "weighted_work_function": null, "surface_anisotropy": null, "shape_factor": null, "has_reconstructed": null, "possible_species": null, "has_props": null, "theoretical": null, "database_IDs": null, "fields_not_requested": ["builder_meta", "nsites", "elements", "nelements", "composition", "composition_reduced", "chemsys", "symmetry", "property_name", "deprecated", "deprecation_reasons", "last_updated", "origins", "warnings", "task_ids", "uncorrected_energy_per_atom", "equilibrium_reaction_energy_per_atom", "decomposes_to", "xas", "grain_boundaries", "cbm", "vbm", "is_gap_direct", "is_metal", "es_source_calc_id", "bandstructure", "dos", "dos_energy_up", "dos_energy_down", "is_magnetic", "ordering", "total_magnetization_normalized_vol", "total_magnetization_normalized_formula_units", "num_magnetic_sites", "num_unique_magnetic_sites", "types_of_magnetic_species", "bulk_modulus", "shear_modulus", "universal_anisotropy", "homogeneous_poisson", "e_total", "e_ionic", "e_electronic", "n", "e_ij_max", "weighted_surface_energy_EV_PER_ANG2", "weighted_surface_energy", "weighted_work_function", "surface_anisotropy", "shape_factor", "has_reconstructed", "possible_species", "has_props", "theoretical", "database_IDs"]}