{"builder_meta": null, "nsites": null, "elements": null, "nelements": null, "composition": null, "composition_reduced": null, "formula_pretty": "Ba2Ge", "formula_anonymous": "AB2", "chemsys": null, "volume": 475.21620069322125, "density": 4.854171669690777, "density_atomic": 39.601350057768435, "symmetry": null, "property_name": null, "material_id": "mp-13922", "deprecated": null, "deprecation_reasons": null, "last_updated": null, "origins": null, "warnings": null, "structure": {"@module": "pymatgen.core.structure", "@class": "Structure", "charge": 0, "lattice": {"matrix": [[5.4556787700000005, 0.0, 0.0], [-0.0, 8.55392514, 0.0], [0.0, 0.0, 10.18302949]], "pbc": [true, true, true], "a": 5.4556787700000005, "b": 8.55392514, "c": 10.18302949, "alpha": 90.0, "beta": 90.0, "gamma": 90.0, "volume": 475.21620069322137}, "properties": {}, "sites": [{"species": [{"element": "Ba", "occu": 1}], "abc": [0.75, 0.35390362000000003, 0.916542699999999], "properties": {"magmom": -0.0}, "label": "Ba", "xyz": [4.091759077500001, 3.027265072255007, 9.333181342944213]}, {"species": [{"element": "Ba", "occu": 1}], "abc": [0.25, 0.64609638, 0.0834573], "properties": {"magmom": -0.0}, "label": "Ba", "xyz": [1.3639196925000001, 5.526660067744993, 0.8498481470557769]}, {"species": [{"element": "Ba", "occu": 1}], "abc": [0.75, 0.85390362, 0.5834573], "properties": {"magmom": -0.0}, "label": "Ba", "xyz": [4.091759077500001, 7.304227642255007, 5.941362892055776]}, {"species": [{"element": "Ba", "occu": 1}], "abc": [0.25, 0.14609638, 0.4165427], "properties": {"magmom": -0.0}, "label": "Ba", "xyz": [1.3639196925000001, 1.2496974977449933, 4.2416665979442225]}, {"species": [{"element": "Ba", "occu": 1}], "abc": [0.25, 0.01999424, 0.82885207], "properties": {"magmom": 0.0}, "label": "Ba", "xyz": [1.3639196925000001, 0.17102923219119362, 8.440225071657544]}, {"species": [{"element": "Ba", "occu": 1}], "abc": [0.75, 0.9800057600000001, 0.17114693], "properties": {"magmom": 0.0}, "label": "Ba", "xyz": [4.091759077500001, 8.382895907808807, 1.7427942353129655]}, {"species": [{"element": "Ba", "occu": 1}], "abc": [0.25, 0.51999424, 0.6711479300000001], "properties": {"magmom": 0.0}, "label": "Ba", "xyz": [1.3639196925000001, 4.447991802191194, 6.834319163342456]}, {"species": [{"element": "Ba", "occu": 1}], "abc": [0.75, 0.48000576, 0.32885207], "properties": {"magmom": 0.0}, "label": "Ba", "xyz": [4.091759077500001, 4.105933337808807, 3.3487103266575438]}, {"species": [{"element": "Ge", "occu": 1}], "abc": [0.25, 0.74925213, 0.40018931], "properties": {"magmom": 0.0}, "label": "Ge", "xyz": [1.3639196925000001, 6.409046631005548, 4.0751395453127515]}, {"species": [{"element": "Ge", "occu": 1}], "abc": [0.75, 0.25074787, 0.59981069], "properties": {"magmom": 0.0}, "label": "Ge", "xyz": [4.091759077500001, 2.1448785089944518, 6.107889944687248]}, {"species": [{"element": "Ge", "occu": 1}], "abc": [0.25, 0.24925213000000002, 0.09981069000000001], "properties": {"magmom": 0.0}, "label": "Ge", "xyz": [1.3639196925000001, 2.1320840610055485, 1.016375199687248]}, {"species": [{"element": "Ge", "occu": 1}], "abc": [0.75, 0.75074787, 0.90018931], "properties": {"magmom": 0.0}, "label": "Ge", "xyz": [4.091759077500001, 6.4218410789944524, 9.166654290312751]}]}, "task_ids": null, "uncorrected_energy_per_atom": null, "energy_per_atom": -3.312494186666664, "formation_energy_per_atom": -0.49216827499999705, "energy_above_hull": 0.0, "is_stable": true, "equilibrium_reaction_energy_per_atom": null, "decomposes_to": null, "xas": null, "grain_boundaries": null, "band_gap": 0.0, "cbm": null, "vbm": null, "efermi": 2.73645218, "is_gap_direct": null, "is_metal": null, "es_source_calc_id": null, "bandstructure": null, "dos": null, "dos_energy_up": null, "dos_energy_down": null, "is_magnetic": null, "ordering": null, "total_magnetization": 0.0, "total_magnetization_normalized_vol": null, "total_magnetization_normalized_formula_units": null, "num_magnetic_sites": null, "num_unique_magnetic_sites": null, "types_of_magnetic_species": null, "bulk_modulus": null, "shear_modulus": null, "universal_anisotropy": null, "homogeneous_poisson": null, "e_total": null, "e_ionic": null, "e_electronic": null, "n": null, "e_ij_max": null, "weighted_surface_energy_EV_PER_ANG2": null, "weighted_surface_energy": null, "weighted_work_function": null, "surface_anisotropy": null, "shape_factor": null, "has_reconstructed": null, "possible_species": null, "has_props": null, "theoretical": null, "database_IDs": null, "fields_not_requested": ["builder_meta", "nsites", "elements", "nelements", "composition", "composition_reduced", "chemsys", "symmetry", "property_name", "deprecated", "deprecation_reasons", "last_updated", "origins", "warnings", "task_ids", "uncorrected_energy_per_atom", "equilibrium_reaction_energy_per_atom", "decomposes_to", "xas", "grain_boundaries", "cbm", "vbm", "is_gap_direct", "is_metal", "es_source_calc_id", "bandstructure", "dos", "dos_energy_up", "dos_energy_down", "is_magnetic", "ordering", "total_magnetization_normalized_vol", "total_magnetization_normalized_formula_units", "num_magnetic_sites", "num_unique_magnetic_sites", "types_of_magnetic_species", "bulk_modulus", "shear_modulus", "universal_anisotropy", "homogeneous_poisson", "e_total", "e_ionic", "e_electronic", "n", "e_ij_max", "weighted_surface_energy_EV_PER_ANG2", "weighted_surface_energy", "weighted_work_function", "surface_anisotropy", "shape_factor", "has_reconstructed", "possible_species", "has_props", "theoretical", "database_IDs"]}