{
  "builder_meta": null,
  "nsites": null,
  "elements": null,
  "nelements": null,
  "composition": null,
  "composition_reduced": null,
  "formula_pretty": "Ba2In",
  "formula_anonymous": "AB2",
  "chemsys": null,
  "volume": 537.8615613993525,
  "density": 4.809664923176372,
  "density_atomic": 44.821796783279375,
  "symmetry": null,
  "property_name": null,
  "material_id": "mp-1102396",
  "deprecated": null,
  "deprecation_reasons": null,
  "last_updated": null,
  "origins": null,
  "warnings": null,
  "structure": {
    "@module": "pymatgen.core.structure",
    "@class": "Structure",
    "charge": 0,
    "lattice": {
      "matrix": [
        [0.0, -5.9576986, 0.0],
        [-8.15847168, 0.0, 0.0],
        [0.0, 0.0, -11.06580899]
      ],
      "pbc": [true, true, true],
      "a": 5.9576986,
      "b": 8.15847168,
      "c": 11.06580899,
      "alpha": 90.0,
      "beta": 90.0,
      "gamma": 90.0,
      "volume": 537.8615613993525
    },
    "properties": {},
    "sites": [
      {
        "species": [{ "element": "Ba", "occu": 1 }],
        "abc": [0.75, 0.47752188, 0.8079107600000001],
        "properties": { "magmom": 0.0 },
        "label": "Ba",
        "xyz": [-3.8958487345603583, -4.4682739499999995, -8.940186151125733]
      },
      {
        "species": [{ "element": "Ba", "occu": 1 }],
        "abc": [0.75, 0.9775218800000001, 0.69208924],
        "properties": { "magmom": 0.0 },
        "label": "Ba",
        "xyz": [-7.975084574560359, -4.4682739499999995, -7.658527333874269]
      },
      {
        "species": [{ "element": "Ba", "occu": 1 }],
        "abc": [0.25, 0.52247812, 0.19208924],
        "properties": { "magmom": 0.0 },
        "label": "Ba",
        "xyz": [-4.262622945439642, -1.48942465, -2.1256228388742677]
      },
      {
        "species": [{ "element": "Ba", "occu": 1 }],
        "abc": [0.25, 0.02247712, 0.30791076],
        "properties": { "magmom": 0.0 },
        "label": "Ba",
        "xyz": [-0.1833789469679616, -1.48942465, -3.4072816561257326]
      },
      {
        "species": [{ "element": "Ba", "occu": 1 }],
        "abc": [0.75, 0.82411623, 0.07467942],
        "properties": { "magmom": 0.0 },
        "label": "Ba",
        "xyz": [-6.723528923483366, -4.4682739499999995, -0.8263881972039858]
      },
      {
        "species": [{ "element": "Ba", "occu": 1 }],
        "abc": [0.75, 0.32411623, 0.42532058],
        "properties": { "magmom": 0.0 },
        "label": "Ba",
        "xyz": [-2.6442930834833662, -4.4682739499999995, -4.706516297796014]
      },
      {
        "species": [{ "element": "Ba", "occu": 1 }],
        "abc": [0.25, 0.17588377, 0.9253205800000001],
        "properties": { "magmom": 0.0 },
        "label": "Ba",
        "xyz": [-1.4349427565166335, -1.48942465, -10.239420792796016]
      },
      {
        "species": [{ "element": "Ba", "occu": 1 }],
        "abc": [0.25, 0.67588377, 0.57467942],
        "properties": { "magmom": 0.0 },
        "label": "Ba",
        "xyz": [-5.514178596516634, -1.48942465, -6.3592926922039865]
      },
      {
        "species": [{ "element": "In", "occu": 1 }],
        "abc": [0.75, 0.27025616, 0.10508272],
        "properties": { "magmom": 0.0 },
        "label": "In",
        "xyz": [-2.204877227705549, -4.4682739499999995, -1.1628253076696529]
      },
      {
        "species": [{ "element": "In", "occu": 1 }],
        "abc": [0.75, 0.77025616, 0.39491728],
        "properties": { "magmom": 0.0 },
        "label": "In",
        "xyz": [-6.284113067705548, -4.4682739499999995, -4.370079187330347]
      },
      {
        "species": [{ "element": "In", "occu": 1 }],
        "abc": [0.25, 0.72974384, 0.89491728],
        "properties": { "magmom": 0.0 },
        "label": "In",
        "xyz": [-5.9535944522944515, -1.48942465, -9.902983682330348]
      },
      {
        "species": [{ "element": "In", "occu": 1 }],
        "abc": [0.25, 0.22974384, 0.60508272],
        "properties": { "magmom": 0.0 },
        "label": "In",
        "xyz": [-1.874358612294451, -1.48942465, -6.695729802669653]
      }
    ]
  },
  "task_ids": null,
  "uncorrected_energy_per_atom": null,
  "energy_per_atom": -2.497645010833333,
  "formation_energy_per_atom": -0.298603803055555,
  "energy_above_hull": 0.0007876921666700001,
  "is_stable": false,
  "equilibrium_reaction_energy_per_atom": null,
  "decomposes_to": null,
  "xas": null,
  "grain_boundaries": null,
  "band_gap": 0.0,
  "cbm": null,
  "vbm": null,
  "efermi": 2.862078239999999,
  "is_gap_direct": null,
  "is_metal": null,
  "es_source_calc_id": null,
  "bandstructure": null,
  "dos": null,
  "dos_energy_up": null,
  "dos_energy_down": null,
  "is_magnetic": null,
  "ordering": null,
  "total_magnetization": 0.0059437,
  "total_magnetization_normalized_vol": null,
  "total_magnetization_normalized_formula_units": null,
  "num_magnetic_sites": null,
  "num_unique_magnetic_sites": null,
  "types_of_magnetic_species": null,
  "bulk_modulus": null,
  "shear_modulus": null,
  "universal_anisotropy": null,
  "homogeneous_poisson": null,
  "e_total": null,
  "e_ionic": null,
  "e_electronic": null,
  "n": null,
  "e_ij_max": null,
  "weighted_surface_energy_EV_PER_ANG2": null,
  "weighted_surface_energy": null,
  "weighted_work_function": null,
  "surface_anisotropy": null,
  "shape_factor": null,
  "has_reconstructed": null,
  "possible_species": null,
  "has_props": null,
  "theoretical": null,
  "database_IDs": null,
  "fields_not_requested": [
    "builder_meta",
    "nsites",
    "elements",
    "nelements",
    "composition",
    "composition_reduced",
    "chemsys",
    "symmetry",
    "property_name",
    "deprecated",
    "deprecation_reasons",
    "last_updated",
    "origins",
    "warnings",
    "task_ids",
    "uncorrected_energy_per_atom",
    "equilibrium_reaction_energy_per_atom",
    "decomposes_to",
    "xas",
    "grain_boundaries",
    "cbm",
    "vbm",
    "is_gap_direct",
    "is_metal",
    "es_source_calc_id",
    "bandstructure",
    "dos",
    "dos_energy_up",
    "dos_energy_down",
    "is_magnetic",
    "ordering",
    "total_magnetization_normalized_vol",
    "total_magnetization_normalized_formula_units",
    "num_magnetic_sites",
    "num_unique_magnetic_sites",
    "types_of_magnetic_species",
    "bulk_modulus",
    "shear_modulus",
    "universal_anisotropy",
    "homogeneous_poisson",
    "e_total",
    "e_ionic",
    "e_electronic",
    "n",
    "e_ij_max",
    "weighted_surface_energy_EV_PER_ANG2",
    "weighted_surface_energy",
    "weighted_work_function",
    "surface_anisotropy",
    "shape_factor",
    "has_reconstructed",
    "possible_species",
    "has_props",
    "theoretical",
    "database_IDs"
  ]
}
