{"builder_meta": null, "nsites": null, "elements": null, "nelements": null, "composition": null, "composition_reduced": null, "formula_pretty": "Ba2N", "formula_anonymous": "AB2", "chemsys": null, "volume": 108.78723067978433, "density": 4.406145522290381, "density_atomic": 36.262410226594774, "symmetry": null, "property_name": null, "material_id": "mp-1892", "deprecated": null, "deprecation_reasons": null, "last_updated": null, "origins": null, "warnings": null, "structure": {"@module": "pymatgen.core.structure", "@class": "Structure", "charge": 0, "lattice": {"matrix": [[3.96261053, 0.03312811, 6.97549581], [1.86848775, 3.4945865400000002, 6.97549581], [0.05475799, 0.0331281, 8.02227049]], "pbc": [true, true, true], "a": 8.022525879015076, "b": 8.022525995768214, "c": 8.022525769556824, "alpha": 29.208523205311675, "beta": 29.20852460856083, "gamma": 29.208520516494488, "volume": 108.78723067978433}, "properties": {}, "sites": [{"species": [{"element": "Ba", "occu": 1}], "abc": [0.73192504, 0.73192504, 0.73192504], "properties": {"magmom": 0.0}, "label": "Ba", "xyz": [4.308005585854001, 2.6062699722274605, 16.082780748792235]}, {"species": [{"element": "Ba", "occu": 1}], "abc": [0.26807496000000003, 0.26807496000000003, 0.26807496000000003], "properties": {"magmom": 0.0}, "label": "Ba", "xyz": [1.5778506841459994, 0.9545727777725401, 5.890481361207766]}, {"species": [{"element": "N", "occu": 1}], "abc": [0.0, -0.0, 0.0], "properties": {"magmom": -0.0}, "label": "N", "xyz": [0.0, 0.0, 0.0]}]}, "task_ids": null, "uncorrected_energy_per_atom": null, "energy_per_atom": -4.583612106666666, "formation_energy_per_atom": -0.524869564999999, "energy_above_hull": 0.0, "is_stable": true, "equilibrium_reaction_energy_per_atom": null, "decomposes_to": null, "xas": null, "grain_boundaries": null, "band_gap": 0.0, "cbm": null, "vbm": null, "efermi": 2.415195289999999, "is_gap_direct": null, "is_metal": null, "es_source_calc_id": null, "bandstructure": null, "dos": null, "dos_energy_up": null, "dos_energy_down": null, "is_magnetic": null, "ordering": null, "total_magnetization": 4.4e-06, "total_magnetization_normalized_vol": null, "total_magnetization_normalized_formula_units": null, "num_magnetic_sites": null, "num_unique_magnetic_sites": null, "types_of_magnetic_species": null, "bulk_modulus": null, "shear_modulus": null, "universal_anisotropy": null, "homogeneous_poisson": null, "e_total": null, "e_ionic": null, "e_electronic": null, "n": null, "e_ij_max": null, "weighted_surface_energy_EV_PER_ANG2": null, "weighted_surface_energy": null, "weighted_work_function": null, "surface_anisotropy": null, "shape_factor": null, "has_reconstructed": null, "possible_species": null, "has_props": null, "theoretical": null, "database_IDs": null, "fields_not_requested": ["builder_meta", "nsites", "elements", "nelements", "composition", "composition_reduced", "chemsys", "symmetry", "property_name", "deprecated", "deprecation_reasons", "last_updated", "origins", "warnings", "task_ids", "uncorrected_energy_per_atom", "equilibrium_reaction_energy_per_atom", "decomposes_to", "xas", "grain_boundaries", "cbm", "vbm", "is_gap_direct", "is_metal", "es_source_calc_id", "bandstructure", "dos", "dos_energy_up", "dos_energy_down", "is_magnetic", "ordering", "total_magnetization_normalized_vol", "total_magnetization_normalized_formula_units", "num_magnetic_sites", "num_unique_magnetic_sites", "types_of_magnetic_species", "bulk_modulus", "shear_modulus", "universal_anisotropy", "homogeneous_poisson", "e_total", "e_ionic", "e_electronic", "n", "e_ij_max", "weighted_surface_energy_EV_PER_ANG2", "weighted_surface_energy", "weighted_work_function", "surface_anisotropy", "shape_factor", "has_reconstructed", "possible_species", "has_props", "theoretical", "database_IDs"]}