{
  "builder_meta": null,
  "nsites": null,
  "elements": null,
  "nelements": null,
  "composition": null,
  "composition_reduced": null,
  "formula_pretty": "Ba2Pd",
  "formula_anonymous": "AB2",
  "chemsys": null,
  "volume": 462.45745126752655,
  "density": 5.473266892174842,
  "density_atomic": 38.538120938960546,
  "symmetry": null,
  "property_name": null,
  "material_id": "mp-1103028",
  "deprecated": null,
  "deprecation_reasons": null,
  "last_updated": null,
  "origins": null,
  "warnings": null,
  "structure": {
    "@module": "pymatgen.core.structure",
    "@class": "Structure",
    "charge": 0,
    "lattice": {
      "matrix": [
        [5.18753151, 0.0, 0.0],
        [0.0, 8.42655837, 0.00089948],
        [0.0, 0.0011160200000000001, 10.57939433]
      ],
      "pbc": [true, true, true],
      "a": 5.18753151,
      "b": 8.426558418006804,
      "c": 10.579394388864458,
      "alpha": 89.98783992015844,
      "beta": 90.0,
      "gamma": 90.0,
      "volume": 462.45745126752655
    },
    "properties": {},
    "sites": [
      {
        "species": [{ "element": "Ba", "occu": 1 }],
        "abc": [0.25, 0.86083564, 0.41612661],
        "properties": { "magmom": 0.004 },
        "label": "Ba",
        "xyz": [1.2968828775, 7.254346173055599, 4.403141802837588]
      },
      {
        "species": [{ "element": "Ba", "occu": 1 }],
        "abc": [0.25, 0.36062038, 0.083851],
        "properties": { "magmom": 0.004 },
        "label": "Ba",
        "xyz": [1.2968828775, 3.0388822608746007, 0.8874171647842323]
      },
      {
        "species": [{ "element": "Ba", "occu": 1 }],
        "abc": [0.75, 0.13907559, 0.58375086],
        "properties": { "magmom": 0.004 },
        "label": "Ba",
        "xyz": [3.8906486325000005, 1.1725800546119656, 6.175855634128316]
      },
      {
        "species": [{ "element": "Ba", "occu": 1 }],
        "abc": [0.75, 0.63929546, 0.91625124],
        "properties": { "magmom": 0.004 },
        "label": "Ba",
        "xyz": [3.8906486325000005, 5.388083064074865, 9.69395820679183]
      },
      {
        "species": [{ "element": "Ba", "occu": 1 }],
        "abc": [0.25, 4.5890000000000016e-5, 0.8413334100000001],
        "properties": { "magmom": 0.002 },
        "label": "Ba",
        "xyz": [1.2968828775, 0.0013256396758275003, 8.900797948670702]
      },
      {
        "species": [{ "element": "Ba", "occu": 1 }],
        "abc": [0.25, 0.50002837, 0.65873973],
        "properties": { "magmom": 0.002 },
        "label": "Ba",
        "xyz": [1.2968828775, 4.214253413174432, 6.969517130025978]
      },
      {
        "species": [{ "element": "Ba", "occu": 1 }],
        "abc": [0.75, 4.326e-5, 0.15876446],
        "properties": { "magmom": 0.002 },
        "label": "Ba",
        "xyz": [3.8906486325000005, 0.0005417172277354, 1.6796318668410166]
      },
      {
        "species": [{ "element": "Ba", "occu": 1 }],
        "abc": [0.75, 0.50006245, 0.34117664000000003],
        "properties": { "magmom": 0.002 },
        "label": "Ba",
        "xyz": [3.8906486325000005, 4.21418618352398, 3.609892006916977]
      },
      {
        "species": [{ "element": "Pd", "occu": 1 }],
        "abc": [0.25, 0.25838591, 0.41143418],
        "properties": { "magmom": 0.001 },
        "label": "Pd",
        "xyz": [1.2968828775, 2.1777631213741304, 4.352956844018526]
      },
      {
        "species": [{ "element": "Pd", "occu": 1 }],
        "abc": [0.25, 0.75858618, 0.08859792],
        "properties": { "magmom": 0.001 },
        "label": "Pd",
        "xyz": [1.2968828775, 6.392369601496005, 0.9379946655949799]
      },
      {
        "species": [{ "element": "Pd", "occu": 1 }],
        "abc": [0.75, 0.7416091, 0.58841414],
        "properties": { "magmom": 0.001 },
        "label": "Pd",
        "xyz": [3.8906486325000005, 6.24986905082169, 6.225732278961095]
      },
      {
        "species": [{ "element": "Pd", "occu": 1 }],
        "abc": [0.75, 0.24140776, 0.9115598300000001],
        "properties": { "magmom": 0.001 },
        "label": "Pd",
        "xyz": [3.8906486325000005, 2.0352538996124276, 9.643968038409728]
      }
    ]
  },
  "task_ids": null,
  "uncorrected_energy_per_atom": null,
  "energy_per_atom": -3.3701031075,
  "formation_energy_per_atom": -0.364159210833333,
  "energy_above_hull": 0.001974802499999,
  "is_stable": false,
  "equilibrium_reaction_energy_per_atom": null,
  "decomposes_to": null,
  "xas": null,
  "grain_boundaries": null,
  "band_gap": 0.0,
  "cbm": null,
  "vbm": null,
  "efermi": 2.70470212,
  "is_gap_direct": null,
  "is_metal": null,
  "es_source_calc_id": null,
  "bandstructure": null,
  "dos": null,
  "dos_energy_up": null,
  "dos_energy_down": null,
  "is_magnetic": null,
  "ordering": null,
  "total_magnetization": 0.08815579999999901,
  "total_magnetization_normalized_vol": null,
  "total_magnetization_normalized_formula_units": null,
  "num_magnetic_sites": null,
  "num_unique_magnetic_sites": null,
  "types_of_magnetic_species": null,
  "bulk_modulus": null,
  "shear_modulus": null,
  "universal_anisotropy": null,
  "homogeneous_poisson": null,
  "e_total": null,
  "e_ionic": null,
  "e_electronic": null,
  "n": null,
  "e_ij_max": null,
  "weighted_surface_energy_EV_PER_ANG2": null,
  "weighted_surface_energy": null,
  "weighted_work_function": null,
  "surface_anisotropy": null,
  "shape_factor": null,
  "has_reconstructed": null,
  "possible_species": null,
  "has_props": null,
  "theoretical": null,
  "database_IDs": null,
  "fields_not_requested": [
    "builder_meta",
    "nsites",
    "elements",
    "nelements",
    "composition",
    "composition_reduced",
    "chemsys",
    "symmetry",
    "property_name",
    "deprecated",
    "deprecation_reasons",
    "last_updated",
    "origins",
    "warnings",
    "task_ids",
    "uncorrected_energy_per_atom",
    "equilibrium_reaction_energy_per_atom",
    "decomposes_to",
    "xas",
    "grain_boundaries",
    "cbm",
    "vbm",
    "is_gap_direct",
    "is_metal",
    "es_source_calc_id",
    "bandstructure",
    "dos",
    "dos_energy_up",
    "dos_energy_down",
    "is_magnetic",
    "ordering",
    "total_magnetization_normalized_vol",
    "total_magnetization_normalized_formula_units",
    "num_magnetic_sites",
    "num_unique_magnetic_sites",
    "types_of_magnetic_species",
    "bulk_modulus",
    "shear_modulus",
    "universal_anisotropy",
    "homogeneous_poisson",
    "e_total",
    "e_ionic",
    "e_electronic",
    "n",
    "e_ij_max",
    "weighted_surface_energy_EV_PER_ANG2",
    "weighted_surface_energy",
    "weighted_work_function",
    "surface_anisotropy",
    "shape_factor",
    "has_reconstructed",
    "possible_species",
    "has_props",
    "theoretical",
    "database_IDs"
  ]
}
