{
  "builder_meta": null,
  "nsites": null,
  "elements": null,
  "nelements": null,
  "composition": null,
  "composition_reduced": null,
  "formula_pretty": "Ba2Pb",
  "formula_anonymous": "AB2",
  "chemsys": null,
  "volume": 550.3182284324002,
  "density": 5.815816013775842,
  "density_atomic": 45.859852369366685,
  "symmetry": null,
  "property_name": null,
  "material_id": "mp-21246",
  "deprecated": null,
  "deprecation_reasons": null,
  "last_updated": null,
  "origins": null,
  "warnings": null,
  "structure": {
    "@module": "pymatgen.core.structure",
    "@class": "Structure",
    "charge": 0,
    "lattice": {
      "matrix": [
        [5.75521062, 0.0, 0.0],
        [-0.0, 8.90100294, 0.0],
        [0.0, 0.0, 10.74270703]
      ],
      "pbc": [true, true, true],
      "a": 5.75521062,
      "b": 8.90100294,
      "c": 10.74270703,
      "alpha": 90.0,
      "beta": 90.0,
      "gamma": 90.0,
      "volume": 550.3182284324002
    },
    "properties": {},
    "sites": [
      {
        "species": [{ "element": "Ba", "occu": 1 }],
        "abc": [0.25, 0.51943755, 0.82132223],
        "properties": { "magmom": -0.0 },
        "label": "Ba",
        "xyz": [1.438802655, 4.623515159696397, 8.823224094116277]
      },
      {
        "species": [{ "element": "Ba", "occu": 1 }],
        "abc": [0.75, 0.48056245000000003, 0.17867777],
        "properties": { "magmom": -0.0 },
        "label": "Ba",
        "xyz": [4.316407965, 4.277487780303603, 1.9194829358837233]
      },
      {
        "species": [{ "element": "Ba", "occu": 1 }],
        "abc": [0.25, 0.01943755, 0.6786777700000001],
        "properties": { "magmom": -0.0 },
        "label": "Ba",
        "xyz": [1.438802655, 0.173013689696397, 7.290836450883724]
      },
      {
        "species": [{ "element": "Ba", "occu": 1 }],
        "abc": [0.75, 0.98056245, 0.32132223],
        "properties": { "magmom": -0.0 },
        "label": "Ba",
        "xyz": [4.316407965, 8.727989250303603, 3.4518705791162767]
      },
      {
        "species": [{ "element": "Ba", "occu": 1 }],
        "abc": [0.75, 0.84573511, 0.92050024],
        "properties": { "magmom": -0.0 },
        "label": "Ba",
        "xyz": [4.316407965, 7.5278907005712234, 9.888664399364687]
      },
      {
        "species": [{ "element": "Ba", "occu": 1 }],
        "abc": [0.25, 0.15426489000000002, 0.07949976],
        "properties": { "magmom": -0.0 },
        "label": "Ba",
        "xyz": [1.438802655, 1.3731122394287767, 0.8540426306353128]
      },
      {
        "species": [{ "element": "Ba", "occu": 1 }],
        "abc": [0.75, 0.34573511, 0.57949976],
        "properties": { "magmom": -0.0 },
        "label": "Ba",
        "xyz": [4.316407965, 3.0773892305712236, 6.2253961456353135]
      },
      {
        "species": [{ "element": "Ba", "occu": 1 }],
        "abc": [0.25, 0.65426489, 0.42050024],
        "properties": { "magmom": -0.0 },
        "label": "Ba",
        "xyz": [1.438802655, 5.823613709428776, 4.517310884364687]
      },
      {
        "species": [{ "element": "Pb", "occu": 1 }],
        "abc": [0.25, 0.74868871, 0.10132313],
        "properties": { "magmom": 0.0 },
        "label": "Pb",
        "xyz": [1.438802655, 6.664080408854807, 1.088484700952604]
      },
      {
        "species": [{ "element": "Pb", "occu": 1 }],
        "abc": [0.75, 0.25131129, 0.8986768700000001],
        "properties": { "magmom": 0.0 },
        "label": "Pb",
        "xyz": [4.316407965, 2.2369225311451926, 9.654222329047396]
      },
      {
        "species": [{ "element": "Pb", "occu": 1 }],
        "abc": [0.25, 0.24868871, 0.39867687],
        "properties": { "magmom": 0.0 },
        "label": "Pb",
        "xyz": [1.438802655, 2.2135789388548073, 4.282868814047396]
      },
      {
        "species": [{ "element": "Pb", "occu": 1 }],
        "abc": [0.75, 0.75131129, 0.60132313],
        "properties": { "magmom": 0.0 },
        "label": "Pb",
        "xyz": [4.316407965, 6.687424001145192, 6.459838215952605]
      }
    ]
  },
  "task_ids": null,
  "uncorrected_energy_per_atom": null,
  "energy_per_atom": -3.058147193333331,
  "formation_energy_per_atom": -0.54128154333333,
  "energy_above_hull": 0.0,
  "is_stable": true,
  "equilibrium_reaction_energy_per_atom": null,
  "decomposes_to": null,
  "xas": null,
  "grain_boundaries": null,
  "band_gap": 0.028799999999999003,
  "cbm": null,
  "vbm": null,
  "efermi": 3.04627676,
  "is_gap_direct": null,
  "is_metal": null,
  "es_source_calc_id": null,
  "bandstructure": null,
  "dos": null,
  "dos_energy_up": null,
  "dos_energy_down": null,
  "is_magnetic": null,
  "ordering": null,
  "total_magnetization": 0.0,
  "total_magnetization_normalized_vol": null,
  "total_magnetization_normalized_formula_units": null,
  "num_magnetic_sites": null,
  "num_unique_magnetic_sites": null,
  "types_of_magnetic_species": null,
  "bulk_modulus": null,
  "shear_modulus": null,
  "universal_anisotropy": null,
  "homogeneous_poisson": null,
  "e_total": null,
  "e_ionic": null,
  "e_electronic": null,
  "n": null,
  "e_ij_max": null,
  "weighted_surface_energy_EV_PER_ANG2": null,
  "weighted_surface_energy": null,
  "weighted_work_function": null,
  "surface_anisotropy": null,
  "shape_factor": null,
  "has_reconstructed": null,
  "possible_species": null,
  "has_props": null,
  "theoretical": null,
  "database_IDs": null,
  "fields_not_requested": [
    "builder_meta",
    "nsites",
    "elements",
    "nelements",
    "composition",
    "composition_reduced",
    "chemsys",
    "symmetry",
    "property_name",
    "deprecated",
    "deprecation_reasons",
    "last_updated",
    "origins",
    "warnings",
    "task_ids",
    "uncorrected_energy_per_atom",
    "equilibrium_reaction_energy_per_atom",
    "decomposes_to",
    "xas",
    "grain_boundaries",
    "cbm",
    "vbm",
    "is_gap_direct",
    "is_metal",
    "es_source_calc_id",
    "bandstructure",
    "dos",
    "dos_energy_up",
    "dos_energy_down",
    "is_magnetic",
    "ordering",
    "total_magnetization_normalized_vol",
    "total_magnetization_normalized_formula_units",
    "num_magnetic_sites",
    "num_unique_magnetic_sites",
    "types_of_magnetic_species",
    "bulk_modulus",
    "shear_modulus",
    "universal_anisotropy",
    "homogeneous_poisson",
    "e_total",
    "e_ionic",
    "e_electronic",
    "n",
    "e_ij_max",
    "weighted_surface_energy_EV_PER_ANG2",
    "weighted_surface_energy",
    "weighted_work_function",
    "surface_anisotropy",
    "shape_factor",
    "has_reconstructed",
    "possible_species",
    "has_props",
    "theoretical",
    "database_IDs"
  ]
}
