{
  "builder_meta": null,
  "nsites": null,
  "elements": null,
  "nelements": null,
  "composition": null,
  "composition_reduced": null,
  "formula_pretty": "Ba2Sb",
  "formula_anonymous": "AB2",
  "chemsys": null,
  "volume": 264.8732978105053,
  "density": 4.970383492699993,
  "density_atomic": 44.145549635084215,
  "symmetry": null,
  "property_name": null,
  "material_id": "mp-9908",
  "deprecated": null,
  "deprecation_reasons": null,
  "last_updated": null,
  "origins": null,
  "warnings": null,
  "structure": {
    "@module": "pymatgen.core.structure",
    "@class": "Structure",
    "charge": 0,
    "lattice": {
      "matrix": [
        [5.08487982, 1e-8, -1.38361589],
        [-0.37648698, 5.07092256, -1.3836159000000001],
        [0.0555801, 0.05985883, 10.23970104]
      ],
      "pbc": [true, true, true],
      "a": 5.269762396437217,
      "b": 5.269761950445132,
      "c": 10.240026836665129,
      "alpha": 104.9106243098644,
      "beta": 104.91061870664468,
      "gamma": 89.99999597983857,
      "volume": 264.8732978105053
    },
    "properties": {},
    "sites": [
      {
        "species": [{ "element": "Ba", "occu": 1 }],
        "abc": [0.31955125, 0.31955125, 0.63910349],
        "properties": { "magmom": 0.0 },
        "label": "Ba",
        "xyz": [1.5400942533975992, 1.6586756330570291, 5.659956293686392]
      },
      {
        "species": [{ "element": "Ba", "occu": 1 }],
        "abc": [0.68044875, 0.68044875, 0.36089651],
        "properties": { "magmom": 0.0 },
        "label": "Ba",
        "xyz": [3.2238786866024016, 3.4721057669429713, 1.8125129563136075]
      },
      {
        "species": [{ "element": "Ba", "occu": 1 }],
        "abc": [-0.0, 0.5, -0.0],
        "properties": { "magmom": 0.0 },
        "label": "Ba",
        "xyz": [-0.18824349, 2.53546128, -0.6918079500000001]
      },
      {
        "species": [{ "element": "Ba", "occu": 1 }],
        "abc": [0.5, 0.0, -0.0],
        "properties": { "magmom": 0.0 },
        "label": "Ba",
        "xyz": [2.54243991, 5e-9, -0.691807945]
      },
      {
        "species": [{ "element": "Sb", "occu": 1 }],
        "abc": [0.8660832700000001, 0.8660832700000001, 0.73216654],
        "properties": { "magmom": 0.0 },
        "label": "Sb",
        "xyz": [4.1185541568216415, 4.435667833791952, 5.1005133235600475]
      },
      {
        "species": [{ "element": "Sb", "occu": 1 }],
        "abc": [0.13391673, 0.13391673, 0.26783346],
        "properties": { "magmom": 0.0 },
        "label": "Sb",
        "xyz": [0.6454187831783593, 0.695113566208048, 2.371955926439952]
      }
    ]
  },
  "task_ids": null,
  "uncorrected_energy_per_atom": null,
  "energy_per_atom": -3.5799996800000002,
  "formation_energy_per_atom": -0.924349306666666,
  "energy_above_hull": 0.025835989444445002,
  "is_stable": false,
  "equilibrium_reaction_energy_per_atom": null,
  "decomposes_to": null,
  "xas": null,
  "grain_boundaries": null,
  "band_gap": 0.0,
  "cbm": null,
  "vbm": null,
  "efermi": 3.45657089,
  "is_gap_direct": null,
  "is_metal": null,
  "es_source_calc_id": null,
  "bandstructure": null,
  "dos": null,
  "dos_energy_up": null,
  "dos_energy_down": null,
  "is_magnetic": null,
  "ordering": null,
  "total_magnetization": 0.002010199999999,
  "total_magnetization_normalized_vol": null,
  "total_magnetization_normalized_formula_units": null,
  "num_magnetic_sites": null,
  "num_unique_magnetic_sites": null,
  "types_of_magnetic_species": null,
  "bulk_modulus": null,
  "shear_modulus": null,
  "universal_anisotropy": null,
  "homogeneous_poisson": null,
  "e_total": null,
  "e_ionic": null,
  "e_electronic": null,
  "n": null,
  "e_ij_max": null,
  "weighted_surface_energy_EV_PER_ANG2": null,
  "weighted_surface_energy": null,
  "weighted_work_function": null,
  "surface_anisotropy": null,
  "shape_factor": null,
  "has_reconstructed": null,
  "possible_species": null,
  "has_props": null,
  "theoretical": null,
  "database_IDs": null,
  "fields_not_requested": [
    "builder_meta",
    "nsites",
    "elements",
    "nelements",
    "composition",
    "composition_reduced",
    "chemsys",
    "symmetry",
    "property_name",
    "deprecated",
    "deprecation_reasons",
    "last_updated",
    "origins",
    "warnings",
    "task_ids",
    "uncorrected_energy_per_atom",
    "equilibrium_reaction_energy_per_atom",
    "decomposes_to",
    "xas",
    "grain_boundaries",
    "cbm",
    "vbm",
    "is_gap_direct",
    "is_metal",
    "es_source_calc_id",
    "bandstructure",
    "dos",
    "dos_energy_up",
    "dos_energy_down",
    "is_magnetic",
    "ordering",
    "total_magnetization_normalized_vol",
    "total_magnetization_normalized_formula_units",
    "num_magnetic_sites",
    "num_unique_magnetic_sites",
    "types_of_magnetic_species",
    "bulk_modulus",
    "shear_modulus",
    "universal_anisotropy",
    "homogeneous_poisson",
    "e_total",
    "e_ionic",
    "e_electronic",
    "n",
    "e_ij_max",
    "weighted_surface_energy_EV_PER_ANG2",
    "weighted_surface_energy",
    "weighted_work_function",
    "surface_anisotropy",
    "shape_factor",
    "has_reconstructed",
    "possible_species",
    "has_props",
    "theoretical",
    "database_IDs"
  ]
}
