{"builder_meta": null, "nsites": null, "elements": null, "nelements": null, "composition": null, "composition_reduced": null, "formula_pretty": "Ba2Sn", "formula_anonymous": "AB2", "chemsys": null, "volume": 538.8964311804323, "density": 4.848399444496157, "density_atomic": 44.90803593170269, "symmetry": null, "property_name": null, "material_id": "mp-1981", "deprecated": null, "deprecation_reasons": null, "last_updated": null, "origins": null, "warnings": null, "structure": {"@module": "pymatgen.core.structure", "@class": "Structure", "charge": 0, "lattice": {"matrix": [[5.68966668, 0.0, 0.0], [0.0, 8.86485732, 0.0], [0.0, 0.0, 10.68431621]], "pbc": [true, true, true], "a": 5.68966668, "b": 8.86485732, "c": 10.68431621, "alpha": 90.0, "beta": 90.0, "gamma": 90.0, "volume": 538.8964311804323}, "properties": {}, "sites": [{"species": [{"element": "Ba", "occu": 1}], "abc": [0.75, 0.84679112, 0.9201867300000001], "properties": {"magmom": 0.0}, "label": "Ba", "xyz": [4.26725001, 7.506682458642999, 9.831565995565894]}, {"species": [{"element": "Ba", "occu": 1}], "abc": [0.25, 0.15320888, 0.07981327], "properties": {"magmom": 0.0}, "label": "Ba", "xyz": [1.42241667, 1.3581748613570015, 0.8527502144341068]}, {"species": [{"element": "Ba", "occu": 1}], "abc": [0.75, 0.34679112, 0.57981327], "properties": {"magmom": 0.0}, "label": "Ba", "xyz": [4.26725001, 3.0742537986429985, 6.1949083194341075]}, {"species": [{"element": "Ba", "occu": 1}], "abc": [0.25, 0.65320888, 0.42018673], "properties": {"magmom": 0.0}, "label": "Ba", "xyz": [1.42241667, 5.790603521357002, 4.489407890565894]}, {"species": [{"element": "Ba", "occu": 1}], "abc": [0.75, 0.97933388, 0.32190994], "properties": {"magmom": 0.0}, "label": "Ba", "xyz": [4.26725001, 8.681655114842002, 3.4393875901021276]}, {"species": [{"element": "Ba", "occu": 1}], "abc": [0.25, 0.02066612, 0.67809006], "properties": {"magmom": 0.0}, "label": "Ba", "xyz": [1.42241667, 0.1832022051579984, 7.244928619897873]}, {"species": [{"element": "Ba", "occu": 1}], "abc": [0.75, 0.47933388, 0.17809006], "properties": {"magmom": 0.0}, "label": "Ba", "xyz": [4.26725001, 4.249226454842002, 1.9027705148978726]}, {"species": [{"element": "Ba", "occu": 1}], "abc": [0.25, 0.52066612, 0.8219099400000001], "properties": {"magmom": 0.0}, "label": "Ba", "xyz": [1.42241667, 4.615630865157999, 8.781545695102128]}, {"species": [{"element": "Sn", "occu": 1}], "abc": [0.75, 0.7505127500000001, 0.60222559], "properties": {"magmom": -0.0}, "label": "Sn", "xyz": [4.26725001, 6.653188445590831, 6.434368633313814]}, {"species": [{"element": "Sn", "occu": 1}], "abc": [0.25, 0.24948725, 0.39777441], "properties": {"magmom": -0.0}, "label": "Sn", "xyz": [1.42241667, 2.21166887440917, 4.2499475766861865]}, {"species": [{"element": "Sn", "occu": 1}], "abc": [0.75, 0.25051275, 0.89777441], "properties": {"magmom": -0.0}, "label": "Sn", "xyz": [4.26725001, 2.2207597855908303, 9.592105681686187]}, {"species": [{"element": "Sn", "occu": 1}], "abc": [0.25, 0.74948725, 0.10222559], "properties": {"magmom": -0.0}, "label": "Sn", "xyz": [1.42241667, 6.644097534409171, 1.092210528313814]}]}, "task_ids": null, "uncorrected_energy_per_atom": null, "energy_per_atom": -3.223653363333336, "formation_energy_per_atom": -0.607812785000002, "energy_above_hull": 0.0, "is_stable": true, "equilibrium_reaction_energy_per_atom": null, "decomposes_to": null, "xas": null, "grain_boundaries": null, "band_gap": 0.0, "cbm": null, "vbm": null, "efermi": 3.06096002, "is_gap_direct": null, "is_metal": null, "es_source_calc_id": null, "bandstructure": null, "dos": null, "dos_energy_up": null, "dos_energy_down": null, "is_magnetic": null, "ordering": null, "total_magnetization": 0.0, "total_magnetization_normalized_vol": null, "total_magnetization_normalized_formula_units": null, "num_magnetic_sites": null, "num_unique_magnetic_sites": null, "types_of_magnetic_species": null, "bulk_modulus": null, "shear_modulus": null, "universal_anisotropy": null, "homogeneous_poisson": null, "e_total": null, "e_ionic": null, "e_electronic": null, "n": null, "e_ij_max": null, "weighted_surface_energy_EV_PER_ANG2": null, "weighted_surface_energy": null, "weighted_work_function": null, "surface_anisotropy": null, "shape_factor": null, "has_reconstructed": null, "possible_species": null, "has_props": null, "theoretical": null, "database_IDs": null, "fields_not_requested": ["builder_meta", "nsites", "elements", "nelements", "composition", "composition_reduced", "chemsys", "symmetry", "property_name", "deprecated", "deprecation_reasons", "last_updated", "origins", "warnings", "task_ids", "uncorrected_energy_per_atom", "equilibrium_reaction_energy_per_atom", "decomposes_to", "xas", "grain_boundaries", "cbm", "vbm", "is_gap_direct", "is_metal", "es_source_calc_id", "bandstructure", "dos", "dos_energy_up", "dos_energy_down", "is_magnetic", "ordering", "total_magnetization_normalized_vol", "total_magnetization_normalized_formula_units", "num_magnetic_sites", "num_unique_magnetic_sites", "types_of_magnetic_species", "bulk_modulus", "shear_modulus", "universal_anisotropy", "homogeneous_poisson", "e_total", "e_ionic", "e_electronic", "n", "e_ij_max", "weighted_surface_energy_EV_PER_ANG2", "weighted_surface_energy", "weighted_work_function", "surface_anisotropy", "shape_factor", "has_reconstructed", "possible_species", "has_props", "theoretical", "database_IDs"]}