{"builder_meta": null, "nsites": null, "elements": null, "nelements": null, "composition": null, "composition_reduced": null, "formula_pretty": "Ba2Si", "formula_anonymous": "AB2", "chemsys": null, "volume": 470.29830541297645, "density": 4.275675765503873, "density_atomic": 39.19152545108137, "symmetry": null, "property_name": null, "material_id": "mp-9905", "deprecated": null, "deprecation_reasons": null, "last_updated": null, "origins": null, "warnings": null, "structure": {"@module": "pymatgen.core.structure", "@class": "Structure", "charge": 0, "lattice": {"matrix": [[5.42514614, -0.0, 0.0], [-0.0, 8.52922761, 0.0], [0.0, 0.0, 10.16371008]], "pbc": [true, true, true], "a": 5.42514614, "b": 8.52922761, "c": 10.16371008, "alpha": 90.0, "beta": 90.0, "gamma": 90.0, "volume": 470.29830541297645}, "properties": {}, "sites": [{"species": [{"element": "Ba", "occu": 1}], "abc": [0.75, 0.47911895, 0.32929468], "properties": {"magmom": 0.0}, "label": "Ba", "xyz": [4.068859605, 4.086514576814209, 3.3468556584063744]}, {"species": [{"element": "Ba", "occu": 1}], "abc": [0.25, 0.52088105, 0.67070532], "properties": {"magmom": 0.0}, "label": "Ba", "xyz": [1.356286535, 4.44271303318579, 6.816854421593626]}, {"species": [{"element": "Ba", "occu": 1}], "abc": [0.75, 0.97911895, 0.17070532], "properties": {"magmom": 0.0}, "label": "Ba", "xyz": [4.068859605, 8.35112838181421, 1.7349993815936255]}, {"species": [{"element": "Ba", "occu": 1}], "abc": [0.25, 0.02088105, 0.8292946800000001], "properties": {"magmom": 0.0}, "label": "Ba", "xyz": [1.356286535, 0.1780992281857905, 8.428710698406375]}, {"species": [{"element": "Ba", "occu": 1}], "abc": [0.25, 0.1456689, 0.41745112], "properties": {"magmom": 0.0}, "label": "Ba", "xyz": [1.356286535, 1.2424432037983288, 4.242852156251289]}, {"species": [{"element": "Ba", "occu": 1}], "abc": [0.75, 0.8543311, 0.58254888], "properties": {"magmom": 0.0}, "label": "Ba", "xyz": [4.068859605, 7.2867844062016704, 5.92085792374871]}, {"species": [{"element": "Ba", "occu": 1}], "abc": [0.25, 0.6456689, 0.08254888], "properties": {"magmom": 0.0}, "label": "Ba", "xyz": [1.356286535, 5.507057008798329, 0.8390028837487105]}, {"species": [{"element": "Ba", "occu": 1}], "abc": [0.75, 0.3543311, 0.9174511200000001], "properties": {"magmom": 0.0}, "label": "Ba", "xyz": [4.068859605, 3.0221706012016707, 9.324707196251289]}, {"species": [{"element": "Si", "occu": 1}], "abc": [0.25, 0.74912053, 0.39910882000000003], "properties": {"magmom": 0.0}, "label": "Si", "xyz": [1.356286535, 6.389419507693833, 4.0564263368509055]}, {"species": [{"element": "Si", "occu": 1}], "abc": [0.75, 0.25087947, 0.60089118], "properties": {"magmom": 0.0}, "label": "Si", "xyz": [4.068859605, 2.1398081023061666, 6.107283743149094]}, {"species": [{"element": "Si", "occu": 1}], "abc": [0.25, 0.24912053, 0.10089218], "properties": {"magmom": 0.0}, "label": "Si", "xyz": [1.356286535, 2.124805702693833, 1.0254388668591743]}, {"species": [{"element": "Si", "occu": 1}], "abc": [0.75, 0.75087947, 0.89910882], "properties": {"magmom": 0.0}, "label": "Si", "xyz": [4.068859605, 6.404421907306166, 9.138281376850905]}]}, "task_ids": null, "uncorrected_energy_per_atom": null, "energy_per_atom": -3.377890782500001, "formation_energy_per_atom": -0.290134812500001, "energy_above_hull": 0.0, "is_stable": true, "equilibrium_reaction_energy_per_atom": null, "decomposes_to": null, "xas": null, "grain_boundaries": null, "band_gap": 0.0, "cbm": null, "vbm": null, "efermi": 2.85219609, "is_gap_direct": null, "is_metal": null, "es_source_calc_id": null, "bandstructure": null, "dos": null, "dos_energy_up": null, "dos_energy_down": null, "is_magnetic": null, "ordering": null, "total_magnetization": 0.0, "total_magnetization_normalized_vol": null, "total_magnetization_normalized_formula_units": null, "num_magnetic_sites": null, "num_unique_magnetic_sites": null, "types_of_magnetic_species": null, "bulk_modulus": null, "shear_modulus": null, "universal_anisotropy": null, "homogeneous_poisson": null, "e_total": null, "e_ionic": null, "e_electronic": null, "n": null, "e_ij_max": null, "weighted_surface_energy_EV_PER_ANG2": null, "weighted_surface_energy": null, "weighted_work_function": null, "surface_anisotropy": null, "shape_factor": null, "has_reconstructed": null, "possible_species": null, "has_props": null, "theoretical": null, "database_IDs": null, "fields_not_requested": ["builder_meta", "nsites", "elements", "nelements", "composition", "composition_reduced", "chemsys", "symmetry", "property_name", "deprecated", "deprecation_reasons", "last_updated", "origins", "warnings", "task_ids", "uncorrected_energy_per_atom", "equilibrium_reaction_energy_per_atom", "decomposes_to", "xas", "grain_boundaries", "cbm", "vbm", "is_gap_direct", "is_metal", "es_source_calc_id", "bandstructure", "dos", "dos_energy_up", "dos_energy_down", "is_magnetic", "ordering", "total_magnetization_normalized_vol", "total_magnetization_normalized_formula_units", "num_magnetic_sites", "num_unique_magnetic_sites", "types_of_magnetic_species", "bulk_modulus", "shear_modulus", "universal_anisotropy", "homogeneous_poisson", "e_total", "e_ionic", "e_electronic", "n", "e_ij_max", "weighted_surface_energy_EV_PER_ANG2", "weighted_surface_energy", "weighted_work_function", "surface_anisotropy", "shape_factor", "has_reconstructed", "possible_species", "has_props", "theoretical", "database_IDs"]}