{"builder_meta": null, "nsites": null, "elements": null, "nelements": null, "composition": null, "composition_reduced": null, "formula_pretty": "Ba3Ac", "formula_anonymous": "AB3", "chemsys": null, "volume": 457.60201401013575, "density": 4.637448616175158, "density_atomic": 57.20025175126697, "symmetry": null, "property_name": null, "material_id": "mp-1183376", "deprecated": null, "deprecation_reasons": null, "last_updated": null, "origins": null, "warnings": null, "structure": {"@module": "pymatgen.core.structure", "@class": "Structure", "charge": 0, "lattice": {"matrix": [[4.364217, -7.559045, 0.0], [4.364217, 7.559045, 0.0], [0.0, 0.0, 6.9356100000000005]], "pbc": [true, true, true], "a": 8.728433498349746, "b": 8.728433498349746, "c": 6.9356100000000005, "alpha": 90.0, "beta": 90.0, "gamma": 119.99999619760936, "volume": 457.6020140101358}, "properties": {}, "sites": [{"species": [{"element": "Ba", "occu": 1}], "abc": [0.170665999999999, 0.341331999999999, 0.25], "properties": {"magmom": 0.008}, "label": "Ba", "xyz": [2.2344703755659916, 1.2900719739700002, 1.7339025000000001]}, {"species": [{"element": "Ba", "occu": 1}], "abc": [0.658667999999999, 0.829334, 0.25], "properties": {"magmom": 0.009000000000000001}, "label": "Ba", "xyz": [6.493963624433996, 1.290071973970007, 1.7339025000000001]}, {"species": [{"element": "Ba", "occu": 1}], "abc": [0.170665999999999, 0.829334, 0.25], "properties": {"magmom": 0.009000000000000001}, "label": "Ba", "xyz": [4.3642169999999965, 4.978901052060007, 1.7339025000000001]}, {"species": [{"element": "Ba", "occu": 1}], "abc": [0.829334, 0.658667999999999, 0.75], "properties": {"magmom": 0.008}, "label": "Ba", "xyz": [6.493963624433996, -1.290071973970007, 5.2017075]}, {"species": [{"element": "Ba", "occu": 1}], "abc": [0.341331999999999, 0.170665999999999, 0.75], "properties": {"magmom": 0.008}, "label": "Ba", "xyz": [2.2344703755659916, -1.2900719739700002, 5.2017075]}, {"species": [{"element": "Ba", "occu": 1}], "abc": [0.829334, 0.170665999999999, 0.75], "properties": {"magmom": 0.009000000000000001}, "label": "Ba", "xyz": [4.3642169999999965, -4.978901052060007, 5.2017075]}, {"species": [{"element": "Ac", "occu": 1}], "abc": [0.333333, 0.666667, 0.75], "properties": {"magmom": 0.013000000000000001}, "label": "Ac", "xyz": [4.364217, 2.51968670603, 5.2017075]}, {"species": [{"element": "Ac", "occu": 1}], "abc": [0.666667, 0.333333, 0.25], "properties": {"magmom": 0.042}, "label": "Ac", "xyz": [4.364217, -2.51968670603, 1.7339025000000001]}]}, "task_ids": null, "uncorrected_energy_per_atom": null, "energy_per_atom": -2.3627261275, "formation_energy_per_atom": 0.106798829374999, "energy_above_hull": 0.106798829374999, "is_stable": false, "equilibrium_reaction_energy_per_atom": null, "decomposes_to": null, "xas": null, "grain_boundaries": null, "band_gap": 0.0, "cbm": null, "vbm": null, "efermi": 2.63557881, "is_gap_direct": null, "is_metal": null, "es_source_calc_id": null, "bandstructure": null, "dos": null, "dos_energy_up": null, "dos_energy_down": null, "is_magnetic": null, "ordering": null, "total_magnetization": 0.326235699999999, "total_magnetization_normalized_vol": null, "total_magnetization_normalized_formula_units": null, "num_magnetic_sites": null, "num_unique_magnetic_sites": null, "types_of_magnetic_species": null, "bulk_modulus": null, "shear_modulus": null, "universal_anisotropy": null, "homogeneous_poisson": null, "e_total": null, "e_ionic": null, "e_electronic": null, "n": null, "e_ij_max": null, "weighted_surface_energy_EV_PER_ANG2": null, "weighted_surface_energy": null, "weighted_work_function": null, "surface_anisotropy": null, "shape_factor": null, "has_reconstructed": null, "possible_species": null, "has_props": null, "theoretical": null, "database_IDs": null, "fields_not_requested": ["builder_meta", "nsites", "elements", "nelements", "composition", "composition_reduced", "chemsys", "symmetry", "property_name", "deprecated", "deprecation_reasons", "last_updated", "origins", "warnings", "task_ids", "uncorrected_energy_per_atom", "equilibrium_reaction_energy_per_atom", "decomposes_to", "xas", "grain_boundaries", "cbm", "vbm", "is_gap_direct", "is_metal", "es_source_calc_id", "bandstructure", "dos", "dos_energy_up", "dos_energy_down", "is_magnetic", "ordering", "total_magnetization_normalized_vol", "total_magnetization_normalized_formula_units", "num_magnetic_sites", "num_unique_magnetic_sites", "types_of_magnetic_species", "bulk_modulus", "shear_modulus", "universal_anisotropy", "homogeneous_poisson", "e_total", "e_ionic", "e_electronic", "n", "e_ij_max", "weighted_surface_energy_EV_PER_ANG2", "weighted_surface_energy", "weighted_work_function", "surface_anisotropy", "shape_factor", "has_reconstructed", "possible_species", "has_props", "theoretical", "database_IDs"]}