{"builder_meta": null, "nsites": null, "elements": null, "nelements": null, "composition": null, "composition_reduced": null, "formula_pretty": "Ba3Al5", "formula_anonymous": "A3B5", "chemsys": null, "volume": 473.4422825548602, "density": 3.836286167377051, "density_atomic": 29.59014265967876, "symmetry": null, "property_name": null, "material_id": "mp-261", "deprecated": null, "deprecation_reasons": null, "last_updated": null, "origins": null, "warnings": null, "structure": {"@module": "pymatgen.core.structure", "@class": "Structure", "charge": 0, "lattice": {"matrix": [[6.07529737, -2e-08, -0.0], [-3.03765022, 5.26136356, -0.0], [-0.0, -0.0, 14.81157321]], "pbc": [true, true, true], "a": 6.07529737, "b": 6.07529961150575, "c": 14.81157321, "alpha": 90.0, "beta": 90.0, "gamma": 120.00000469973297, "volume": 473.4422825548602}, "properties": {}, "sites": [{"species": [{"element": "Ba", "occu": 1}], "abc": [0.0, 0.0, 0.5], "properties": {"magmom": -0.0}, "label": "Ba", "xyz": [0.0, 0.0, 7.405786605]}, {"species": [{"element": "Ba", "occu": 1}], "abc": [0.0, 0.0, -0.0], "properties": {"magmom": -0.0}, "label": "Ba", "xyz": [0.0, 0.0, 0.0]}, {"species": [{"element": "Ba", "occu": 1}], "abc": [0.333333, 0.666667, 0.8739933], "properties": {"magmom": 0.0}, "label": "Ba", "xyz": [-4.0609825298076885e-06, 3.50757745378786, 12.945215747999493]}, {"species": [{"element": "Ba", "occu": 1}], "abc": [0.666667, 0.333333, 0.3739933], "properties": {"magmom": 0.0}, "label": "Ba", "xyz": [3.0376512109825304, 1.7537860862121402, 5.539429142999492]}, {"species": [{"element": "Ba", "occu": 1}], "abc": [0.666667, 0.333333, 0.1260067], "properties": {"magmom": 0.0}, "label": "Ba", "xyz": [3.0376512109825304, 1.7537860862121402, 1.866357462000507]}, {"species": [{"element": "Ba", "occu": 1}], "abc": [0.333333, 0.666667, 0.6260067], "properties": {"magmom": 0.0}, "label": "Ba", "xyz": [-4.0609825298076885e-06, 3.50757745378786, 9.272144067000507]}, {"species": [{"element": "Al", "occu": 1}], "abc": [0.84513673, 0.69027245, 0.75], "properties": {"magmom": 0.0}, "label": "Al", "xyz": [3.0376506934569614, 3.6317742979991876, 11.108679907500001]}, {"species": [{"element": "Al", "occu": 1}], "abc": [0.15486327, 0.84513673, 0.25], "properties": {"magmom": 0.0}, "label": "Al", "xyz": [-1.6263893568739807, 4.446571591342294, 3.7028933025]}, {"species": [{"element": "Al", "occu": 1}], "abc": [0.69027245, 0.84513673, 0.25], "properties": {"magmom": 0.0}, "label": "Al", "xyz": [1.6263806262538765, 4.44657158063411, 3.7028933025]}, {"species": [{"element": "Al", "occu": 1}], "abc": [0.30972755, 0.15486327, 0.75], "properties": {"magmom": 0.0}, "label": "Al", "xyz": [1.4112665237461244, 0.8147919593658902, 11.108679907500001]}, {"species": [{"element": "Al", "occu": 1}], "abc": [0.84513673, 0.15486327, 0.75], "properties": {"magmom": 0.0}, "label": "Al", "xyz": [4.664036506873981, 0.8147919486577067, 11.108679907500001]}, {"species": [{"element": "Al", "occu": 1}], "abc": [0.15486327, 0.30972755, 0.25], "properties": {"magmom": 0.0}, "label": "Al", "xyz": [-3.5434569611858535e-06, 1.629589242000813, 3.7028933025]}, {"species": [{"element": "Al", "occu": 1}], "abc": [0.333333, 0.666667, 0.11714932], "properties": {"magmom": 0.0}, "label": "Al", "xyz": [-4.0609825298076885e-06, 3.50757745378786, 1.7351657296817173]}, {"species": [{"element": "Al", "occu": 1}], "abc": [0.666667, 0.333333, 0.61714932], "properties": {"magmom": 0.0}, "label": "Al", "xyz": [3.0376512109825304, 1.7537860862121402, 9.140952334681717]}, {"species": [{"element": "Al", "occu": 1}], "abc": [0.666667, 0.333333, 0.88285068], "properties": {"magmom": 0.0}, "label": "Al", "xyz": [3.0376512109825304, 1.7537860862121402, 13.076407480318283]}, {"species": [{"element": "Al", "occu": 1}], "abc": [0.333333, 0.666667, 0.38285068], "properties": {"magmom": 0.0}, "label": "Al", "xyz": [-4.0609825298076885e-06, 3.50757745378786, 5.670620875318283]}]}, "task_ids": null, "uncorrected_energy_per_atom": null, "energy_per_atom": -3.290806861874999, "formation_energy_per_atom": -0.23020636562499902, "energy_above_hull": 0.007397125714286, "is_stable": false, "equilibrium_reaction_energy_per_atom": null, "decomposes_to": null, "xas": null, "grain_boundaries": null, "band_gap": 0.0, "cbm": null, "vbm": null, "efermi": 3.89715732, "is_gap_direct": null, "is_metal": null, "es_source_calc_id": null, "bandstructure": null, "dos": null, "dos_energy_up": null, "dos_energy_down": null, "is_magnetic": null, "ordering": null, "total_magnetization": 9e-07, "total_magnetization_normalized_vol": null, "total_magnetization_normalized_formula_units": null, "num_magnetic_sites": null, "num_unique_magnetic_sites": null, "types_of_magnetic_species": null, "bulk_modulus": null, "shear_modulus": null, "universal_anisotropy": null, "homogeneous_poisson": null, "e_total": null, "e_ionic": null, "e_electronic": null, "n": null, "e_ij_max": null, "weighted_surface_energy_EV_PER_ANG2": null, "weighted_surface_energy": null, "weighted_work_function": null, "surface_anisotropy": null, "shape_factor": null, "has_reconstructed": null, "possible_species": null, "has_props": null, "theoretical": null, "database_IDs": null, "fields_not_requested": ["builder_meta", "nsites", "elements", "nelements", "composition", "composition_reduced", "chemsys", "symmetry", "property_name", "deprecated", "deprecation_reasons", "last_updated", "origins", "warnings", "task_ids", "uncorrected_energy_per_atom", "equilibrium_reaction_energy_per_atom", "decomposes_to", "xas", "grain_boundaries", "cbm", "vbm", "is_gap_direct", "is_metal", "es_source_calc_id", "bandstructure", "dos", "dos_energy_up", "dos_energy_down", "is_magnetic", "ordering", "total_magnetization_normalized_vol", "total_magnetization_normalized_formula_units", "num_magnetic_sites", "num_unique_magnetic_sites", "types_of_magnetic_species", "bulk_modulus", "shear_modulus", "universal_anisotropy", "homogeneous_poisson", "e_total", "e_ionic", "e_electronic", "n", "e_ij_max", "weighted_surface_energy_EV_PER_ANG2", "weighted_surface_energy", "weighted_work_function", "surface_anisotropy", "shape_factor", "has_reconstructed", "possible_species", "has_props", "theoretical", "database_IDs"]}