{
  "builder_meta": null,
  "nsites": null,
  "elements": null,
  "nelements": null,
  "composition": null,
  "composition_reduced": null,
  "formula_pretty": "Ba3Ag2",
  "formula_anonymous": "A2B3",
  "chemsys": null,
  "volume": 626.9636078053942,
  "density": 4.987606549285319,
  "density_atomic": 41.797573853692946,
  "symmetry": null,
  "property_name": null,
  "material_id": "mp-12612",
  "deprecated": null,
  "deprecation_reasons": null,
  "last_updated": null,
  "origins": null,
  "warnings": null,
  "structure": {
    "@module": "pymatgen.core.structure",
    "@class": "Structure",
    "charge": 0,
    "lattice": {
      "matrix": [
        [8.4942956, -0.02593082, 2.67578855],
        [1.95491675, 8.26631534, 2.67579986],
        [-0.03288345, -0.02594415, 8.90571762]
      ],
      "pbc": [true, true, true],
      "a": 8.905816891892417,
      "b": 8.905816845777029,
      "c": 8.905816119108994,
      "alpha": 72.72624622653063,
      "beta": 72.72624842409893,
      "gamma": 72.72625381578789,
      "volume": 626.9636078053942
    },
    "properties": {},
    "sites": [
      {
        "species": [{ "element": "Ba", "occu": 1 }],
        "abc": [0.5, 0.5, 0.5],
        "properties": { "magmom": 0.0 },
        "label": "Ba",
        "xyz": [5.20816445, 4.107220185, 7.128653015]
      },
      {
        "species": [{ "element": "Ba", "occu": 1 }],
        "abc": [0.29384659, 0.29384659, 0.29384659],
        "properties": { "magmom": -0.0 },
        "label": "Ba",
        "xyz": [3.060802727583451, 2.413785291482839, 4.189460759501938]
      },
      {
        "species": [{ "element": "Ba", "occu": 1 }],
        "abc": [0.70615341, 0.70615341, 0.70615341],
        "properties": { "magmom": -0.0 },
        "label": "Ba",
        "xyz": [7.355526172416547, 5.800655078517162, 10.067845270498063]
      },
      {
        "species": [{ "element": "Ba", "occu": 1 }],
        "abc": [0.33530916, 0.83099244, 0.11474146],
        "properties": { "magmom": -0.0 },
        "label": "Ba",
        "xyz": [4.468963067444228, 6.85757384307426, 4.142640907717702]
      },
      {
        "species": [{ "element": "Ba", "occu": 1 }],
        "abc": [0.11474146, 0.33530916, 0.83099244],
        "properties": { "magmom": -0.0 },
        "label": "Ba",
        "xyz": [1.602823473776888, 2.7472365202924913, 8.604828103257795]
      },
      {
        "species": [{ "element": "Ba", "occu": 1 }],
        "abc": [0.83099244, 0.11474146, 0.33530916],
        "properties": { "magmom": -0.0 },
        "label": "Ba",
        "xyz": [7.271979306801318, 0.9182414644055815, 5.516753933052158]
      },
      {
        "species": [{ "element": "Ba", "occu": 1 }],
        "abc": [0.66469084, 0.16900756, 0.88525854],
        "properties": { "magmom": -0.0 },
        "label": "Ba",
        "xyz": [5.947365832555771, 1.3568665269257407, 10.1146651222823]
      },
      {
        "species": [{ "element": "Ba", "occu": 1 }],
        "abc": [0.88525854, 0.66469084, 0.16900756],
        "properties": { "magmom": -0.0 },
        "label": "Ba",
        "xyz": [8.813505426223111, 5.467203849707509, 5.652477926742208]
      },
      {
        "species": [{ "element": "Ba", "occu": 1 }],
        "abc": [0.16900756, 0.88525854, 0.66469084],
        "properties": { "magmom": -0.0 },
        "label": "Ba",
        "xyz": [3.1443495931986827, 7.2961989055944185, 8.740552096947845]
      },
      {
        "species": [{ "element": "Ag", "occu": 1 }],
        "abc": [0.63166104, 0.46397852, 0.08853504],
        "properties": { "magmom": -0.0 },
        "label": "Ag",
        "xyz": [6.269643635590546, 3.816716302219228, 3.720173102887504]
      },
      {
        "species": [{ "element": "Ag", "occu": 1 }],
        "abc": [0.08853504, 0.63166104, 0.46397852],
        "properties": { "magmom": -0.0 },
        "label": "Ag",
        "xyz": [1.97163033367275, 5.207176030126764, 6.059161249570769]
      },
      {
        "species": [{ "element": "Ag", "occu": 1 }],
        "abc": [0.46397852, 0.08853504, 0.63166104],
        "properties": { "magmom": -0.0 },
        "label": "Ag",
        "xyz": [4.093478139362643, 0.7034393070226111, 7.103805312694566]
      },
      {
        "species": [{ "element": "Ag", "occu": 1 }],
        "abc": [0.36833896, 0.53602148, 0.91146496],
        "properties": { "magmom": -0.0 },
        "label": "Ag",
        "xyz": [4.146685264409453, 4.397724067780773, 10.537132927112497]
      },
      {
        "species": [{ "element": "Ag", "occu": 1 }],
        "abc": [0.91146496, 0.36833896, 0.53602148],
        "properties": { "magmom": -0.0 },
        "label": "Ag",
        "xyz": [8.444698566327249, 3.0072643398732373, 8.198144780429232]
      },
      {
        "species": [{ "element": "Ag", "occu": 1 }],
        "abc": [0.53602148, 0.91146496, 0.36833896],
        "properties": { "magmom": -0.0 },
        "label": "Ag",
        "xyz": [6.322850760637356, 7.51100106297739, 7.153500717305436]
      }
    ]
  },
  "task_ids": null,
  "uncorrected_energy_per_atom": null,
  "energy_per_atom": -2.513397433333333,
  "formation_energy_per_atom": -0.22483739799999902,
  "energy_above_hull": 0.0,
  "is_stable": true,
  "equilibrium_reaction_energy_per_atom": null,
  "decomposes_to": null,
  "xas": null,
  "grain_boundaries": null,
  "band_gap": 0.0,
  "cbm": null,
  "vbm": null,
  "efermi": 2.240065689999999,
  "is_gap_direct": null,
  "is_metal": null,
  "es_source_calc_id": null,
  "bandstructure": null,
  "dos": null,
  "dos_energy_up": null,
  "dos_energy_down": null,
  "is_magnetic": null,
  "ordering": null,
  "total_magnetization": 0.0031642,
  "total_magnetization_normalized_vol": null,
  "total_magnetization_normalized_formula_units": null,
  "num_magnetic_sites": null,
  "num_unique_magnetic_sites": null,
  "types_of_magnetic_species": null,
  "bulk_modulus": null,
  "shear_modulus": null,
  "universal_anisotropy": null,
  "homogeneous_poisson": null,
  "e_total": null,
  "e_ionic": null,
  "e_electronic": null,
  "n": null,
  "e_ij_max": null,
  "weighted_surface_energy_EV_PER_ANG2": null,
  "weighted_surface_energy": null,
  "weighted_work_function": null,
  "surface_anisotropy": null,
  "shape_factor": null,
  "has_reconstructed": null,
  "possible_species": null,
  "has_props": null,
  "theoretical": null,
  "database_IDs": null,
  "fields_not_requested": [
    "builder_meta",
    "nsites",
    "elements",
    "nelements",
    "composition",
    "composition_reduced",
    "chemsys",
    "symmetry",
    "property_name",
    "deprecated",
    "deprecation_reasons",
    "last_updated",
    "origins",
    "warnings",
    "task_ids",
    "uncorrected_energy_per_atom",
    "equilibrium_reaction_energy_per_atom",
    "decomposes_to",
    "xas",
    "grain_boundaries",
    "cbm",
    "vbm",
    "is_gap_direct",
    "is_metal",
    "es_source_calc_id",
    "bandstructure",
    "dos",
    "dos_energy_up",
    "dos_energy_down",
    "is_magnetic",
    "ordering",
    "total_magnetization_normalized_vol",
    "total_magnetization_normalized_formula_units",
    "num_magnetic_sites",
    "num_unique_magnetic_sites",
    "types_of_magnetic_species",
    "bulk_modulus",
    "shear_modulus",
    "universal_anisotropy",
    "homogeneous_poisson",
    "e_total",
    "e_ionic",
    "e_electronic",
    "n",
    "e_ij_max",
    "weighted_surface_energy_EV_PER_ANG2",
    "weighted_surface_energy",
    "weighted_work_function",
    "surface_anisotropy",
    "shape_factor",
    "has_reconstructed",
    "possible_species",
    "has_props",
    "theoretical",
    "database_IDs"
  ]
}
