{
  "builder_meta": null,
  "nsites": null,
  "elements": null,
  "nelements": null,
  "composition": null,
  "composition_reduced": null,
  "formula_pretty": "Ba3Au2",
  "formula_anonymous": "A2B3",
  "chemsys": null,
  "volume": 580.7151942947219,
  "density": 6.913467687544681,
  "density_atomic": 38.71434628631479,
  "symmetry": null,
  "property_name": null,
  "material_id": "mp-1104164",
  "deprecated": null,
  "deprecation_reasons": null,
  "last_updated": null,
  "origins": null,
  "warnings": null,
  "structure": {
    "@module": "pymatgen.core.structure",
    "@class": "Structure",
    "charge": 0,
    "lattice": {
      "matrix": [
        [5.05916689, 2.92089152, 6.54961774],
        [-5.05914962, 2.92092306, 6.54961775],
        [-1.8310000000000003e-5, -5.84181353, 6.54961773]
      ],
      "pbc": [true, true, true],
      "a": 8.776347157707635,
      "b": 8.776347706825486,
      "c": 8.776347630350376,
      "alpha": 70.40301456110546,
      "beta": 70.40301413841995,
      "gamma": 70.40300364624461,
      "volume": 580.7151942947219
    },
    "properties": {},
    "sites": [
      {
        "species": [{ "element": "Ba", "occu": 1 }],
        "abc": [-0.0, -0.0, 0.0],
        "properties": { "magmom": -0.007 },
        "label": "Ba",
        "xyz": [0.0, 0.0, 0.0]
      },
      {
        "species": [{ "element": "Ba", "occu": 1 }],
        "abc": [0.80319419, 0.80319419, 0.80319419],
        "properties": { "magmom": -0.009000000000000001 },
        "label": "Ba",
        "xyz": [-8.353219576501505e-7, 8.43353900492616e-7, 15.781844746466792]
      },
      {
        "species": [{ "element": "Ba", "occu": 1 }],
        "abc": [0.19680581, 0.19680581, 0.19680581],
        "properties": { "magmom": -0.009000000000000001 },
        "label": "Ba",
        "xyz": [-2.0467804239170075e-7, 2.06646100675556e-7, 3.8670084735332084]
      },
      {
        "species": [{ "element": "Ba", "occu": 1 }],
        "abc": [0.59661439, 0.3272757, 0.85137699],
        "properties": { "magmom": 0.005 },
        "label": "Ba",
        "xyz": [1.3626194459826262, -2.274992567744059, 11.627320755164988]
      },
      {
        "species": [{ "element": "Ba", "occu": 1 }],
        "abc": [0.3272757, 0.85137699, 0.59661439],
        "properties": { "magmom": 0.005 },
        "label": "Ba",
        "xyz": [-2.651512114103152, -0.04256651601824357, 11.627320762953627]
      },
      {
        "species": [{ "element": "Ba", "occu": 1 }],
        "abc": [0.85137699, 0.59661439, 0.3272757],
        "properties": { "magmom": 0.005 },
        "label": "Ba",
        "xyz": [1.2888908218427617, 2.317560947792737, 11.627320763099387]
      },
      {
        "species": [{ "element": "Ba", "occu": 1 }],
        "abc": [0.40338561, 0.672724299999999, 0.14862301],
        "properties": { "magmom": 0.005 },
        "label": "Ba",
        "xyz": [-1.3626204859826216, 2.2749936177440575, 8.021532464835008]
      },
      {
        "species": [{ "element": "Ba", "occu": 1 }],
        "abc": [0.672724299999999, 0.14862301, 0.40338561],
        "properties": { "magmom": 0.005 },
        "label": "Ba",
        "xyz": [2.651511074103147, 0.04256756601824074, 8.02153245704637]
      },
      {
        "species": [{ "element": "Ba", "occu": 1 }],
        "abc": [0.14862301, 0.40338561, 0.672724299999999],
        "properties": { "magmom": 0.005 },
        "label": "Ba",
        "xyz": [-1.2888918618427627, -2.3175598977927314, 8.021532456900609]
      },
      {
        "species": [{ "element": "Au", "occu": 1 }],
        "abc": [0.9530852400000001, 0.16956018, 0.5930539300000001],
        "properties": { "magmom": -0.001 },
        "label": "Au",
        "xyz": [3.9639761105241145, -0.18537963712075722, 11.237174895031533]
      },
      {
        "species": [{ "element": "Au", "occu": 1 }],
        "abc": [0.16956018, 0.5930539300000001, 0.9530852400000001],
        "properties": { "magmom": -0.001 },
        "label": "Au",
        "xyz": [-2.1425327670713115, -3.340214458422998, 11.237174895666158]
      },
      {
        "species": [{ "element": "Au", "occu": 1 }],
        "abc": [0.5930539300000001, 0.9530852400000001, 0.16956018],
        "properties": { "magmom": -0.001 },
        "label": "Au",
        "xyz": [-1.821445127780127, 3.525595897028073, 11.237174907101721]
      },
      {
        "species": [{ "element": "Au", "occu": 1 }],
        "abc": [0.04691476, 0.83043982, 0.40694607],
        "properties": { "magmom": -0.001 },
        "label": "Au",
        "xyz": [-3.963977150524114, 0.1853806871207575, 8.411678324968468]
      },
      {
        "species": [{ "element": "Au", "occu": 1 }],
        "abc": [0.83043982, 0.40694607, 0.04691476],
        "properties": { "magmom": -0.001 },
        "label": "Au",
        "xyz": [2.142531727071311, 3.3402155084229985, 8.411678324333845]
      },
      {
        "species": [{ "element": "Au", "occu": 1 }],
        "abc": [0.40694607, 0.04691476, 0.83043982],
        "properties": { "magmom": -0.001 },
        "label": "Au",
        "xyz": [1.8214440877801268, -3.5255948470280725, 8.41167831289828]
      }
    ]
  },
  "task_ids": null,
  "uncorrected_energy_per_atom": null,
  "energy_per_atom": -3.066960610666672,
  "formation_energy_per_atom": -0.6060228466666711,
  "energy_above_hull": 0.0,
  "is_stable": true,
  "equilibrium_reaction_energy_per_atom": null,
  "decomposes_to": null,
  "xas": null,
  "grain_boundaries": null,
  "band_gap": 0.0,
  "cbm": null,
  "vbm": null,
  "efermi": 2.811774589999999,
  "is_gap_direct": null,
  "is_metal": null,
  "es_source_calc_id": null,
  "bandstructure": null,
  "dos": null,
  "dos_energy_up": null,
  "dos_energy_down": null,
  "is_magnetic": null,
  "ordering": null,
  "total_magnetization": 0.0109184,
  "total_magnetization_normalized_vol": null,
  "total_magnetization_normalized_formula_units": null,
  "num_magnetic_sites": null,
  "num_unique_magnetic_sites": null,
  "types_of_magnetic_species": null,
  "bulk_modulus": null,
  "shear_modulus": null,
  "universal_anisotropy": null,
  "homogeneous_poisson": null,
  "e_total": null,
  "e_ionic": null,
  "e_electronic": null,
  "n": null,
  "e_ij_max": null,
  "weighted_surface_energy_EV_PER_ANG2": null,
  "weighted_surface_energy": null,
  "weighted_work_function": null,
  "surface_anisotropy": null,
  "shape_factor": null,
  "has_reconstructed": null,
  "possible_species": null,
  "has_props": null,
  "theoretical": null,
  "database_IDs": null,
  "fields_not_requested": [
    "builder_meta",
    "nsites",
    "elements",
    "nelements",
    "composition",
    "composition_reduced",
    "chemsys",
    "symmetry",
    "property_name",
    "deprecated",
    "deprecation_reasons",
    "last_updated",
    "origins",
    "warnings",
    "task_ids",
    "uncorrected_energy_per_atom",
    "equilibrium_reaction_energy_per_atom",
    "decomposes_to",
    "xas",
    "grain_boundaries",
    "cbm",
    "vbm",
    "is_gap_direct",
    "is_metal",
    "es_source_calc_id",
    "bandstructure",
    "dos",
    "dos_energy_up",
    "dos_energy_down",
    "is_magnetic",
    "ordering",
    "total_magnetization_normalized_vol",
    "total_magnetization_normalized_formula_units",
    "num_magnetic_sites",
    "num_unique_magnetic_sites",
    "types_of_magnetic_species",
    "bulk_modulus",
    "shear_modulus",
    "universal_anisotropy",
    "homogeneous_poisson",
    "e_total",
    "e_ionic",
    "e_electronic",
    "n",
    "e_ij_max",
    "weighted_surface_energy_EV_PER_ANG2",
    "weighted_surface_energy",
    "weighted_work_function",
    "surface_anisotropy",
    "shape_factor",
    "has_reconstructed",
    "possible_species",
    "has_props",
    "theoretical",
    "database_IDs"
  ]
}
