{"builder_meta": null, "nsites": null, "elements": null, "nelements": null, "composition": null, "composition_reduced": null, "formula_pretty": "Ba3Bi", "formula_anonymous": "AB3", "chemsys": null, "volume": 356.7467114991335, "density": 5.780743761968124, "density_atomic": 44.593338937391685, "symmetry": null, "property_name": null, "material_id": "mp-1183362", "deprecated": null, "deprecation_reasons": null, "last_updated": null, "origins": null, "warnings": null, "structure": {"@module": "pymatgen.core.structure", "@class": "Structure", "charge": 0, "lattice": {"matrix": [[8.057534, 0.0, 0.0], [-4.028767, 6.978028, 0.0], [0.0, 0.0, 6.344905]], "pbc": [true, true, true], "a": 8.057534, "b": 8.05753301631914, "c": 6.344905, "alpha": 90.0, "beta": 90.0, "gamma": 120.00000403844471, "volume": 356.7467114991335}, "properties": {}, "sites": [{"species": [{"element": "Ba", "occu": 1}], "abc": [0.177291, 0.354583, 0.25], "properties": {"magmom": 0.006}, "label": "Ba", "xyz": [-4.028766999786271e-06, 2.474290102324, 1.58622625]}, {"species": [{"element": "Ba", "occu": 1}], "abc": [0.645417, 0.822708999999999, 0.25], "properties": {"magmom": 0.006}, "label": "Ba", "xyz": [1.8859665518750037, 5.7408864378519935, 1.58622625]}, {"species": [{"element": "Ba", "occu": 1}], "abc": [0.177292, 0.822708999999999, 0.25], "properties": {"magmom": 0.005}, "label": "Ba", "xyz": [-1.8859665518749962, 5.7408864378519935, 1.58622625]}, {"species": [{"element": "Ba", "occu": 1}], "abc": [0.822708, 0.645417999999999, 0.749999], "properties": {"magmom": 0.008}, "label": "Ba", "xyz": [4.028758942466004, 4.503744875703993, 4.758672405095]}, {"species": [{"element": "Ba", "occu": 1}], "abc": [0.354582, 0.177291, 0.749999], "properties": {"magmom": 0.008}, "label": "Ba", "xyz": [2.1427923905910005, 1.237141562148, 4.758672405095]}, {"species": [{"element": "Ba", "occu": 1}], "abc": [0.822708999999999, 0.177291, 0.749999], "properties": {"magmom": 0.008}, "label": "Ba", "xyz": [5.914741609408993, 1.237141562148, 4.758672405095]}, {"species": [{"element": "Bi", "occu": 1}], "abc": [0.333333999999999, 0.666667, 0.749999], "properties": {"magmom": -0.003}, "label": "Bi", "xyz": [4.028766992458799e-06, 4.652020992676, 4.758672405095]}, {"species": [{"element": "Bi", "occu": 1}], "abc": [0.666667, 0.333333999999999, 0.25], "properties": {"magmom": -0.003}, "label": "Bi", "xyz": [4.028767000000004, 2.326013985351993, 1.58622625]}]}, "task_ids": null, "uncorrected_energy_per_atom": null, "energy_per_atom": -2.8592779850000003, "formation_energy_per_atom": -0.44753820250000004, "energy_above_hull": 0.14946654583333102, "is_stable": false, "equilibrium_reaction_energy_per_atom": null, "decomposes_to": null, "xas": null, "grain_boundaries": null, "band_gap": 0.0, "cbm": null, "vbm": null, "efermi": 3.56136239, "is_gap_direct": null, "is_metal": null, "es_source_calc_id": null, "bandstructure": null, "dos": null, "dos_energy_up": null, "dos_energy_down": null, "is_magnetic": null, "ordering": null, "total_magnetization": 0.1115814, "total_magnetization_normalized_vol": null, "total_magnetization_normalized_formula_units": null, "num_magnetic_sites": null, "num_unique_magnetic_sites": null, "types_of_magnetic_species": null, "bulk_modulus": null, "shear_modulus": null, "universal_anisotropy": null, "homogeneous_poisson": null, "e_total": null, "e_ionic": null, "e_electronic": null, "n": null, "e_ij_max": null, "weighted_surface_energy_EV_PER_ANG2": null, "weighted_surface_energy": null, "weighted_work_function": null, "surface_anisotropy": null, "shape_factor": null, "has_reconstructed": null, "possible_species": null, "has_props": null, "theoretical": null, "database_IDs": null, "fields_not_requested": ["builder_meta", "nsites", "elements", "nelements", "composition", "composition_reduced", "chemsys", "symmetry", "property_name", "deprecated", "deprecation_reasons", "last_updated", "origins", "warnings", "task_ids", "uncorrected_energy_per_atom", "equilibrium_reaction_energy_per_atom", "decomposes_to", "xas", "grain_boundaries", "cbm", "vbm", "is_gap_direct", "is_metal", "es_source_calc_id", "bandstructure", "dos", "dos_energy_up", "dos_energy_down", "is_magnetic", "ordering", "total_magnetization_normalized_vol", "total_magnetization_normalized_formula_units", "num_magnetic_sites", "num_unique_magnetic_sites", "types_of_magnetic_species", "bulk_modulus", "shear_modulus", "universal_anisotropy", "homogeneous_poisson", "e_total", "e_ionic", "e_electronic", "n", "e_ij_max", "weighted_surface_energy_EV_PER_ANG2", "weighted_surface_energy", "weighted_work_function", "surface_anisotropy", "shape_factor", "has_reconstructed", "possible_species", "has_props", "theoretical", "database_IDs"]}