{"builder_meta": null, "nsites": null, "elements": null, "nelements": null, "composition": null, "composition_reduced": null, "formula_pretty": "Ba3Ca", "formula_anonymous": "AB3", "chemsys": null, "volume": 485.6397649464429, "density": 3.091433956158484, "density_atomic": 60.70497061830536, "symmetry": null, "property_name": null, "material_id": "mp-1183374", "deprecated": null, "deprecation_reasons": null, "last_updated": null, "origins": null, "warnings": null, "structure": {"@module": "pymatgen.core.structure", "@class": "Structure", "charge": 0, "lattice": {"matrix": [[4.45198615, -7.71107693, -0.0], [4.45198615, 7.71107693, -0.0], [0.0, 0.0, 7.0731913]], "pbc": [true, true, true], "a": 8.903981586917734, "b": 8.903981586917734, "c": 7.0731913, "alpha": 90.0, "beta": 90.0, "gamma": 120.00006900479507, "volume": 485.6397649464429}, "properties": {}, "sites": [{"species": [{"element": "Ba", "occu": 1}], "abc": [0.17089222, 0.34178444, 0.25], "properties": {"magmom": -0.004}, "label": "Ba", "xyz": [2.282429389748259, 1.3177630551584847, 1.768297825]}, {"species": [{"element": "Ba", "occu": 1}], "abc": [0.65821556, 0.82910678, 0.25], "properties": {"magmom": -0.004}, "label": "Ba", "xyz": [6.621538458265591, 1.3177553440815544, 1.768297825]}, {"species": [{"element": "Ba", "occu": 1}], "abc": [0.17089222, 0.82910678, 0.25], "properties": {"magmom": -0.004}, "label": "Ba", "xyz": [4.45198169801385, 5.075543108606102, 1.768297825]}, {"species": [{"element": "Ba", "occu": 1}], "abc": [0.8291077800000001, 0.65821556, 0.75], "properties": {"magmom": -0.004}, "label": "Ba", "xyz": [6.6215429102517405, -1.3177630551584842, 5.304893475]}, {"species": [{"element": "Ba", "occu": 1}], "abc": [0.34178444, 0.17089322, 0.75], "properties": {"magmom": -0.004}, "label": "Ba", "xyz": [2.282433841734409, -1.3177553440815546, 5.304893475]}, {"species": [{"element": "Ba", "occu": 1}], "abc": [0.8291077800000001, 0.17089322, 0.75], "properties": {"magmom": -0.004}, "label": "Ba", "xyz": [4.45199060198615, -5.075543108606101, 5.304893475]}, {"species": [{"element": "Ca", "occu": 1}], "abc": [0.333333, 0.666667, 0.75], "properties": {"magmom": -0.005}, "label": "Ca", "xyz": [4.45198615, 2.57036411738462, 5.304893475]}, {"species": [{"element": "Ca", "occu": 1}], "abc": [0.666667, 0.333333, 0.25], "properties": {"magmom": -0.005}, "label": "Ca", "xyz": [4.45198615, -2.57036411738462, 1.768297825]}]}, "task_ids": null, "uncorrected_energy_per_atom": null, "energy_per_atom": -1.9107808362500012, "formation_energy_per_atom": 0.029850338749998002, "energy_above_hull": 0.029850338749998002, "is_stable": false, "equilibrium_reaction_energy_per_atom": null, "decomposes_to": null, "xas": null, "grain_boundaries": null, "band_gap": 0.0, "cbm": null, "vbm": null, "efermi": 1.74399547, "is_gap_direct": null, "is_metal": null, "es_source_calc_id": null, "bandstructure": null, "dos": null, "dos_energy_up": null, "dos_energy_down": null, "is_magnetic": null, "ordering": null, "total_magnetization": 0.3618288, "total_magnetization_normalized_vol": null, "total_magnetization_normalized_formula_units": null, "num_magnetic_sites": null, "num_unique_magnetic_sites": null, "types_of_magnetic_species": null, "bulk_modulus": null, "shear_modulus": null, "universal_anisotropy": null, "homogeneous_poisson": null, "e_total": null, "e_ionic": null, "e_electronic": null, "n": null, "e_ij_max": null, "weighted_surface_energy_EV_PER_ANG2": null, "weighted_surface_energy": null, "weighted_work_function": null, "surface_anisotropy": null, "shape_factor": null, "has_reconstructed": null, "possible_species": null, "has_props": null, "theoretical": null, "database_IDs": null, "fields_not_requested": ["builder_meta", "nsites", "elements", "nelements", "composition", "composition_reduced", "chemsys", "symmetry", "property_name", "deprecated", "deprecation_reasons", "last_updated", "origins", "warnings", "task_ids", "uncorrected_energy_per_atom", "equilibrium_reaction_energy_per_atom", "decomposes_to", "xas", "grain_boundaries", "cbm", "vbm", "is_gap_direct", "is_metal", "es_source_calc_id", "bandstructure", "dos", "dos_energy_up", "dos_energy_down", "is_magnetic", "ordering", "total_magnetization_normalized_vol", "total_magnetization_normalized_formula_units", "num_magnetic_sites", "num_unique_magnetic_sites", "types_of_magnetic_species", "bulk_modulus", "shear_modulus", "universal_anisotropy", "homogeneous_poisson", "e_total", "e_ionic", "e_electronic", "n", "e_ij_max", "weighted_surface_energy_EV_PER_ANG2", "weighted_surface_energy", "weighted_work_function", "surface_anisotropy", "shape_factor", "has_reconstructed", "possible_species", "has_props", "theoretical", "database_IDs"]}