{
  "builder_meta": null,
  "nsites": null,
  "elements": null,
  "nelements": null,
  "composition": null,
  "composition_reduced": null,
  "formula_pretty": "Ba3Dy",
  "formula_anonymous": "AB3",
  "chemsys": null,
  "volume": 412.0458429296696,
  "density": 4.630301020569985,
  "density_atomic": 51.5057303662087,
  "symmetry": null,
  "property_name": null,
  "material_id": "mp-1183385",
  "deprecated": null,
  "deprecation_reasons": null,
  "last_updated": null,
  "origins": null,
  "warnings": null,
  "structure": {
    "@module": "pymatgen.core.structure",
    "@class": "Structure",
    "charge": 0,
    "lattice": {
      "matrix": [
        [4.207563, -7.287713, 0.0],
        [4.207563, 7.287713, 0.0],
        [0.0, 0.0, 6.7188300000000005]
      ],
      "pbc": [true, true, true],
      "a": 8.415126093490104,
      "b": 8.415126093490104,
      "c": 6.7188300000000005,
      "alpha": 90.0,
      "beta": 90.0,
      "gamma": 120.00000073501639,
      "volume": 412.0458429296697
    },
    "properties": {},
    "sites": [
      {
        "species": [{ "element": "Ba", "occu": 1 }],
        "abc": [0.172456, 0.344912, 0.25],
        "properties": { "magmom": 0.033 },
        "label": "Ba",
        "xyz": [2.1768584541840004, 1.256809833128, 1.6797075000000001]
      },
      {
        "species": [{ "element": "Ba", "occu": 1 }],
        "abc": [0.655088, 0.827544, 0.25],
        "properties": { "magmom": 0.033 },
        "label": "Ba",
        "xyz": [6.238267545816001, 1.256809833128, 1.6797075000000001]
      },
      {
        "species": [{ "element": "Ba", "occu": 1 }],
        "abc": [0.172456, 0.827544, 0.25],
        "properties": { "magmom": 0.029 },
        "label": "Ba",
        "xyz": [4.207563, 4.774093333744, 1.6797075000000001]
      },
      {
        "species": [{ "element": "Ba", "occu": 1 }],
        "abc": [0.827544, 0.655088, 0.75],
        "properties": { "magmom": 0.035 },
        "label": "Ba",
        "xyz": [6.238267545816001, -1.256809833128, 5.0391225]
      },
      {
        "species": [{ "element": "Ba", "occu": 1 }],
        "abc": [0.344912, 0.172456, 0.75],
        "properties": { "magmom": 0.035 },
        "label": "Ba",
        "xyz": [2.1768584541840004, -1.256809833128, 5.0391225]
      },
      {
        "species": [{ "element": "Ba", "occu": 1 }],
        "abc": [0.827544, 0.172456, 0.75],
        "properties": { "magmom": 0.032 },
        "label": "Ba",
        "xyz": [4.207563, -4.774093333744, 5.0391225]
      },
      {
        "species": [{ "element": "Dy", "occu": 1 }],
        "abc": [0.333333, 0.666667, 0.75],
        "properties": { "magmom": 0.155 },
        "label": "Dy",
        "xyz": [4.207563, 2.429242525142, 5.0391225]
      },
      {
        "species": [{ "element": "Dy", "occu": 1 }],
        "abc": [0.666667, 0.333333, 0.25],
        "properties": { "magmom": 0.19 },
        "label": "Dy",
        "xyz": [4.207563, -2.429242525142, 1.6797075000000001]
      }
    ]
  },
  "task_ids": null,
  "uncorrected_energy_per_atom": null,
  "energy_per_atom": -2.3648859925,
  "formation_energy_per_atom": 0.22893909458333403,
  "energy_above_hull": 0.22893909458333403,
  "is_stable": false,
  "equilibrium_reaction_energy_per_atom": null,
  "decomposes_to": null,
  "xas": null,
  "grain_boundaries": null,
  "band_gap": 0.0,
  "cbm": null,
  "vbm": null,
  "efermi": 2.09144517,
  "is_gap_direct": null,
  "is_metal": null,
  "es_source_calc_id": null,
  "bandstructure": null,
  "dos": null,
  "dos_energy_up": null,
  "dos_energy_down": null,
  "is_magnetic": null,
  "ordering": null,
  "total_magnetization": 1.1479897000000001,
  "total_magnetization_normalized_vol": null,
  "total_magnetization_normalized_formula_units": null,
  "num_magnetic_sites": null,
  "num_unique_magnetic_sites": null,
  "types_of_magnetic_species": null,
  "bulk_modulus": null,
  "shear_modulus": null,
  "universal_anisotropy": null,
  "homogeneous_poisson": null,
  "e_total": null,
  "e_ionic": null,
  "e_electronic": null,
  "n": null,
  "e_ij_max": null,
  "weighted_surface_energy_EV_PER_ANG2": null,
  "weighted_surface_energy": null,
  "weighted_work_function": null,
  "surface_anisotropy": null,
  "shape_factor": null,
  "has_reconstructed": null,
  "possible_species": null,
  "has_props": null,
  "theoretical": null,
  "database_IDs": null,
  "fields_not_requested": [
    "builder_meta",
    "nsites",
    "elements",
    "nelements",
    "composition",
    "composition_reduced",
    "chemsys",
    "symmetry",
    "property_name",
    "deprecated",
    "deprecation_reasons",
    "last_updated",
    "origins",
    "warnings",
    "task_ids",
    "uncorrected_energy_per_atom",
    "equilibrium_reaction_energy_per_atom",
    "decomposes_to",
    "xas",
    "grain_boundaries",
    "cbm",
    "vbm",
    "is_gap_direct",
    "is_metal",
    "es_source_calc_id",
    "bandstructure",
    "dos",
    "dos_energy_up",
    "dos_energy_down",
    "is_magnetic",
    "ordering",
    "total_magnetization_normalized_vol",
    "total_magnetization_normalized_formula_units",
    "num_magnetic_sites",
    "num_unique_magnetic_sites",
    "types_of_magnetic_species",
    "bulk_modulus",
    "shear_modulus",
    "universal_anisotropy",
    "homogeneous_poisson",
    "e_total",
    "e_ionic",
    "e_electronic",
    "n",
    "e_ij_max",
    "weighted_surface_energy_EV_PER_ANG2",
    "weighted_surface_energy",
    "weighted_work_function",
    "surface_anisotropy",
    "shape_factor",
    "has_reconstructed",
    "possible_species",
    "has_props",
    "theoretical",
    "database_IDs"
  ]
}
