{
  "builder_meta": null,
  "nsites": null,
  "elements": null,
  "nelements": null,
  "composition": null,
  "composition_reduced": null,
  "formula_pretty": "Ba3Ge4",
  "formula_anonymous": "A3B4",
  "chemsys": null,
  "volume": 893.3504239219526,
  "density": 5.223467723971885,
  "density_atomic": 31.90537228292688,
  "symmetry": null,
  "property_name": null,
  "material_id": "mp-9858",
  "deprecated": null,
  "deprecation_reasons": null,
  "last_updated": null,
  "origins": null,
  "warnings": null,
  "structure": {
    "@module": "pymatgen.core.structure",
    "@class": "Structure",
    "charge": 0,
    "lattice": {
      "matrix": [
        [8.55624138, -0.0176669, 1e-8],
        [-0.31051243, 8.55062328, 1e-8],
        [1.029999999999998e-6, 1.029999999999998e-6, 12.21162931]
      ],
      "pbc": [true, true, true],
      "a": 8.556259619260036,
      "b": 8.556259489149593,
      "c": 12.211629310000086,
      "alpha": 89.99999527894026,
      "beta": 89.99999511036512,
      "gamma": 92.19806315493389,
      "volume": 893.3504239219526
    },
    "properties": {},
    "sites": [
      {
        "species": [{ "element": "Ba", "occu": 1 }],
        "abc": [0.0, 0.5, 0.7441711],
        "properties": { "magmom": -0.0 },
        "label": "Ba",
        "xyz": [-0.155255448503767, 4.275312406496233, 9.08754162141494]
      },
      {
        "species": [{ "element": "Ba", "occu": 1 }],
        "abc": [0.5, -0.0, 0.255828899999999],
        "properties": { "magmom": -0.0 },
        "label": "Ba",
        "xyz": [4.278120953503767, -0.008833186496232999, 3.124087698585047]
      },
      {
        "species": [{ "element": "Ba", "occu": 1 }],
        "abc": [-0.0, 0.5, 0.255828899999999],
        "properties": { "magmom": -0.0 },
        "label": "Ba",
        "xyz": [-0.155255951496233, 4.275311903503767, 3.124087698585047]
      },
      {
        "species": [{ "element": "Ba", "occu": 1 }],
        "abc": [0.5, 0.0, 0.7441711],
        "properties": { "magmom": -0.0 },
        "label": "Ba",
        "xyz": [4.278121456496232, -0.008832683503767, 9.08754162141494]
      },
      {
        "species": [{ "element": "Ba", "occu": 1 }],
        "abc": [0.5, 0.5, 0.32415772],
        "properties": { "magmom": 0.0 },
        "label": "Ba",
        "xyz": [4.1228648088824515, 4.266478523882451, 3.9584939246147726]
      },
      {
        "species": [{ "element": "Ba", "occu": 1 }],
        "abc": [0.5, 0.5, 0.67584228],
        "properties": { "magmom": 0.0 },
        "label": "Ba",
        "xyz": [4.122865171117549, 4.266478886117548, 8.253135405385228]
      },
      {
        "species": [{ "element": "Ba", "occu": 1 }],
        "abc": [0.0, 0.0, 0.16086357],
        "properties": { "magmom": 0.0 },
        "label": "Ba",
        "xyz": [
          1.6568947709999968e-7, 1.6568947709999968e-7, 1.9644062863232368
        ]
      },
      {
        "species": [{ "element": "Ba", "occu": 1 }],
        "abc": [-0.0, -0.0, 0.83913643],
        "properties": { "magmom": 0.0 },
        "label": "Ba",
        "xyz": [8.643105228999983e-7, 8.643105228999983e-7, 10.247223023676764]
      },
      {
        "species": [{ "element": "Ba", "occu": 1 }],
        "abc": [0.337034699999999, 0.3370357, -0.0],
        "properties": { "magmom": 0.0 },
        "label": "Ba",
        "xyz": [2.7790964724321263, 2.875910944269666, 6.740703999999991e-9]
      },
      {
        "species": [{ "element": "Ba", "occu": 1 }],
        "abc": [0.6629653, 0.6629653, 0.0],
        "properties": { "magmom": 0.0 },
        "label": "Ba",
        "xyz": [5.466632167055434, 5.657053986353614, 1.3259306e-8]
      },
      {
        "species": [{ "element": "Ba", "occu": 1 }],
        "abc": [0.8413460700000001, 0.15865393, 0.5],
        "properties": { "magmom": 0.0 },
        "label": "Ba",
        "xyz": [7.149496556701027, 1.3417265254374073, 6.105814665]
      },
      {
        "species": [{ "element": "Ba", "occu": 1 }],
        "abc": [0.15865393, 0.8413460700000001, 0.5],
        "properties": { "magmom": 0.0 },
        "label": "Ba",
        "xyz": [1.0962334232989732, 7.191230884562593, 6.105814665]
      },
      {
        "species": [{ "element": "Ge", "occu": 1 }],
        "abc": [0.8026255800000001, 0.8026255800000001, 0.34981175000000003],
        "properties": { "magmom": 0.0 },
        "label": "Ge",
        "xyz": [6.618233341322644, 6.848769423918303, 4.271771435334904]
      },
      {
        "species": [{ "element": "Ge", "occu": 1 }],
        "abc": [0.19737442, 0.19737442, 0.34981175000000003],
        "properties": { "magmom": 0.0 },
        "label": "Ge",
        "xyz": [1.6274963292895614, 1.684187676693902, 4.271771423229882]
      },
      {
        "species": [{ "element": "Ge", "occu": 1 }],
        "abc": [0.8026255800000001, 0.8026255800000001, 0.65018825],
        "properties": { "magmom": 0.0 },
        "label": "Ge",
        "xyz": [6.618233650710439, 6.848769733306098, 7.9398579067701185]
      },
      {
        "species": [{ "element": "Ge", "occu": 1 }],
        "abc": [0.19737442, 0.19737442, 0.65018825],
        "properties": { "magmom": 0.0 },
        "label": "Ge",
        "xyz": [1.6274966386773564, 1.6841879860816968, 7.939857894665096]
      },
      {
        "species": [{ "element": "Ge", "occu": 1 }],
        "abc": [0.29326288, 0.70673712, 0.13769477],
        "properties": { "magmom": -0.0 },
        "label": "Ge",
        "xyz": [2.2897774703971856, 6.037861966963095, 1.6814774991657084]
      },
      {
        "species": [{ "element": "Ge", "occu": 1 }],
        "abc": [0.70673712, 0.29326288, 0.13769477],
        "properties": { "magmom": -0.0 },
        "label": "Ge",
        "xyz": [5.95595176325404, 2.4950946966881316, 1.6814774991657084]
      },
      {
        "species": [{ "element": "Ge", "occu": 1 }],
        "abc": [0.70673712, 0.29326288, 0.86230523],
        "properties": { "magmom": -0.0 },
        "label": "Ge",
        "xyz": [5.955952509602813, 2.4950954430369054, 10.530151830834292]
      },
      {
        "species": [{ "element": "Ge", "occu": 1 }],
        "abc": [0.29326288, 0.70673712, 0.86230523],
        "properties": { "magmom": -0.0 },
        "label": "Ge",
        "xyz": [2.2897782167459595, 6.037862713311868, 10.530151830834292]
      },
      {
        "species": [{ "element": "Ge", "occu": 1 }],
        "abc": [0.06439077, 0.65877467, -0.0],
        "properties": { "magmom": -0.0 },
        "label": "Ge",
        "xyz": [0.34638524715991437, 5.631796444281805, 7.2316544000000005e-9]
      },
      {
        "species": [{ "element": "Ge", "occu": 1 }],
        "abc": [0.9356092300000001, 0.34122533, 0.0],
        "properties": { "magmom": -0.0 },
        "label": "Ge",
        "xyz": [7.899343702840086, 2.9011599357181956, 1.27683456e-8]
      },
      {
        "species": [{ "element": "Ge", "occu": 1 }],
        "abc": [0.65877467, 0.06439077, -0.0],
        "properties": { "magmom": -0.0 },
        "label": "Ge",
        "xyz": [5.616640957087573, 0.5389427107617025, 7.2316544000000005e-9]
      },
      {
        "species": [{ "element": "Ge", "occu": 1 }],
        "abc": [0.34122533, 0.9356092300000001, 0.0],
        "properties": { "magmom": -0.0 },
        "label": "Ge",
        "xyz": [2.6290879929124262, 7.9940136692382975, 1.27683456e-8]
      },
      {
        "species": [{ "element": "Ge", "occu": 1 }],
        "abc": [0.5919249, 0.79833789, 0.5],
        "properties": { "magmom": -0.0 },
        "label": "Ge",
        "xyz": [4.816759000047389, 6.815829584524269, 6.105814668902627]
      },
      {
        "species": [{ "element": "Ge", "occu": 1 }],
        "abc": [0.408075099999999, 0.20166211, 0.5],
        "properties": { "magmom": -0.0 },
        "label": "Ge",
        "xyz": [3.4289709799526022, 1.7171278254757307, 6.105814661097372]
      },
      {
        "species": [{ "element": "Ge", "occu": 1 }],
        "abc": [0.79833789, 0.5919249, 0.5],
        "properties": { "magmom": -0.0 },
        "label": "Ge",
        "xyz": [6.646972165563381, 5.047223189282831, 6.105814668902627]
      },
      {
        "species": [{ "element": "Ge", "occu": 1 }],
        "abc": [0.20166211, 0.408075099999999, 0.5],
        "properties": { "magmom": -0.0 },
        "label": "Ge",
        "xyz": [1.598757814436619, 3.4857342207171604, 6.105814661097372]
      }
    ]
  },
  "task_ids": null,
  "uncorrected_energy_per_atom": null,
  "energy_per_atom": -4.034009458214287,
  "formation_energy_per_atom": -0.5698614239285721,
  "energy_above_hull": 0.0,
  "is_stable": true,
  "equilibrium_reaction_energy_per_atom": null,
  "decomposes_to": null,
  "xas": null,
  "grain_boundaries": null,
  "band_gap": 0.0,
  "cbm": null,
  "vbm": null,
  "efermi": 2.76811515,
  "is_gap_direct": null,
  "is_metal": null,
  "es_source_calc_id": null,
  "bandstructure": null,
  "dos": null,
  "dos_energy_up": null,
  "dos_energy_down": null,
  "is_magnetic": null,
  "ordering": null,
  "total_magnetization": 1e-7,
  "total_magnetization_normalized_vol": null,
  "total_magnetization_normalized_formula_units": null,
  "num_magnetic_sites": null,
  "num_unique_magnetic_sites": null,
  "types_of_magnetic_species": null,
  "bulk_modulus": null,
  "shear_modulus": null,
  "universal_anisotropy": null,
  "homogeneous_poisson": null,
  "e_total": null,
  "e_ionic": null,
  "e_electronic": null,
  "n": null,
  "e_ij_max": null,
  "weighted_surface_energy_EV_PER_ANG2": null,
  "weighted_surface_energy": null,
  "weighted_work_function": null,
  "surface_anisotropy": null,
  "shape_factor": null,
  "has_reconstructed": null,
  "possible_species": null,
  "has_props": null,
  "theoretical": null,
  "database_IDs": null,
  "fields_not_requested": [
    "builder_meta",
    "nsites",
    "elements",
    "nelements",
    "composition",
    "composition_reduced",
    "chemsys",
    "symmetry",
    "property_name",
    "deprecated",
    "deprecation_reasons",
    "last_updated",
    "origins",
    "warnings",
    "task_ids",
    "uncorrected_energy_per_atom",
    "equilibrium_reaction_energy_per_atom",
    "decomposes_to",
    "xas",
    "grain_boundaries",
    "cbm",
    "vbm",
    "is_gap_direct",
    "is_metal",
    "es_source_calc_id",
    "bandstructure",
    "dos",
    "dos_energy_up",
    "dos_energy_down",
    "is_magnetic",
    "ordering",
    "total_magnetization_normalized_vol",
    "total_magnetization_normalized_formula_units",
    "num_magnetic_sites",
    "num_unique_magnetic_sites",
    "types_of_magnetic_species",
    "bulk_modulus",
    "shear_modulus",
    "universal_anisotropy",
    "homogeneous_poisson",
    "e_total",
    "e_ionic",
    "e_electronic",
    "n",
    "e_ij_max",
    "weighted_surface_energy_EV_PER_ANG2",
    "weighted_surface_energy",
    "weighted_work_function",
    "surface_anisotropy",
    "shape_factor",
    "has_reconstructed",
    "possible_species",
    "has_props",
    "theoretical",
    "database_IDs"
  ]
}
