{
  "builder_meta": null,
  "nsites": null,
  "elements": null,
  "nelements": null,
  "composition": null,
  "composition_reduced": null,
  "formula_pretty": "Ba3Ge5",
  "formula_anonymous": "A3B5",
  "chemsys": null,
  "volume": 472.1621257638932,
  "density": 5.45244213352993,
  "density_atomic": 29.510132860243324,
  "symmetry": null,
  "property_name": null,
  "material_id": "mp-1188954",
  "deprecated": null,
  "deprecation_reasons": null,
  "last_updated": null,
  "origins": null,
  "warnings": null,
  "structure": {
    "@module": "pymatgen.core.structure",
    "@class": "Structure",
    "charge": 0,
    "lattice": {
      "matrix": [
        [5.20425649, 4.35306706, -0.0],
        [-5.20425649, 4.35306706, -0.0],
        [0.0, 0.0, 10.420944949999999]
      ],
      "pbc": [true, true, true],
      "a": 6.78479759775958,
      "b": 6.78479759775958,
      "c": 10.420944949999999,
      "alpha": 90.0,
      "beta": 90.0,
      "gamma": 100.17883845651417,
      "volume": 472.16212576389313
    },
    "properties": {},
    "sites": [
      {
        "species": [{ "element": "Ba", "occu": 1 }],
        "abc": [0.65502763, 0.65502763, 0.25],
        "properties": { "magmom": 0.0 },
        "label": "Ba",
        "xyz": [0.0, 5.702758399085735, 2.6052362374999998]
      },
      {
        "species": [{ "element": "Ba", "occu": 1 }],
        "abc": [0.34497237000000003, 0.34497237000000003, 0.75],
        "properties": { "magmom": 0.0 },
        "label": "Ba",
        "xyz": [0.0, 3.0033757209142644, 7.815708712499999]
      },
      {
        "species": [{ "element": "Ba", "occu": 1 }],
        "abc": [0.78937157, 0.21062843, 0.5],
        "properties": { "magmom": 0.0 },
        "label": "Ba",
        "xyz": [3.011927742387978, 4.35306706, 5.2104724749999995]
      },
      {
        "species": [{ "element": "Ba", "occu": 1 }],
        "abc": [0.78937157, 0.21062843, 0.0],
        "properties": { "magmom": 0.0 },
        "label": "Ba",
        "xyz": [3.011927742387978, 4.35306706, 0.0]
      },
      {
        "species": [{ "element": "Ba", "occu": 1 }],
        "abc": [0.21062843, 0.78937157, 0.5],
        "properties": { "magmom": 0.0 },
        "label": "Ba",
        "xyz": [-3.011927742387978, 4.35306706, 5.2104724749999995]
      },
      {
        "species": [{ "element": "Ba", "occu": 1 }],
        "abc": [0.21062843, 0.78937157, 0.0],
        "properties": { "magmom": 0.0 },
        "label": "Ba",
        "xyz": [-3.011927742387978, 4.35306706, 0.0]
      },
      {
        "species": [{ "element": "Ge", "occu": 1 }],
        "abc": [0.107524299999999, 0.46365619, 0.25],
        "properties": { "magmom": -0.0 },
        "label": "Ge",
        "xyz": [-1.8534016998284715, 2.4863869763336552, 2.6052362374999998]
      },
      {
        "species": [{ "element": "Ge", "occu": 1 }],
        "abc": [0.53634381, 0.8924757, 0.75],
        "properties": { "magmom": -0.0 },
        "label": "Ge",
        "xyz": [-1.8534016998284661, 6.21974714366634, 7.815708712499999]
      },
      {
        "species": [{ "element": "Ge", "occu": 1 }],
        "abc": [0.8924757, 0.53634381, 0.75],
        "properties": { "magmom": -0.0 },
        "label": "Ge",
        "xyz": [1.8534016998284661, 6.21974714366634, 7.815708712499999]
      },
      {
        "species": [{ "element": "Ge", "occu": 1 }],
        "abc": [0.46365619, 0.107524299999999, 0.25],
        "properties": { "magmom": -0.0 },
        "label": "Ge",
        "xyz": [1.8534016998284715, 2.4863869763336552, 2.6052362374999998]
      },
      {
        "species": [{ "element": "Ge", "occu": 1 }],
        "abc": [0.07309282, 0.07309282, 0.25],
        "properties": { "magmom": 0.0 },
        "label": "Ge",
        "xyz": [0.0, 0.6363558941290184, 2.6052362374999998]
      },
      {
        "species": [{ "element": "Ge", "occu": 1 }],
        "abc": [0.92690718, 0.92690718, 0.75],
        "properties": { "magmom": 0.0 },
        "label": "Ge",
        "xyz": [0.0, 8.069778225870982, 7.815708712499999]
      },
      {
        "species": [{ "element": "Ge", "occu": 1 }],
        "abc": [0.29476024, 0.29476024, 0.42626404],
        "properties": { "magmom": -0.0 },
        "label": "Ge",
        "xyz": [0.0, 2.5662221826833886, 4.442074095004598]
      },
      {
        "species": [{ "element": "Ge", "occu": 1 }],
        "abc": [0.70523976, 0.70523976, 0.57373596],
        "properties": { "magmom": -0.0 },
        "label": "Ge",
        "xyz": [0.0, 6.139911937316611, 5.978870854995402]
      },
      {
        "species": [{ "element": "Ge", "occu": 1 }],
        "abc": [0.29476024, 0.29476024, 0.07373596],
        "properties": { "magmom": -0.0 },
        "label": "Ge",
        "xyz": [0.0, 2.5662221826833886, 0.768398379995402]
      },
      {
        "species": [{ "element": "Ge", "occu": 1 }],
        "abc": [0.70523976, 0.70523976, 0.9262640400000001],
        "properties": { "magmom": -0.0 },
        "label": "Ge",
        "xyz": [0.0, 6.139911937316611, 9.652546570004597]
      }
    ]
  },
  "task_ids": null,
  "uncorrected_energy_per_atom": null,
  "energy_per_atom": -4.15841191,
  "formation_energy_per_atom": -0.549403898125,
  "energy_above_hull": 0.0,
  "is_stable": true,
  "equilibrium_reaction_energy_per_atom": null,
  "decomposes_to": null,
  "xas": null,
  "grain_boundaries": null,
  "band_gap": 0.0,
  "cbm": null,
  "vbm": null,
  "efermi": 4.06881254,
  "is_gap_direct": null,
  "is_metal": null,
  "es_source_calc_id": null,
  "bandstructure": null,
  "dos": null,
  "dos_energy_up": null,
  "dos_energy_down": null,
  "is_magnetic": null,
  "ordering": null,
  "total_magnetization": 0.0,
  "total_magnetization_normalized_vol": null,
  "total_magnetization_normalized_formula_units": null,
  "num_magnetic_sites": null,
  "num_unique_magnetic_sites": null,
  "types_of_magnetic_species": null,
  "bulk_modulus": null,
  "shear_modulus": null,
  "universal_anisotropy": null,
  "homogeneous_poisson": null,
  "e_total": null,
  "e_ionic": null,
  "e_electronic": null,
  "n": null,
  "e_ij_max": null,
  "weighted_surface_energy_EV_PER_ANG2": null,
  "weighted_surface_energy": null,
  "weighted_work_function": null,
  "surface_anisotropy": null,
  "shape_factor": null,
  "has_reconstructed": null,
  "possible_species": null,
  "has_props": null,
  "theoretical": null,
  "database_IDs": null,
  "fields_not_requested": [
    "builder_meta",
    "nsites",
    "elements",
    "nelements",
    "composition",
    "composition_reduced",
    "chemsys",
    "symmetry",
    "property_name",
    "deprecated",
    "deprecation_reasons",
    "last_updated",
    "origins",
    "warnings",
    "task_ids",
    "uncorrected_energy_per_atom",
    "equilibrium_reaction_energy_per_atom",
    "decomposes_to",
    "xas",
    "grain_boundaries",
    "cbm",
    "vbm",
    "is_gap_direct",
    "is_metal",
    "es_source_calc_id",
    "bandstructure",
    "dos",
    "dos_energy_up",
    "dos_energy_down",
    "is_magnetic",
    "ordering",
    "total_magnetization_normalized_vol",
    "total_magnetization_normalized_formula_units",
    "num_magnetic_sites",
    "num_unique_magnetic_sites",
    "types_of_magnetic_species",
    "bulk_modulus",
    "shear_modulus",
    "universal_anisotropy",
    "homogeneous_poisson",
    "e_total",
    "e_ionic",
    "e_electronic",
    "n",
    "e_ij_max",
    "weighted_surface_energy_EV_PER_ANG2",
    "weighted_surface_energy",
    "weighted_work_function",
    "surface_anisotropy",
    "shape_factor",
    "has_reconstructed",
    "possible_species",
    "has_props",
    "theoretical",
    "database_IDs"
  ]
}
