{
  "builder_meta": null,
  "nsites": null,
  "elements": null,
  "nelements": null,
  "composition": null,
  "composition_reduced": null,
  "formula_pretty": "Ba3H",
  "formula_anonymous": "AB3",
  "chemsys": null,
  "volume": 400.2557167654125,
  "density": 3.426730663515582,
  "density_atomic": 50.03196459567656,
  "symmetry": null,
  "property_name": null,
  "material_id": "mp-1183347",
  "deprecated": null,
  "deprecation_reasons": null,
  "last_updated": null,
  "origins": null,
  "warnings": null,
  "structure": {
    "@module": "pymatgen.core.structure",
    "@class": "Structure",
    "charge": 0,
    "lattice": {
      "matrix": [
        [4.106537, -7.112731, 0.0],
        [4.106537, 7.112731, 0.0],
        [0.0, 0.0, 6.851654]
      ],
      "pbc": [true, true, true],
      "a": 8.213074236285095,
      "b": 8.213074236285095,
      "c": 6.851654,
      "alpha": 90.0,
      "beta": 90.0,
      "gamma": 120.00000190336719,
      "volume": 400.2557167654125
    },
    "properties": {},
    "sites": [
      {
        "species": [{ "element": "Ba", "occu": 1 }],
        "abc": [0.168728, 0.337457, 0.25],
        "properties": { "magmom": 0.036000000000000004 },
        "label": "Ba",
        "xyz": [2.078667431345, 1.200123988899, 1.7129135]
      },
      {
        "species": [{ "element": "Ba", "occu": 1 }],
        "abc": [0.662543, 0.831272, 0.25],
        "properties": { "magmom": 0.026000000000000002 },
        "label": "Ba",
        "xyz": [6.134406568655001, 1.2001239888990005, 1.7129135]
      },
      {
        "species": [{ "element": "Ba", "occu": 1 }],
        "abc": [0.168728, 0.831272, 0.25],
        "properties": { "magmom": 0.037 },
        "label": "Ba",
        "xyz": [4.106537, 4.712497247664, 1.7129135]
      },
      {
        "species": [{ "element": "Ba", "occu": 1 }],
        "abc": [0.831272, 0.662543, 0.75],
        "properties": { "magmom": 0.035 },
        "label": "Ba",
        "xyz": [6.134406568655001, -1.2001239888990005, 5.1387405]
      },
      {
        "species": [{ "element": "Ba", "occu": 1 }],
        "abc": [0.337457, 0.168728, 0.75],
        "properties": { "magmom": 0.029 },
        "label": "Ba",
        "xyz": [2.078667431345, -1.200123988899, 5.1387405]
      },
      {
        "species": [{ "element": "Ba", "occu": 1 }],
        "abc": [0.831272, 0.168728, 0.75],
        "properties": { "magmom": 0.036000000000000004 },
        "label": "Ba",
        "xyz": [4.106537, -4.712497247664, 5.1387405]
      },
      {
        "species": [{ "element": "H", "occu": 1 }],
        "abc": [0.333333, 0.666667, 0.75],
        "properties": { "magmom": -0.005 },
        "label": "H",
        "xyz": [4.106537, 2.3709150751540005, 5.1387405]
      },
      {
        "species": [{ "element": "H", "occu": 1 }],
        "abc": [0.666667, 0.333333, 0.25],
        "properties": { "magmom": -0.005 },
        "label": "H",
        "xyz": [4.106537, -2.3709150751540005, 1.7129135]
      }
    ]
  },
  "task_ids": null,
  "uncorrected_energy_per_atom": null,
  "energy_per_atom": -1.8472562125,
  "formation_energy_per_atom": 0.440766602187499,
  "energy_above_hull": 0.6675466790625001,
  "is_stable": false,
  "equilibrium_reaction_energy_per_atom": null,
  "decomposes_to": null,
  "xas": null,
  "grain_boundaries": null,
  "band_gap": 0.0,
  "cbm": null,
  "vbm": null,
  "efermi": 1.56106379,
  "is_gap_direct": null,
  "is_metal": null,
  "es_source_calc_id": null,
  "bandstructure": null,
  "dos": null,
  "dos_energy_up": null,
  "dos_energy_down": null,
  "is_magnetic": null,
  "ordering": null,
  "total_magnetization": 0.6081928,
  "total_magnetization_normalized_vol": null,
  "total_magnetization_normalized_formula_units": null,
  "num_magnetic_sites": null,
  "num_unique_magnetic_sites": null,
  "types_of_magnetic_species": null,
  "bulk_modulus": null,
  "shear_modulus": null,
  "universal_anisotropy": null,
  "homogeneous_poisson": null,
  "e_total": null,
  "e_ionic": null,
  "e_electronic": null,
  "n": null,
  "e_ij_max": null,
  "weighted_surface_energy_EV_PER_ANG2": null,
  "weighted_surface_energy": null,
  "weighted_work_function": null,
  "surface_anisotropy": null,
  "shape_factor": null,
  "has_reconstructed": null,
  "possible_species": null,
  "has_props": null,
  "theoretical": null,
  "database_IDs": null,
  "fields_not_requested": [
    "builder_meta",
    "nsites",
    "elements",
    "nelements",
    "composition",
    "composition_reduced",
    "chemsys",
    "symmetry",
    "property_name",
    "deprecated",
    "deprecation_reasons",
    "last_updated",
    "origins",
    "warnings",
    "task_ids",
    "uncorrected_energy_per_atom",
    "equilibrium_reaction_energy_per_atom",
    "decomposes_to",
    "xas",
    "grain_boundaries",
    "cbm",
    "vbm",
    "is_gap_direct",
    "is_metal",
    "es_source_calc_id",
    "bandstructure",
    "dos",
    "dos_energy_up",
    "dos_energy_down",
    "is_magnetic",
    "ordering",
    "total_magnetization_normalized_vol",
    "total_magnetization_normalized_formula_units",
    "num_magnetic_sites",
    "num_unique_magnetic_sites",
    "types_of_magnetic_species",
    "bulk_modulus",
    "shear_modulus",
    "universal_anisotropy",
    "homogeneous_poisson",
    "e_total",
    "e_ionic",
    "e_electronic",
    "n",
    "e_ij_max",
    "weighted_surface_energy_EV_PER_ANG2",
    "weighted_surface_energy",
    "weighted_work_function",
    "surface_anisotropy",
    "shape_factor",
    "has_reconstructed",
    "possible_species",
    "has_props",
    "theoretical",
    "database_IDs"
  ]
}
