{"builder_meta": null, "nsites": null, "elements": null, "nelements": null, "composition": null, "composition_reduced": null, "formula_pretty": "Ba3Nd", "formula_anonymous": "AB3", "chemsys": null, "volume": 426.20354527283274, "density": 4.334220263936064, "density_atomic": 53.27544315910409, "symmetry": null, "property_name": null, "material_id": "mp-1183351", "deprecated": null, "deprecation_reasons": null, "last_updated": null, "origins": null, "warnings": null, "structure": {"@module": "pymatgen.core.structure", "@class": "Structure", "charge": 0, "lattice": {"matrix": [[4.263483, -7.384569, 0.0], [4.263483, 7.384569, 0.0], [0.0, 0.0, 6.768577]], "pbc": [true, true, true], "a": 8.52696584999905, "b": 8.52696584999905, "c": 6.768577, "alpha": 90.0, "beta": 90.0, "gamma": 119.99999883616478, "volume": 426.20354527283274}, "properties": {}, "sites": [{"species": [{"element": "Ba", "occu": 1}], "abc": [0.827438, 0.172562, 0.75], "properties": {"magmom": 0.059000000000000004}, "label": "Ba", "xyz": [4.263483, -4.835977008444, 5.0764327499999995]}, {"species": [{"element": "Ba", "occu": 1}], "abc": [0.345124, 0.172562, 0.75], "properties": {"magmom": 0.063}, "label": "Ba", "xyz": [2.207145460338, -1.274295995778, 5.0764327499999995]}, {"species": [{"element": "Ba", "occu": 1}], "abc": [0.827438, 0.654876, 0.75], "properties": {"magmom": 0.059000000000000004}, "label": "Ba", "xyz": [6.319820539662, -1.274295995778, 5.0764327499999995]}, {"species": [{"element": "Ba", "occu": 1}], "abc": [0.172562, 0.827438, 0.25], "properties": {"magmom": 0.059000000000000004}, "label": "Ba", "xyz": [4.263483, 4.835977008444, 1.69214425]}, {"species": [{"element": "Ba", "occu": 1}], "abc": [0.654876, 0.827438, 0.25], "properties": {"magmom": 0.063}, "label": "Ba", "xyz": [6.319820539662, 1.274295995778, 1.69214425]}, {"species": [{"element": "Ba", "occu": 1}], "abc": [0.172562, 0.345124, 0.25], "properties": {"magmom": 0.059000000000000004}, "label": "Ba", "xyz": [2.207145460338, 1.274295995778, 1.69214425]}, {"species": [{"element": "Nd", "occu": 1}], "abc": [0.666667, 0.333333, 0.25], "properties": {"magmom": 0.216}, "label": "Nd", "xyz": [4.263483, -2.461527923046, 1.69214425]}, {"species": [{"element": "Nd", "occu": 1}], "abc": [0.333333, 0.666667, 0.75], "properties": {"magmom": 0.216}, "label": "Nd", "xyz": [4.263483, 2.461527923046, 5.0764327499999995]}]}, "task_ids": null, "uncorrected_energy_per_atom": null, "energy_per_atom": -2.4501969925, "formation_energy_per_atom": 0.18107107062500002, "energy_above_hull": 0.18107107062500002, "is_stable": false, "equilibrium_reaction_energy_per_atom": null, "decomposes_to": null, "xas": null, "grain_boundaries": null, "band_gap": 0.0, "cbm": null, "vbm": null, "efermi": 2.06206029, "is_gap_direct": null, "is_metal": null, "es_source_calc_id": null, "bandstructure": null, "dos": null, "dos_energy_up": null, "dos_energy_down": null, "is_magnetic": null, "ordering": null, "total_magnetization": 2.1295879, "total_magnetization_normalized_vol": null, "total_magnetization_normalized_formula_units": null, "num_magnetic_sites": null, "num_unique_magnetic_sites": null, "types_of_magnetic_species": null, "bulk_modulus": null, "shear_modulus": null, "universal_anisotropy": null, "homogeneous_poisson": null, "e_total": null, "e_ionic": null, "e_electronic": null, "n": null, "e_ij_max": null, "weighted_surface_energy_EV_PER_ANG2": null, "weighted_surface_energy": null, "weighted_work_function": null, "surface_anisotropy": null, "shape_factor": null, "has_reconstructed": null, "possible_species": null, "has_props": null, "theoretical": null, "database_IDs": null, "fields_not_requested": ["builder_meta", "nsites", "elements", "nelements", "composition", "composition_reduced", "chemsys", "symmetry", "property_name", "deprecated", "deprecation_reasons", "last_updated", "origins", "warnings", "task_ids", "uncorrected_energy_per_atom", "equilibrium_reaction_energy_per_atom", "decomposes_to", "xas", "grain_boundaries", "cbm", "vbm", "is_gap_direct", "is_metal", "es_source_calc_id", "bandstructure", "dos", "dos_energy_up", "dos_energy_down", "is_magnetic", "ordering", "total_magnetization_normalized_vol", "total_magnetization_normalized_formula_units", "num_magnetic_sites", "num_unique_magnetic_sites", "types_of_magnetic_species", "bulk_modulus", "shear_modulus", "universal_anisotropy", "homogeneous_poisson", "e_total", "e_ionic", "e_electronic", "n", "e_ij_max", "weighted_surface_energy_EV_PER_ANG2", "weighted_surface_energy", "weighted_work_function", "surface_anisotropy", "shape_factor", "has_reconstructed", "possible_species", "has_props", "theoretical", "database_IDs"]}