{"builder_meta": null, "nsites": null, "elements": null, "nelements": null, "composition": null, "composition_reduced": null, "formula_pretty": "Ba3N2", "formula_anonymous": "A2B3", "chemsys": null, "volume": 1128.7102983263667, "density": 5.178497202469687, "density_atomic": 28.217757458159166, "symmetry": null, "property_name": null, "material_id": "mp-1214623", "deprecated": null, "deprecation_reasons": null, "last_updated": null, "origins": null, "warnings": null, "structure": {"@module": "pymatgen.core.structure", "@class": "Structure", "charge": 0, "lattice": {"matrix": [[-6.55906782, 6.55907877, 6.55894781], [6.55906782, -6.55912888, 6.55899898], [6.55906782, 6.55912888, -6.55899898]], "pbc": [true, true, true], "a": 11.360575749174338, "b": 11.360634223116712, "c": 11.360634223116712, "alpha": 109.4711885999782, "beta": 109.47053527365651, "gamma": 109.47214656464004, "volume": 1128.7102983263667}, "properties": {}, "sites": [{"species": [{"element": "Ba", "occu": 1}], "abc": [0.04731126, 0.27345289, 0.00141833], "properties": {"magmom": 0.0}, "label": "Ba", "xyz": [1.492581210756487, -1.4739914578061428, 2.0945864867300896]}, {"species": [{"element": "Ba", "occu": 1}], "abc": [0.95268874, 0.72654711, 0.99858167], "properties": {"magmom": 0.0}, "label": "Ba", "xyz": [5.066486609243513, 8.033070227806142, 4.4643613232699115]}, {"species": [{"element": "Ba", "occu": 1}], "abc": [0.45268874000000003, 0.45410706, 0.22614263], "properties": {"magmom": 0.0}, "label": "Ba", "xyz": [1.4925877042336293, 1.4739730275263117, 4.464380283680942]}, {"species": [{"element": "Ba", "occu": 1}], "abc": [0.72796087, 0.2265383, 0.27384299], "properties": {"magmom": 0.0}, "label": "Ba", "xyz": [-1.4927098996671153, 5.085030246146178, 4.4643859405929796]}, {"species": [{"element": "Ba", "occu": 1}], "abc": [0.273459, 0.00142536, 0.04730616], "properties": {"magmom": 0.0}, "label": "Ba", "xyz": [-1.4740027823376938, 2.094577201682934, 1.492671188773206]}, {"species": [{"element": "Ba", "occu": 1}], "abc": [0.54731126, 0.54589294, 0.77385737], "properties": {"magmom": 0.0}, "label": "Ba", "xyz": [5.066480115766371, 5.085105742473688, 2.094567526319059]}, {"species": [{"element": "Ba", "occu": 1}], "abc": [0.27203913, 0.773461699999999, 0.72615701], "properties": {"magmom": 0.0}, "label": "Ba", "xyz": [8.05177771966711, 1.4740485238538286, 2.0945618694070154]}, {"species": [{"element": "Ba", "occu": 1}], "abc": [0.726541, 0.9985746400000001, 0.95269384], "properties": {"magmom": 0.0}, "label": "Ba", "xyz": [8.033070602337695, 4.464501568317066, 5.066276621226794]}, {"species": [{"element": "Ba", "occu": 1}], "abc": [0.77203913, 0.04588212, 0.49857843], "properties": {"magmom": 0.0}, "label": "Ba", "xyz": [-1.4927033405992955, 8.033158907982703, 2.0945297254080417]}, {"species": [{"element": "Ba", "occu": 1}], "abc": [0.45410838000000003, 0.22614699, 0.45269268], "properties": {"magmom": 0.0}, "label": "Ba", "xyz": [1.4740277723860877, 4.464475012455621, 1.492560214870252]}, {"species": [{"element": "Ba", "occu": 1}], "abc": [0.22796087, 0.95411788, 0.50142157], "properties": {"magmom": 0.0}, "label": "Ba", "xyz": [8.051771160599296, -1.4740801379827033, 4.464418084591959]}, {"species": [{"element": "Ba", "occu": 1}], "abc": [0.54589162, 0.7738530100000001, 0.54730732], "properties": {"magmom": 0.0}, "label": "Ba", "xyz": [5.085040047613912, 2.0946037575443803, 5.066387595129749]}, {"species": [{"element": "Ba", "occu": 1}], "abc": [0.226541, 0.27384616, 0.72796636], "properties": {"magmom": 0.0}, "label": "Ba", "xyz": [5.085058478594487, 4.464533182445947, -1.492703332772186]}, {"species": [{"element": "Ba", "occu": 1}], "abc": [0.773459, 0.72615384, 0.27203364], "properties": {"magmom": 0.0}, "label": "Ba", "xyz": [1.4740093414055149, 2.0945455875540535, 8.051651142772187]}, {"species": [{"element": "Ba", "occu": 1}], "abc": [0.04589162, 0.49858429, 0.7720386100000001], "properties": {"magmom": 0.0}, "label": "Ba", "xyz": [8.03309552679541, 2.09462887813567, -1.4925858654602417]}, {"species": [{"element": "Ba", "occu": 1}], "abc": [0.95410838, 0.50141571, 0.22796139], "properties": {"magmom": 0.0}, "label": "Ba", "xyz": [-1.4740277067954093, 4.464449891864331, 8.051533675460242]}, {"species": [{"element": "Ba", "occu": 1}], "abc": [0.0014118, 0.047301460000000004, 0.27345276], "properties": {"magmom": 0.0}, "label": "Ba", "xyz": [2.0945885905829247, 1.4926156304870302, -1.4740662235075161]}, {"species": [{"element": "Ba", "occu": 1}], "abc": [0.998588199999999, 0.95269854, 0.72654724], "properties": {"magmom": 0.0}, "label": "Ba", "xyz": [4.464479229417082, 5.0664631395129645, 8.03301403350751]}, {"species": [{"element": "Ba", "occu": 1}], "abc": [0.2738486, 0.72796386, 0.22653988], "properties": {"magmom": 0.0}, "label": "Ba", "xyz": [4.4644632252915954, -1.4927099698883206, 5.084998048609107]}, {"species": [{"element": "Ba", "occu": 1}], "abc": [0.7261514, 0.27203614, 0.77346012], "properties": {"magmom": 0.0}, "label": "Ba", "xyz": [2.0946045947084047, 8.05178873988832, 1.4739497613908936]}, {"species": [{"element": "Ba", "occu": 1}], "abc": [0.4985882, 0.77204096, 0.045889650000000004], "properties": {"magmom": 0.0}, "label": "Ba", "xyz": [2.0945885249922465, -1.492640751078319, 8.033039684097506]}, {"species": [{"element": "Ba", "occu": 1}], "abc": [0.5014118, 0.22795904, 0.95411035], "properties": {"magmom": 0.0}, "label": "Ba", "xyz": [4.464479295007754, 8.051719521078319, -1.474091874097506]}, {"species": [{"element": "Ba", "occu": 1}], "abc": [0.2261514, 0.45269228, 0.45411526], "properties": {"magmom": 0.0}, "label": "Ba", "xyz": [4.464469784359415, 1.4926783557594407, 1.473981905389874]}, {"species": [{"element": "Ba", "occu": 1}], "abc": [0.7738486, 0.54730772, 0.54588474], "properties": {"magmom": 0.0}, "label": "Ba", "xyz": [2.0945980356405856, 5.06640041424056, 5.084965904610126]}, {"species": [{"element": "N", "occu": 1}], "abc": [0.18896512000000001, 0.9389607, 0.25000111], "properties": {"magmom": -0.0}, "label": "N", "xyz": [6.559046109485516, -3.2795376370594562, 5.758297608061605]}, {"species": [{"element": "N", "occu": 1}], "abc": [0.81103488, 0.0610393, 0.74999889], "properties": {"magmom": -0.0}, "label": "N", "xyz": [2.171051448396355e-05, 9.838616407059456, 0.800650201938395]}, {"species": [{"element": "N", "occu": 1}], "abc": [0.31103488, 0.56103599, 0.74999658], "properties": {"magmom": -0.0}, "label": "N", "xyz": [6.559052668553337, 3.2795191411883367, 0.800669227939415]}, {"species": [{"element": "N", "occu": 1}], "abc": [0.93896296, 0.25000506, 0.18896712000000002], "properties": {"magmom": -0.0}, "label": "N", "xyz": [-3.2794734353946997, 5.758376301722652, 6.55895683636442]}, {"species": [{"element": "N", "occu": 1}], "abc": [0.68896512, 0.43896401, 0.25000342000000003], "properties": {"magmom": -0.0}, "label": "N", "xyz": [1.51514466644187e-05, 3.279559628811663, 5.758278582060585]}, {"species": [{"element": "N", "occu": 1}], "abc": [0.06103704, 0.74999494, 0.8110328800000001], "properties": {"magmom": -0.0}, "label": "N", "xyz": [9.8385412553947, 0.8007024682773487, -9.02636441946214e-06]}, {"species": [{"element": "N", "occu": 1}], "abc": [0.56103704, 0.75000415, 0.3110421], "properties": {"magmom": -0.0}, "label": "N", "xyz": [3.279594319014622, 0.8006774788686362, 6.558964303045591]}, {"species": [{"element": "N", "occu": 1}], "abc": [0.43896296, 0.24999585, 0.6889579], "properties": {"magmom": -0.0}, "label": "N", "xyz": [3.279473500985378, 5.758401291131364, -1.6493045591481348e-05]}, {"species": [{"element": "N", "occu": 1}], "abc": [0.25, 0.18896262, 0.93896262], "properties": {"magmom": -0.0}, "label": "N", "xyz": [5.758371190049776, 6.559116352499999, -3.2795122825]}, {"species": [{"element": "N", "occu": 1}], "abc": [0.75, 0.81103738, 0.06103738], "properties": {"magmom": -0.0}, "label": "N", "xyz": [0.8006966299502236, -3.758249999979979e-05, 9.8384600925]}, {"species": [{"element": "N", "occu": 1}], "abc": [0.75, 0.31103717000000003, 0.56103717], "properties": {"magmom": -0.0}, "label": "N", "xyz": [0.8006938751417385, 6.5590912975, 3.2794611125000013]}, {"species": [{"element": "N", "occu": 1}], "abc": [0.25, 0.68896283, 0.43896283], "properties": {"magmom": -0.0}, "label": "N", "xyz": [5.758373944858262, -1.2527500000469871e-05, 3.2794866975]}, {"species": [{"element": "N", "occu": 1}], "abc": [0.5, 0.5, 0.5], "properties": {"magmom": -0.0}, "label": "N", "xyz": [3.27953391, 3.279539385, 3.2794739050000006]}, {"species": [{"element": "N", "occu": 1}], "abc": [0.0, 0.5, 0.0], "properties": {"magmom": -0.0}, "label": "N", "xyz": [3.27953391, -3.27956444, 3.27949949]}, {"species": [{"element": "N", "occu": 1}], "abc": [0.0, -0.0, 0.5], "properties": {"magmom": 0.0}, "label": "N", "xyz": [3.27953391, 3.27956444, -3.27949949]}, {"species": [{"element": "N", "occu": 1}], "abc": [0.5, -0.0, 0.0], "properties": {"magmom": 0.0}, "label": "N", "xyz": [-3.27953391, 3.279539385, 3.279473905]}]}, "task_ids": null, "uncorrected_energy_per_atom": null, "energy_per_atom": -4.942793516499998, "formation_energy_per_atom": -0.45609745449999706, "energy_above_hull": 0.11413891116666701, "is_stable": false, "equilibrium_reaction_energy_per_atom": null, "decomposes_to": null, "xas": null, "grain_boundaries": null, "band_gap": 0.09779999999999901, "cbm": null, "vbm": null, "efermi": 2.46457633, "is_gap_direct": null, "is_metal": null, "es_source_calc_id": null, "bandstructure": null, "dos": null, "dos_energy_up": null, "dos_energy_down": null, "is_magnetic": null, "ordering": null, "total_magnetization": 5.9e-06, "total_magnetization_normalized_vol": null, "total_magnetization_normalized_formula_units": null, "num_magnetic_sites": null, "num_unique_magnetic_sites": null, "types_of_magnetic_species": null, "bulk_modulus": null, "shear_modulus": null, "universal_anisotropy": null, "homogeneous_poisson": null, "e_total": null, "e_ionic": null, "e_electronic": null, "n": null, "e_ij_max": null, "weighted_surface_energy_EV_PER_ANG2": null, "weighted_surface_energy": null, "weighted_work_function": null, "surface_anisotropy": null, "shape_factor": null, "has_reconstructed": null, "possible_species": null, "has_props": null, "theoretical": null, "database_IDs": null, "fields_not_requested": ["builder_meta", "nsites", "elements", "nelements", "composition", "composition_reduced", "chemsys", "symmetry", "property_name", "deprecated", "deprecation_reasons", "last_updated", "origins", "warnings", "task_ids", "uncorrected_energy_per_atom", "equilibrium_reaction_energy_per_atom", "decomposes_to", "xas", "grain_boundaries", "cbm", "vbm", "is_gap_direct", "is_metal", "es_source_calc_id", "bandstructure", "dos", "dos_energy_up", "dos_energy_down", "is_magnetic", "ordering", "total_magnetization_normalized_vol", "total_magnetization_normalized_formula_units", "num_magnetic_sites", "num_unique_magnetic_sites", "types_of_magnetic_species", "bulk_modulus", "shear_modulus", "universal_anisotropy", "homogeneous_poisson", "e_total", "e_ionic", "e_electronic", "n", "e_ij_max", "weighted_surface_energy_EV_PER_ANG2", "weighted_surface_energy", "weighted_work_function", "surface_anisotropy", "shape_factor", "has_reconstructed", "possible_species", "has_props", "theoretical", "database_IDs"]}