{"builder_meta": null, "nsites": null, "elements": null, "nelements": null, "composition": null, "composition_reduced": null, "formula_pretty": "Ba3N", "formula_anonymous": "AB3", "chemsys": null, "volume": 374.2490683806517, "density": 3.780205630447207, "density_atomic": 46.78113354758146, "symmetry": null, "property_name": null, "material_id": "mp-10736", "deprecated": null, "deprecation_reasons": null, "last_updated": null, "origins": null, "warnings": null, "structure": {"@module": "pymatgen.core.structure", "@class": "Structure", "charge": 0, "lattice": {"matrix": [[7.79559149, -2e-08, -0.0], [-3.89779628, 6.75118016, 0.0], [-0.0, 0.0, 7.11102095]], "pbc": [true, true, true], "a": 7.79559149, "b": 7.795591664085508, "c": 7.11102095, "alpha": 90.0, "beta": 90.0, "gamma": 120.0000039487098, "volume": 374.2490683806517}, "properties": {}, "sites": [{"species": [{"element": "Ba", "occu": 1}], "abc": [-0.0, 0.73069501, 0.75], "properties": {"magmom": 0.018000000000000002}, "label": "Ba", "xyz": [-2.848100291792563, 4.933053654523001, 5.3332657125]}, {"species": [{"element": "Ba", "occu": 1}], "abc": [0.0, 0.26930499, 0.25], "properties": {"magmom": 0.018000000000000002}, "label": "Ba", "xyz": [-1.0496959882074373, 1.8181265054769984, 1.7777552375]}, {"species": [{"element": "Ba", "occu": 1}], "abc": [0.73069501, 0.73069501, 0.25], "properties": {"magmom": 0.018000000000000002}, "label": "Ba", "xyz": [2.848099509948902, 4.933053639909101, 1.7777552375]}, {"species": [{"element": "Ba", "occu": 1}], "abc": [0.73069501, -0.0, 0.75], "properties": {"magmom": 0.018000000000000002}, "label": "Ba", "xyz": [5.696199801741465, -1.46139002e-08, 5.3332657125]}, {"species": [{"element": "Ba", "occu": 1}], "abc": [0.26930499, 0.26930499, 0.75], "properties": {"magmom": 0.018000000000000002}, "label": "Ba", "xyz": [1.049695700051098, 1.8181265000908986, 5.3332657125]}, {"species": [{"element": "Ba", "occu": 1}], "abc": [0.26930499, 0.0, 0.25], "properties": {"magmom": 0.018000000000000002}, "label": "Ba", "xyz": [2.0993916882585353, -5.386099800000001e-09, 1.7777552375]}, {"species": [{"element": "N", "occu": 1}], "abc": [0.0, -0.0, 0.5], "properties": {"magmom": -0.007}, "label": "N", "xyz": [0.0, 0.0, 3.555510475]}, {"species": [{"element": "N", "occu": 1}], "abc": [0.0, -0.0, 0.0], "properties": {"magmom": -0.007}, "label": "N", "xyz": [0.0, 0.0, 0.0]}]}, "task_ids": null, "uncorrected_energy_per_atom": null, "energy_per_atom": -3.924165730000002, "formation_energy_per_atom": -0.40036508875000204, "energy_above_hull": 0.0, "is_stable": true, "equilibrium_reaction_energy_per_atom": null, "decomposes_to": null, "xas": null, "grain_boundaries": null, "band_gap": 0.0, "cbm": null, "vbm": null, "efermi": 1.9506369700000001, "is_gap_direct": null, "is_metal": null, "es_source_calc_id": null, "bandstructure": null, "dos": null, "dos_energy_up": null, "dos_energy_down": null, "is_magnetic": null, "ordering": null, "total_magnetization": 0.240807499999999, "total_magnetization_normalized_vol": null, "total_magnetization_normalized_formula_units": null, "num_magnetic_sites": null, "num_unique_magnetic_sites": null, "types_of_magnetic_species": null, "bulk_modulus": null, "shear_modulus": null, "universal_anisotropy": null, "homogeneous_poisson": null, "e_total": null, "e_ionic": null, "e_electronic": null, "n": null, "e_ij_max": null, "weighted_surface_energy_EV_PER_ANG2": null, "weighted_surface_energy": null, "weighted_work_function": null, "surface_anisotropy": null, "shape_factor": null, "has_reconstructed": null, "possible_species": null, "has_props": null, "theoretical": null, "database_IDs": null, "fields_not_requested": ["builder_meta", "nsites", "elements", "nelements", "composition", "composition_reduced", "chemsys", "symmetry", "property_name", "deprecated", "deprecation_reasons", "last_updated", "origins", "warnings", "task_ids", "uncorrected_energy_per_atom", "equilibrium_reaction_energy_per_atom", "decomposes_to", "xas", "grain_boundaries", "cbm", "vbm", "is_gap_direct", "is_metal", "es_source_calc_id", "bandstructure", "dos", "dos_energy_up", "dos_energy_down", "is_magnetic", "ordering", "total_magnetization_normalized_vol", "total_magnetization_normalized_formula_units", "num_magnetic_sites", "num_unique_magnetic_sites", "types_of_magnetic_species", "bulk_modulus", "shear_modulus", "universal_anisotropy", "homogeneous_poisson", "e_total", "e_ionic", "e_electronic", "n", "e_ij_max", "weighted_surface_energy_EV_PER_ANG2", "weighted_surface_energy", "weighted_work_function", "surface_anisotropy", "shape_factor", "has_reconstructed", "possible_species", "has_props", "theoretical", "database_IDs"]}