{"builder_meta": null, "nsites": null, "elements": null, "nelements": null, "composition": null, "composition_reduced": null, "formula_pretty": "Ba3P2", "formula_anonymous": "A2B3", "chemsys": null, "volume": 1452.1553993869104, "density": 4.335496485901339, "density_atomic": 36.30388498467276, "symmetry": null, "property_name": null, "material_id": "mp-32606", "deprecated": null, "deprecation_reasons": null, "last_updated": null, "origins": null, "warnings": null, "structure": {"@module": "pymatgen.core.structure", "@class": "Structure", "charge": 0, "lattice": {"matrix": [[25.70242244, 0.009138799999999002, 0.01583011], [5.71452594, 8.08108205, 0.00010244], [5.71452595, -4.04045208, 6.99847419]], "pbc": [true, true, true], "a": 25.702428939582024, "b": 9.897458958149764, "c": 9.897459311969708, "alpha": 89.99690070624442, "beta": 54.713646628358674, "gamma": 54.71364765541436, "volume": 1452.1553993869106}, "properties": {}, "sites": [{"species": [{"element": "Ba", "occu": 1}], "abc": [0.04613421, 0.9917621, 0.37046176000000003], "properties": {"magmom": -0.0}, "label": "Ba", "xyz": [8.970224542117217, 6.518099526746191, 2.5934989714705616]}, {"species": [{"element": "Ba", "occu": 1}], "abc": [0.13639331, 0.47800051, 0.98544188], "properties": {"magmom": -0.0}, "label": "Ba", "xyz": [11.86851798081489, -0.11762288133183763, 6.898797650397885]}, {"species": [{"element": "Ba", "occu": 1}], "abc": [0.046170010000000004, 0.36981037, 0.49108702], "properties": {"magmom": 0.0}, "label": "Ba", "xyz": [6.106301572823191, 1.004676309978245, 3.4376285942253175]}, {"species": [{"element": "Ba", "occu": 1}], "abc": [0.28719938, 0.13010369, 0.12951576], "properties": {"magmom": 0.0}, "label": "Ba", "xyz": [8.865321872114777, 0.5307010297069273, 0.9109724291575698]}, {"species": [{"element": "Ba", "occu": 1}], "abc": [0.28717464, 0.5082773700000001, 0.00893885], "properties": {"magmom": -0.0}, "label": "Ba", "xyz": [10.336729417203056, 4.073938567652933, 0.0671563850874747]}, {"species": [{"element": "Ba", "occu": 1}], "abc": [0.13639681, 0.61282853, 0.60538459], "properties": {"magmom": -0.0}, "label": "Ba", "xyz": [10.467238910830595, 2.5075367108126674, 4.238990382799295]}, {"species": [{"element": "Ba", "occu": 1}], "abc": [0.19693728, 0.02203621, 0.8945949400000001], "properties": {"magmom": -0.0}, "label": "Ba", "xyz": [10.299877657777543, -3.434691794584981, 6.263919394289451]}, {"species": [{"element": "Ba", "occu": 1}], "abc": [0.37889984, 0.01854633, 0.3470666], "properties": {"magmom": -0.0}, "label": "Ba", "xyz": [11.82794832608348, -1.24896886155436, 2.4349365683432813]}, {"species": [{"element": "Ba", "occu": 1}], "abc": [0.19694262, 0.8871119900000001, 0.51460997], "properties": {"magmom": -0.0}, "label": "Ba", "xyz": [13.072078921914136, 5.091367674269197, 3.604693092052218]}, {"species": [{"element": "Ba", "occu": 1}], "abc": [0.45440061, 0.48386327, 0.98148774], "properties": {"magmom": 0.0}, "label": "Ba", "xyz": [20.052982802878766, -0.051362718431528176, 6.8761593947851765]}, {"species": [{"element": "Ba", "occu": 1}], "abc": [0.37891903, 0.34475764000000003, 0.51622399], "properties": {"magmom": 0.0}, "label": "Ba", "xyz": [14.659238843275755, 0.7036993472943269, 3.618813917172453]}, {"species": [{"element": "Ba", "occu": 1}], "abc": [0.63639681, 0.10538459, 0.11282853], "properties": {"magmom": -0.0}, "label": "Ba", "xyz": [17.603924185905036, 0.40155915304099443, 0.7997125822039893]}, {"species": [{"element": "Ba", "occu": 1}], "abc": [0.63639331, 0.48544188, 0.97800051], "properties": {"magmom": -0.0}, "label": "Ba", "xyz": [24.719729200740478, -0.022852660902879407, 6.8546352318085875]}, {"species": [{"element": "Ba", "occu": 1}], "abc": [0.45443062, 0.65290727, 0.65519977], "properties": {"magmom": 0.0}, "label": "Ba", "xyz": [19.15517938383973, 2.6330468969495375, 4.592659250161643]}, {"species": [{"element": "Ba", "occu": 1}], "abc": [0.54617001, 0.99108702, 0.86981037], "properties": {"magmom": 0.0}, "label": "Ba", "xyz": [24.672038736610425, 4.49961974712531, 6.09609288293068]}, {"species": [{"element": "Ba", "occu": 1}], "abc": [0.6969426200000001, 0.01460997, 0.38711199], "properties": {"magmom": -0.0}, "label": "Ba", "xyz": [20.208764200639155, -1.4396738596547454, 2.720227445638153]}, {"species": [{"element": "Ba", "occu": 1}], "abc": [0.5461342100000001, 0.87046176, 0.4917621], "properties": {"magmom": -0.0}, "label": "Ba", "xyz": [21.82143576333022, 5.0523227154555865, 3.4503188991919562]}, {"species": [{"element": "Ba", "occu": 1}], "abc": [0.78717464, 0.50893885, 0.008277370000000001], "properties": {"magmom": -0.0}, "label": "Ba", "xyz": [23.187940637196444, 4.086526120049244, 0.0704421571422847]}, {"species": [{"element": "Ba", "occu": 1}], "abc": [0.69693728, 0.39459494, 0.52203621], "properties": {"magmom": -0.0}, "label": "Ba", "xyz": [23.151088874051958, 1.0858609665394732, 3.664529958041574]}, {"species": [{"element": "Ba", "occu": 1}], "abc": [0.95443062, 0.15519977000000001, 0.15290727], "properties": {"magmom": 0.0}, "label": "Ba", "xyz": [26.291864658816802, 0.6450899289425621, 1.0852422229247682]}, {"species": [{"element": "Ba", "occu": 1}], "abc": [0.95440061, 0.48148774, 0.9838632700000001], "properties": {"magmom": 0.0}, "label": "Ba", "xyz": [32.904194022902516, -0.07558838640336774, 6.900699291828454]}, {"species": [{"element": "Ba", "occu": 1}], "abc": [0.78719938, 0.62951576, 0.63010369], "properties": {"magmom": 0.0}, "label": "Ba", "xyz": [27.431059037120654, 2.548458801145875, 4.422290351860546]}, {"species": [{"element": "Ba", "occu": 1}], "abc": [0.87891903, 0.01622399, 0.84475764], "properties": {"magmom": 0.0}, "label": "Ba", "xyz": [27.51045006656109, -3.2740631040341484, 5.92592958725684]}, {"species": [{"element": "Ba", "occu": 1}], "abc": [0.87889984, 0.8470666, 0.51854633], "properties": {"magmom": -0.0}, "label": "Ba", "xyz": [30.39368548779828, 4.7580851886474544, 3.6430329614729096]}, {"species": [{"element": "P", "occu": 1}], "abc": [0.08722167, 0.61919388, 0.36919761], "properties": {"magmom": -0.0}, "label": "P", "xyz": [7.889997020434501, 3.512828399280121, 2.5852641034462365]}, {"species": [{"element": "P", "occu": 1}], "abc": [0.16666862000000002, 0.24990162000000002, 0.62821115], "properties": {"magmom": 0.0}, "label": "P", "xyz": [9.301785487424198, -0.5172584008643155, 4.39918350165532]}, {"species": [{"element": "P", "occu": 1}], "abc": [0.24610563, 0.88080529, 0.13082189], "properties": {"magmom": -0.0}, "label": "P", "xyz": [12.106480630149605, 6.591529351135455, 0.9195397295404459]}, {"species": [{"element": "P", "occu": 1}], "abc": [0.34023002, 0.37871572000000003, 0.25075703], "properties": {"magmom": -0.0}, "label": "P", "xyz": [12.341874061715354, 2.0503703376134794, 1.7603412766963147]}, {"species": [{"element": "P", "occu": 1}], "abc": [0.16667618, 0.75005632, 0.87178825], "properties": {"magmom": 0.0}, "label": "P", "xyz": [13.552054463676509, 2.5403712362827795, 6.103902904803468]}, {"species": [{"element": "P", "occu": 1}], "abc": [0.3402209, 0.10066259, 0.72854143], "properties": {"magmom": 0.0}, "label": "P", "xyz": [13.48300918384469, -2.1270648762932454, 5.104074440347711]}, {"species": [{"element": "P", "occu": 1}], "abc": [0.49310148000000004, 0.27152209, 0.62125153], "properties": {"magmom": -0.0}, "label": "P", "xyz": [17.77568056099943, -0.3114383931087743, 4.355646463595473]}, {"species": [{"element": "P", "occu": 1}], "abc": [0.6666761800000001, 0.37178825, 0.25005632], "properties": {"magmom": 0.0}, "label": "P", "xyz": [20.68873973745919, 2.00020339548855, 1.7606043448184905]}, {"species": [{"element": "P", "occu": 1}], "abc": [0.58722167, 0.8691976100000001, 0.11919388], "properties": {"magmom": -0.0}, "label": "P", "xyz": [20.741208237934465, 6.547826545102425, 0.8435601170196092]}, {"species": [{"element": "P", "occu": 1}], "abc": [0.49310715, 0.74922193, 0.8993295], "properties": {"magmom": -0.0}, "label": "P", "xyz": [22.094738196636833, 2.4253325487314163, 6.3018169847764005]}, {"species": [{"element": "P", "occu": 1}], "abc": [0.66666862, 0.12821115, 0.74990162], "properties": {"magmom": 0.0}, "label": "P", "xyz": [22.1529967086411, -1.9877641862650568, 5.258733704147542]}, {"species": [{"element": "P", "occu": 1}], "abc": [0.74610563, 0.63082189, 0.38080529], "properties": {"magmom": -0.0}, "label": "P", "xyz": [24.957691852649436, 3.5659164361020137, 2.676931549069396]}, {"species": [{"element": "P", "occu": 1}], "abc": [0.840220899999999, 0.22854143000000002, 0.60066259], "properties": {"magmom": 0.0}, "label": "P", "xyz": [26.334220402565876, -0.5724077527284364, 4.21704583406894]}, {"species": [{"element": "P", "occu": 1}], "abc": [0.99310715, 0.3993295, 0.24922193], "properties": {"magmom": -0.0}, "label": "P", "xyz": [29.23142347013576, 2.2291209966577794, 1.759935147427253]}, {"species": [{"element": "P", "occu": 1}], "abc": [0.84023002, 0.75075703, 0.87871572], "properties": {"magmom": -0.0}, "label": "P", "xyz": [30.90761122799494, 2.524199094548389, 6.163047127959322]}, {"species": [{"element": "P", "occu": 1}], "abc": [0.99310148, 0.12125153, 0.77152209], "properties": {"magmom": -0.0}, "label": "P", "xyz": [30.626891782502135, -2.128378714882988, 5.415210760556153]}]}, "task_ids": null, "uncorrected_energy_per_atom": null, "energy_per_atom": -4.298713955000002, "formation_energy_per_atom": -0.981139580857144, "energy_above_hull": 0.0, "is_stable": true, "equilibrium_reaction_energy_per_atom": null, "decomposes_to": null, "xas": null, "grain_boundaries": null, "band_gap": 0.250799999999999, "cbm": null, "vbm": null, "efermi": 2.56300498, "is_gap_direct": null, "is_metal": null, "es_source_calc_id": null, "bandstructure": null, "dos": null, "dos_energy_up": null, "dos_energy_down": null, "is_magnetic": null, "ordering": null, "total_magnetization": 0.0, "total_magnetization_normalized_vol": null, "total_magnetization_normalized_formula_units": null, "num_magnetic_sites": null, "num_unique_magnetic_sites": null, "types_of_magnetic_species": null, "bulk_modulus": null, "shear_modulus": null, "universal_anisotropy": null, "homogeneous_poisson": null, "e_total": null, "e_ionic": null, "e_electronic": null, "n": null, "e_ij_max": null, "weighted_surface_energy_EV_PER_ANG2": null, "weighted_surface_energy": null, "weighted_work_function": null, "surface_anisotropy": null, "shape_factor": null, "has_reconstructed": null, "possible_species": null, "has_props": null, "theoretical": null, "database_IDs": null, "fields_not_requested": ["builder_meta", "nsites", "elements", "nelements", "composition", "composition_reduced", "chemsys", "symmetry", "property_name", "deprecated", "deprecation_reasons", "last_updated", "origins", "warnings", "task_ids", "uncorrected_energy_per_atom", "equilibrium_reaction_energy_per_atom", "decomposes_to", "xas", "grain_boundaries", "cbm", "vbm", "is_gap_direct", "is_metal", "es_source_calc_id", "bandstructure", "dos", "dos_energy_up", "dos_energy_down", "is_magnetic", "ordering", "total_magnetization_normalized_vol", "total_magnetization_normalized_formula_units", "num_magnetic_sites", "num_unique_magnetic_sites", "types_of_magnetic_species", "bulk_modulus", "shear_modulus", "universal_anisotropy", "homogeneous_poisson", "e_total", "e_ionic", "e_electronic", "n", "e_ij_max", "weighted_surface_energy_EV_PER_ANG2", "weighted_surface_energy", "weighted_work_function", "surface_anisotropy", "shape_factor", "has_reconstructed", "possible_species", "has_props", "theoretical", "database_IDs"]}