{"builder_meta": null, "nsites": null, "elements": null, "nelements": null, "composition": null, "composition_reduced": null, "formula_pretty": "Ba3Pb5", "formula_anonymous": "A3B5", "chemsys": null, "volume": 603.2153969295712, "density": 7.972041265635218, "density_atomic": 37.7009623080982, "symmetry": null, "property_name": null, "material_id": "mp-630923", "deprecated": null, "deprecation_reasons": null, "last_updated": null, "origins": null, "warnings": null, "structure": {"@module": "pymatgen.core.structure", "@class": "Structure", "charge": 0, "lattice": {"matrix": [[7.31275094, 0.03242707, -0.0], [-1.47267417, 7.16300394, -0.0], [-0.0, 0.0, 11.50537272]], "pbc": [true, true, true], "a": 7.312822835631919, "b": 7.3128239863571665, "c": 11.50537272, "alpha": 90.0, "beta": 90.0, "gamma": 101.363744571763, "volume": 603.2153969295712}, "properties": {}, "sites": [{"species": [{"element": "Ba", "occu": 1}], "abc": [0.86000867, 0.86000867, 0.75], "properties": {"magmom": 0.0}, "label": "Ba", "xyz": [5.022516655665596, 6.188133052986857, 8.629029540000001]}, {"species": [{"element": "Ba", "occu": 1}], "abc": [0.7066347900000001, 0.29336521, 0.5], "properties": {"magmom": 0.0}, "label": "Ba", "xyz": [4.735412857665577, 2.1242902508886927, 5.75268636]}, {"species": [{"element": "Ba", "occu": 1}], "abc": [0.29336521, 0.7066347900000001, 0.5], "properties": {"magmom": 0.0}, "label": "Ba", "xyz": [1.104663912334423, 5.071140759111309, 5.75268636]}, {"species": [{"element": "Ba", "occu": 1}], "abc": [0.29336521, 0.7066347900000001, -0.0], "properties": {"magmom": 0.0}, "label": "Ba", "xyz": [1.104663912334423, 5.071140759111309, 0.0]}, {"species": [{"element": "Ba", "occu": 1}], "abc": [0.13999133, 0.13999133, 0.25], "properties": {"magmom": 0.0}, "label": "Ba", "xyz": [0.8175601143344041, 1.0072979570131433, 2.87634318]}, {"species": [{"element": "Ba", "occu": 1}], "abc": [0.7066347900000001, 0.29336521, -0.0], "properties": {"magmom": 0.0}, "label": "Ba", "xyz": [4.735412857665577, 2.1242902508886927, 0.0]}, {"species": [{"element": "Pb", "occu": 1}], "abc": [0.41174569, 0.01488021, 0.75], "properties": {"magmom": 0.0}, "label": "Pb", "xyz": [2.9890799806772725, 0.1199387091698557, 8.629029540000001]}, {"species": [{"element": "Pb", "occu": 1}], "abc": [0.98511979, 0.5882543100000001, 0.25], "properties": {"magmom": 0.0}, "label": "Pb", "xyz": [6.337628742606929, 4.245612488640697, 2.87634318]}, {"species": [{"element": "Pb", "occu": 1}], "abc": [0.19629684, 0.19629684, 0.55573394], "properties": {"magmom": -0.0}, "label": "Pb", "xyz": [1.1463886153084069, 1.4124403697010086, 6.393926112854117]}, {"species": [{"element": "Pb", "occu": 1}], "abc": [0.19629684, 0.19629684, 0.94426606], "properties": {"magmom": -0.0}, "label": "Pb", "xyz": [1.1463886153084069, 1.4124403697010086, 10.864132967145883]}, {"species": [{"element": "Pb", "occu": 1}], "abc": [0.544490199999999, 0.544490199999999, 0.25], "properties": {"magmom": -0.0}, "label": "Pb", "xyz": [3.1798645685126483, 3.917841669721095, 2.87634318]}, {"species": [{"element": "Pb", "occu": 1}], "abc": [0.80370316, 0.80370316, 0.44426606], "properties": {"magmom": -0.0}, "label": "Pb", "xyz": [4.693688154691594, 5.7829906402989915, 5.111446607145884]}, {"species": [{"element": "Pb", "occu": 1}], "abc": [0.455509799999999, 0.455509799999999, 0.75], "properties": {"magmom": -0.0}, "label": "Pb", "xyz": [2.6602122014873406, 3.277589340278891, 8.629029540000001]}, {"species": [{"element": "Pb", "occu": 1}], "abc": [0.5882543100000001, 0.98511979, 0.25], "properties": {"magmom": 0.0}, "label": "Pb", "xyz": [2.8509967893227275, 7.075492300830145, 2.87634318]}, {"species": [{"element": "Pb", "occu": 1}], "abc": [0.01488021, 0.41174569, 0.75], "properties": {"magmom": 0.0}, "label": "Pb", "xyz": [-0.49755197260692985, 2.9498185213593033, 8.629029540000001]}, {"species": [{"element": "Pb", "occu": 1}], "abc": [0.80370316, 0.80370316, 0.05573394], "properties": {"magmom": -0.0}, "label": "Pb", "xyz": [4.693688154691594, 5.7829906402989915, 0.6412397528541168]}]}, "task_ids": null, "uncorrected_energy_per_atom": null, "energy_per_atom": -3.546161206249998, "formation_energy_per_atom": -0.506141184999996, "energy_above_hull": 0.0, "is_stable": true, "equilibrium_reaction_energy_per_atom": null, "decomposes_to": null, "xas": null, "grain_boundaries": null, "band_gap": 0.0, "cbm": null, "vbm": null, "efermi": 4.60637497, "is_gap_direct": null, "is_metal": null, "es_source_calc_id": null, "bandstructure": null, "dos": null, "dos_energy_up": null, "dos_energy_down": null, "is_magnetic": null, "ordering": null, "total_magnetization": 1.6e-06, "total_magnetization_normalized_vol": null, "total_magnetization_normalized_formula_units": null, "num_magnetic_sites": null, "num_unique_magnetic_sites": null, "types_of_magnetic_species": null, "bulk_modulus": null, "shear_modulus": null, "universal_anisotropy": null, "homogeneous_poisson": null, "e_total": null, "e_ionic": null, "e_electronic": null, "n": null, "e_ij_max": null, "weighted_surface_energy_EV_PER_ANG2": null, "weighted_surface_energy": null, "weighted_work_function": null, "surface_anisotropy": null, "shape_factor": null, "has_reconstructed": null, "possible_species": null, "has_props": null, "theoretical": null, "database_IDs": null, "fields_not_requested": ["builder_meta", "nsites", "elements", "nelements", "composition", "composition_reduced", "chemsys", "symmetry", "property_name", "deprecated", "deprecation_reasons", "last_updated", "origins", "warnings", "task_ids", "uncorrected_energy_per_atom", "equilibrium_reaction_energy_per_atom", "decomposes_to", "xas", "grain_boundaries", "cbm", "vbm", "is_gap_direct", "is_metal", "es_source_calc_id", "bandstructure", "dos", "dos_energy_up", "dos_energy_down", "is_magnetic", "ordering", "total_magnetization_normalized_vol", "total_magnetization_normalized_formula_units", "num_magnetic_sites", "num_unique_magnetic_sites", "types_of_magnetic_species", "bulk_modulus", "shear_modulus", "universal_anisotropy", "homogeneous_poisson", "e_total", "e_ionic", "e_electronic", "n", "e_ij_max", "weighted_surface_energy_EV_PER_ANG2", "weighted_surface_energy", "weighted_work_function", "surface_anisotropy", "shape_factor", "has_reconstructed", "possible_species", "has_props", "theoretical", "database_IDs"]}