{
  "builder_meta": null,
  "nsites": null,
  "elements": null,
  "nelements": null,
  "composition": null,
  "composition_reduced": null,
  "formula_pretty": "Ba3P4",
  "formula_anonymous": "A3B4",
  "chemsys": null,
  "volume": 430.26709162371327,
  "density": 4.136235979382881,
  "density_atomic": 30.73336368740809,
  "symmetry": null,
  "property_name": null,
  "material_id": "mp-14289",
  "deprecated": null,
  "deprecation_reasons": null,
  "last_updated": null,
  "origins": null,
  "warnings": null,
  "structure": {
    "@module": "pymatgen.core.structure",
    "@class": "Structure",
    "charge": 0,
    "lattice": {
      "matrix": [
        [5.91014806, -0.0, 1.99316756],
        [2.95507403, 7.49763292, 0.99658378],
        [0.01485683, 0.0, 9.71492915]
      ],
      "pbc": [true, true, true],
      "a": 6.237192237967186,
      "b": 8.120353511787973,
      "c": 9.714940510106965,
      "alpha": 82.91838660231431,
      "beta": 71.27596032982521,
      "gamma": 67.41542023446304,
      "volume": 430.2670916237133
    },
    "properties": {},
    "sites": [
      {
        "species": [{ "element": "Ba", "occu": 1 }],
        "abc": [0.59346972, 0.98990939, 0.33780285],
        "properties": { "magmom": -0.0 },
        "label": "Ba",
        "xyz": [6.43776812428485, 7.421977230281119, 5.451142989908055]
      },
      {
        "species": [{ "element": "Ba", "occu": 1 }],
        "abc": [0.92118197, 0.01009061, 0.66219715],
        "properties": { "magmom": -0.0 },
        "label": "Ba",
        "xyz": [5.48397848294437, 0.0756556897188812, 8.279324553299121]
      },
      {
        "species": [{ "element": "Ba", "occu": 1 }],
        "abc": [0.33338011, 0.51009061, 0.83780285],
        "properties": { "magmom": -0.0 },
        "label": "Ba",
        "xyz": [3.4901284194329105, 3.8244721497188814, 9.312025778075615]
      },
      {
        "species": [{ "element": "Ba", "occu": 1 }],
        "abc": [0.68127257, 0.48990939, 0.16219715],
        "properties": { "magmom": -0.0 },
        "label": "Ba",
        "xyz": [5.4765500088428904, 3.6731607702811186, 3.421859958367446]
      },
      {
        "species": [{ "element": "Ba", "occu": 1 }],
        "abc": [0.00103105, 0.5, 0.5],
        "properties": { "magmom": 0.0 },
        "label": "Ba",
        "xyz": [1.491059088157263, 3.74881646, 5.357811520412738]
      },
      {
        "species": [{ "element": "Ba", "occu": 1 }],
        "abc": [0.25103105, 0.0, -0.0],
        "properties": { "magmom": 0.0 },
        "label": "Ba",
        "xyz": [1.4836306731572628, 0.0, 0.5003469454127379]
      },
      {
        "species": [{ "element": "P", "occu": 1 }],
        "abc": [0.41920423, 0.65461848, 0.49396925],
        "properties": { "magmom": -0.0 },
        "label": "P",
        "xyz": [4.4193439536568455, 4.908089065688362, 6.286802697535671]
      },
      {
        "species": [{ "element": "P", "occu": 1 }],
        "abc": [0.56779195, 0.34538152, 0.50603075],
        "properties": { "magmom": -0.0 },
        "label": "P",
        "xyz": [4.383880464797565, 2.5895438543116382, 6.391959000284251]
      },
      {
        "species": [{ "element": "P", "occu": 1 }],
        "abc": [0.823822699999999, 0.84538152, 0.99396925],
        "properties": { "magmom": -0.0 },
        "label": "P",
        "xyz": [7.381846339555359, 6.338360314311639, 12.140851032603994]
      },
      {
        "species": [{ "element": "P", "occu": 1 }],
        "abc": [0.66317247, 0.15461848, 0.0060307500000000005],
        "properties": { "magmom": -0.0 },
        "label": "P",
        "xyz": [4.376446139649506, 1.1592726056883615, 1.5344924321166904]
      },
      {
        "species": [{ "element": "P", "occu": 1 }],
        "abc": [0.34904749, 0.19517519, 0.65140891],
        "properties": { "magmom": 0.0 },
        "label": "P",
        "xyz": [2.649357352577041, 1.4633519297112547, 7.2186099709085685]
      },
      {
        "species": [{ "element": "P", "occu": 1 }],
        "abc": [0.19563259, 0.8048248100000001, 0.34859109],
        "properties": { "magmom": 0.0 },
        "label": "P",
        "xyz": [3.5397134255556044, 6.034280990288746, 4.578541625125636]
      },
      {
        "species": [{ "element": "P", "occu": 1 }],
        "abc": [0.7504584, 0.69517519, 0.84859109],
        "properties": { "magmom": 0.0 },
        "label": "P",
        "xyz": [6.502221780703665, 5.212168389711255, 10.432591973293196]
      },
      {
        "species": [{ "element": "P", "occu": 1 }],
        "abc": [0.29422369, 0.30482481, 0.15140891],
        "properties": { "magmom": 0.0 },
        "label": "P",
        "xyz": [2.641934906826581, 2.285464530288745, 2.3611474090078044]
      }
    ]
  },
  "task_ids": null,
  "uncorrected_energy_per_atom": null,
  "energy_per_atom": -4.865465115714282,
  "formation_energy_per_atom": -0.948490984081629,
  "energy_above_hull": 0.0,
  "is_stable": true,
  "equilibrium_reaction_energy_per_atom": null,
  "decomposes_to": null,
  "xas": null,
  "grain_boundaries": null,
  "band_gap": 0.48389999999999905,
  "cbm": null,
  "vbm": null,
  "efermi": 3.41340133,
  "is_gap_direct": null,
  "is_metal": null,
  "es_source_calc_id": null,
  "bandstructure": null,
  "dos": null,
  "dos_energy_up": null,
  "dos_energy_down": null,
  "is_magnetic": null,
  "ordering": null,
  "total_magnetization": 0.0,
  "total_magnetization_normalized_vol": null,
  "total_magnetization_normalized_formula_units": null,
  "num_magnetic_sites": null,
  "num_unique_magnetic_sites": null,
  "types_of_magnetic_species": null,
  "bulk_modulus": null,
  "shear_modulus": null,
  "universal_anisotropy": null,
  "homogeneous_poisson": null,
  "e_total": null,
  "e_ionic": null,
  "e_electronic": null,
  "n": null,
  "e_ij_max": null,
  "weighted_surface_energy_EV_PER_ANG2": null,
  "weighted_surface_energy": null,
  "weighted_work_function": null,
  "surface_anisotropy": null,
  "shape_factor": null,
  "has_reconstructed": null,
  "possible_species": null,
  "has_props": null,
  "theoretical": null,
  "database_IDs": null,
  "fields_not_requested": [
    "builder_meta",
    "nsites",
    "elements",
    "nelements",
    "composition",
    "composition_reduced",
    "chemsys",
    "symmetry",
    "property_name",
    "deprecated",
    "deprecation_reasons",
    "last_updated",
    "origins",
    "warnings",
    "task_ids",
    "uncorrected_energy_per_atom",
    "equilibrium_reaction_energy_per_atom",
    "decomposes_to",
    "xas",
    "grain_boundaries",
    "cbm",
    "vbm",
    "is_gap_direct",
    "is_metal",
    "es_source_calc_id",
    "bandstructure",
    "dos",
    "dos_energy_up",
    "dos_energy_down",
    "is_magnetic",
    "ordering",
    "total_magnetization_normalized_vol",
    "total_magnetization_normalized_formula_units",
    "num_magnetic_sites",
    "num_unique_magnetic_sites",
    "types_of_magnetic_species",
    "bulk_modulus",
    "shear_modulus",
    "universal_anisotropy",
    "homogeneous_poisson",
    "e_total",
    "e_ionic",
    "e_electronic",
    "n",
    "e_ij_max",
    "weighted_surface_energy_EV_PER_ANG2",
    "weighted_surface_energy",
    "weighted_work_function",
    "surface_anisotropy",
    "shape_factor",
    "has_reconstructed",
    "possible_species",
    "has_props",
    "theoretical",
    "database_IDs"
  ]
}
