{"builder_meta": null, "nsites": null, "elements": null, "nelements": null, "composition": null, "composition_reduced": null, "formula_pretty": "Ba3Pr", "formula_anonymous": "AB3", "chemsys": null, "volume": 426.8714466581733, "density": 4.301497371127366, "density_atomic": 53.35893083227166, "symmetry": null, "property_name": null, "material_id": "mp-1183368", "deprecated": null, "deprecation_reasons": null, "last_updated": null, "origins": null, "warnings": null, "structure": {"@module": "pymatgen.core.structure", "@class": "Structure", "charge": 0, "lattice": {"matrix": [[4.271727, -7.398848, 0.0], [4.271727, 7.398848, 0.0], [0.0, 0.0, 6.753043]], "pbc": [true, true, true], "a": 8.543453826739688, "b": 8.543453826739688, "c": 6.753043, "alpha": 90.0, "beta": 90.0, "gamma": 119.99999865829321, "volume": 426.8714466581733}, "properties": {}, "sites": [{"species": [{"element": "Ba", "occu": 1}], "abc": [0.171967999999999, 0.343935999999999, 0.25], "properties": {"magmom": 0.06}, "label": "Ba", "xyz": [2.2038010462079916, 1.2723650928640002, 1.68826075]}, {"species": [{"element": "Ba", "occu": 1}], "abc": [0.656064, 0.828032, 0.25], "properties": {"magmom": 0.063}, "label": "Ba", "xyz": [6.339652953792001, 1.2723650928640007, 1.68826075]}, {"species": [{"element": "Ba", "occu": 1}], "abc": [0.171967999999999, 0.828032, 0.25], "properties": {"magmom": 0.06}, "label": "Ba", "xyz": [4.271726999999996, 4.854117814272008, 1.68826075]}, {"species": [{"element": "Ba", "occu": 1}], "abc": [0.828032, 0.656064, 0.75], "properties": {"magmom": 0.06}, "label": "Ba", "xyz": [6.339652953792001, -1.2723650928640007, 5.06478225]}, {"species": [{"element": "Ba", "occu": 1}], "abc": [0.343935999999999, 0.171967999999999, 0.75], "properties": {"magmom": 0.063}, "label": "Ba", "xyz": [2.2038010462079916, -1.2723650928640002, 5.06478225]}, {"species": [{"element": "Ba", "occu": 1}], "abc": [0.828032, 0.171967999999999, 0.75], "properties": {"magmom": 0.06}, "label": "Ba", "xyz": [4.271726999999996, -4.854117814272008, 5.06478225]}, {"species": [{"element": "Pr", "occu": 1}], "abc": [0.333333, 0.666667, 0.75], "properties": {"magmom": 0.215}, "label": "Pr", "xyz": [4.271727, 2.466287599232, 5.06478225]}, {"species": [{"element": "Pr", "occu": 1}], "abc": [0.666667, 0.333333, 0.25], "properties": {"magmom": 0.215}, "label": "Pr", "xyz": [4.271727, -2.466287599232, 1.68826075]}]}, "task_ids": null, "uncorrected_energy_per_atom": null, "energy_per_atom": -2.46332233125, "formation_energy_per_atom": 0.17477673833333301, "energy_above_hull": 0.17477673833333301, "is_stable": false, "equilibrium_reaction_energy_per_atom": null, "decomposes_to": null, "xas": null, "grain_boundaries": null, "band_gap": 0.0, "cbm": null, "vbm": null, "efermi": 2.10418949, "is_gap_direct": null, "is_metal": null, "es_source_calc_id": null, "bandstructure": null, "dos": null, "dos_energy_up": null, "dos_energy_down": null, "is_magnetic": null, "ordering": null, "total_magnetization": 2.1491615, "total_magnetization_normalized_vol": null, "total_magnetization_normalized_formula_units": null, "num_magnetic_sites": null, "num_unique_magnetic_sites": null, "types_of_magnetic_species": null, "bulk_modulus": null, "shear_modulus": null, "universal_anisotropy": null, "homogeneous_poisson": null, "e_total": null, "e_ionic": null, "e_electronic": null, "n": null, "e_ij_max": null, "weighted_surface_energy_EV_PER_ANG2": null, "weighted_surface_energy": null, "weighted_work_function": null, "surface_anisotropy": null, "shape_factor": null, "has_reconstructed": null, "possible_species": null, "has_props": null, "theoretical": null, "database_IDs": null, "fields_not_requested": ["builder_meta", "nsites", "elements", "nelements", "composition", "composition_reduced", "chemsys", "symmetry", "property_name", "deprecated", "deprecation_reasons", "last_updated", "origins", "warnings", "task_ids", "uncorrected_energy_per_atom", "equilibrium_reaction_energy_per_atom", "decomposes_to", "xas", "grain_boundaries", "cbm", "vbm", "is_gap_direct", "is_metal", "es_source_calc_id", "bandstructure", "dos", "dos_energy_up", "dos_energy_down", "is_magnetic", "ordering", "total_magnetization_normalized_vol", "total_magnetization_normalized_formula_units", "num_magnetic_sites", "num_unique_magnetic_sites", "types_of_magnetic_species", "bulk_modulus", "shear_modulus", "universal_anisotropy", "homogeneous_poisson", "e_total", "e_ionic", "e_electronic", "n", "e_ij_max", "weighted_surface_energy_EV_PER_ANG2", "weighted_surface_energy", "weighted_work_function", "surface_anisotropy", "shape_factor", "has_reconstructed", "possible_species", "has_props", "theoretical", "database_IDs"]}