{"builder_meta": null, "nsites": null, "elements": null, "nelements": null, "composition": null, "composition_reduced": null, "formula_pretty": "Ba3Sn2", "formula_anonymous": "A2B3", "chemsys": null, "volume": 812.1201562595032, "density": 5.311311249093199, "density_atomic": 40.606007812975164, "symmetry": null, "property_name": null, "material_id": "mp-1190176", "deprecated": null, "deprecation_reasons": null, "last_updated": null, "origins": null, "warnings": null, "structure": {"@module": "pymatgen.core.structure", "@class": "Structure", "charge": 0, "lattice": {"matrix": [[6.70622041, -0.0, 0.0], [0.0, 6.70622041, 0.0], [-0.0, -0.0, 18.05779188]], "pbc": [true, true, true], "a": 6.70622041, "b": 6.70622041, "c": 18.05779188, "alpha": 90.0, "beta": 90.0, "gamma": 90.0, "volume": 812.1201562595032}, "properties": {}, "sites": [{"species": [{"element": "Ba", "occu": 1}], "abc": [0.34260691, 0.9159679900000001, 0.1360346], "properties": {"magmom": -0.0}, "label": "Ba", "xyz": [2.297597452449033, 6.1426832294446765, 2.456484495279048]}, {"species": [{"element": "Ba", "occu": 1}], "abc": [0.65739309, 0.08403201, 0.6360346], "properties": {"magmom": -0.0}, "label": "Ba", "xyz": [4.408622957550967, 0.5635371805553242, 11.485380435279048]}, {"species": [{"element": "Ba", "occu": 1}], "abc": [0.41596799, 0.15739309, 0.3860346], "properties": {"magmom": -0.0}, "label": "Ba", "xyz": [2.789573024444676, 1.055512752550967, 6.970932465279048]}, {"species": [{"element": "Ba", "occu": 1}], "abc": [0.58403201, 0.84260691, 0.8860346], "properties": {"magmom": -0.0}, "label": "Ba", "xyz": [3.9166473855553248, 5.650707657449034, 15.999828405279048]}, {"species": [{"element": "Ba", "occu": 1}], "abc": [0.08403201, 0.65739309, 0.3639654], "properties": {"magmom": -0.0}, "label": "Ba", "xyz": [0.5635371805553242, 4.408622957550967, 6.572411444720952]}, {"species": [{"element": "Ba", "occu": 1}], "abc": [0.9159679900000001, 0.34260691, 0.8639654], "properties": {"magmom": -0.0}, "label": "Ba", "xyz": [6.1426832294446765, 2.297597452449033, 15.601307384720952]}, {"species": [{"element": "Ba", "occu": 1}], "abc": [0.15739309, 0.41596799, 0.6139654], "properties": {"magmom": -0.0}, "label": "Ba", "xyz": [1.055512752550967, 2.789573024444676, 11.086859414720951]}, {"species": [{"element": "Ba", "occu": 1}], "abc": [0.84260691, 0.58403201, 0.1139654], "properties": {"magmom": -0.0}, "label": "Ba", "xyz": [5.650707657449034, 3.9166473855553248, 2.057963474720952]}, {"species": [{"element": "Ba", "occu": 1}], "abc": [0.82542656, 0.17457344, 0.25], "properties": {"magmom": 0.0}, "label": "Ba", "xyz": [5.53549244362809, 1.1707279663719103, 4.51444797]}, {"species": [{"element": "Ba", "occu": 1}], "abc": [0.17457344, 0.82542656, 0.75], "properties": {"magmom": 0.0}, "label": "Ba", "xyz": [1.1707279663719103, 5.53549244362809, 13.54334391]}, {"species": [{"element": "Ba", "occu": 1}], "abc": [0.67457344, 0.67457344, 0.5], "properties": {"magmom": 0.0}, "label": "Ba", "xyz": [4.52383817137191, 4.52383817137191, 9.02889594]}, {"species": [{"element": "Ba", "occu": 1}], "abc": [0.32542656000000003, 0.32542656000000003, 0.0], "properties": {"magmom": 0.0}, "label": "Ba", "xyz": [2.1823822386280898, 2.1823822386280898, 0.0]}, {"species": [{"element": "Sn", "occu": 1}], "abc": [0.32940244, 0.41435849, 0.20254011], "properties": {"magmom": -0.0}, "label": "Sn", "xyz": [2.2090453662318006, 2.778779362694781, 3.6574271537323066]}, {"species": [{"element": "Sn", "occu": 1}], "abc": [0.67059756, 0.58564151, 0.70254011], "properties": {"magmom": -0.0}, "label": "Sn", "xyz": [4.4971750437682, 3.9274410473052193, 12.686323093732307]}, {"species": [{"element": "Sn", "occu": 1}], "abc": [0.91435849, 0.17059756, 0.45254011], "properties": {"magmom": -0.0}, "label": "Sn", "xyz": [6.131889567694781, 1.1440648387681998, 8.171875123732306]}, {"species": [{"element": "Sn", "occu": 1}], "abc": [0.08564151, 0.82940244, 0.95254011], "properties": {"magmom": -0.0}, "label": "Sn", "xyz": [0.5743308423052191, 5.5621555712318, 17.200771063732308]}, {"species": [{"element": "Sn", "occu": 1}], "abc": [0.58564151, 0.67059756, 0.29745989], "properties": {"magmom": -0.0}, "label": "Sn", "xyz": [3.9274410473052193, 4.4971750437682, 5.371468786267693]}, {"species": [{"element": "Sn", "occu": 1}], "abc": [0.41435849, 0.32940244, 0.7974598900000001], "properties": {"magmom": -0.0}, "label": "Sn", "xyz": [2.778779362694781, 2.2090453662318006, 14.400364726267695]}, {"species": [{"element": "Sn", "occu": 1}], "abc": [0.17059756, 0.91435849, 0.5474598900000001], "properties": {"magmom": -0.0}, "label": "Sn", "xyz": [1.1440648387681998, 6.131889567694781, 9.885916756267694]}, {"species": [{"element": "Sn", "occu": 1}], "abc": [0.82940244, 0.08564151, 0.04745989], "properties": {"magmom": -0.0}, "label": "Sn", "xyz": [5.5621555712318, 0.5743308423052191, 0.8570208162676931]}]}, "task_ids": null, "uncorrected_energy_per_atom": null, "energy_per_atom": -3.396221678999998, "formation_energy_per_atom": -0.641007972999998, "energy_above_hull": 0.004737244000003, "is_stable": false, "equilibrium_reaction_energy_per_atom": null, "decomposes_to": null, "xas": null, "grain_boundaries": null, "band_gap": 0.37470000000000003, "cbm": null, "vbm": null, "efermi": 3.50931277, "is_gap_direct": null, "is_metal": null, "es_source_calc_id": null, "bandstructure": null, "dos": null, "dos_energy_up": null, "dos_energy_down": null, "is_magnetic": null, "ordering": null, "total_magnetization": 0.0, "total_magnetization_normalized_vol": null, "total_magnetization_normalized_formula_units": null, "num_magnetic_sites": null, "num_unique_magnetic_sites": null, "types_of_magnetic_species": null, "bulk_modulus": null, "shear_modulus": null, "universal_anisotropy": null, "homogeneous_poisson": null, "e_total": null, "e_ionic": null, "e_electronic": null, "n": null, "e_ij_max": null, "weighted_surface_energy_EV_PER_ANG2": null, "weighted_surface_energy": null, "weighted_work_function": null, "surface_anisotropy": null, "shape_factor": null, "has_reconstructed": null, "possible_species": null, "has_props": null, "theoretical": null, "database_IDs": null, "fields_not_requested": ["builder_meta", "nsites", "elements", "nelements", "composition", "composition_reduced", "chemsys", "symmetry", "property_name", "deprecated", "deprecation_reasons", "last_updated", "origins", "warnings", "task_ids", "uncorrected_energy_per_atom", "equilibrium_reaction_energy_per_atom", "decomposes_to", "xas", "grain_boundaries", "cbm", "vbm", "is_gap_direct", "is_metal", "es_source_calc_id", "bandstructure", "dos", "dos_energy_up", "dos_energy_down", "is_magnetic", "ordering", "total_magnetization_normalized_vol", "total_magnetization_normalized_formula_units", "num_magnetic_sites", "num_unique_magnetic_sites", "types_of_magnetic_species", "bulk_modulus", "shear_modulus", "universal_anisotropy", "homogeneous_poisson", "e_total", "e_ionic", "e_electronic", "n", "e_ij_max", "weighted_surface_energy_EV_PER_ANG2", "weighted_surface_energy", "weighted_work_function", "surface_anisotropy", "shape_factor", "has_reconstructed", "possible_species", "has_props", "theoretical", "database_IDs"]}