{
  "builder_meta": null,
  "nsites": null,
  "elements": null,
  "nelements": null,
  "composition": null,
  "composition_reduced": null,
  "formula_pretty": "Ba3Sc4",
  "formula_anonymous": "A3B4",
  "chemsys": null,
  "volume": 252.87608676624012,
  "density": 3.8861513176921623,
  "density_atomic": 36.12515525232002,
  "symmetry": null,
  "property_name": null,
  "material_id": "mp-1078164",
  "deprecated": null,
  "deprecation_reasons": null,
  "last_updated": null,
  "origins": null,
  "warnings": null,
  "structure": {
    "@module": "pymatgen.core.structure",
    "@class": "Structure",
    "charge": 0,
    "lattice": {
      "matrix": [
        [8.458304, -2.968721, 0.0],
        [8.458304, 2.968721, 0.0],
        [7.416334, 0.0, 5.035297]
      ],
      "pbc": [true, true, true],
      "a": 8.964162589570595,
      "b": 8.964162589570595,
      "c": 8.964163423195998,
      "alpha": 38.68041381858846,
      "beta": 38.68041381858846,
      "gamma": 38.68041327484503,
      "volume": 252.87608676624012
    },
    "properties": {},
    "sites": [
      {
        "species": [{ "element": "Ba", "occu": 1 }],
        "abc": [0.0, 0.0, 0.0],
        "properties": { "magmom": -0.002 },
        "label": "Ba",
        "xyz": [0.0, 0.0, 0.0]
      },
      {
        "species": [{ "element": "Ba", "occu": 1 }],
        "abc": [0.575315, 0.575315, 0.575315],
        "properties": { "magmom": -0.0 },
        "label": "Ba",
        "xyz": [13.99910652673, 0.0, 2.8968818935550003]
      },
      {
        "species": [{ "element": "Ba", "occu": 1 }],
        "abc": [0.424685, 0.424685, 0.424685],
        "properties": { "magmom": -0.0 },
        "label": "Ba",
        "xyz": [10.33383547327, 0.0, 2.1384151064449997]
      },
      {
        "species": [{ "element": "Sc", "occu": 1 }],
        "abc": [0.846186999999999, 0.846186999999999, 0.846186999999999],
        "properties": { "magmom": 0.051000000000000004 },
        "label": "Sc",
        "xyz": [20.590219192153974, 0.0, 4.260802862538995]
      },
      {
        "species": [{ "element": "Sc", "occu": 1 }],
        "abc": [0.153813, 0.153813, 0.153813],
        "properties": { "magmom": 0.051000000000000004 },
        "label": "Sc",
        "xyz": [3.742722807846, 0.0, 0.774494137461]
      },
      {
        "species": [{ "element": "Sc", "occu": 1 }],
        "abc": [0.720183999999999, 0.720183999999999, 0.720183999999999],
        "properties": { "magmom": 0.014 },
        "label": "Sc",
        "xyz": [17.524195501327977, 0.0, 3.626340334647995]
      },
      {
        "species": [{ "element": "Sc", "occu": 1 }],
        "abc": [0.279816, 0.279816, 0.279816],
        "properties": { "magmom": 0.014 },
        "label": "Sc",
        "xyz": [6.808746498672001, 0.0, 1.408956665352]
      }
    ]
  },
  "task_ids": null,
  "uncorrected_energy_per_atom": null,
  "energy_per_atom": -4.029770852857143,
  "formation_energy_per_atom": 0.411200752857142,
  "energy_above_hull": 0.411200752857141,
  "is_stable": false,
  "equilibrium_reaction_energy_per_atom": null,
  "decomposes_to": null,
  "xas": null,
  "grain_boundaries": null,
  "band_gap": 0.0,
  "cbm": null,
  "vbm": null,
  "efermi": 2.72622776,
  "is_gap_direct": null,
  "is_metal": null,
  "es_source_calc_id": null,
  "bandstructure": null,
  "dos": null,
  "dos_energy_up": null,
  "dos_energy_down": null,
  "is_magnetic": null,
  "ordering": null,
  "total_magnetization": 0.2154321,
  "total_magnetization_normalized_vol": null,
  "total_magnetization_normalized_formula_units": null,
  "num_magnetic_sites": null,
  "num_unique_magnetic_sites": null,
  "types_of_magnetic_species": null,
  "bulk_modulus": null,
  "shear_modulus": null,
  "universal_anisotropy": null,
  "homogeneous_poisson": null,
  "e_total": null,
  "e_ionic": null,
  "e_electronic": null,
  "n": null,
  "e_ij_max": null,
  "weighted_surface_energy_EV_PER_ANG2": null,
  "weighted_surface_energy": null,
  "weighted_work_function": null,
  "surface_anisotropy": null,
  "shape_factor": null,
  "has_reconstructed": null,
  "possible_species": null,
  "has_props": null,
  "theoretical": null,
  "database_IDs": null,
  "fields_not_requested": [
    "builder_meta",
    "nsites",
    "elements",
    "nelements",
    "composition",
    "composition_reduced",
    "chemsys",
    "symmetry",
    "property_name",
    "deprecated",
    "deprecation_reasons",
    "last_updated",
    "origins",
    "warnings",
    "task_ids",
    "uncorrected_energy_per_atom",
    "equilibrium_reaction_energy_per_atom",
    "decomposes_to",
    "xas",
    "grain_boundaries",
    "cbm",
    "vbm",
    "is_gap_direct",
    "is_metal",
    "es_source_calc_id",
    "bandstructure",
    "dos",
    "dos_energy_up",
    "dos_energy_down",
    "is_magnetic",
    "ordering",
    "total_magnetization_normalized_vol",
    "total_magnetization_normalized_formula_units",
    "num_magnetic_sites",
    "num_unique_magnetic_sites",
    "types_of_magnetic_species",
    "bulk_modulus",
    "shear_modulus",
    "universal_anisotropy",
    "homogeneous_poisson",
    "e_total",
    "e_ionic",
    "e_electronic",
    "n",
    "e_ij_max",
    "weighted_surface_energy_EV_PER_ANG2",
    "weighted_surface_energy",
    "weighted_work_function",
    "surface_anisotropy",
    "shape_factor",
    "has_reconstructed",
    "possible_species",
    "has_props",
    "theoretical",
    "database_IDs"
  ]
}
