{
  "builder_meta": null,
  "nsites": null,
  "elements": null,
  "nelements": null,
  "composition": null,
  "composition_reduced": null,
  "formula_pretty": "Ba3Sm",
  "formula_anonymous": "AB3",
  "chemsys": null,
  "volume": 420.87241976253546,
  "density": 4.437397916346113,
  "density_atomic": 52.60905247031693,
  "symmetry": null,
  "property_name": null,
  "material_id": "mp-1183357",
  "deprecated": null,
  "deprecation_reasons": null,
  "last_updated": null,
  "origins": null,
  "warnings": null,
  "structure": {
    "@module": "pymatgen.core.structure",
    "@class": "Structure",
    "charge": 0,
    "lattice": {
      "matrix": [
        [4.243047, -7.349174, 0.0],
        [4.243047, 7.349174, 0.0],
        [0.0, 0.0, 6.748451]
      ],
      "pbc": [true, true, true],
      "a": 8.486094880832113,
      "b": 8.486094880832113,
      "c": 6.748451,
      "alpha": 90.0,
      "beta": 90.0,
      "gamma": 120.00000686716133,
      "volume": 420.87241976253546
    },
    "properties": {},
    "sites": [
      {
        "species": [{ "element": "Ba", "occu": 1 }],
        "abc": [0.827379, 0.172621, 0.75],
        "properties": { "magmom": 0.06 },
        "label": "Ba",
        "xyz": [4.243047, -4.811930469891999, 5.06133825]
      },
      {
        "species": [{ "element": "Ba", "occu": 1 }],
        "abc": [0.345242, 0.172621, 0.75],
        "properties": { "magmom": 0.062 },
        "label": "Ba",
        "xyz": [2.1973170485609996, -1.268621765054, 5.06133825]
      },
      {
        "species": [{ "element": "Ba", "occu": 1 }],
        "abc": [0.827379, 0.654758, 0.75],
        "properties": { "magmom": 0.06 },
        "label": "Ba",
        "xyz": [6.288776951438999, -1.2686217650540002, 5.06133825]
      },
      {
        "species": [{ "element": "Ba", "occu": 1 }],
        "abc": [0.172621, 0.827379, 0.25],
        "properties": { "magmom": 0.06 },
        "label": "Ba",
        "xyz": [4.243047, 4.811930469891999, 1.68711275]
      },
      {
        "species": [{ "element": "Ba", "occu": 1 }],
        "abc": [0.654758, 0.827379, 0.25],
        "properties": { "magmom": 0.062 },
        "label": "Ba",
        "xyz": [6.288776951438999, 1.2686217650540002, 1.68711275]
      },
      {
        "species": [{ "element": "Ba", "occu": 1 }],
        "abc": [0.172621, 0.345242, 0.25],
        "properties": { "magmom": 0.06 },
        "label": "Ba",
        "xyz": [2.1973170485609996, 1.268621765054, 1.68711275]
      },
      {
        "species": [{ "element": "Sm", "occu": 1 }],
        "abc": [0.666667, 0.333333, 0.25],
        "properties": { "magmom": 0.217 },
        "label": "Sm",
        "xyz": [4.243047, -2.449729566116, 1.68711275]
      },
      {
        "species": [{ "element": "Sm", "occu": 1 }],
        "abc": [0.333333, 0.666667, 0.75],
        "properties": { "magmom": 0.217 },
        "label": "Sm",
        "xyz": [4.243047, 2.449729566116, 5.06133825]
      }
    ]
  },
  "task_ids": null,
  "uncorrected_energy_per_atom": null,
  "energy_per_atom": -2.42163681,
  "formation_energy_per_atom": 0.19724092874999902,
  "energy_above_hull": 0.19724092874999902,
  "is_stable": false,
  "equilibrium_reaction_energy_per_atom": null,
  "decomposes_to": null,
  "xas": null,
  "grain_boundaries": null,
  "band_gap": 0.0,
  "cbm": null,
  "vbm": null,
  "efermi": 2.06760358,
  "is_gap_direct": null,
  "is_metal": null,
  "es_source_calc_id": null,
  "bandstructure": null,
  "dos": null,
  "dos_energy_up": null,
  "dos_energy_down": null,
  "is_magnetic": null,
  "ordering": null,
  "total_magnetization": 2.0753392,
  "total_magnetization_normalized_vol": null,
  "total_magnetization_normalized_formula_units": null,
  "num_magnetic_sites": null,
  "num_unique_magnetic_sites": null,
  "types_of_magnetic_species": null,
  "bulk_modulus": null,
  "shear_modulus": null,
  "universal_anisotropy": null,
  "homogeneous_poisson": null,
  "e_total": null,
  "e_ionic": null,
  "e_electronic": null,
  "n": null,
  "e_ij_max": null,
  "weighted_surface_energy_EV_PER_ANG2": null,
  "weighted_surface_energy": null,
  "weighted_work_function": null,
  "surface_anisotropy": null,
  "shape_factor": null,
  "has_reconstructed": null,
  "possible_species": null,
  "has_props": null,
  "theoretical": null,
  "database_IDs": null,
  "fields_not_requested": [
    "builder_meta",
    "nsites",
    "elements",
    "nelements",
    "composition",
    "composition_reduced",
    "chemsys",
    "symmetry",
    "property_name",
    "deprecated",
    "deprecation_reasons",
    "last_updated",
    "origins",
    "warnings",
    "task_ids",
    "uncorrected_energy_per_atom",
    "equilibrium_reaction_energy_per_atom",
    "decomposes_to",
    "xas",
    "grain_boundaries",
    "cbm",
    "vbm",
    "is_gap_direct",
    "is_metal",
    "es_source_calc_id",
    "bandstructure",
    "dos",
    "dos_energy_up",
    "dos_energy_down",
    "is_magnetic",
    "ordering",
    "total_magnetization_normalized_vol",
    "total_magnetization_normalized_formula_units",
    "num_magnetic_sites",
    "num_unique_magnetic_sites",
    "types_of_magnetic_species",
    "bulk_modulus",
    "shear_modulus",
    "universal_anisotropy",
    "homogeneous_poisson",
    "e_total",
    "e_ionic",
    "e_electronic",
    "n",
    "e_ij_max",
    "weighted_surface_energy_EV_PER_ANG2",
    "weighted_surface_energy",
    "weighted_work_function",
    "surface_anisotropy",
    "shape_factor",
    "has_reconstructed",
    "possible_species",
    "has_props",
    "theoretical",
    "database_IDs"
  ]
}
