{
  "builder_meta": null,
  "nsites": null,
  "elements": null,
  "nelements": null,
  "composition": null,
  "composition_reduced": null,
  "formula_pretty": "Ba3Sn5",
  "formula_anonymous": "A3B5",
  "chemsys": null,
  "volume": 574.6826192137398,
  "density": 5.810941386958318,
  "density_atomic": 35.91766370085874,
  "symmetry": null,
  "property_name": null,
  "material_id": "mp-18636",
  "deprecated": null,
  "deprecation_reasons": null,
  "last_updated": null,
  "origins": null,
  "warnings": null,
  "structure": {
    "@module": "pymatgen.core.structure",
    "@class": "Structure",
    "charge": 0,
    "lattice": {
      "matrix": [
        [7.21549777, 0.01164771, -0.0],
        [-1.42426531, 7.07354275, 0.0],
        [0.0, -0.0, 11.25598863]
      ],
      "pbc": [true, true, true],
      "a": 7.21550717122665,
      "b": 7.2155068227635235,
      "c": 11.25598863,
      "alpha": 90.0,
      "beta": 90.0,
      "gamma": 101.29185529602448,
      "volume": 574.6826192137398
    },
    "properties": {},
    "sites": [
      {
        "species": [{ "element": "Ba", "occu": 1 }],
        "abc": [0.70683142, 0.29316858, 0.5],
        "properties": { "magmom": 0.0 },
        "label": "Ba",
        "xyz": [4.6825906962999735, 2.081973450985843, 5.627994315]
      },
      {
        "species": [{ "element": "Ba", "occu": 1 }],
        "abc": [0.29316858, 0.70683142, -0.0],
        "properties": { "magmom": 0.0 },
        "label": "Ba",
        "xyz": [1.1086417637000265, 5.003217009014156, 0.0]
      },
      {
        "species": [{ "element": "Ba", "occu": 1 }],
        "abc": [0.29316858, 0.70683142, 0.5],
        "properties": { "magmom": 0.0 },
        "label": "Ba",
        "xyz": [1.1086417637000265, 5.003217009014156, 5.627994315]
      },
      {
        "species": [{ "element": "Ba", "occu": 1 }],
        "abc": [0.70683142, 0.29316858, -0.0],
        "properties": { "magmom": 0.0 },
        "label": "Ba",
        "xyz": [4.6825906962999735, 2.081973450985843, 0.0]
      },
      {
        "species": [{ "element": "Ba", "occu": 1 }],
        "abc": [0.8506253300000001, 0.8506253300000001, 0.75],
        "properties": { "magmom": 0.0 },
        "label": "Ba",
        "xyz": [4.9261690223942125, 6.026842473150352, 8.4419914725]
      },
      {
        "species": [{ "element": "Ba", "occu": 1 }],
        "abc": [0.14937467000000001, 0.14937467000000001, 0.25],
        "properties": { "magmom": 0.0 },
        "label": "Ba",
        "xyz": [0.8650634376057882, 1.0583479868496484, 2.8139971575]
      },
      {
        "species": [{ "element": "Sn", "occu": 1 }],
        "abc": [0.80251075, 0.80251075, 0.43780301],
        "properties": { "magmom": 0.0 },
        "label": "Sn",
        "xyz": [4.647526304898945, 5.685941509947445, 4.927905702739776]
      },
      {
        "species": [{ "element": "Sn", "occu": 1 }],
        "abc": [0.19748825, 0.19748825, 0.93780301],
        "properties": { "magmom": 0.0 },
        "label": "Sn",
        "xyz": [1.143700363868595, 1.399241864862095, 10.555900017739775]
      },
      {
        "species": [{ "element": "Sn", "occu": 1 }],
        "abc": [0.80251075, 0.80251075, 0.06219699],
        "properties": { "magmom": 0.0 },
        "label": "Sn",
        "xyz": [4.647526304898945, 5.685941509947445, 0.7000886122602237]
      },
      {
        "species": [{ "element": "Sn", "occu": 1 }],
        "abc": [0.19748825, 0.19748825, 0.56219699],
        "properties": { "magmom": 0.0 },
        "label": "Sn",
        "xyz": [1.143700363868595, 1.399241864862095, 6.3280829272602235]
      },
      {
        "species": [{ "element": "Sn", "occu": 1 }],
        "abc": [0.02310919, 0.40465632, 0.75],
        "properties": { "magmom": -0.0 },
        "label": "Sn",
        "xyz": [-0.409593650136753, 2.862622947721135, 8.4419914725]
      },
      {
        "species": [{ "element": "Sn", "occu": 1 }],
        "abc": [0.97689081, 0.59534368, 0.25],
        "properties": { "magmom": -0.0 },
        "label": "Sn",
        "xyz": [6.200826110136752, 4.222567512278865, 2.8139971575]
      },
      {
        "species": [{ "element": "Sn", "occu": 1 }],
        "abc": [0.55347792, 0.55347792, 0.25],
        "properties": { "magmom": 0.0 },
        "label": "Sn",
        "xyz": [3.205319296197283, 3.921496478604643, 2.8139971575]
      },
      {
        "species": [{ "element": "Sn", "occu": 1 }],
        "abc": [0.44652208, 0.44652208, 0.75],
        "properties": { "magmom": 0.0 },
        "label": "Sn",
        "xyz": [2.5859131638027164, 3.1636939813953564, 8.4419914725]
      },
      {
        "species": [{ "element": "Sn", "occu": 1 }],
        "abc": [0.59534368, 0.97689081, 0.25],
        "properties": { "magmom": -0.0 },
        "label": "Sn",
        "xyz": [2.9043493030827925, 6.9170132971521, 2.8139971575]
      },
      {
        "species": [{ "element": "Sn", "occu": 1 }],
        "abc": [0.40465632, 0.02310919, 0.75],
        "properties": { "magmom": -0.0 },
        "label": "Sn",
        "xyz": [2.8868831569172073, 0.1681771628478997, 8.4419914725]
      }
    ]
  },
  "task_ids": null,
  "uncorrected_energy_per_atom": null,
  "energy_per_atom": -3.851543508750001,
  "formation_energy_per_atom": -0.625945496875001,
  "energy_above_hull": 0.0,
  "is_stable": true,
  "equilibrium_reaction_energy_per_atom": null,
  "decomposes_to": null,
  "xas": null,
  "grain_boundaries": null,
  "band_gap": 0.0,
  "cbm": null,
  "vbm": null,
  "efermi": 4.85235224,
  "is_gap_direct": null,
  "is_metal": null,
  "es_source_calc_id": null,
  "bandstructure": null,
  "dos": null,
  "dos_energy_up": null,
  "dos_energy_down": null,
  "is_magnetic": null,
  "ordering": null,
  "total_magnetization": 0.0,
  "total_magnetization_normalized_vol": null,
  "total_magnetization_normalized_formula_units": null,
  "num_magnetic_sites": null,
  "num_unique_magnetic_sites": null,
  "types_of_magnetic_species": null,
  "bulk_modulus": null,
  "shear_modulus": null,
  "universal_anisotropy": null,
  "homogeneous_poisson": null,
  "e_total": null,
  "e_ionic": null,
  "e_electronic": null,
  "n": null,
  "e_ij_max": null,
  "weighted_surface_energy_EV_PER_ANG2": null,
  "weighted_surface_energy": null,
  "weighted_work_function": null,
  "surface_anisotropy": null,
  "shape_factor": null,
  "has_reconstructed": null,
  "possible_species": null,
  "has_props": null,
  "theoretical": null,
  "database_IDs": null,
  "fields_not_requested": [
    "builder_meta",
    "nsites",
    "elements",
    "nelements",
    "composition",
    "composition_reduced",
    "chemsys",
    "symmetry",
    "property_name",
    "deprecated",
    "deprecation_reasons",
    "last_updated",
    "origins",
    "warnings",
    "task_ids",
    "uncorrected_energy_per_atom",
    "equilibrium_reaction_energy_per_atom",
    "decomposes_to",
    "xas",
    "grain_boundaries",
    "cbm",
    "vbm",
    "is_gap_direct",
    "is_metal",
    "es_source_calc_id",
    "bandstructure",
    "dos",
    "dos_energy_up",
    "dos_energy_down",
    "is_magnetic",
    "ordering",
    "total_magnetization_normalized_vol",
    "total_magnetization_normalized_formula_units",
    "num_magnetic_sites",
    "num_unique_magnetic_sites",
    "types_of_magnetic_species",
    "bulk_modulus",
    "shear_modulus",
    "universal_anisotropy",
    "homogeneous_poisson",
    "e_total",
    "e_ionic",
    "e_electronic",
    "n",
    "e_ij_max",
    "weighted_surface_energy_EV_PER_ANG2",
    "weighted_surface_energy",
    "weighted_work_function",
    "surface_anisotropy",
    "shape_factor",
    "has_reconstructed",
    "possible_species",
    "has_props",
    "theoretical",
    "database_IDs"
  ]
}
