{"builder_meta": null, "nsites": null, "elements": null, "nelements": null, "composition": null, "composition_reduced": null, "formula_pretty": "Ba3Si4", "formula_anonymous": "A3B4", "chemsys": null, "volume": 886.401075068623, "density": 3.928961051630076, "density_atomic": 31.65718125245082, "symmetry": null, "property_name": null, "material_id": "mp-1619", "deprecated": null, "deprecation_reasons": null, "last_updated": null, "origins": null, "warnings": null, "structure": {"@module": "pymatgen.core.structure", "@class": "Structure", "charge": 0, "lattice": {"matrix": [[8.6064682, 0.0, 0.0], [-0.0, 8.6064682, 0.0], [0.0, 0.0, 11.9668635]], "pbc": [true, true, true], "a": 8.6064682, "b": 8.6064682, "c": 11.9668635, "alpha": 90.0, "beta": 90.0, "gamma": 90.0, "volume": 886.401075068623}, "properties": {}, "sites": [{"species": [{"element": "Ba", "occu": 1}], "abc": [0.5, -0.0, 0.75], "properties": {"magmom": -0.0}, "label": "Ba", "xyz": [4.3032341, 0.0, 8.975147625]}, {"species": [{"element": "Ba", "occu": 1}], "abc": [0.5, -0.0, 0.25], "properties": {"magmom": -0.0}, "label": "Ba", "xyz": [4.3032341, 0.0, 2.991715875]}, {"species": [{"element": "Ba", "occu": 1}], "abc": [0.0, 0.5, 0.75], "properties": {"magmom": -0.0}, "label": "Ba", "xyz": [0.0, 4.3032341, 8.975147625]}, {"species": [{"element": "Ba", "occu": 1}], "abc": [0.0, 0.5, 0.25], "properties": {"magmom": -0.0}, "label": "Ba", "xyz": [0.0, 4.3032341, 2.991715875]}, {"species": [{"element": "Ba", "occu": 1}], "abc": [0.0, -0.0, 0.83010238], "properties": {"magmom": -0.0}, "label": "Ba", "xyz": [0.0, 0.0, 9.933721872485131]}, {"species": [{"element": "Ba", "occu": 1}], "abc": [0.5, 0.5, 0.33010238000000003], "properties": {"magmom": -0.0}, "label": "Ba", "xyz": [4.3032341, 4.3032341, 3.9502901224851303]}, {"species": [{"element": "Ba", "occu": 1}], "abc": [0.5, 0.5, 0.66989762], "properties": {"magmom": -0.0}, "label": "Ba", "xyz": [4.3032341, 4.3032341, 8.01657337751487]}, {"species": [{"element": "Ba", "occu": 1}], "abc": [0.0, -0.0, 0.16989762], "properties": {"magmom": -0.0}, "label": "Ba", "xyz": [0.0, 0.0, 2.03314162751487]}, {"species": [{"element": "Ba", "occu": 1}], "abc": [0.66401638, 0.66401638, 0.0], "properties": {"magmom": -0.0}, "label": "Ba", "xyz": [5.714835858749116, 5.714835858749116, 0.0]}, {"species": [{"element": "Ba", "occu": 1}], "abc": [0.83598362, 0.16401638000000002, 0.5], "properties": {"magmom": -0.0}, "label": "Ba", "xyz": [7.194866441250884, 1.411601758749116, 5.98343175]}, {"species": [{"element": "Ba", "occu": 1}], "abc": [0.16401638000000002, 0.83598362, 0.5], "properties": {"magmom": -0.0}, "label": "Ba", "xyz": [1.411601758749116, 7.194866441250884, 5.98343175]}, {"species": [{"element": "Ba", "occu": 1}], "abc": [0.33598362, 0.33598362, 0.0], "properties": {"magmom": -0.0}, "label": "Ba", "xyz": [2.891632341250884, 2.891632341250884, 0.0]}, {"species": [{"element": "Si", "occu": 1}], "abc": [0.79926978, 0.79926978, 0.64416786], "properties": {"magmom": 0.0}, "label": "Si", "xyz": [6.878889944790997, 6.878889944790997, 7.7086688517071105]}, {"species": [{"element": "Si", "occu": 1}], "abc": [0.20073022000000001, 0.20073022000000001, 0.64416786], "properties": {"magmom": 0.0}, "label": "Si", "xyz": [1.7275782552090042, 1.7275782552090042, 7.7086688517071105]}, {"species": [{"element": "Si", "occu": 1}], "abc": [0.79926978, 0.79926978, 0.35583214], "properties": {"magmom": 0.0}, "label": "Si", "xyz": [6.878889944790997, 6.878889944790997, 4.25819464829289]}, {"species": [{"element": "Si", "occu": 1}], "abc": [0.29926978, 0.70073022, 0.14416786], "properties": {"magmom": 0.0}, "label": "Si", "xyz": [2.575655844790996, 6.030812355209004, 1.7252371017071102]}, {"species": [{"element": "Si", "occu": 1}], "abc": [0.70073022, 0.29926978, 0.14416786], "properties": {"magmom": 0.0}, "label": "Si", "xyz": [6.030812355209004, 2.575655844790996, 1.7252371017071102]}, {"species": [{"element": "Si", "occu": 1}], "abc": [0.70073022, 0.29926978, 0.85583214], "properties": {"magmom": 0.0}, "label": "Si", "xyz": [6.030812355209004, 2.575655844790996, 10.24162639829289]}, {"species": [{"element": "Si", "occu": 1}], "abc": [0.29926978, 0.70073022, 0.85583214], "properties": {"magmom": 0.0}, "label": "Si", "xyz": [2.575655844790996, 6.030812355209004, 10.24162639829289]}, {"species": [{"element": "Si", "occu": 1}], "abc": [0.20073022000000001, 0.20073022000000001, 0.35583214], "properties": {"magmom": 0.0}, "label": "Si", "xyz": [1.7275782552090042, 1.7275782552090042, 4.25819464829289]}, {"species": [{"element": "Si", "occu": 1}], "abc": [0.70134554, 0.10231348, 0.0], "properties": {"magmom": -0.0}, "label": "Si", "xyz": [6.0361080872218285, 0.880557712051336, 0.0]}, {"species": [{"element": "Si", "occu": 1}], "abc": [0.29865446, 0.89768652, 0.0], "properties": {"magmom": -0.0}, "label": "Si", "xyz": [2.570360112778172, 7.725910487948664, 0.0]}, {"species": [{"element": "Si", "occu": 1}], "abc": [0.10231348, 0.70134554, 0.0], "properties": {"magmom": -0.0}, "label": "Si", "xyz": [0.880557712051336, 6.0361080872218285, 0.0]}, {"species": [{"element": "Si", "occu": 1}], "abc": [0.6023134800000001, 0.7986544600000001, 0.5], "properties": {"magmom": -0.0}, "label": "Si", "xyz": [5.183791812051337, 6.873594212778173, 5.98343175]}, {"species": [{"element": "Si", "occu": 1}], "abc": [0.89768652, 0.29865446, 0.0], "properties": {"magmom": -0.0}, "label": "Si", "xyz": [7.725910487948664, 2.570360112778172, 0.0]}, {"species": [{"element": "Si", "occu": 1}], "abc": [0.20134554000000002, 0.39768652, 0.5], "properties": {"magmom": -0.0}, "label": "Si", "xyz": [1.7328739872218282, 3.422676387948664, 5.98343175]}, {"species": [{"element": "Si", "occu": 1}], "abc": [0.7986544600000001, 0.6023134800000001, 0.5], "properties": {"magmom": -0.0}, "label": "Si", "xyz": [6.873594212778173, 5.183791812051337, 5.98343175]}, {"species": [{"element": "Si", "occu": 1}], "abc": [0.39768652, 0.20134554000000002, 0.5], "properties": {"magmom": -0.0}, "label": "Si", "xyz": [3.422676387948664, 1.7328739872218282, 5.98343175]}]}, "task_ids": null, "uncorrected_energy_per_atom": null, "energy_per_atom": -4.290119780714284, "formation_energy_per_atom": -0.367520217857141, "energy_above_hull": 0.0, "is_stable": true, "equilibrium_reaction_energy_per_atom": null, "decomposes_to": null, "xas": null, "grain_boundaries": null, "band_gap": 0.0, "cbm": null, "vbm": null, "efermi": 3.66840081, "is_gap_direct": null, "is_metal": null, "es_source_calc_id": null, "bandstructure": null, "dos": null, "dos_energy_up": null, "dos_energy_down": null, "is_magnetic": null, "ordering": null, "total_magnetization": 2.299999999999998e-06, "total_magnetization_normalized_vol": null, "total_magnetization_normalized_formula_units": null, "num_magnetic_sites": null, "num_unique_magnetic_sites": null, "types_of_magnetic_species": null, "bulk_modulus": null, "shear_modulus": null, "universal_anisotropy": null, "homogeneous_poisson": null, "e_total": null, "e_ionic": null, "e_electronic": null, "n": null, "e_ij_max": null, "weighted_surface_energy_EV_PER_ANG2": null, "weighted_surface_energy": null, "weighted_work_function": null, "surface_anisotropy": null, "shape_factor": null, "has_reconstructed": null, "possible_species": null, "has_props": null, "theoretical": null, "database_IDs": null, "fields_not_requested": ["builder_meta", "nsites", "elements", "nelements", "composition", "composition_reduced", "chemsys", "symmetry", "property_name", "deprecated", "deprecation_reasons", "last_updated", "origins", "warnings", "task_ids", "uncorrected_energy_per_atom", "equilibrium_reaction_energy_per_atom", "decomposes_to", "xas", "grain_boundaries", "cbm", "vbm", "is_gap_direct", "is_metal", "es_source_calc_id", "bandstructure", "dos", "dos_energy_up", "dos_energy_down", "is_magnetic", "ordering", "total_magnetization_normalized_vol", "total_magnetization_normalized_formula_units", "num_magnetic_sites", "num_unique_magnetic_sites", "types_of_magnetic_species", "bulk_modulus", "shear_modulus", "universal_anisotropy", "homogeneous_poisson", "e_total", "e_ionic", "e_electronic", "n", "e_ij_max", "weighted_surface_energy_EV_PER_ANG2", "weighted_surface_energy", "weighted_work_function", "surface_anisotropy", "shape_factor", "has_reconstructed", "possible_species", "has_props", "theoretical", "database_IDs"]}