{
  "builder_meta": null,
  "nsites": null,
  "elements": null,
  "nelements": null,
  "composition": null,
  "composition_reduced": null,
  "formula_pretty": "Ba3Tm",
  "formula_anonymous": "AB3",
  "chemsys": null,
  "volume": 405.45594255151036,
  "density": 4.758260019654752,
  "density_atomic": 50.681992818938795,
  "symmetry": null,
  "property_name": null,
  "material_id": "mp-1183349",
  "deprecated": null,
  "deprecation_reasons": null,
  "last_updated": null,
  "origins": null,
  "warnings": null,
  "structure": {
    "@module": "pymatgen.core.structure",
    "@class": "Structure",
    "charge": 0,
    "lattice": {
      "matrix": [
        [4.170704, -7.223872, 0.0],
        [4.170704, 7.223872, 0.0],
        [0.0, 0.0, 6.7287479999999995]
      ],
      "pbc": [true, true, true],
      "a": 8.34140866568711,
      "b": 8.34140866568711,
      "c": 6.7287479999999995,
      "alpha": 90.0,
      "beta": 90.0,
      "gamma": 120.00000527986408,
      "volume": 405.4559425515103
    },
    "properties": {},
    "sites": [
      {
        "species": [{ "element": "Ba", "occu": 1 }],
        "abc": [0.171449, 0.342897, 0.25],
        "properties": { "magmom": 0.004 },
        "label": "Ba",
        "xyz": [2.1451849195839996, 1.2385184066560002, 1.6821869999999999]
      },
      {
        "species": [{ "element": "Ba", "occu": 1 }],
        "abc": [0.657103, 0.828550999999999, 0.25],
        "properties": { "magmom": 0.004 },
        "label": "Ba",
        "xyz": [6.1962230804159955, 1.2385184066559933, 1.6821869999999999]
      },
      {
        "species": [{ "element": "Ba", "occu": 1 }],
        "abc": [0.171449, 0.828550999999999, 0.25],
        "properties": { "magmom": 0.004 },
        "label": "Ba",
        "xyz": [4.170703999999995, 4.746820738943994, 1.6821869999999999]
      },
      {
        "species": [{ "element": "Ba", "occu": 1 }],
        "abc": [0.828550999999999, 0.657103, 0.75],
        "properties": { "magmom": 0.004 },
        "label": "Ba",
        "xyz": [6.1962230804159955, -1.2385184066559933, 5.046561]
      },
      {
        "species": [{ "element": "Ba", "occu": 1 }],
        "abc": [0.342897, 0.171449, 0.75],
        "properties": { "magmom": 0.004 },
        "label": "Ba",
        "xyz": [2.1451849195839996, -1.2385184066560002, 5.046561]
      },
      {
        "species": [{ "element": "Ba", "occu": 1 }],
        "abc": [0.828550999999999, 0.171449, 0.75],
        "properties": { "magmom": 0.004 },
        "label": "Ba",
        "xyz": [4.170703999999995, -4.746820738943994, 5.046561]
      },
      {
        "species": [{ "element": "Tm", "occu": 1 }],
        "abc": [0.333333, 0.666667, 0.75],
        "properties": { "magmom": 0.027 },
        "label": "Tm",
        "xyz": [4.170704, 2.407962149248, 5.046561]
      },
      {
        "species": [{ "element": "Tm", "occu": 1 }],
        "abc": [0.666667, 0.333333, 0.25],
        "properties": { "magmom": 0.028 },
        "label": "Tm",
        "xyz": [4.170704, -2.407962149248, 1.6821869999999999]
      }
    ]
  },
  "task_ids": null,
  "uncorrected_energy_per_atom": null,
  "energy_per_atom": -2.32198958,
  "formation_energy_per_atom": 0.23786699499999803,
  "energy_above_hull": 0.23786699499999803,
  "is_stable": false,
  "equilibrium_reaction_energy_per_atom": null,
  "decomposes_to": null,
  "xas": null,
  "grain_boundaries": null,
  "band_gap": 0.0,
  "cbm": null,
  "vbm": null,
  "efermi": 2.09154258,
  "is_gap_direct": null,
  "is_metal": null,
  "es_source_calc_id": null,
  "bandstructure": null,
  "dos": null,
  "dos_energy_up": null,
  "dos_energy_down": null,
  "is_magnetic": null,
  "ordering": null,
  "total_magnetization": 0.1565261,
  "total_magnetization_normalized_vol": null,
  "total_magnetization_normalized_formula_units": null,
  "num_magnetic_sites": null,
  "num_unique_magnetic_sites": null,
  "types_of_magnetic_species": null,
  "bulk_modulus": null,
  "shear_modulus": null,
  "universal_anisotropy": null,
  "homogeneous_poisson": null,
  "e_total": null,
  "e_ionic": null,
  "e_electronic": null,
  "n": null,
  "e_ij_max": null,
  "weighted_surface_energy_EV_PER_ANG2": null,
  "weighted_surface_energy": null,
  "weighted_work_function": null,
  "surface_anisotropy": null,
  "shape_factor": null,
  "has_reconstructed": null,
  "possible_species": null,
  "has_props": null,
  "theoretical": null,
  "database_IDs": null,
  "fields_not_requested": [
    "builder_meta",
    "nsites",
    "elements",
    "nelements",
    "composition",
    "composition_reduced",
    "chemsys",
    "symmetry",
    "property_name",
    "deprecated",
    "deprecation_reasons",
    "last_updated",
    "origins",
    "warnings",
    "task_ids",
    "uncorrected_energy_per_atom",
    "equilibrium_reaction_energy_per_atom",
    "decomposes_to",
    "xas",
    "grain_boundaries",
    "cbm",
    "vbm",
    "is_gap_direct",
    "is_metal",
    "es_source_calc_id",
    "bandstructure",
    "dos",
    "dos_energy_up",
    "dos_energy_down",
    "is_magnetic",
    "ordering",
    "total_magnetization_normalized_vol",
    "total_magnetization_normalized_formula_units",
    "num_magnetic_sites",
    "num_unique_magnetic_sites",
    "types_of_magnetic_species",
    "bulk_modulus",
    "shear_modulus",
    "universal_anisotropy",
    "homogeneous_poisson",
    "e_total",
    "e_ionic",
    "e_electronic",
    "n",
    "e_ij_max",
    "weighted_surface_energy_EV_PER_ANG2",
    "weighted_surface_energy",
    "weighted_work_function",
    "surface_anisotropy",
    "shape_factor",
    "has_reconstructed",
    "possible_species",
    "has_props",
    "theoretical",
    "database_IDs"
  ]
}
