{"builder_meta": null, "nsites": null, "elements": null, "nelements": null, "composition": null, "composition_reduced": null, "formula_pretty": "Ba3Tb", "formula_anonymous": "AB3", "chemsys": null, "volume": 414.7391130532542, "density": 4.571607874482213, "density_atomic": 51.84238913165677, "symmetry": null, "property_name": null, "material_id": "mp-978919", "deprecated": null, "deprecation_reasons": null, "last_updated": null, "origins": null, "warnings": null, "structure": {"@module": "pymatgen.core.structure", "@class": "Structure", "charge": 0, "lattice": {"matrix": [[4.205742, -7.284559, 0.0], [4.205742, 7.284559, 0.0], [0.0, 0.0, 6.768604]], "pbc": [true, true, true], "a": 8.411484149366567, "b": 8.411484149366567, "c": 6.768604, "alpha": 90.0, "beta": 90.0, "gamma": 120.0000011748239, "volume": 414.7391130532542}, "properties": {}, "sites": [{"species": [{"element": "Ba", "occu": 1}], "abc": [0.171885999999999, 0.343771, 0.25], "properties": {"magmom": 0.033}, "label": "Ba", "xyz": [2.1687203024939956, 1.252106423715007, 1.692151]}, {"species": [{"element": "Ba", "occu": 1}], "abc": [0.656229, 0.828114, 0.25], "properties": {"magmom": 0.033}, "label": "Ba", "xyz": [6.242763697506, 1.2521064237150004, 1.692151]}, {"species": [{"element": "Ba", "occu": 1}], "abc": [0.171885999999999, 0.828114, 0.25], "properties": {"magmom": 0.035}, "label": "Ba", "xyz": [4.205741999999995, 4.780331583452007, 1.692151]}, {"species": [{"element": "Ba", "occu": 1}], "abc": [0.828114, 0.656229, 0.75], "properties": {"magmom": 0.028}, "label": "Ba", "xyz": [6.242763697506, -1.2521064237150004, 5.076453]}, {"species": [{"element": "Ba", "occu": 1}], "abc": [0.343771, 0.171885999999999, 0.75], "properties": {"magmom": 0.028}, "label": "Ba", "xyz": [2.1687203024939956, -1.252106423715007, 5.076453]}, {"species": [{"element": "Ba", "occu": 1}], "abc": [0.828114, 0.171885999999999, 0.75], "properties": {"magmom": 0.032}, "label": "Ba", "xyz": [4.205741999999995, -4.780331583452007, 5.076453]}, {"species": [{"element": "Tb", "occu": 1}], "abc": [0.333333, 0.666667, 0.75], "properties": {"magmom": 0.231}, "label": "Tb", "xyz": [4.205742, 2.4281911897060002, 5.076453]}, {"species": [{"element": "Tb", "occu": 1}], "abc": [0.666667, 0.333333, 0.25], "properties": {"magmom": 0.112}, "label": "Tb", "xyz": [4.205742, -2.4281911897060002, 1.692151]}]}, "task_ids": null, "uncorrected_energy_per_atom": null, "energy_per_atom": -2.3761890125000003, "formation_energy_per_atom": 0.22250809833333302, "energy_above_hull": 0.22250809833333302, "is_stable": false, "equilibrium_reaction_energy_per_atom": null, "decomposes_to": null, "xas": null, "grain_boundaries": null, "band_gap": 0.0, "cbm": null, "vbm": null, "efermi": 2.154611, "is_gap_direct": null, "is_metal": null, "es_source_calc_id": null, "bandstructure": null, "dos": null, "dos_energy_up": null, "dos_energy_down": null, "is_magnetic": null, "ordering": null, "total_magnetization": 1.1405371, "total_magnetization_normalized_vol": null, "total_magnetization_normalized_formula_units": null, "num_magnetic_sites": null, "num_unique_magnetic_sites": null, "types_of_magnetic_species": null, "bulk_modulus": null, "shear_modulus": null, "universal_anisotropy": null, "homogeneous_poisson": null, "e_total": null, "e_ionic": null, "e_electronic": null, "n": null, "e_ij_max": null, "weighted_surface_energy_EV_PER_ANG2": null, "weighted_surface_energy": null, "weighted_work_function": null, "surface_anisotropy": null, "shape_factor": null, "has_reconstructed": null, "possible_species": null, "has_props": null, "theoretical": null, "database_IDs": null, "fields_not_requested": ["builder_meta", "nsites", "elements", "nelements", "composition", "composition_reduced", "chemsys", "symmetry", "property_name", "deprecated", "deprecation_reasons", "last_updated", "origins", "warnings", "task_ids", "uncorrected_energy_per_atom", "equilibrium_reaction_energy_per_atom", "decomposes_to", "xas", "grain_boundaries", "cbm", "vbm", "is_gap_direct", "is_metal", "es_source_calc_id", "bandstructure", "dos", "dos_energy_up", "dos_energy_down", "is_magnetic", "ordering", "total_magnetization_normalized_vol", "total_magnetization_normalized_formula_units", "num_magnetic_sites", "num_unique_magnetic_sites", "types_of_magnetic_species", "bulk_modulus", "shear_modulus", "universal_anisotropy", "homogeneous_poisson", "e_total", "e_ionic", "e_electronic", "n", "e_ij_max", "weighted_surface_energy_EV_PER_ANG2", "weighted_surface_energy", "weighted_work_function", "surface_anisotropy", "shape_factor", "has_reconstructed", "possible_species", "has_props", "theoretical", "database_IDs"]}