{"builder_meta": null, "nsites": null, "elements": null, "nelements": null, "composition": null, "composition_reduced": null, "formula_pretty": "Ba3Te", "formula_anonymous": "AB3", "chemsys": null, "volume": 344.0819264944558, "density": 5.208034837653885, "density_atomic": 43.01024081180697, "symmetry": null, "property_name": null, "material_id": "mp-984765", "deprecated": null, "deprecation_reasons": null, "last_updated": null, "origins": null, "warnings": null, "structure": {"@module": "pymatgen.core.structure", "@class": "Structure", "charge": 0, "lattice": {"matrix": [[3.990532, -6.911804, 0.0], [3.990532, 6.911804, 0.0], [0.0, 0.0, 6.237487]], "pbc": [true, true, true], "a": 7.981063849978899, "b": 7.981063849978899, "c": 6.237487, "alpha": 90.0, "beta": 90.0, "gamma": 119.99999875639183, "volume": 344.0819264944558}, "properties": {}, "sites": [{"species": [{"element": "Ba", "occu": 1}], "abc": [0.177544999999999, 0.355089, 0.25], "properties": {"magmom": -0.006}, "label": "Ba", "xyz": [2.125493021287996, 1.2271493293760067, 1.55937175]}, {"species": [{"element": "Ba", "occu": 1}], "abc": [0.644911, 0.822456, 0.25], "properties": {"magmom": -0.006}, "label": "Ba", "xyz": [5.855574969244, 1.2271562411799994, 1.55937175]}, {"species": [{"element": "Ba", "occu": 1}], "abc": [0.177544999999999, 0.822456, 0.25], "properties": {"magmom": -0.006}, "label": "Ba", "xyz": [3.990535990531996, 4.457498429444007, 1.55937175]}, {"species": [{"element": "Ba", "occu": 1}], "abc": [0.822456, 0.644911, 0.75], "properties": {"magmom": -0.006}, "label": "Ba", "xyz": [5.855574969244, -1.2271562411799994, 4.678115249999999]}, {"species": [{"element": "Ba", "occu": 1}], "abc": [0.355089, 0.177544999999999, 0.75], "properties": {"magmom": -0.006}, "label": "Ba", "xyz": [2.125493021287996, -1.2271493293760067, 4.678115249999999]}, {"species": [{"element": "Ba", "occu": 1}], "abc": [0.822456, 0.177544999999999, 0.75], "properties": {"magmom": -0.006}, "label": "Ba", "xyz": [3.990535990531996, -4.457498429444007, 4.678115249999999]}, {"species": [{"element": "Te", "occu": 1}], "abc": [0.333333, 0.666667, 0.75], "properties": {"magmom": -0.001}, "label": "Te", "xyz": [3.990532, 2.3039392745360003, 4.678115249999999]}, {"species": [{"element": "Te", "occu": 1}], "abc": [0.666667, 0.333333, 0.25], "properties": {"magmom": -0.001}, "label": "Te", "xyz": [3.990532, -2.3039392745360003, 1.55937175]}]}, "task_ids": null, "uncorrected_energy_per_atom": null, "energy_per_atom": -2.8735934225, "formation_energy_per_atom": -0.648535744166666, "energy_above_hull": 0.35325158500000003, "is_stable": false, "equilibrium_reaction_energy_per_atom": null, "decomposes_to": null, "xas": null, "grain_boundaries": null, "band_gap": 0.0, "cbm": null, "vbm": null, "efermi": 3.94190173, "is_gap_direct": null, "is_metal": null, "es_source_calc_id": null, "bandstructure": null, "dos": null, "dos_energy_up": null, "dos_energy_down": null, "is_magnetic": null, "ordering": null, "total_magnetization": 0.085531799999999, "total_magnetization_normalized_vol": null, "total_magnetization_normalized_formula_units": null, "num_magnetic_sites": null, "num_unique_magnetic_sites": null, "types_of_magnetic_species": null, "bulk_modulus": null, "shear_modulus": null, "universal_anisotropy": null, "homogeneous_poisson": null, "e_total": null, "e_ionic": null, "e_electronic": null, "n": null, "e_ij_max": null, "weighted_surface_energy_EV_PER_ANG2": null, "weighted_surface_energy": null, "weighted_work_function": null, "surface_anisotropy": null, "shape_factor": null, "has_reconstructed": null, "possible_species": null, "has_props": null, "theoretical": null, "database_IDs": null, "fields_not_requested": ["builder_meta", "nsites", "elements", "nelements", "composition", "composition_reduced", "chemsys", "symmetry", "property_name", "deprecated", "deprecation_reasons", "last_updated", "origins", "warnings", "task_ids", "uncorrected_energy_per_atom", "equilibrium_reaction_energy_per_atom", "decomposes_to", "xas", "grain_boundaries", "cbm", "vbm", "is_gap_direct", "is_metal", "es_source_calc_id", "bandstructure", "dos", "dos_energy_up", "dos_energy_down", "is_magnetic", "ordering", "total_magnetization_normalized_vol", "total_magnetization_normalized_formula_units", "num_magnetic_sites", "num_unique_magnetic_sites", "types_of_magnetic_species", "bulk_modulus", "shear_modulus", "universal_anisotropy", "homogeneous_poisson", "e_total", "e_ionic", "e_electronic", "n", "e_ij_max", "weighted_surface_energy_EV_PER_ANG2", "weighted_surface_energy", "weighted_work_function", "surface_anisotropy", "shape_factor", "has_reconstructed", "possible_species", "has_props", "theoretical", "database_IDs"]}