{
  "builder_meta": null,
  "nsites": null,
  "elements": null,
  "nelements": null,
  "composition": null,
  "composition_reduced": null,
  "formula_pretty": "Ba3Th",
  "formula_anonymous": "AB3",
  "chemsys": null,
  "volume": 402.95752484358155,
  "density": 5.307848807043034,
  "density_atomic": 50.369690605447694,
  "symmetry": null,
  "property_name": null,
  "material_id": "mp-1183363",
  "deprecated": null,
  "deprecation_reasons": null,
  "last_updated": null,
  "origins": null,
  "warnings": null,
  "structure": {
    "@module": "pymatgen.core.structure",
    "@class": "Structure",
    "charge": 0,
    "lattice": {
      "matrix": [
        [4.222008, -7.3127320000000005, 0.0],
        [4.222008, 7.3127320000000005, 0.0],
        [0.0, 0.0, 6.525752]
      ],
      "pbc": [true, true, true],
      "a": 8.444015683067388,
      "b": 8.444015683067388,
      "c": 6.525752,
      "alpha": 90.0,
      "beta": 90.0,
      "gamma": 119.9999975168103,
      "volume": 402.95752484358155
    },
    "properties": {},
    "sites": [
      {
        "species": [{ "element": "Ba", "occu": 1 }],
        "abc": [0.175819, 0.351638, 0.25],
        "properties": { "magmom": -0.026000000000000002 },
        "label": "Ba",
        "xyz": [2.226927673656, 1.285717227508, 1.631438]
      },
      {
        "species": [{ "element": "Ba", "occu": 1 }],
        "abc": [0.648362, 0.824180999999999, 0.25],
        "properties": { "magmom": -0.029 },
        "label": "Ba",
        "xyz": [6.217088326343996, 1.2857172275079929, 1.631438]
      },
      {
        "species": [{ "element": "Ba", "occu": 1 }],
        "abc": [0.175819, 0.824180999999999, 0.25],
        "properties": { "magmom": -0.025 },
        "label": "Ba",
        "xyz": [4.222007999999996, 4.741297544983993, 1.631438]
      },
      {
        "species": [{ "element": "Ba", "occu": 1 }],
        "abc": [0.824180999999999, 0.648362, 0.75],
        "properties": { "magmom": -0.027 },
        "label": "Ba",
        "xyz": [6.217088326343996, -1.2857172275079929, 4.894314]
      },
      {
        "species": [{ "element": "Ba", "occu": 1 }],
        "abc": [0.351638, 0.175819, 0.75],
        "properties": { "magmom": -0.031 },
        "label": "Ba",
        "xyz": [2.226927673656, -1.285717227508, 4.894314]
      },
      {
        "species": [{ "element": "Ba", "occu": 1 }],
        "abc": [0.824180999999999, 0.175819, 0.75],
        "properties": { "magmom": -0.026000000000000002 },
        "label": "Ba",
        "xyz": [4.222007999999996, -4.741297544983993, 4.894314]
      },
      {
        "species": [{ "element": "Th", "occu": 1 }],
        "abc": [0.333333, 0.666667, 0.75],
        "properties": { "magmom": -0.083 },
        "label": "Th",
        "xyz": [4.222008, 2.4375822084880006, 4.894314]
      },
      {
        "species": [{ "element": "Th", "occu": 1 }],
        "abc": [0.666667, 0.333333, 0.25],
        "properties": { "magmom": -0.078 },
        "label": "Th",
        "xyz": [4.222008, -2.4375822084880006, 1.631438]
      }
    ]
  },
  "task_ids": null,
  "uncorrected_energy_per_atom": null,
  "energy_per_atom": -2.87029742375,
  "formation_energy_per_atom": 0.422398343750001,
  "energy_above_hull": 0.422398343750001,
  "is_stable": false,
  "equilibrium_reaction_energy_per_atom": null,
  "decomposes_to": null,
  "xas": null,
  "grain_boundaries": null,
  "band_gap": 0.0,
  "cbm": null,
  "vbm": null,
  "efermi": 2.8724986,
  "is_gap_direct": null,
  "is_metal": null,
  "es_source_calc_id": null,
  "bandstructure": null,
  "dos": null,
  "dos_energy_up": null,
  "dos_energy_down": null,
  "is_magnetic": null,
  "ordering": null,
  "total_magnetization": 0.8944148,
  "total_magnetization_normalized_vol": null,
  "total_magnetization_normalized_formula_units": null,
  "num_magnetic_sites": null,
  "num_unique_magnetic_sites": null,
  "types_of_magnetic_species": null,
  "bulk_modulus": null,
  "shear_modulus": null,
  "universal_anisotropy": null,
  "homogeneous_poisson": null,
  "e_total": null,
  "e_ionic": null,
  "e_electronic": null,
  "n": null,
  "e_ij_max": null,
  "weighted_surface_energy_EV_PER_ANG2": null,
  "weighted_surface_energy": null,
  "weighted_work_function": null,
  "surface_anisotropy": null,
  "shape_factor": null,
  "has_reconstructed": null,
  "possible_species": null,
  "has_props": null,
  "theoretical": null,
  "database_IDs": null,
  "fields_not_requested": [
    "builder_meta",
    "nsites",
    "elements",
    "nelements",
    "composition",
    "composition_reduced",
    "chemsys",
    "symmetry",
    "property_name",
    "deprecated",
    "deprecation_reasons",
    "last_updated",
    "origins",
    "warnings",
    "task_ids",
    "uncorrected_energy_per_atom",
    "equilibrium_reaction_energy_per_atom",
    "decomposes_to",
    "xas",
    "grain_boundaries",
    "cbm",
    "vbm",
    "is_gap_direct",
    "is_metal",
    "es_source_calc_id",
    "bandstructure",
    "dos",
    "dos_energy_up",
    "dos_energy_down",
    "is_magnetic",
    "ordering",
    "total_magnetization_normalized_vol",
    "total_magnetization_normalized_formula_units",
    "num_magnetic_sites",
    "num_unique_magnetic_sites",
    "types_of_magnetic_species",
    "bulk_modulus",
    "shear_modulus",
    "universal_anisotropy",
    "homogeneous_poisson",
    "e_total",
    "e_ionic",
    "e_electronic",
    "n",
    "e_ij_max",
    "weighted_surface_energy_EV_PER_ANG2",
    "weighted_surface_energy",
    "weighted_work_function",
    "surface_anisotropy",
    "shape_factor",
    "has_reconstructed",
    "possible_species",
    "has_props",
    "theoretical",
    "database_IDs"
  ]
}
