{"builder_meta": null, "nsites": null, "elements": null, "nelements": null, "composition": null, "composition_reduced": null, "formula_pretty": "Ba3Yb", "formula_anonymous": "AB3", "chemsys": null, "volume": 211.1427167992175, "density": 4.600917521607824, "density_atomic": 52.78567919980438, "symmetry": null, "property_name": null, "material_id": "mp-1183361", "deprecated": null, "deprecation_reasons": null, "last_updated": null, "origins": null, "warnings": null, "structure": {"@module": "pymatgen.core.structure", "@class": "Structure", "charge": 0.0, "lattice": {"matrix": [[-3.039035362288241, 3.03903536228824, 5.715373369417635], [3.039035362288241, -3.03903536228824, 5.715373369417635], [3.039035362288241, 3.03903536228824, -5.715373369417635]], "pbc": [true, true, true], "a": 7.151011440231732, "b": 7.151011440231732, "c": 7.151011440231732, "alpha": 129.7012312235733, "beta": 129.70123122357333, "gamma": 73.88484931229311, "volume": 211.14271679921748}, "properties": {}, "sites": [{"species": [{"element": "Ba", "occu": 1}], "abc": [0.75, 0.25, 0.5], "properties": {"magmom": -0.067}, "label": "Ba", "xyz": [-2.220446049250313e-16, 3.0390353622882396, 2.8576866847088174]}, {"species": [{"element": "Ba", "occu": 1}], "abc": [0.25, 0.75, 0.5], "properties": {"magmom": -0.067}, "label": "Ba", "xyz": [3.0390353622882413, 2.220446049250313e-16, 2.8576866847088174]}, {"species": [{"element": "Ba", "occu": 1}], "abc": [0.5, 0.5, 0.0], "properties": {"magmom": -0.095}, "label": "Ba", "xyz": [0.0, 0.0, 5.715373369417635]}, {"species": [{"element": "Yb", "occu": 1}], "abc": [0.0, 0.0, 0.0], "properties": {"magmom": -0.375}, "label": "Yb", "xyz": [0.0, 0.0, 0.0]}]}, "task_ids": null, "uncorrected_energy_per_atom": null, "energy_per_atom": -28.688460555, "formation_energy_per_atom": 0.31857332999999904, "energy_above_hull": 0.31857332999999904, "is_stable": false, "equilibrium_reaction_energy_per_atom": null, "decomposes_to": null, "xas": null, "grain_boundaries": null, "band_gap": 0.0, "cbm": null, "vbm": null, "efermi": 1.51425747, "is_gap_direct": null, "is_metal": null, "es_source_calc_id": null, "bandstructure": null, "dos": null, "dos_energy_up": null, "dos_energy_down": null, "is_magnetic": null, "ordering": null, "total_magnetization": 0.9988497, "total_magnetization_normalized_vol": null, "total_magnetization_normalized_formula_units": null, "num_magnetic_sites": null, "num_unique_magnetic_sites": null, "types_of_magnetic_species": null, "bulk_modulus": null, "shear_modulus": null, "universal_anisotropy": null, "homogeneous_poisson": null, "e_total": null, "e_ionic": null, "e_electronic": null, "n": null, "e_ij_max": null, "weighted_surface_energy_EV_PER_ANG2": null, "weighted_surface_energy": null, "weighted_work_function": null, "surface_anisotropy": null, "shape_factor": null, "has_reconstructed": null, "possible_species": null, "has_props": null, "theoretical": null, "database_IDs": null, "fields_not_requested": ["builder_meta", "nsites", "elements", "nelements", "composition", "composition_reduced", "chemsys", "symmetry", "property_name", "deprecated", "deprecation_reasons", "last_updated", "origins", "warnings", "task_ids", "uncorrected_energy_per_atom", "equilibrium_reaction_energy_per_atom", "decomposes_to", "xas", "grain_boundaries", "cbm", "vbm", "is_gap_direct", "is_metal", "es_source_calc_id", "bandstructure", "dos", "dos_energy_up", "dos_energy_down", "is_magnetic", "ordering", "total_magnetization_normalized_vol", "total_magnetization_normalized_formula_units", "num_magnetic_sites", "num_unique_magnetic_sites", "types_of_magnetic_species", "bulk_modulus", "shear_modulus", "universal_anisotropy", "homogeneous_poisson", "e_total", "e_ionic", "e_electronic", "n", "e_ij_max", "weighted_surface_energy_EV_PER_ANG2", "weighted_surface_energy", "weighted_work_function", "surface_anisotropy", "shape_factor", "has_reconstructed", "possible_species", "has_props", "theoretical", "database_IDs"]}