{
  "builder_meta": null,
  "nsites": null,
  "elements": null,
  "nelements": null,
  "composition": null,
  "composition_reduced": null,
  "formula_pretty": "Ba3Y",
  "formula_anonymous": "AB3",
  "chemsys": null,
  "volume": 415.9706175950648,
  "density": 3.999042947696323,
  "density_atomic": 51.9963271993831,
  "symmetry": null,
  "property_name": null,
  "material_id": "mp-1183355",
  "deprecated": null,
  "deprecation_reasons": null,
  "last_updated": null,
  "origins": null,
  "warnings": null,
  "structure": {
    "@module": "pymatgen.core.structure",
    "@class": "Structure",
    "charge": 0,
    "lattice": {
      "matrix": [
        [4.222109, -7.312907, 0.0],
        [4.222109, 7.312907, 0.0],
        [0.0, 0.0, 6.736172]
      ],
      "pbc": [true, true, true],
      "a": 8.44421773751305,
      "b": 8.44421773751305,
      "c": 6.736172,
      "alpha": 90.0,
      "beta": 90.0,
      "gamma": 119.99999794344514,
      "volume": 415.9706175950648
    },
    "properties": {},
    "sites": [
      {
        "species": [{ "element": "Ba", "occu": 1 }],
        "abc": [0.172114, 0.344229, 0.25],
        "properties": { "magmom": 0.035 },
        "label": "Ba",
        "xyz": [2.180056427387, 1.258660988305, 1.684043]
      },
      {
        "species": [{ "element": "Ba", "occu": 1 }],
        "abc": [0.655771, 0.827886, 0.25],
        "properties": { "magmom": 0.035 },
        "label": "Ba",
        "xyz": [6.264161572612999, 1.2586609883050004, 1.684043]
      },
      {
        "species": [{ "element": "Ba", "occu": 1 }],
        "abc": [0.172114, 0.827886, 0.25],
        "properties": { "magmom": 0.03 },
        "label": "Ba",
        "xyz": [4.222109, 4.795599649204, 1.684043]
      },
      {
        "species": [{ "element": "Ba", "occu": 1 }],
        "abc": [0.827886, 0.655771, 0.75],
        "properties": { "magmom": 0.036000000000000004 },
        "label": "Ba",
        "xyz": [6.264161572612999, -1.2586609883050004, 5.052129]
      },
      {
        "species": [{ "element": "Ba", "occu": 1 }],
        "abc": [0.344229, 0.172114, 0.75],
        "properties": { "magmom": 0.036000000000000004 },
        "label": "Ba",
        "xyz": [2.180056427387, -1.258660988305, 5.052129]
      },
      {
        "species": [{ "element": "Ba", "occu": 1 }],
        "abc": [0.827886, 0.172114, 0.75],
        "properties": { "magmom": 0.033 },
        "label": "Ba",
        "xyz": [4.222109, -4.795599649204, 5.052129]
      },
      {
        "species": [{ "element": "Y", "occu": 1 }],
        "abc": [0.333333, 0.666667, 0.75],
        "properties": { "magmom": 0.146 },
        "label": "Y",
        "xyz": [4.222109, 2.437640541938, 5.052129]
      },
      {
        "species": [{ "element": "Y", "occu": 1 }],
        "abc": [0.666667, 0.333333, 0.25],
        "properties": { "magmom": 0.158 },
        "label": "Y",
        "xyz": [4.222109, -2.437640541938, 1.684043]
      }
    ]
  },
  "task_ids": null,
  "uncorrected_energy_per_atom": null,
  "energy_per_atom": -2.84112988625,
  "formation_energy_per_atom": 0.225374193749999,
  "energy_above_hull": 0.225374193749999,
  "is_stable": false,
  "equilibrium_reaction_energy_per_atom": null,
  "decomposes_to": null,
  "xas": null,
  "grain_boundaries": null,
  "band_gap": 0.0,
  "cbm": null,
  "vbm": null,
  "efermi": 2.05712195,
  "is_gap_direct": null,
  "is_metal": null,
  "es_source_calc_id": null,
  "bandstructure": null,
  "dos": null,
  "dos_energy_up": null,
  "dos_energy_down": null,
  "is_magnetic": null,
  "ordering": null,
  "total_magnetization": 1.2792478,
  "total_magnetization_normalized_vol": null,
  "total_magnetization_normalized_formula_units": null,
  "num_magnetic_sites": null,
  "num_unique_magnetic_sites": null,
  "types_of_magnetic_species": null,
  "bulk_modulus": null,
  "shear_modulus": null,
  "universal_anisotropy": null,
  "homogeneous_poisson": null,
  "e_total": null,
  "e_ionic": null,
  "e_electronic": null,
  "n": null,
  "e_ij_max": null,
  "weighted_surface_energy_EV_PER_ANG2": null,
  "weighted_surface_energy": null,
  "weighted_work_function": null,
  "surface_anisotropy": null,
  "shape_factor": null,
  "has_reconstructed": null,
  "possible_species": null,
  "has_props": null,
  "theoretical": null,
  "database_IDs": null,
  "fields_not_requested": [
    "builder_meta",
    "nsites",
    "elements",
    "nelements",
    "composition",
    "composition_reduced",
    "chemsys",
    "symmetry",
    "property_name",
    "deprecated",
    "deprecation_reasons",
    "last_updated",
    "origins",
    "warnings",
    "task_ids",
    "uncorrected_energy_per_atom",
    "equilibrium_reaction_energy_per_atom",
    "decomposes_to",
    "xas",
    "grain_boundaries",
    "cbm",
    "vbm",
    "is_gap_direct",
    "is_metal",
    "es_source_calc_id",
    "bandstructure",
    "dos",
    "dos_energy_up",
    "dos_energy_down",
    "is_magnetic",
    "ordering",
    "total_magnetization_normalized_vol",
    "total_magnetization_normalized_formula_units",
    "num_magnetic_sites",
    "num_unique_magnetic_sites",
    "types_of_magnetic_species",
    "bulk_modulus",
    "shear_modulus",
    "universal_anisotropy",
    "homogeneous_poisson",
    "e_total",
    "e_ionic",
    "e_electronic",
    "n",
    "e_ij_max",
    "weighted_surface_energy_EV_PER_ANG2",
    "weighted_surface_energy",
    "weighted_work_function",
    "surface_anisotropy",
    "shape_factor",
    "has_reconstructed",
    "possible_species",
    "has_props",
    "theoretical",
    "database_IDs"
  ]
}
