{
  "builder_meta": null,
  "nsites": null,
  "elements": null,
  "nelements": null,
  "composition": null,
  "composition_reduced": null,
  "formula_pretty": "Ba4Al",
  "formula_anonymous": "AB4",
  "chemsys": null,
  "volume": 619.2114574332862,
  "density": 3.090870755153268,
  "density_atomic": 61.92114574332862,
  "symmetry": null,
  "property_name": null,
  "material_id": "mp-1214528",
  "deprecated": null,
  "deprecation_reasons": null,
  "last_updated": null,
  "origins": null,
  "warnings": null,
  "structure": {
    "@module": "pymatgen.core.structure",
    "@class": "Structure",
    "charge": 0,
    "lattice": {
      "matrix": [
        [0.0, 6.765029, 6.765029],
        [6.765029, 0.0, 6.765029],
        [6.765029, 6.765029, 0.0]
      ],
      "pbc": [true, true, true],
      "a": 9.567195761647296,
      "b": 9.567195761647296,
      "c": 9.567195761647296,
      "alpha": 59.99999999999999,
      "beta": 59.99999999999999,
      "gamma": 59.99999999999999,
      "volume": 619.2114574332862
    },
    "properties": {},
    "sites": [
      {
        "species": [{ "element": "Ba", "occu": 1 }],
        "abc": [0.386295, 0.386295, 0.386295],
        "properties": { "magmom": 0.049 },
        "label": "Ba",
        "xyz": [5.226593755110001, 5.226593755110001, 5.226593755110001]
      },
      {
        "species": [{ "element": "Ba", "occu": 1 }],
        "abc": [0.386295, 0.386295, 0.841115],
        "properties": { "magmom": 0.049 },
        "label": "Ba",
        "xyz": [8.30346424489, 8.30346424489, 5.226593755110001]
      },
      {
        "species": [{ "element": "Ba", "occu": 1 }],
        "abc": [0.386295, 0.841115, 0.386295],
        "properties": { "magmom": 0.057 },
        "label": "Ba",
        "xyz": [8.30346424489, 5.226593755110001, 8.30346424489]
      },
      {
        "species": [{ "element": "Ba", "occu": 1 }],
        "abc": [0.863705, 0.863705, 0.408885],
        "properties": { "magmom": 0.049 },
        "label": "Ba",
        "xyz": [8.60910825511, 8.60910825511, 11.685978744889999]
      },
      {
        "species": [{ "element": "Ba", "occu": 1 }],
        "abc": [0.863705, 0.863705, 0.863705],
        "properties": { "magmom": 0.049 },
        "label": "Ba",
        "xyz": [11.685978744889999, 11.685978744889999, 11.685978744889999]
      },
      {
        "species": [{ "element": "Ba", "occu": 1 }],
        "abc": [0.841115, 0.386295, 0.386295],
        "properties": { "magmom": 0.066 },
        "label": "Ba",
        "xyz": [5.226593755110001, 8.30346424489, 8.30346424489]
      },
      {
        "species": [{ "element": "Ba", "occu": 1 }],
        "abc": [0.863705, 0.408885, 0.863705],
        "properties": { "magmom": 0.057 },
        "label": "Ba",
        "xyz": [8.60910825511, 11.685978744889999, 8.60910825511]
      },
      {
        "species": [{ "element": "Ba", "occu": 1 }],
        "abc": [0.408885, 0.863705, 0.863705],
        "properties": { "magmom": 0.066 },
        "label": "Ba",
        "xyz": [11.685978744889999, 8.60910825511, 8.60910825511]
      },
      {
        "species": [{ "element": "Al", "occu": 1 }],
        "abc": [0.0, 0.0, 0.0],
        "properties": { "magmom": 0.026000000000000002 },
        "label": "Al",
        "xyz": [0.0, 0.0, 0.0]
      },
      {
        "species": [{ "element": "Al", "occu": 1 }],
        "abc": [0.25, 0.25, 0.25],
        "properties": { "magmom": 0.026000000000000002 },
        "label": "Al",
        "xyz": [3.3825145, 3.3825145, 3.3825145]
      }
    ]
  },
  "task_ids": null,
  "uncorrected_energy_per_atom": null,
  "energy_per_atom": -1.9808774120000001,
  "formation_energy_per_atom": 0.303417706,
  "energy_above_hull": 0.38326773939999903,
  "is_stable": false,
  "equilibrium_reaction_energy_per_atom": null,
  "decomposes_to": null,
  "xas": null,
  "grain_boundaries": null,
  "band_gap": 0.0,
  "cbm": null,
  "vbm": null,
  "efermi": 1.43429071,
  "is_gap_direct": null,
  "is_metal": null,
  "es_source_calc_id": null,
  "bandstructure": null,
  "dos": null,
  "dos_energy_up": null,
  "dos_energy_down": null,
  "is_magnetic": null,
  "ordering": null,
  "total_magnetization": 2.322545599999999,
  "total_magnetization_normalized_vol": null,
  "total_magnetization_normalized_formula_units": null,
  "num_magnetic_sites": null,
  "num_unique_magnetic_sites": null,
  "types_of_magnetic_species": null,
  "bulk_modulus": null,
  "shear_modulus": null,
  "universal_anisotropy": null,
  "homogeneous_poisson": null,
  "e_total": null,
  "e_ionic": null,
  "e_electronic": null,
  "n": null,
  "e_ij_max": null,
  "weighted_surface_energy_EV_PER_ANG2": null,
  "weighted_surface_energy": null,
  "weighted_work_function": null,
  "surface_anisotropy": null,
  "shape_factor": null,
  "has_reconstructed": null,
  "possible_species": null,
  "has_props": null,
  "theoretical": null,
  "database_IDs": null,
  "fields_not_requested": [
    "builder_meta",
    "nsites",
    "elements",
    "nelements",
    "composition",
    "composition_reduced",
    "chemsys",
    "symmetry",
    "property_name",
    "deprecated",
    "deprecation_reasons",
    "last_updated",
    "origins",
    "warnings",
    "task_ids",
    "uncorrected_energy_per_atom",
    "equilibrium_reaction_energy_per_atom",
    "decomposes_to",
    "xas",
    "grain_boundaries",
    "cbm",
    "vbm",
    "is_gap_direct",
    "is_metal",
    "es_source_calc_id",
    "bandstructure",
    "dos",
    "dos_energy_up",
    "dos_energy_down",
    "is_magnetic",
    "ordering",
    "total_magnetization_normalized_vol",
    "total_magnetization_normalized_formula_units",
    "num_magnetic_sites",
    "num_unique_magnetic_sites",
    "types_of_magnetic_species",
    "bulk_modulus",
    "shear_modulus",
    "universal_anisotropy",
    "homogeneous_poisson",
    "e_total",
    "e_ionic",
    "e_electronic",
    "n",
    "e_ij_max",
    "weighted_surface_energy_EV_PER_ANG2",
    "weighted_surface_energy",
    "weighted_work_function",
    "surface_anisotropy",
    "shape_factor",
    "has_reconstructed",
    "possible_species",
    "has_props",
    "theoretical",
    "database_IDs"
  ]
}
