{
  "builder_meta": null,
  "nsites": null,
  "elements": null,
  "nelements": null,
  "composition": null,
  "composition_reduced": null,
  "formula_pretty": "Ba4Al5",
  "formula_anonymous": "A4B5",
  "chemsys": null,
  "volume": 584.5193375051718,
  "density": 3.88752540867731,
  "density_atomic": 32.473296528065106,
  "symmetry": null,
  "property_name": null,
  "material_id": "mp-2631",
  "deprecated": null,
  "deprecation_reasons": null,
  "last_updated": null,
  "origins": null,
  "warnings": null,
  "structure": {
    "@module": "pymatgen.core.structure",
    "@class": "Structure",
    "charge": 0,
    "lattice": {
      "matrix": [
        [6.11650028, -0.0, -1.06e-6],
        [-3.05825014, 5.297052929999999, 1.017e-5],
        [-4.18e-6, 3.5050000000000005e-5, 18.04104006]
      ],
      "pbc": [true, true, true],
      "a": 6.116500280000092,
      "b": 6.116507472580658,
      "c": 18.04104006003453,
      "alpha": 89.99980169536144,
      "beta": 90.00002320454297,
      "gamma": 119.99996110059641,
      "volume": 584.5193375051715
    },
    "properties": {},
    "sites": [
      {
        "species": [{ "element": "Ba", "occu": 1 }],
        "abc": [-6.000000000000001e-8, 8.9e-7, 0.35602829],
        "properties": { "magmom": -0.0 },
        "label": "Ba",
        "xyz": [-4.5770308936e-6, 1.71931686722e-5, 6.423120642392412]
      },
      {
        "species": [{ "element": "Ba", "occu": 1 }],
        "abc": [3.6e-7, 7.2e-7, 0.85591498],
        "properties": { "magmom": 0.0 },
        "label": "Ba",
        "xyz": [-3.5777246164e-6, 3.38136981586e-5, 15.441596442141039]
      },
      {
        "species": [{ "element": "Ba", "occu": 1 }],
        "abc": [2.7e-7, 5.4e-7, 0.64414969],
        "properties": { "magmom": -0.0 },
        "label": "Ba",
        "xyz": [-2.6925457042e-6, 2.5437855216700003e-5, 11.621130361931787]
      },
      {
        "species": [{ "element": "Ba", "occu": 1 }],
        "abc": [-3.1e-7, 3.799999999999998e-7, 0.14390538],
        "properties": { "magmom": 0.0 },
        "label": "Ba",
        "xyz": [-3.659774628399999e-6, 7.0567636823999996e-6, 2.596202725433716]
      },
      {
        "species": [{ "element": "Ba", "occu": 1 }],
        "abc": [0.33333356000000003, 0.66666512, 0.9291298],
        "properties": { "magmom": 0.0 },
        "label": "Ba",
        "xyz": [2.2327377160400713e-6, 3.5313929932242907, 16.762474369390485]
      },
      {
        "species": [{ "element": "Ba", "occu": 1 }],
        "abc": [0.6666685, 0.33333599, 0.4295304],
        "properties": { "magmom": -0.0 },
        "label": "Ba",
        "xyz": [3.0582514333955695, 1.7657134375444705, 7.749177836746232]
      },
      {
        "species": [{ "element": "Ba", "occu": 1 }],
        "abc": [0.66666715, 0.3333353, 0.07043291],
        "properties": { "magmom": 0.0 },
        "label": "Ba",
        "xyz": [3.058246787340296, 1.765697196210924, 1.2706856342051966]
      },
      {
        "species": [{ "element": "Ba", "occu": 1 }],
        "abc": [0.33333384, 0.66666767, 0.570904899999999],
        "properties": { "magmom": -0.0 },
        "label": "Ba",
        "xyz": [-2.3557999805798117e-6, 3.5313939449265175, 10.29972459802661]
      },
      {
        "species": [{ "element": "Al", "occu": 1 }],
        "abc": [0.49048739, 0.9809737900000001, 0.75001651],
        "properties": { "magmom": 0.0 },
        "label": "Al",
        "xyz": [-1.0740137342219322e-7, 5.19629637665138, 13.531087359158203]
      },
      {
        "species": [{ "element": "Al", "occu": 1 }],
        "abc": [0.50950936, 0.49048991000000003, 0.24998255],
        "properties": { "magmom": 0.0 },
        "label": "Al",
        "xyz": [1.6163722622494745, 2.598159776789313, 4.509949647053416]
      },
      {
        "species": [{ "element": "Al", "occu": 1 }],
        "abc": [0.98097955, 0.49048891, 0.24998255],
        "properties": { "magmom": 0.0 },
        "label": "Al",
        "xyz": [4.500122869646268, 2.598154479736383, 4.5099491472848445]
      },
      {
        "species": [{ "element": "Al", "occu": 1 }],
        "abc": [0.01901615, 0.50951181, 0.75001963],
        "properties": { "magmom": 0.0 },
        "label": "Al",
        "xyz": [-1.4419054125466848, 2.698937314218134, 13.531139352194367]
      },
      {
        "species": [{ "element": "Al", "occu": 1 }],
        "abc": [0.49049566, 0.50951181, 0.75001963],
        "properties": { "magmom": 0.0 },
        "label": "Al",
        "xyz": [1.4418991423825782, 2.698937314218134, 13.531138852426087]
      },
      {
        "species": [{ "element": "Al", "occu": 1 }],
        "abc": [0.50951021, 0.01902041, 0.24998271],
        "properties": { "magmom": 0.0 },
        "label": "Al",
        "xyz": [3.0582491256547732, 0.10076088041428678, 4.50994773877411]
      },
      {
        "species": [{ "element": "Al", "occu": 1 }],
        "abc": [0.33333444, 0.66666789, 0.36102808000000003],
        "properties": { "magmom": 0.0 },
        "label": "Al",
        "xyz": [1.518570264421896e-6, 3.531387754095621, 6.51332848074282]
      },
      {
        "species": [{ "element": "Al", "occu": 1 }],
        "abc": [0.66666918, 0.33333736, 0.86096381],
        "properties": { "magmom": -0.0 },
        "label": "Al",
        "xyz": [3.0582495994214143, 1.765735816248005, 15.53268526979185]
      },
      {
        "species": [{ "element": "Al", "occu": 1 }],
        "abc": [0.33333418, 0.66666836, 0.13892684],
        "properties": { "magmom": -0.0 },
        "label": "Al",
        "xyz": [-5.807141912e-7, 3.5313824590620357, 2.5063911125322007]
      },
      {
        "species": [{ "element": "Al", "occu": 1 }],
        "abc": [0.6666625700000001, 0.33332413, 0.63908032],
        "properties": { "magmom": 0.0 },
        "label": "Al",
        "xyz": [3.0582505574769048, 1.7656579592214166, 11.529676337921698]
      }
    ]
  },
  "task_ids": null,
  "uncorrected_energy_per_atom": null,
  "energy_per_atom": -3.155558860555555,
  "formation_energy_per_atom": -0.22180564833333202,
  "energy_above_hull": 0.0,
  "is_stable": true,
  "equilibrium_reaction_energy_per_atom": null,
  "decomposes_to": null,
  "xas": null,
  "grain_boundaries": null,
  "band_gap": 0.0,
  "cbm": null,
  "vbm": null,
  "efermi": 3.765793979999999,
  "is_gap_direct": null,
  "is_metal": null,
  "es_source_calc_id": null,
  "bandstructure": null,
  "dos": null,
  "dos_energy_up": null,
  "dos_energy_down": null,
  "is_magnetic": null,
  "ordering": null,
  "total_magnetization": 0.000709,
  "total_magnetization_normalized_vol": null,
  "total_magnetization_normalized_formula_units": null,
  "num_magnetic_sites": null,
  "num_unique_magnetic_sites": null,
  "types_of_magnetic_species": null,
  "bulk_modulus": null,
  "shear_modulus": null,
  "universal_anisotropy": null,
  "homogeneous_poisson": null,
  "e_total": null,
  "e_ionic": null,
  "e_electronic": null,
  "n": null,
  "e_ij_max": null,
  "weighted_surface_energy_EV_PER_ANG2": null,
  "weighted_surface_energy": null,
  "weighted_work_function": null,
  "surface_anisotropy": null,
  "shape_factor": null,
  "has_reconstructed": null,
  "possible_species": null,
  "has_props": null,
  "theoretical": null,
  "database_IDs": null,
  "fields_not_requested": [
    "builder_meta",
    "nsites",
    "elements",
    "nelements",
    "composition",
    "composition_reduced",
    "chemsys",
    "symmetry",
    "property_name",
    "deprecated",
    "deprecation_reasons",
    "last_updated",
    "origins",
    "warnings",
    "task_ids",
    "uncorrected_energy_per_atom",
    "equilibrium_reaction_energy_per_atom",
    "decomposes_to",
    "xas",
    "grain_boundaries",
    "cbm",
    "vbm",
    "is_gap_direct",
    "is_metal",
    "es_source_calc_id",
    "bandstructure",
    "dos",
    "dos_energy_up",
    "dos_energy_down",
    "is_magnetic",
    "ordering",
    "total_magnetization_normalized_vol",
    "total_magnetization_normalized_formula_units",
    "num_magnetic_sites",
    "num_unique_magnetic_sites",
    "types_of_magnetic_species",
    "bulk_modulus",
    "shear_modulus",
    "universal_anisotropy",
    "homogeneous_poisson",
    "e_total",
    "e_ionic",
    "e_electronic",
    "n",
    "e_ij_max",
    "weighted_surface_energy_EV_PER_ANG2",
    "weighted_surface_energy",
    "weighted_work_function",
    "surface_anisotropy",
    "shape_factor",
    "has_reconstructed",
    "possible_species",
    "has_props",
    "theoretical",
    "database_IDs"
  ]
}
