{"builder_meta": null, "nsites": null, "elements": null, "nelements": null, "composition": null, "composition_reduced": null, "formula_pretty": "Ba4Bi3", "formula_anonymous": "A3B4", "chemsys": null, "volume": 616.9820436661529, "density": 6.331489769299902, "density_atomic": 44.070145976153775, "symmetry": null, "property_name": null, "material_id": "mp-30892", "deprecated": null, "deprecation_reasons": null, "last_updated": null, "origins": null, "warnings": null, "structure": {"@module": "pymatgen.core.structure", "@class": "Structure", "charge": 0, "lattice": {"matrix": [[8.75766907, -1e-08, -3.09630307], [-4.37883454, 7.5843642, -3.09630307], [1e-08, 2e-08, 9.28891127]], "pbc": [true, true, true], "a": 9.288910605712926, "b": 9.288910859095918, "c": 9.28891127, "alpha": 109.47121696217188, "beta": 109.47121752905895, "gamma": 109.4712232099255, "volume": 616.9820436661529}, "properties": {}, "sites": [{"species": [{"element": "Ba", "occu": 1}], "abc": [0.64430057, 0.64430057, 0.64430057], "properties": {"magmom": -0.0}, "label": "Ba", "xyz": [2.821285590057688, 4.886610183590599, 1.9949511601529242]}, {"species": [{"element": "Ba", "occu": 1}], "abc": [0.35569943, 0.5, -0.0], "properties": {"magmom": -0.0}, "label": "Ba", "xyz": [0.92568062632763, 3.7921820964430055, -2.64950477210625]}, {"species": [{"element": "Ba", "occu": 1}], "abc": [0.5, -0.0, 0.35569943], "properties": {"magmom": -0.0}, "label": "Ba", "xyz": [4.378834538556995, 2.1139885999999996e-09, 1.755908909059576]}, {"species": [{"element": "Ba", "occu": 1}], "abc": [0.0, 0.35569943, 0.5], "properties": {"magmom": -0.0}, "label": "Ba", "xyz": [-1.557548944942312, 2.6977540328524054, 3.54310239789375]}, {"species": [{"element": "Ba", "occu": 1}], "abc": [0.5, -0.0, 0.85569943], "properties": {"magmom": -0.0}, "label": "Ba", "xyz": [4.378834543556994, 1.21139886e-08, 6.400364544059577]}, {"species": [{"element": "Ba", "occu": 1}], "abc": [0.0, 0.85569943, 0.5], "properties": {"magmom": -0.0}, "label": "Ba", "xyz": [-3.746966214942312, 6.489936132852406, 1.99495086289375]}, {"species": [{"element": "Ba", "occu": 1}], "abc": [0.14430057000000002, 0.14430057000000002, 0.14430057000000002], "properties": {"magmom": -0.0}, "label": "Ba", "xyz": [0.631868320057688, 1.0944280785905998, 0.4467985951529243]}, {"species": [{"element": "Ba", "occu": 1}], "abc": [0.85569943, 0.5, -0.0], "properties": {"magmom": -0.0}, "label": "Ba", "xyz": [5.304515161327631, 3.7921820914430056, -4.19765630710625]}, {"species": [{"element": "Bi", "occu": 1}], "abc": [0.75, 0.875, 0.125], "properties": {"magmom": -0.0}, "label": "Bi", "xyz": [2.736771581250001, 6.6363186700000005, -3.8703785799999997]}, {"species": [{"element": "Bi", "occu": 1}], "abc": [0.625, 0.375, 0.25], "properties": {"magmom": -0.0}, "label": "Bi", "xyz": [3.8314802187500003, 2.8441365737499997, -0.7740752524999999]}, {"species": [{"element": "Bi", "occu": 1}], "abc": [0.875, 0.125, 0.75], "properties": {"magmom": -0.0}, "label": "Bi", "xyz": [7.11560612625, 0.94804553125, 3.8703803825]}, {"species": [{"element": "Bi", "occu": 1}], "abc": [0.125, 0.75, 0.875], "properties": {"magmom": -0.0}, "label": "Bi", "xyz": [-2.1894172625, 5.688273166249999, 5.418532174999999]}, {"species": [{"element": "Bi", "occu": 1}], "abc": [0.375, 0.25, 0.625], "properties": {"magmom": -0.0}, "label": "Bi", "xyz": [2.1894172725000005, 1.8960910587499997, 3.870380125]}, {"species": [{"element": "Bi", "occu": 1}], "abc": [0.25, 0.625, 0.375], "properties": {"magmom": -0.0}, "label": "Bi", "xyz": [-0.5473543162499998, 4.740227629999999, 0.7740765400000003]}]}, "task_ids": null, "uncorrected_energy_per_atom": null, "energy_per_atom": -3.6754792564285763, "formation_energy_per_atom": -0.911764586428576, "energy_above_hull": 0.0, "is_stable": true, "equilibrium_reaction_energy_per_atom": null, "decomposes_to": null, "xas": null, "grain_boundaries": null, "band_gap": 0.0, "cbm": null, "vbm": null, "efermi": 2.48099527, "is_gap_direct": null, "is_metal": null, "es_source_calc_id": null, "bandstructure": null, "dos": null, "dos_energy_up": null, "dos_energy_down": null, "is_magnetic": null, "ordering": null, "total_magnetization": 4.8e-06, "total_magnetization_normalized_vol": null, "total_magnetization_normalized_formula_units": null, "num_magnetic_sites": null, "num_unique_magnetic_sites": null, "types_of_magnetic_species": null, "bulk_modulus": null, "shear_modulus": null, "universal_anisotropy": null, "homogeneous_poisson": null, "e_total": null, "e_ionic": null, "e_electronic": null, "n": null, "e_ij_max": null, "weighted_surface_energy_EV_PER_ANG2": null, "weighted_surface_energy": null, "weighted_work_function": null, "surface_anisotropy": null, "shape_factor": null, "has_reconstructed": null, "possible_species": null, "has_props": null, "theoretical": null, "database_IDs": null, "fields_not_requested": ["builder_meta", "nsites", "elements", "nelements", "composition", "composition_reduced", "chemsys", "symmetry", "property_name", "deprecated", "deprecation_reasons", "last_updated", "origins", "warnings", "task_ids", "uncorrected_energy_per_atom", "equilibrium_reaction_energy_per_atom", "decomposes_to", "xas", "grain_boundaries", "cbm", "vbm", "is_gap_direct", "is_metal", "es_source_calc_id", "bandstructure", "dos", "dos_energy_up", "dos_energy_down", "is_magnetic", "ordering", "total_magnetization_normalized_vol", "total_magnetization_normalized_formula_units", "num_magnetic_sites", "num_unique_magnetic_sites", "types_of_magnetic_species", "bulk_modulus", "shear_modulus", "universal_anisotropy", "homogeneous_poisson", "e_total", "e_ionic", "e_electronic", "n", "e_ij_max", "weighted_surface_energy_EV_PER_ANG2", "weighted_surface_energy", "weighted_work_function", "surface_anisotropy", "shape_factor", "has_reconstructed", "possible_species", "has_props", "theoretical", "database_IDs"]}