{"builder_meta": null, "nsites": null, "elements": null, "nelements": null, "composition": null, "composition_reduced": null, "formula_pretty": "Ba4Pt", "formula_anonymous": "AB4", "chemsys": null, "volume": 624.9198642770436, "density": 3.9560016172458052, "density_atomic": 62.49198642770436, "symmetry": null, "property_name": null, "material_id": "mp-1214403", "deprecated": null, "deprecation_reasons": null, "last_updated": null, "origins": null, "warnings": null, "structure": {"@module": "pymatgen.core.structure", "@class": "Structure", "charge": 0, "lattice": {"matrix": [[0.0, 6.785754, 6.785754], [6.785754, 0.0, 6.785754], [6.785754, 6.785754, 0.0]], "pbc": [true, true, true], "a": 9.596505337727478, "b": 9.596505337727478, "c": 9.596505337727478, "alpha": 59.99999999999999, "beta": 59.99999999999999, "gamma": 59.99999999999999, "volume": 624.9198642770436}, "properties": {}, "sites": [{"species": [{"element": "Ba", "occu": 1}], "abc": [0.376418, 0.376418, 0.376418], "properties": {"magmom": 0.0}, "label": "Ba", "xyz": [5.108559898344, 5.108559898344, 5.108559898344]}, {"species": [{"element": "Ba", "occu": 1}], "abc": [0.376418, 0.376418, 0.870746999999999], "properties": {"magmom": 0.0}, "label": "Ba", "xyz": [8.462954887409992, 8.462954887409992, 5.108559898344]}, {"species": [{"element": "Ba", "occu": 1}], "abc": [0.376418, 0.870746999999999, 0.376418], "properties": {"magmom": -0.0}, "label": "Ba", "xyz": [8.462954887409992, 5.108559898344, 8.462954887409992]}, {"species": [{"element": "Ba", "occu": 1}], "abc": [0.873582, 0.873582, 0.379253], "properties": {"magmom": 0.0}, "label": "Ba", "xyz": [8.501430112589999, 8.501430112589999, 11.855825101655999]}, {"species": [{"element": "Ba", "occu": 1}], "abc": [0.873582, 0.873582, 0.873582], "properties": {"magmom": 0.0}, "label": "Ba", "xyz": [11.855825101655999, 11.855825101655999, 11.855825101655999]}, {"species": [{"element": "Ba", "occu": 1}], "abc": [0.870746999999999, 0.376418, 0.376418], "properties": {"magmom": 0.0}, "label": "Ba", "xyz": [5.108559898344, 8.462954887409992, 8.462954887409992]}, {"species": [{"element": "Ba", "occu": 1}], "abc": [0.873582, 0.379253, 0.873582], "properties": {"magmom": -0.0}, "label": "Ba", "xyz": [8.501430112589999, 11.855825101655999, 8.501430112589999]}, {"species": [{"element": "Ba", "occu": 1}], "abc": [0.379253, 0.873582, 0.873582], "properties": {"magmom": 0.0}, "label": "Ba", "xyz": [11.855825101655999, 8.501430112589999, 8.501430112589999]}, {"species": [{"element": "Pt", "occu": 1}], "abc": [0.0, 0.0, 0.0], "properties": {"magmom": 0.0}, "label": "Pt", "xyz": [0.0, 0.0, 0.0]}, {"species": [{"element": "Pt", "occu": 1}], "abc": [0.25, 0.25, 0.25], "properties": {"magmom": 0.0}, "label": "Pt", "xyz": [3.392877, 3.392877, 3.392877]}]}, "task_ids": null, "uncorrected_energy_per_atom": null, "energy_per_atom": -2.9374378510000003, "formation_energy_per_atom": -0.18803123499999902, "energy_above_hull": 0.11155356200000001, "is_stable": false, "equilibrium_reaction_energy_per_atom": null, "decomposes_to": null, "xas": null, "grain_boundaries": null, "band_gap": 0.0, "cbm": null, "vbm": null, "efermi": 1.35195303, "is_gap_direct": null, "is_metal": null, "es_source_calc_id": null, "bandstructure": null, "dos": null, "dos_energy_up": null, "dos_energy_down": null, "is_magnetic": null, "ordering": null, "total_magnetization": 0.0020349, "total_magnetization_normalized_vol": null, "total_magnetization_normalized_formula_units": null, "num_magnetic_sites": null, "num_unique_magnetic_sites": null, "types_of_magnetic_species": null, "bulk_modulus": null, "shear_modulus": null, "universal_anisotropy": null, "homogeneous_poisson": null, "e_total": null, "e_ionic": null, "e_electronic": null, "n": null, "e_ij_max": null, "weighted_surface_energy_EV_PER_ANG2": null, "weighted_surface_energy": null, "weighted_work_function": null, "surface_anisotropy": null, "shape_factor": null, "has_reconstructed": null, "possible_species": null, "has_props": null, "theoretical": null, "database_IDs": null, "fields_not_requested": ["builder_meta", "nsites", "elements", "nelements", "composition", "composition_reduced", "chemsys", "symmetry", "property_name", "deprecated", "deprecation_reasons", "last_updated", "origins", "warnings", "task_ids", "uncorrected_energy_per_atom", "equilibrium_reaction_energy_per_atom", "decomposes_to", "xas", "grain_boundaries", "cbm", "vbm", "is_gap_direct", "is_metal", "es_source_calc_id", "bandstructure", "dos", "dos_energy_up", "dos_energy_down", "is_magnetic", "ordering", "total_magnetization_normalized_vol", "total_magnetization_normalized_formula_units", "num_magnetic_sites", "num_unique_magnetic_sites", "types_of_magnetic_species", "bulk_modulus", "shear_modulus", "universal_anisotropy", "homogeneous_poisson", "e_total", "e_ionic", "e_electronic", "n", "e_ij_max", "weighted_surface_energy_EV_PER_ANG2", "weighted_surface_energy", "weighted_work_function", "surface_anisotropy", "shape_factor", "has_reconstructed", "possible_species", "has_props", "theoretical", "database_IDs"]}