{
  "builder_meta": null,
  "nsites": null,
  "elements": null,
  "nelements": null,
  "composition": null,
  "composition_reduced": null,
  "formula_pretty": "Ba4P3",
  "formula_anonymous": "A3B4",
  "chemsys": null,
  "volume": 1940.708121185392,
  "density": 4.3961142120278645,
  "density_atomic": 34.65550216402486,
  "symmetry": null,
  "property_name": null,
  "material_id": "mp-28823",
  "deprecated": null,
  "deprecation_reasons": null,
  "last_updated": null,
  "origins": null,
  "warnings": null,
  "structure": {
    "@module": "pymatgen.core.structure",
    "@class": "Structure",
    "charge": 0,
    "lattice": {
      "matrix": [
        [11.38521709, 0.0, 0.0],
        [0.0, 12.68679497, -0.0],
        [0.0, 0.0, 13.435906899999999]
      ],
      "pbc": [true, true, true],
      "a": 11.38521709,
      "b": 12.68679497,
      "c": 13.435906899999999,
      "alpha": 90.0,
      "beta": 90.0,
      "gamma": 90.0,
      "volume": 1940.7081211853917
    },
    "properties": {},
    "sites": [
      {
        "species": [{ "element": "Ba", "occu": 1 }],
        "abc": [0.5, 0.12108492, 0.87327278],
        "properties": { "magmom": -0.0 },
        "label": "Ba",
        "xyz": [5.692608545, 1.5361795539988523, 11.73321177038418]
      },
      {
        "species": [{ "element": "Ba", "occu": 1 }],
        "abc": [0.5, 0.8789150800000001, 0.12672722],
        "properties": { "magmom": -0.0 },
        "label": "Ba",
        "xyz": [5.692608545, 11.150615416001148, 1.702695129615818]
      },
      {
        "species": [{ "element": "Ba", "occu": 1 }],
        "abc": [0.5, 0.62108492, 0.62672722],
        "properties": { "magmom": -0.0 },
        "label": "Ba",
        "xyz": [5.692608545, 7.879577038998852, 8.420648579615818]
      },
      {
        "species": [{ "element": "Ba", "occu": 1 }],
        "abc": [0.5, 0.37891508, 0.37327278],
        "properties": { "magmom": -0.0 },
        "label": "Ba",
        "xyz": [5.692608545, 4.807217931001148, 5.015258320384182]
      },
      {
        "species": [{ "element": "Ba", "occu": 1 }],
        "abc": [0.81900799, 0.0, -0.0],
        "properties": { "magmom": -0.0 },
        "label": "Ba",
        "xyz": [9.324583764594548, 0.0, 0.0]
      },
      {
        "species": [{ "element": "Ba", "occu": 1 }],
        "abc": [0.18099201, 0.5, 0.5],
        "properties": { "magmom": -0.0 },
        "label": "Ba",
        "xyz": [2.0606333254054507, 6.343397485, 6.7179534499999995]
      },
      {
        "species": [{ "element": "Ba", "occu": 1 }],
        "abc": [0.18099201, -0.0, -0.0],
        "properties": { "magmom": -0.0 },
        "label": "Ba",
        "xyz": [2.0606333254054507, 0.0, 0.0]
      },
      {
        "species": [{ "element": "Ba", "occu": 1 }],
        "abc": [0.81900799, 0.5, 0.5],
        "properties": { "magmom": -0.0 },
        "label": "Ba",
        "xyz": [9.324583764594548, 6.343397485, 6.7179534499999995]
      },
      {
        "species": [{ "element": "Ba", "occu": 1 }],
        "abc": [0.68132398, 0.1704232, 0.56764284],
        "properties": { "magmom": 0.0 },
        "label": "Ba",
        "xyz": [7.757021420922818, 2.162124196531304, 7.6267963506915954]
      },
      {
        "species": [{ "element": "Ba", "occu": 1 }],
        "abc": [0.68132398, 0.8295768, 0.43235716],
        "properties": { "magmom": 0.0 },
        "label": "Ba",
        "xyz": [7.757021420922818, 10.524670773468696, 5.809110549308404]
      },
      {
        "species": [{ "element": "Ba", "occu": 1 }],
        "abc": [0.31867602, 0.6704232, 0.93235716],
        "properties": { "magmom": 0.0 },
        "label": "Ba",
        "xyz": [3.6281956690771815, 8.505521681531304, 12.527063999308403]
      },
      {
        "species": [{ "element": "Ba", "occu": 1 }],
        "abc": [0.31867602, 0.3295768, 0.06764284],
        "properties": { "magmom": 0.0 },
        "label": "Ba",
        "xyz": [3.6281956690771815, 4.181273288468696, 0.9088429006915959]
      },
      {
        "species": [{ "element": "Ba", "occu": 1 }],
        "abc": [0.31867602, 0.8295768, 0.43235716],
        "properties": { "magmom": 0.0 },
        "label": "Ba",
        "xyz": [3.6281956690771815, 10.524670773468696, 5.809110549308404]
      },
      {
        "species": [{ "element": "Ba", "occu": 1 }],
        "abc": [0.31867602, 0.1704232, 0.56764284],
        "properties": { "magmom": 0.0 },
        "label": "Ba",
        "xyz": [3.6281956690771815, 2.162124196531304, 7.6267963506915954]
      },
      {
        "species": [{ "element": "Ba", "occu": 1 }],
        "abc": [0.68132398, 0.3295768, 0.06764284],
        "properties": { "magmom": 0.0 },
        "label": "Ba",
        "xyz": [7.757021420922818, 4.181273288468696, 0.9088429006915959]
      },
      {
        "species": [{ "element": "Ba", "occu": 1 }],
        "abc": [0.68132398, 0.6704232, 0.93235716],
        "properties": { "magmom": 0.0 },
        "label": "Ba",
        "xyz": [7.757021420922818, 8.505521681531304, 12.527063999308403]
      },
      {
        "species": [{ "element": "Ba", "occu": 1 }],
        "abc": [-0.0, 0.72517885, 0.0824346],
        "properties": { "magmom": 0.0 },
        "label": "Ba",
        "xyz": [0.0, 9.200195386530385, 1.1075836109387398]
      },
      {
        "species": [{ "element": "Ba", "occu": 1 }],
        "abc": [-0.0, 0.27482115, 0.9175664],
        "properties": { "magmom": 0.0 },
        "label": "Ba",
        "xyz": [0.0, 3.4865995834696153, 12.328336724968159]
      },
      {
        "species": [{ "element": "Ba", "occu": 1 }],
        "abc": [-0.0, 0.22517885, 0.4175664],
        "properties": { "magmom": 0.0 },
        "label": "Ba",
        "xyz": [0.0, 2.8567979015303844, 5.61038327496816]
      },
      {
        "species": [{ "element": "Ba", "occu": 1 }],
        "abc": [-0.0, 0.7748211500000001, 0.5824336],
        "properties": { "magmom": 0.0 },
        "label": "Ba",
        "xyz": [0.0, 9.829997068469616, 7.825523625031839]
      },
      {
        "species": [{ "element": "Ba", "occu": 1 }],
        "abc": [0.716598899999999, 0.9020949300000001, 0.73643988],
        "properties": { "magmom": 0.0 },
        "label": "Ba",
        "xyz": [8.158634042955189, 11.444693420386502, 9.894737665127172]
      },
      {
        "species": [{ "element": "Ba", "occu": 1 }],
        "abc": [0.716598899999999, 0.09790507, 0.26356012],
        "properties": { "magmom": 0.0 },
        "label": "Ba",
        "xyz": [8.158634042955189, 1.2421015496134977, 3.541169234872828]
      },
      {
        "species": [{ "element": "Ba", "occu": 1 }],
        "abc": [0.283401099999999, 0.40209493, 0.7635601200000001],
        "properties": { "magmom": 0.0 },
        "label": "Ba",
        "xyz": [3.226583047044788, 5.101295935386502, 10.259122684872828]
      },
      {
        "species": [{ "element": "Ba", "occu": 1 }],
        "abc": [0.283401099999999, 0.59790507, 0.23643988],
        "properties": { "magmom": 0.0 },
        "label": "Ba",
        "xyz": [3.226583047044788, 7.585499034613498, 3.1767842151271717]
      },
      {
        "species": [{ "element": "Ba", "occu": 1 }],
        "abc": [0.283401099999999, 0.09790507, 0.26356012],
        "properties": { "magmom": 0.0 },
        "label": "Ba",
        "xyz": [3.226583047044788, 1.2421015496134977, 3.541169234872828]
      },
      {
        "species": [{ "element": "Ba", "occu": 1 }],
        "abc": [0.283401099999999, 0.9020949300000001, 0.73643988],
        "properties": { "magmom": 0.0 },
        "label": "Ba",
        "xyz": [3.226583047044788, 11.444693420386502, 9.894737665127172]
      },
      {
        "species": [{ "element": "Ba", "occu": 1 }],
        "abc": [0.716598899999999, 0.59790507, 0.23643988],
        "properties": { "magmom": 0.0 },
        "label": "Ba",
        "xyz": [8.158634042955189, 7.585499034613498, 3.1767842151271717]
      },
      {
        "species": [{ "element": "Ba", "occu": 1 }],
        "abc": [0.716598899999999, 0.40209493, 0.7635601200000001],
        "properties": { "magmom": 0.0 },
        "label": "Ba",
        "xyz": [8.158634042955189, 5.101295935386502, 10.259122684872828]
      },
      {
        "species": [{ "element": "Ba", "occu": 1 }],
        "abc": [-0.0, 0.89337566, 0.29441755000000003],
        "properties": { "magmom": 0.0 },
        "label": "Ba",
        "xyz": [0.0, 11.33407382960843, 3.955766791526095]
      },
      {
        "species": [{ "element": "Ba", "occu": 1 }],
        "abc": [-0.0, 0.10662434, 0.70558245],
        "properties": { "magmom": 0.0 },
        "label": "Ba",
        "xyz": [0.0, 1.3527211403915698, 9.480140108473904]
      },
      {
        "species": [{ "element": "Ba", "occu": 1 }],
        "abc": [-0.0, 0.39337566, 0.20558245],
        "properties": { "magmom": 0.0 },
        "label": "Ba",
        "xyz": [0.0, 4.99067634460843, 2.762186658473905]
      },
      {
        "species": [{ "element": "Ba", "occu": 1 }],
        "abc": [-0.0, 0.60662434, 0.79441755],
        "properties": { "magmom": 0.0 },
        "label": "Ba",
        "xyz": [0.0, 7.696118625391569, 10.673720241526095]
      },
      {
        "species": [{ "element": "P", "occu": 1 }],
        "abc": [-0.0, 0.63938242, 0.36371961],
        "properties": { "magmom": 0.0 },
        "label": "P",
        "xyz": [0.0, 8.111713669962427, 4.886902817664309]
      },
      {
        "species": [{ "element": "P", "occu": 1 }],
        "abc": [-0.0, 0.36061758, 0.63628039],
        "properties": { "magmom": 0.0 },
        "label": "P",
        "xyz": [0.0, 4.5750813000375725, 8.54900408233569]
      },
      {
        "species": [{ "element": "P", "occu": 1 }],
        "abc": [-0.0, 0.13938242, 0.13628039],
        "properties": { "magmom": 0.0 },
        "label": "P",
        "xyz": [0.0, 1.7683161849624274, 1.831050632335691]
      },
      {
        "species": [{ "element": "P", "occu": 1 }],
        "abc": [-0.0, 0.86061758, 0.86371961],
        "properties": { "magmom": 0.0 },
        "label": "P",
        "xyz": [0.0, 10.918478785037571, 11.604856267664308]
      },
      {
        "species": [{ "element": "P", "occu": 1 }],
        "abc": [0.5, 0.0333554, 0.42236048],
        "properties": { "magmom": -0.0 },
        "label": "P",
        "xyz": [5.692608545, 0.423173120942338, 5.6747960875193115]
      },
      {
        "species": [{ "element": "P", "occu": 1 }],
        "abc": [0.5, 0.9666446, 0.57763952],
        "properties": { "magmom": -0.0 },
        "label": "P",
        "xyz": [5.692608545, 12.26362184905766, 7.761110812480687]
      },
      {
        "species": [{ "element": "P", "occu": 1 }],
        "abc": [0.5, 0.533355399999999, 0.07763952],
        "properties": { "magmom": -0.0 },
        "label": "P",
        "xyz": [5.692608545, 6.766570605942325, 1.043157362480688]
      },
      {
        "species": [{ "element": "P", "occu": 1 }],
        "abc": [0.5, 0.466644599999999, 0.92236048],
        "properties": { "magmom": -0.0 },
        "label": "P",
        "xyz": [5.692608545, 5.920224364057649, 12.392749537519311]
      },
      {
        "species": [{ "element": "P", "occu": 1 }],
        "abc": [0.23620696, 0.3370566, 0.32081383],
        "properties": { "magmom": 0.0 },
        "label": "P",
        "xyz": [2.689267517768946, 4.276167977485302, 4.310424752112427]
      },
      {
        "species": [{ "element": "P", "occu": 1 }],
        "abc": [0.23620696, 0.6629434, 0.67918617],
        "properties": { "magmom": 0.0 },
        "label": "P",
        "xyz": [2.689267517768946, 8.410626992514697, 9.125482147887572]
      },
      {
        "species": [{ "element": "P", "occu": 1 }],
        "abc": [0.76379304, 0.837056599999999, 0.17918617],
        "properties": { "magmom": 0.0 },
        "label": "P",
        "xyz": [8.695949572231054, 10.619565462485289, 2.4075286978875727]
      },
      {
        "species": [{ "element": "P", "occu": 1 }],
        "abc": [0.76379304, 0.1629434, 0.82081383],
        "properties": { "magmom": 0.0 },
        "label": "P",
        "xyz": [8.695949572231054, 2.0672295075146976, 11.028378202112426]
      },
      {
        "species": [{ "element": "P", "occu": 1 }],
        "abc": [0.76379304, 0.6629434, 0.67918617],
        "properties": { "magmom": 0.0 },
        "label": "P",
        "xyz": [8.695949572231054, 8.410626992514697, 9.125482147887572]
      },
      {
        "species": [{ "element": "P", "occu": 1 }],
        "abc": [0.76379304, 0.3370566, 0.32081383],
        "properties": { "magmom": 0.0 },
        "label": "P",
        "xyz": [8.695949572231054, 4.276167977485302, 4.310424752112427]
      },
      {
        "species": [{ "element": "P", "occu": 1 }],
        "abc": [0.23620696, 0.1629434, 0.82081383],
        "properties": { "magmom": 0.0 },
        "label": "P",
        "xyz": [2.689267517768946, 2.0672295075146976, 11.028378202112426]
      },
      {
        "species": [{ "element": "P", "occu": 1 }],
        "abc": [0.23620696, 0.837056599999999, 0.17918617],
        "properties": { "magmom": 0.0 },
        "label": "P",
        "xyz": [2.689267517768946, 10.619565462485289, 2.4075286978875727]
      },
      {
        "species": [{ "element": "P", "occu": 1 }],
        "abc": [0.5, 0.63818568, 0.3869245],
        "properties": { "magmom": -0.0 },
        "label": "P",
        "xyz": [5.692608545, 8.096530874950028, 5.198681559329049]
      },
      {
        "species": [{ "element": "P", "occu": 1 }],
        "abc": [0.5, 0.36181432, 0.6130755],
        "properties": { "magmom": -0.0 },
        "label": "P",
        "xyz": [5.692608545, 4.59026409504997, 8.23722534067095]
      },
      {
        "species": [{ "element": "P", "occu": 1 }],
        "abc": [0.5, 0.13818568, 0.1130755],
        "properties": { "magmom": -0.0 },
        "label": "P",
        "xyz": [5.692608545, 1.7531333899500297, 1.51927189067095]
      },
      {
        "species": [{ "element": "P", "occu": 1 }],
        "abc": [0.5, 0.86181432, 0.8869245],
        "properties": { "magmom": -0.0 },
        "label": "P",
        "xyz": [5.692608545, 10.93366158004997, 11.916635009329049]
      },
      {
        "species": [{ "element": "P", "occu": 1 }],
        "abc": [0.89947532, -0.0, 0.5],
        "properties": { "magmom": 0.0 },
        "label": "P",
        "xyz": [10.240721785297218, 0.0, 6.7179534499999995]
      },
      {
        "species": [{ "element": "P", "occu": 1 }],
        "abc": [0.10052468, 0.5, -0.0],
        "properties": { "magmom": 0.0 },
        "label": "P",
        "xyz": [1.1444953047027813, 6.343397485, 0.0]
      },
      {
        "species": [{ "element": "P", "occu": 1 }],
        "abc": [0.10052468, 0.0, 0.5],
        "properties": { "magmom": 0.0 },
        "label": "P",
        "xyz": [1.1444953047027813, 0.0, 6.7179534499999995]
      },
      {
        "species": [{ "element": "P", "occu": 1 }],
        "abc": [0.89947532, 0.5, -0.0],
        "properties": { "magmom": 0.0 },
        "label": "P",
        "xyz": [10.240721785297218, 6.343397485, 0.0]
      }
    ]
  },
  "task_ids": null,
  "uncorrected_energy_per_atom": null,
  "energy_per_atom": -4.421403233392858,
  "formation_energy_per_atom": -1.003928899668367,
  "energy_above_hull": 0.0,
  "is_stable": true,
  "equilibrium_reaction_energy_per_atom": null,
  "decomposes_to": null,
  "xas": null,
  "grain_boundaries": null,
  "band_gap": 0.7701,
  "cbm": null,
  "vbm": null,
  "efermi": 2.7206392999999993,
  "is_gap_direct": null,
  "is_metal": null,
  "es_source_calc_id": null,
  "bandstructure": null,
  "dos": null,
  "dos_energy_up": null,
  "dos_energy_down": null,
  "is_magnetic": null,
  "ordering": null,
  "total_magnetization": 6e-7,
  "total_magnetization_normalized_vol": null,
  "total_magnetization_normalized_formula_units": null,
  "num_magnetic_sites": null,
  "num_unique_magnetic_sites": null,
  "types_of_magnetic_species": null,
  "bulk_modulus": null,
  "shear_modulus": null,
  "universal_anisotropy": null,
  "homogeneous_poisson": null,
  "e_total": null,
  "e_ionic": null,
  "e_electronic": null,
  "n": null,
  "e_ij_max": null,
  "weighted_surface_energy_EV_PER_ANG2": null,
  "weighted_surface_energy": null,
  "weighted_work_function": null,
  "surface_anisotropy": null,
  "shape_factor": null,
  "has_reconstructed": null,
  "possible_species": null,
  "has_props": null,
  "theoretical": null,
  "database_IDs": null,
  "fields_not_requested": [
    "builder_meta",
    "nsites",
    "elements",
    "nelements",
    "composition",
    "composition_reduced",
    "chemsys",
    "symmetry",
    "property_name",
    "deprecated",
    "deprecation_reasons",
    "last_updated",
    "origins",
    "warnings",
    "task_ids",
    "uncorrected_energy_per_atom",
    "equilibrium_reaction_energy_per_atom",
    "decomposes_to",
    "xas",
    "grain_boundaries",
    "cbm",
    "vbm",
    "is_gap_direct",
    "is_metal",
    "es_source_calc_id",
    "bandstructure",
    "dos",
    "dos_energy_up",
    "dos_energy_down",
    "is_magnetic",
    "ordering",
    "total_magnetization_normalized_vol",
    "total_magnetization_normalized_formula_units",
    "num_magnetic_sites",
    "num_unique_magnetic_sites",
    "types_of_magnetic_species",
    "bulk_modulus",
    "shear_modulus",
    "universal_anisotropy",
    "homogeneous_poisson",
    "e_total",
    "e_ionic",
    "e_electronic",
    "n",
    "e_ij_max",
    "weighted_surface_energy_EV_PER_ANG2",
    "weighted_surface_energy",
    "weighted_work_function",
    "surface_anisotropy",
    "shape_factor",
    "has_reconstructed",
    "possible_species",
    "has_props",
    "theoretical",
    "database_IDs"
  ]
}
