{"builder_meta": null, "nsites": null, "elements": null, "nelements": null, "composition": null, "composition_reduced": null, "formula_pretty": "Ba4Pd", "formula_anonymous": "AB4", "chemsys": null, "volume": 602.1583624438981, "density": 3.6165302318289463, "density_atomic": 60.21583624438981, "symmetry": null, "property_name": null, "material_id": "mp-1214438", "deprecated": null, "deprecation_reasons": null, "last_updated": null, "origins": null, "warnings": null, "structure": {"@module": "pymatgen.core.structure", "@class": "Structure", "charge": 0, "lattice": {"matrix": [[0.0, 6.702347, 6.702347], [6.702347, 0.0, 6.702347], [6.702347, 6.702347, 0.0]], "pbc": [true, true, true], "a": 9.478550027130625, "b": 9.478550027130625, "c": 9.478550027130625, "alpha": 59.99999999999999, "beta": 59.99999999999999, "gamma": 59.99999999999999, "volume": 602.1583624438981}, "properties": {}, "sites": [{"species": [{"element": "Ba", "occu": 1}], "abc": [0.378542999999999, 0.378542999999999, 0.378542999999999], "properties": {"magmom": 0.0}, "label": "Ba", "xyz": [5.074253080841986, 5.074253080841986, 5.074253080841986]}, {"species": [{"element": "Ba", "occu": 1}], "abc": [0.378542999999999, 0.378542999999999, 0.864371], "properties": {"magmom": 0.0}, "label": "Ba", "xyz": [8.330440919157994, 8.330440919157994, 5.074253080841986]}, {"species": [{"element": "Ba", "occu": 1}], "abc": [0.378542999999999, 0.864371, 0.378542999999999], "properties": {"magmom": 0.0}, "label": "Ba", "xyz": [8.330440919157994, 5.074253080841986, 8.330440919157994]}, {"species": [{"element": "Ba", "occu": 1}], "abc": [0.871456999999999, 0.871456999999999, 0.385629], "properties": {"magmom": 0.0}, "label": "Ba", "xyz": [8.425426580841993, 8.425426580841993, 11.681614419157986]}, {"species": [{"element": "Ba", "occu": 1}], "abc": [0.871456999999999, 0.871456999999999, 0.871456999999999], "properties": {"magmom": 0.0}, "label": "Ba", "xyz": [11.681614419157986, 11.681614419157986, 11.681614419157986]}, {"species": [{"element": "Ba", "occu": 1}], "abc": [0.864371, 0.378542999999999, 0.378542999999999], "properties": {"magmom": 0.0}, "label": "Ba", "xyz": [5.074253080841986, 8.330440919157994, 8.330440919157994]}, {"species": [{"element": "Ba", "occu": 1}], "abc": [0.871456999999999, 0.385629, 0.871456999999999], "properties": {"magmom": 0.0}, "label": "Ba", "xyz": [8.425426580841993, 11.681614419157986, 8.425426580841993]}, {"species": [{"element": "Ba", "occu": 1}], "abc": [0.385629, 0.871456999999999, 0.871456999999999], "properties": {"magmom": 0.0}, "label": "Ba", "xyz": [11.681614419157986, 8.425426580841993, 8.425426580841993]}, {"species": [{"element": "Pd", "occu": 1}], "abc": [0.0, 0.0, 0.0], "properties": {"magmom": 0.0}, "label": "Pd", "xyz": [0.0, 0.0, 0.0]}, {"species": [{"element": "Pd", "occu": 1}], "abc": [0.25, 0.25, 0.25], "properties": {"magmom": 0.0}, "label": "Pd", "xyz": [3.3511735, 3.3511735, 3.3511735]}]}, "task_ids": null, "uncorrected_energy_per_atom": null, "energy_per_atom": -2.635119741, "formation_energy_per_atom": -0.063963426999999, "energy_above_hull": 0.155716980999999, "is_stable": false, "equilibrium_reaction_energy_per_atom": null, "decomposes_to": null, "xas": null, "grain_boundaries": null, "band_gap": 0.060500000000000005, "cbm": null, "vbm": null, "efermi": 1.33939662, "is_gap_direct": null, "is_metal": null, "es_source_calc_id": null, "bandstructure": null, "dos": null, "dos_energy_up": null, "dos_energy_down": null, "is_magnetic": null, "ordering": null, "total_magnetization": 0.0077589, "total_magnetization_normalized_vol": null, "total_magnetization_normalized_formula_units": null, "num_magnetic_sites": null, "num_unique_magnetic_sites": null, "types_of_magnetic_species": null, "bulk_modulus": null, "shear_modulus": null, "universal_anisotropy": null, "homogeneous_poisson": null, "e_total": null, "e_ionic": null, "e_electronic": null, "n": null, "e_ij_max": null, "weighted_surface_energy_EV_PER_ANG2": null, "weighted_surface_energy": null, "weighted_work_function": null, "surface_anisotropy": null, "shape_factor": null, "has_reconstructed": null, "possible_species": null, "has_props": null, "theoretical": null, "database_IDs": null, "fields_not_requested": ["builder_meta", "nsites", "elements", "nelements", "composition", "composition_reduced", "chemsys", "symmetry", "property_name", "deprecated", "deprecation_reasons", "last_updated", "origins", "warnings", "task_ids", "uncorrected_energy_per_atom", "equilibrium_reaction_energy_per_atom", "decomposes_to", "xas", "grain_boundaries", "cbm", "vbm", "is_gap_direct", "is_metal", "es_source_calc_id", "bandstructure", "dos", "dos_energy_up", "dos_energy_down", "is_magnetic", "ordering", "total_magnetization_normalized_vol", "total_magnetization_normalized_formula_units", "num_magnetic_sites", "num_unique_magnetic_sites", "types_of_magnetic_species", "bulk_modulus", "shear_modulus", "universal_anisotropy", "homogeneous_poisson", "e_total", "e_ionic", "e_electronic", "n", "e_ij_max", "weighted_surface_energy_EV_PER_ANG2", "weighted_surface_energy", "weighted_work_function", "surface_anisotropy", "shape_factor", "has_reconstructed", "possible_species", "has_props", "theoretical", "database_IDs"]}