{"builder_meta": null, "nsites": null, "elements": null, "nelements": null, "composition": null, "composition_reduced": null, "formula_pretty": "Ba4Rh", "formula_anonymous": "AB4", "chemsys": null, "volume": 570.8638062638483, "density": 3.794341083215752, "density_atomic": 57.08638062638484, "symmetry": null, "property_name": null, "material_id": "mp-1214412", "deprecated": null, "deprecation_reasons": null, "last_updated": null, "origins": null, "warnings": null, "structure": {"@module": "pymatgen.core.structure", "@class": "Structure", "charge": 0, "lattice": {"matrix": [[-6.584167, -6.584167, 0.0], [-6.584167, 0.0, -6.584167], [0.0, -6.584167, -6.584167]], "pbc": [true, true, true], "a": 9.311418268329374, "b": 9.311418268329374, "c": 9.311418268329374, "alpha": 59.99999999999999, "beta": 59.99999999999999, "gamma": 59.99999999999999, "volume": 570.8638062638483}, "properties": {}, "sites": [{"species": [{"element": "Ba", "occu": 1}], "abc": [0.623873999999999, 0.623873999999999, 0.623873999999999], "properties": {"magmom": 0.0}, "label": "Ba", "xyz": [-8.215381205915987, -8.215381205915987, -8.215381205915987]}, {"species": [{"element": "Ba", "occu": 1}], "abc": [0.128377, 0.623873999999999, 0.623873999999999], "properties": {"magmom": 0.001}, "label": "Ba", "xyz": [-4.952946209916994, -4.952946209916994, -8.215381205915987]}, {"species": [{"element": "Ba", "occu": 1}], "abc": [0.623873999999999, 0.128377, 0.623873999999999], "properties": {"magmom": -0.0}, "label": "Ba", "xyz": [-4.952946209916994, -8.215381205915987, -4.952946209916994]}, {"species": [{"element": "Ba", "occu": 1}], "abc": [0.621622999999999, 0.126126, 0.126126], "properties": {"magmom": 0.001}, "label": "Ba", "xyz": [-4.923304290082993, -4.923304290082993, -1.6608692940839997]}, {"species": [{"element": "Ba", "occu": 1}], "abc": [0.126126, 0.126126, 0.126126], "properties": {"magmom": 0.0}, "label": "Ba", "xyz": [-1.6608692940839997, -1.6608692940839997, -1.6608692940839997]}, {"species": [{"element": "Ba", "occu": 1}], "abc": [0.623873999999999, 0.623873999999999, 0.128377], "properties": {"magmom": 0.0}, "label": "Ba", "xyz": [-8.215381205915987, -4.952946209916994, -4.952946209916994]}, {"species": [{"element": "Ba", "occu": 1}], "abc": [0.126126, 0.621622999999999, 0.126126], "properties": {"magmom": -0.0}, "label": "Ba", "xyz": [-4.923304290082993, -1.6608692940839997, -4.923304290082993]}, {"species": [{"element": "Ba", "occu": 1}], "abc": [0.126126, 0.126126, 0.621622999999999], "properties": {"magmom": 0.0}, "label": "Ba", "xyz": [-1.6608692940839997, -4.923304290082993, -4.923304290082993]}, {"species": [{"element": "Rh", "occu": 1}], "abc": [0.0, 0.0, 0.0], "properties": {"magmom": 0.0}, "label": "Rh", "xyz": [0.0, 0.0, 0.0]}, {"species": [{"element": "Rh", "occu": 1}], "abc": [0.75, 0.75, 0.75], "properties": {"magmom": 0.0}, "label": "Rh", "xyz": [-9.8762505, -9.8762505, -9.8762505]}]}, "task_ids": null, "uncorrected_energy_per_atom": null, "energy_per_atom": -2.964438223, "formation_energy_per_atom": 0.043603303, "energy_above_hull": 0.07086827450000001, "is_stable": false, "equilibrium_reaction_energy_per_atom": null, "decomposes_to": null, "xas": null, "grain_boundaries": null, "band_gap": 0.0, "cbm": null, "vbm": null, "efermi": 1.56613752, "is_gap_direct": null, "is_metal": null, "es_source_calc_id": null, "bandstructure": null, "dos": null, "dos_energy_up": null, "dos_energy_down": null, "is_magnetic": null, "ordering": null, "total_magnetization": 0.0160935, "total_magnetization_normalized_vol": null, "total_magnetization_normalized_formula_units": null, "num_magnetic_sites": null, "num_unique_magnetic_sites": null, "types_of_magnetic_species": null, "bulk_modulus": null, "shear_modulus": null, "universal_anisotropy": null, "homogeneous_poisson": null, "e_total": null, "e_ionic": null, "e_electronic": null, "n": null, "e_ij_max": null, "weighted_surface_energy_EV_PER_ANG2": null, "weighted_surface_energy": null, "weighted_work_function": null, "surface_anisotropy": null, "shape_factor": null, "has_reconstructed": null, "possible_species": null, "has_props": null, "theoretical": null, "database_IDs": null, "fields_not_requested": ["builder_meta", "nsites", "elements", "nelements", "composition", "composition_reduced", "chemsys", "symmetry", "property_name", "deprecated", "deprecation_reasons", "last_updated", "origins", "warnings", "task_ids", "uncorrected_energy_per_atom", "equilibrium_reaction_energy_per_atom", "decomposes_to", "xas", "grain_boundaries", "cbm", "vbm", "is_gap_direct", "is_metal", "es_source_calc_id", "bandstructure", "dos", "dos_energy_up", "dos_energy_down", "is_magnetic", "ordering", "total_magnetization_normalized_vol", "total_magnetization_normalized_formula_units", "num_magnetic_sites", "num_unique_magnetic_sites", "types_of_magnetic_species", "bulk_modulus", "shear_modulus", "universal_anisotropy", "homogeneous_poisson", "e_total", "e_ionic", "e_electronic", "n", "e_ij_max", "weighted_surface_energy_EV_PER_ANG2", "weighted_surface_energy", "weighted_work_function", "surface_anisotropy", "shape_factor", "has_reconstructed", "possible_species", "has_props", "theoretical", "database_IDs"]}