{
  "builder_meta": null,
  "nsites": null,
  "elements": null,
  "nelements": null,
  "composition": null,
  "composition_reduced": null,
  "formula_pretty": "Ba5As3",
  "formula_anonymous": "A3B5",
  "chemsys": null,
  "volume": 612.0998236795311,
  "density": 4.94499398511111,
  "density_atomic": 38.256238979970696,
  "symmetry": null,
  "property_name": null,
  "material_id": "mp-10045",
  "deprecated": null,
  "deprecation_reasons": null,
  "last_updated": null,
  "origins": null,
  "warnings": null,
  "structure": {
    "@module": "pymatgen.core.structure",
    "@class": "Structure",
    "charge": 0,
    "lattice": {
      "matrix": [
        [9.54814115, -4.8820000000000004e-5, -0.0],
        [-4.77411366, 8.26896425, 0.0],
        [-0.0, -0.0, 7.75271094]
      ],
      "pbc": [true, true, true],
      "a": 9.548141150124808,
      "b": 9.548189933509736,
      "c": 7.75271094,
      "alpha": 90.0,
      "beta": 90.0,
      "gamma": 120.00042248114308,
      "volume": 612.0998236795311
    },
    "properties": {},
    "sites": [
      {
        "species": [{ "element": "Ba", "occu": 1 }],
        "abc": [1e-6, 0.25739591, 0.75],
        "properties": { "magmom": 0.064 },
        "label": "Ba",
        "xyz": [-1.2288277818179807, 2.1283975778373976, 5.814533205]
      },
      {
        "species": [{ "element": "Ba", "occu": 1 }],
        "abc": [0.999999, 0.74260409, 0.25],
        "properties": { "magmom": 0.064 },
        "label": "Ba",
        "xyz": [6.002855271817979, 6.140517852162603, 1.938177735]
      },
      {
        "species": [{ "element": "Ba", "occu": 1 }],
        "abc": [0.25739691, 0.25739691, 0.25],
        "properties": { "magmom": 0.064 },
        "label": "Ba",
        "xyz": [1.2288199241810553, 2.128393280733321, 1.938177735]
      },
      {
        "species": [{ "element": "Ba", "occu": 1 }],
        "abc": [0.25739691, 1e-6, 0.75],
        "properties": { "magmom": 0.064 },
        "label": "Ba",
        "xyz": [2.457657254140186, -4.297152896200002e-6, 5.814533205]
      },
      {
        "species": [{ "element": "Ba", "occu": 1 }],
        "abc": [0.74260309, 0.74260309, 0.75],
        "properties": { "magmom": 0.064 },
        "label": "Ba",
        "xyz": [3.5452075658189433, 6.140522149266679, 5.814533205]
      },
      {
        "species": [{ "element": "Ba", "occu": 1 }],
        "abc": [0.74260409, 0.999999, 0.25],
        "properties": { "magmom": 0.064 },
        "label": "Ba",
        "xyz": [2.3163797840009632, 8.268919727104075, 1.938177735]
      },
      {
        "species": [{ "element": "Ba", "occu": 1 }],
        "abc": [0.333333, 0.666667, 0.5],
        "properties": { "magmom": 0.004 },
        "label": "Ba",
        "xyz": [-3.3497418270744816e-5, 5.51262931633769, 3.87635547]
      },
      {
        "species": [{ "element": "Ba", "occu": 1 }],
        "abc": [0.666667, 0.333333, 0.0],
        "properties": { "magmom": 0.004 },
        "label": "Ba",
        "xyz": [4.77406098741827, 2.75628611366231, 0.0]
      },
      {
        "species": [{ "element": "Ba", "occu": 1 }],
        "abc": [0.666667, 0.333333, 0.5],
        "properties": { "magmom": 0.004 },
        "label": "Ba",
        "xyz": [4.77406098741827, 2.75628611366231, 3.87635547]
      },
      {
        "species": [{ "element": "Ba", "occu": 1 }],
        "abc": [0.333333, 0.666667, -0.0],
        "properties": { "magmom": 0.004 },
        "label": "Ba",
        "xyz": [-3.3497418270744816e-5, 5.51262931633769, 0.0]
      },
      {
        "species": [{ "element": "As", "occu": 1 }],
        "abc": [0.60765956, 1e-6, 0.75],
        "properties": { "magmom": 0.01 },
        "label": "As",
        "xyz": [5.802014475913234, -2.1396975469200003e-5, 5.814533205]
      },
      {
        "species": [{ "element": "As", "occu": 1 }],
        "abc": [0.60765856, 0.60765856, 0.25],
        "properties": { "magmom": 0.01 },
        "label": "As",
        "xyz": [2.9009786699738136, 5.024677242955581, 1.938177735]
      },
      {
        "species": [{ "element": "As", "occu": 1 }],
        "abc": [0.999999, 0.39234044, 0.25],
        "properties": { "magmom": 0.01 },
        "label": "As",
        "xyz": [7.675053747884438, 3.24420025223809, 1.938177735]
      },
      {
        "species": [{ "element": "As", "occu": 1 }],
        "abc": [1e-6, 0.60765956, 0.75],
        "properties": { "magmom": 0.01 },
        "label": "As",
        "xyz": [-2.9010262578844395, 5.024715177761911, 5.814533205]
      },
      {
        "species": [{ "element": "As", "occu": 1 }],
        "abc": [0.39234144, 0.39234144, 0.75],
        "properties": { "magmom": 0.01 },
        "label": "As",
        "xyz": [1.8730488200261852, 3.2442381870444192, 5.814533205]
      },
      {
        "species": [{ "element": "As", "occu": 1 }],
        "abc": [0.39234044, 0.999999, 0.25],
        "properties": { "magmom": 0.01 },
        "label": "As",
        "xyz": [-1.0279869859132345, 8.268936826975468, 1.938177735]
      }
    ]
  },
  "task_ids": null,
  "uncorrected_energy_per_atom": null,
  "energy_per_atom": -3.956022244999999,
  "formation_energy_per_atom": -1.0053669578125,
  "energy_above_hull": 0.009240693990385001,
  "is_stable": false,
  "equilibrium_reaction_energy_per_atom": null,
  "decomposes_to": null,
  "xas": null,
  "grain_boundaries": null,
  "band_gap": 0.0,
  "cbm": null,
  "vbm": null,
  "efermi": 3.03607087,
  "is_gap_direct": null,
  "is_metal": null,
  "es_source_calc_id": null,
  "bandstructure": null,
  "dos": null,
  "dos_energy_up": null,
  "dos_energy_down": null,
  "is_magnetic": null,
  "ordering": null,
  "total_magnetization": 2.0030362,
  "total_magnetization_normalized_vol": null,
  "total_magnetization_normalized_formula_units": null,
  "num_magnetic_sites": null,
  "num_unique_magnetic_sites": null,
  "types_of_magnetic_species": null,
  "bulk_modulus": null,
  "shear_modulus": null,
  "universal_anisotropy": null,
  "homogeneous_poisson": null,
  "e_total": null,
  "e_ionic": null,
  "e_electronic": null,
  "n": null,
  "e_ij_max": null,
  "weighted_surface_energy_EV_PER_ANG2": null,
  "weighted_surface_energy": null,
  "weighted_work_function": null,
  "surface_anisotropy": null,
  "shape_factor": null,
  "has_reconstructed": null,
  "possible_species": null,
  "has_props": null,
  "theoretical": null,
  "database_IDs": null,
  "fields_not_requested": [
    "builder_meta",
    "nsites",
    "elements",
    "nelements",
    "composition",
    "composition_reduced",
    "chemsys",
    "symmetry",
    "property_name",
    "deprecated",
    "deprecation_reasons",
    "last_updated",
    "origins",
    "warnings",
    "task_ids",
    "uncorrected_energy_per_atom",
    "equilibrium_reaction_energy_per_atom",
    "decomposes_to",
    "xas",
    "grain_boundaries",
    "cbm",
    "vbm",
    "is_gap_direct",
    "is_metal",
    "es_source_calc_id",
    "bandstructure",
    "dos",
    "dos_energy_up",
    "dos_energy_down",
    "is_magnetic",
    "ordering",
    "total_magnetization_normalized_vol",
    "total_magnetization_normalized_formula_units",
    "num_magnetic_sites",
    "num_unique_magnetic_sites",
    "types_of_magnetic_species",
    "bulk_modulus",
    "shear_modulus",
    "universal_anisotropy",
    "homogeneous_poisson",
    "e_total",
    "e_ionic",
    "e_electronic",
    "n",
    "e_ij_max",
    "weighted_surface_energy_EV_PER_ANG2",
    "weighted_surface_energy",
    "weighted_work_function",
    "surface_anisotropy",
    "shape_factor",
    "has_reconstructed",
    "possible_species",
    "has_props",
    "theoretical",
    "database_IDs"
  ]
}
