{
  "builder_meta": null,
  "nsites": null,
  "elements": null,
  "nelements": null,
  "composition": null,
  "composition_reduced": null,
  "formula_pretty": "Ba5Bi3",
  "formula_anonymous": "A3B5",
  "chemsys": null,
  "volume": 732.4057077334871,
  "density": 5.956383392494535,
  "density_atomic": 45.775356733342946,
  "symmetry": null,
  "property_name": null,
  "material_id": "mp-29621",
  "deprecated": null,
  "deprecation_reasons": null,
  "last_updated": null,
  "origins": null,
  "warnings": null,
  "structure": {
    "@module": "pymatgen.core.structure",
    "@class": "Structure",
    "charge": 0,
    "lattice": {
      "matrix": [
        [10.28896437, -6.239999999999999e-6, -0.0],
        [-5.14448638, 8.91043538, 0.0],
        [0.0, 0.0, 7.98879513]
      ],
      "pbc": [true, true, true],
      "a": 10.288964370001892,
      "b": 10.288906587930578,
      "c": 7.98879513,
      "alpha": 90.0,
      "beta": 90.0,
      "gamma": 120.0002474976731,
      "volume": 732.4057077334871
    },
    "properties": {},
    "sites": [
      {
        "species": [{ "element": "Ba", "occu": 1 }],
        "abc": [0.333333999999999, 0.666667, -0.0],
        "properties": { "magmom": 0.005 },
        "label": "Ba",
        "xyz": [2.3478141097932337e-6, 5.940291143474299, 0.0]
      },
      {
        "species": [{ "element": "Ba", "occu": 1 }],
        "abc": [0.666666, 0.333333, 0.5],
        "properties": { "magmom": 0.005 },
        "label": "Ba",
        "xyz": [5.1444756421858795, 2.9701379965257, 3.994397565]
      },
      {
        "species": [{ "element": "Ba", "occu": 1 }],
        "abc": [0.666666, 0.333333, -0.0],
        "properties": { "magmom": 0.005 },
        "label": "Ba",
        "xyz": [5.1444756421858795, 2.9701379965257, 0.0]
      },
      {
        "species": [{ "element": "Ba", "occu": 1 }],
        "abc": [0.333333999999999, 0.666667, 0.5],
        "properties": { "magmom": 0.005 },
        "label": "Ba",
        "xyz": [2.3478141097932337e-6, 5.940291143474299, 3.994397565]
      },
      {
        "species": [{ "element": "Ba", "occu": 1 }],
        "abc": [0.7457290400000001, -0.0, 0.25],
        "properties": { "magmom": 0.057 },
        "label": "Ba",
        "xyz": [7.672779522234306, -4.653349209599999e-6, 1.9971987825]
      },
      {
        "species": [{ "element": "Ba", "occu": 1 }],
        "abc": [0.7457290400000001, 0.7457290400000001, 0.75],
        "properties": { "magmom": 0.057 },
        "label": "Ba",
        "xyz": [3.8363866327838303, 6.644765768560225, 5.9915963475]
      },
      {
        "species": [{ "element": "Ba", "occu": 1 }],
        "abc": [0.0, 0.25427096, 0.75],
        "properties": { "magmom": 0.057 },
        "label": "Ba",
        "xyz": [-1.3080934905495247, 2.2656649580905643, 5.9915963475]
      },
      {
        "species": [{ "element": "Ba", "occu": 1 }],
        "abc": [-0.0, 0.7457290400000001, 0.25],
        "properties": { "magmom": 0.057 },
        "label": "Ba",
        "xyz": [-3.8363928894504755, 6.644770421909435, 1.9971987825]
      },
      {
        "species": [{ "element": "Ba", "occu": 1 }],
        "abc": [0.25427096, 0.25427096, 0.25],
        "properties": { "magmom": 0.057 },
        "label": "Ba",
        "xyz": [1.3080913572161703, 2.265663371439774, 1.9971987825]
      },
      {
        "species": [{ "element": "Ba", "occu": 1 }],
        "abc": [0.25427096, 0.0, 0.75],
        "properties": { "magmom": 0.057 },
        "label": "Ba",
        "xyz": [2.616184847765695, -1.5866507903999997e-6, 5.9915963475]
      },
      {
        "species": [{ "element": "Bi", "occu": 1 }],
        "abc": [0.39109119999999903, 0.999999, 0.25],
        "properties": { "magmom": 0.011 },
        "label": "Bi",
        "xyz": [-1.120557813293086, 8.910424029155532, 1.9971987825]
      },
      {
        "species": [{ "element": "Bi", "occu": 1 }],
        "abc": [0.39109119999999903, 0.39109119999999903, 0.75],
        "properties": { "magmom": 0.011 },
        "label": "Bi",
        "xyz": [2.011960070482683, 3.4847904248775587, 5.9915963475]
      },
      {
        "species": [{ "element": "Bi", "occu": 1 }],
        "abc": [-0.0, 0.6089068, 0.75],
        "properties": { "magmom": 0.011 },
        "label": "Bi",
        "xyz": [-3.1325127392893837, 5.425624693842583, 5.9915963475]
      },
      {
        "species": [{ "element": "Bi", "occu": 1 }],
        "abc": [0.0, 0.3910932, 0.25],
        "properties": { "magmom": 0.011 },
        "label": "Bi",
        "xyz": [-2.011973640710616, 3.4848106861574153, 1.9971987825]
      },
      {
        "species": [{ "element": "Bi", "occu": 1 }],
        "abc": [0.6089088, 0.6089088, 0.25],
        "properties": { "magmom": 0.011 },
        "label": "Bi",
        "xyz": [3.1325179195173125, 5.425638715122432, 1.9971987825]
      },
      {
        "species": [{ "element": "Bi", "occu": 1 }],
        "abc": [0.6089088, 1e-6, 0.75],
        "properties": { "magmom": 0.011 },
        "label": "Bi",
        "xyz": [6.265035803293077, 5.110844468e-6, 5.9915963475]
      }
    ]
  },
  "task_ids": null,
  "uncorrected_energy_per_atom": null,
  "energy_per_atom": -3.553629326249996,
  "formation_energy_per_atom": -0.8955071224999981,
  "energy_above_hull": 0.0,
  "is_stable": true,
  "equilibrium_reaction_energy_per_atom": null,
  "decomposes_to": null,
  "xas": null,
  "grain_boundaries": null,
  "band_gap": 0.0,
  "cbm": null,
  "vbm": null,
  "efermi": 3.13017881,
  "is_gap_direct": null,
  "is_metal": null,
  "es_source_calc_id": null,
  "bandstructure": null,
  "dos": null,
  "dos_energy_up": null,
  "dos_energy_down": null,
  "is_magnetic": null,
  "ordering": null,
  "total_magnetization": 2.0007274,
  "total_magnetization_normalized_vol": null,
  "total_magnetization_normalized_formula_units": null,
  "num_magnetic_sites": null,
  "num_unique_magnetic_sites": null,
  "types_of_magnetic_species": null,
  "bulk_modulus": null,
  "shear_modulus": null,
  "universal_anisotropy": null,
  "homogeneous_poisson": null,
  "e_total": null,
  "e_ionic": null,
  "e_electronic": null,
  "n": null,
  "e_ij_max": null,
  "weighted_surface_energy_EV_PER_ANG2": null,
  "weighted_surface_energy": null,
  "weighted_work_function": null,
  "surface_anisotropy": null,
  "shape_factor": null,
  "has_reconstructed": null,
  "possible_species": null,
  "has_props": null,
  "theoretical": null,
  "database_IDs": null,
  "fields_not_requested": [
    "builder_meta",
    "nsites",
    "elements",
    "nelements",
    "composition",
    "composition_reduced",
    "chemsys",
    "symmetry",
    "property_name",
    "deprecated",
    "deprecation_reasons",
    "last_updated",
    "origins",
    "warnings",
    "task_ids",
    "uncorrected_energy_per_atom",
    "equilibrium_reaction_energy_per_atom",
    "decomposes_to",
    "xas",
    "grain_boundaries",
    "cbm",
    "vbm",
    "is_gap_direct",
    "is_metal",
    "es_source_calc_id",
    "bandstructure",
    "dos",
    "dos_energy_up",
    "dos_energy_down",
    "is_magnetic",
    "ordering",
    "total_magnetization_normalized_vol",
    "total_magnetization_normalized_formula_units",
    "num_magnetic_sites",
    "num_unique_magnetic_sites",
    "types_of_magnetic_species",
    "bulk_modulus",
    "shear_modulus",
    "universal_anisotropy",
    "homogeneous_poisson",
    "e_total",
    "e_ionic",
    "e_electronic",
    "n",
    "e_ij_max",
    "weighted_surface_energy_EV_PER_ANG2",
    "weighted_surface_energy",
    "weighted_work_function",
    "surface_anisotropy",
    "shape_factor",
    "has_reconstructed",
    "possible_species",
    "has_props",
    "theoretical",
    "database_IDs"
  ]
}
