{
  "builder_meta": null,
  "nsites": null,
  "elements": null,
  "nelements": null,
  "composition": null,
  "composition_reduced": null,
  "formula_pretty": "Ba5Ga6",
  "formula_anonymous": "A5B6",
  "chemsys": null,
  "volume": 779.530051431856,
  "density": 4.70758203783911,
  "density_atomic": 35.43318415599345,
  "symmetry": null,
  "property_name": null,
  "material_id": "mp-1228211",
  "deprecated": null,
  "deprecation_reasons": null,
  "last_updated": null,
  "origins": null,
  "warnings": null,
  "structure": {
    "@module": "pymatgen.core.structure",
    "@class": "Structure",
    "charge": 0,
    "lattice": {
      "matrix": [
        [-3.922523, -6.794028, 0.0],
        [-3.922546, 6.794041, 0.0],
        [0.0, 0.0, -14.62542]
      ],
      "pbc": [true, true, true],
      "a": 7.845062342028456,
      "b": 7.8450851003540425,
      "c": 14.62542,
      "alpha": 90.0,
      "beta": 90.0,
      "gamma": 120.00003981509975,
      "volume": 779.530051431856
    },
    "properties": {},
    "sites": [
      {
        "species": [{ "element": "Ba", "occu": 1 }],
        "abc": [0.681261, 0.663153, 0.25],
        "properties": { "magmom": 0.107 },
        "label": "Ba",
        "xyz": [-5.273510089041, -0.12301763803500076, -3.656355]
      },
      {
        "species": [{ "element": "Ba", "occu": 1 }],
        "abc": [0.981896, 0.31874, 0.25],
        "properties": { "magmom": 0.107 },
        "label": "Ba",
        "xyz": [-5.101781955648, -4.505496288748, -3.656355]
      },
      {
        "species": [{ "element": "Ba", "occu": 1 }],
        "abc": [0.336852, 0.018109, 0.25],
        "properties": { "magmom": 0.107 },
        "label": "Ba",
        "xyz": [-1.39234310311, -2.165548631387, -3.656355]
      },
      {
        "species": [{ "element": "Ba", "occu": 1 }],
        "abc": [0.9786400000000001, 0.668163, 0.75],
        "properties": { "magmom": 0.114 },
        "label": "Ba",
        "xyz": [-6.459638011718, -2.109380745237001, -10.969065]
      },
      {
        "species": [{ "element": "Ba", "occu": 1 }],
        "abc": [0.331827, 0.310473, 0.75],
        "properties": { "magmom": 0.114 },
        "label": "Ba",
        "xyz": [-2.519443663779, -0.14507563776300003, -10.969065]
      },
      {
        "species": [{ "element": "Ba", "occu": 1 }],
        "abc": [0.689523999999999, 0.021356, 0.75],
        "properties": { "magmom": 0.114 },
        "label": "Ba",
        "xyz": [-2.788443641427996, -4.5395518230759935, -10.969065]
      },
      {
        "species": [{ "element": "Ba", "occu": 1 }],
        "abc": [1.2e-5, 0.9999929999999991, 0.997941],
        "properties": { "magmom": 0.063 },
        "label": "Ba",
        "xyz": [-3.922565612453997, 6.793911913376994, -14.59530626022]
      },
      {
        "species": [{ "element": "Ba", "occu": 1 }],
        "abc": [1.2e-5, 0.9999929999999991, 0.502058999999999],
        "properties": { "magmom": 0.063 },
        "label": "Ba",
        "xyz": [-3.922565612453997, 6.793911913376994, -7.342823739779986]
      },
      {
        "species": [{ "element": "Ba", "occu": 1 }],
        "abc": [0.666662, 0.333335999999999, 0.998413],
        "properties": { "magmom": 0.064 },
        "label": "Ba",
        "xyz": [-3.922522821681996, -2.264621843760006, -14.60220945846]
      },
      {
        "species": [{ "element": "Ba", "occu": 1 }],
        "abc": [0.666662, 0.333335999999999, 0.501587],
        "properties": { "magmom": 0.064 },
        "label": "Ba",
        "xyz": [-3.922522821681996, -2.264621843760006, -7.33592054154]
      },
      {
        "species": [{ "element": "Ga", "occu": 1 }],
        "abc": [0.533752999999999, 0.869421999999999, 0.077406999999999],
        "properties": { "magmom": 0.012 },
        "label": "Ga",
        "xyz": [-5.504006207230993, 2.2805558872179996, -1.1321098859399854]
      },
      {
        "species": [{ "element": "Ga", "occu": 1 }],
        "abc": [0.335682, 0.466240999999999, 0.07741],
        "properties": { "magmom": 0.012 },
        "label": "Ga",
        "xyz": [-3.145572135271996, 0.8870275627849935, -1.1321537622000002]
      },
      {
        "species": [{ "element": "Ga", "occu": 1 }],
        "abc": [0.130571, 0.664315, 0.077407999999999],
        "properties": { "magmom": 0.012 },
        "label": "Ga",
        "xyz": [-3.117973896623, 3.626280316927, -1.1321245113599854]
      },
      {
        "species": [{ "element": "Ga", "occu": 1 }],
        "abc": [0.533752999999999, 0.869421999999999, 0.422593],
        "properties": { "magmom": 0.012 },
        "label": "Ga",
        "xyz": [-5.504006207230993, 2.2805558872179996, -6.18060011406]
      },
      {
        "species": [{ "element": "Ga", "occu": 1 }],
        "abc": [0.335682, 0.466240999999999, 0.42259],
        "properties": { "magmom": 0.012 },
        "label": "Ga",
        "xyz": [-3.145572135271996, 0.8870275627849935, -6.1805562378]
      },
      {
        "species": [{ "element": "Ga", "occu": 1 }],
        "abc": [0.130571, 0.664315, 0.422591999999999],
        "properties": { "magmom": 0.012 },
        "label": "Ga",
        "xyz": [-3.117973896623, 3.626280316927, -6.180585488639986]
      },
      {
        "species": [{ "element": "Ga", "occu": 1 }],
        "abc": [0.328677999999999, 0.865331, 0.578137999999999],
        "properties": { "magmom": 0.013000000000000001 },
        "label": "Ga",
        "xyz": [-4.683547667319996, 3.646046757587006, -8.455511067959986]
      },
      {
        "species": [{ "element": "Ga", "occu": 1 }],
        "abc": [0.134673, 0.463335999999999, 0.578135],
        "properties": { "magmom": 0.013000000000000001 },
        "label": "Ga",
        "xyz": [-2.3457147134349965, 2.2329516479319933, -8.455467191699999]
      },
      {
        "species": [{ "element": "Ga", "occu": 1 }],
        "abc": [0.536669, 0.671329, 0.578139],
        "properties": { "magmom": 0.013000000000000001 },
        "label": "Ga",
        "xyz": [-4.738415379520999, 0.9148925377569999, -8.45552569338]
      },
      {
        "species": [{ "element": "Ga", "occu": 1 }],
        "abc": [0.328677999999999, 0.865331, 0.921862],
        "properties": { "magmom": 0.013000000000000001 },
        "label": "Ga",
        "xyz": [-4.683547667319996, 3.646046757587006, -13.48261893204]
      },
      {
        "species": [{ "element": "Ga", "occu": 1 }],
        "abc": [0.134673, 0.463335999999999, 0.921864999999999],
        "properties": { "magmom": 0.013000000000000001 },
        "label": "Ga",
        "xyz": [-2.3457147134349965, 2.2329516479319933, -13.482662808299986]
      },
      {
        "species": [{ "element": "Ga", "occu": 1 }],
        "abc": [0.536669, 0.671329, 0.921860999999999],
        "properties": { "magmom": 0.013000000000000001 },
        "label": "Ga",
        "xyz": [-4.738415379520999, 0.9148925377569999, -13.482604306619987]
      }
    ]
  },
  "task_ids": null,
  "uncorrected_energy_per_atom": null,
  "energy_per_atom": -2.935035546363636,
  "formation_energy_per_atom": -0.411085470454545,
  "energy_above_hull": 0.0,
  "is_stable": true,
  "equilibrium_reaction_energy_per_atom": null,
  "decomposes_to": null,
  "xas": null,
  "grain_boundaries": null,
  "band_gap": 0.0,
  "cbm": null,
  "vbm": null,
  "efermi": 2.86908691,
  "is_gap_direct": null,
  "is_metal": null,
  "es_source_calc_id": null,
  "bandstructure": null,
  "dos": null,
  "dos_energy_up": null,
  "dos_energy_down": null,
  "is_magnetic": null,
  "ordering": null,
  "total_magnetization": 3.8805633,
  "total_magnetization_normalized_vol": null,
  "total_magnetization_normalized_formula_units": null,
  "num_magnetic_sites": null,
  "num_unique_magnetic_sites": null,
  "types_of_magnetic_species": null,
  "bulk_modulus": null,
  "shear_modulus": null,
  "universal_anisotropy": null,
  "homogeneous_poisson": null,
  "e_total": null,
  "e_ionic": null,
  "e_electronic": null,
  "n": null,
  "e_ij_max": null,
  "weighted_surface_energy_EV_PER_ANG2": null,
  "weighted_surface_energy": null,
  "weighted_work_function": null,
  "surface_anisotropy": null,
  "shape_factor": null,
  "has_reconstructed": null,
  "possible_species": null,
  "has_props": null,
  "theoretical": null,
  "database_IDs": null,
  "fields_not_requested": [
    "builder_meta",
    "nsites",
    "elements",
    "nelements",
    "composition",
    "composition_reduced",
    "chemsys",
    "symmetry",
    "property_name",
    "deprecated",
    "deprecation_reasons",
    "last_updated",
    "origins",
    "warnings",
    "task_ids",
    "uncorrected_energy_per_atom",
    "equilibrium_reaction_energy_per_atom",
    "decomposes_to",
    "xas",
    "grain_boundaries",
    "cbm",
    "vbm",
    "is_gap_direct",
    "is_metal",
    "es_source_calc_id",
    "bandstructure",
    "dos",
    "dos_energy_up",
    "dos_energy_down",
    "is_magnetic",
    "ordering",
    "total_magnetization_normalized_vol",
    "total_magnetization_normalized_formula_units",
    "num_magnetic_sites",
    "num_unique_magnetic_sites",
    "types_of_magnetic_species",
    "bulk_modulus",
    "shear_modulus",
    "universal_anisotropy",
    "homogeneous_poisson",
    "e_total",
    "e_ionic",
    "e_electronic",
    "n",
    "e_ij_max",
    "weighted_surface_energy_EV_PER_ANG2",
    "weighted_surface_energy",
    "weighted_work_function",
    "surface_anisotropy",
    "shape_factor",
    "has_reconstructed",
    "possible_species",
    "has_props",
    "theoretical",
    "database_IDs"
  ]
}
