{"builder_meta": null, "nsites": null, "elements": null, "nelements": null, "composition": null, "composition_reduced": null, "formula_pretty": "Ba5Ge3", "formula_anonymous": "A3B5", "chemsys": null, "volume": 1235.5970708910056, "density": 4.862584901743787, "density_atomic": 38.612408465343925, "symmetry": null, "property_name": null, "material_id": "mp-21538", "deprecated": null, "deprecation_reasons": null, "last_updated": null, "origins": null, "warnings": null, "structure": {"@module": "pymatgen.core.structure", "@class": "Structure", "charge": 0, "lattice": {"matrix": [[8.61034167, 0.0, -0.0], [0.0, 8.61034484, 0.0], [0.0, 0.0, 16.66617508]], "pbc": [true, true, true], "a": 8.61034167, "b": 8.61034484, "c": 16.66617508, "alpha": 90.0, "beta": 90.0, "gamma": 90.0, "volume": 1235.5970708910056}, "properties": {}, "sites": [{"species": [{"element": "Ba", "occu": 1}], "abc": [0.417491499999999, 0.94744698, 0.8896074700000001], "properties": {"magmom": 0.006}, "label": "Ba", "xyz": [3.594744459320797, 8.157845215416584, 14.826353847495847]}, {"species": [{"element": "Ba", "occu": 1}], "abc": [0.5525530200000001, 0.4174905, 0.8896074700000001], "properties": {"magmom": 0.006}, "label": "Ba", "xyz": [4.757670292990344, 3.59473717242402, 14.826353847495847]}, {"species": [{"element": "Ba", "occu": 1}], "abc": [0.94744698, 0.0825095, 0.8896074700000001], "properties": {"magmom": 0.006}, "label": "Ba", "xyz": [8.157842212009657, 0.71043524757598, 14.826353847495847]}, {"species": [{"element": "Ba", "occu": 1}], "abc": [0.917491499999999, 0.05255302, 0.61039253], "properties": {"magmom": 0.006}, "label": "Ba", "xyz": [7.899915294320797, 0.4524996245834168, 10.172908772504153]}, {"species": [{"element": "Ba", "occu": 1}], "abc": [0.5825085, 0.44744698, 0.61039253], "properties": {"magmom": 0.006}, "label": "Ba", "xyz": [5.0155972106791955, 3.852672795416583, 10.172908772504153]}, {"species": [{"element": "Ba", "occu": 1}], "abc": [0.0825085, 0.5525530200000001, 0.8896074700000001], "properties": {"magmom": 0.006}, "label": "Ba", "xyz": [0.710426375679195, 4.757672044583417, 14.826353847495847]}, {"species": [{"element": "Ba", "occu": 1}], "abc": [0.44744698, 0.9174905, 0.61039253], "properties": {"magmom": 0.006}, "label": "Ba", "xyz": [3.852671377009657, 7.899909592424019, 10.172908772504153]}, {"species": [{"element": "Ba", "occu": 1}], "abc": [0.05255302, 0.5825095, 0.61039253], "properties": {"magmom": 0.006}, "label": "Ba", "xyz": [0.4524994579903434, 5.01560766757598, 10.172908772504153]}, {"species": [{"element": "Ba", "occu": 1}], "abc": [0.94744698, 0.4174905, 0.38960747], "properties": {"magmom": 0.006}, "label": "Ba", "xyz": [8.157842212009657, 3.59473717242402, 6.493266307495848]}, {"species": [{"element": "Ba", "occu": 1}], "abc": [0.5525530200000001, 0.0825095, 0.38960747], "properties": {"magmom": 0.006}, "label": "Ba", "xyz": [4.757670292990344, 0.71043524757598, 6.493266307495848]}, {"species": [{"element": "Ba", "occu": 1}], "abc": [0.917491499999999, 0.44744698, 0.11039253], "properties": {"magmom": 0.006}, "label": "Ba", "xyz": [7.899915294320797, 3.852672795416583, 1.8398212325041523]}, {"species": [{"element": "Ba", "occu": 1}], "abc": [0.417491499999999, 0.5525530200000001, 0.38960747], "properties": {"magmom": 0.006}, "label": "Ba", "xyz": [3.594744459320797, 4.757672044583417, 6.493266307495848]}, {"species": [{"element": "Ba", "occu": 1}], "abc": [0.0825085, 0.94744698, 0.38960747], "properties": {"magmom": 0.006}, "label": "Ba", "xyz": [0.710426375679195, 8.157845215416584, 6.493266307495848]}, {"species": [{"element": "Ba", "occu": 1}], "abc": [0.05255302, 0.9174905, 0.11039253], "properties": {"magmom": 0.006}, "label": "Ba", "xyz": [0.4524994579903434, 7.899909592424019, 1.8398212325041523]}, {"species": [{"element": "Ba", "occu": 1}], "abc": [0.44744698, 0.5825095, 0.11039253], "properties": {"magmom": 0.006}, "label": "Ba", "xyz": [3.852671377009657, 5.01560766757598, 1.8398212325041523]}, {"species": [{"element": "Ba", "occu": 1}], "abc": [0.5825085, 0.05255302, 0.11039253], "properties": {"magmom": 0.006}, "label": "Ba", "xyz": [5.0155972106791955, 0.4524996245834168, 1.8398212325041523]}, {"species": [{"element": "Ba", "occu": 1}], "abc": [0.25, 0.25, 0.71662885], "properties": {"magmom": -0.0}, "label": "Ba", "xyz": [2.1525854175, 2.15258621, 11.943461881479056]}, {"species": [{"element": "Ba", "occu": 1}], "abc": [0.75, 0.75, 0.78337115], "properties": {"magmom": -0.0}, "label": "Ba", "xyz": [6.4577562525, 6.45775863, 13.055800738520942]}, {"species": [{"element": "Ba", "occu": 1}], "abc": [0.75, 0.75, 0.28337115], "properties": {"magmom": -0.0}, "label": "Ba", "xyz": [6.4577562525, 6.45775863, 4.722713198520942]}, {"species": [{"element": "Ba", "occu": 1}], "abc": [0.25, 0.25, 0.21662885], "properties": {"magmom": -0.0}, "label": "Ba", "xyz": [2.1525854175, 2.15258621, 3.6103743414790577]}, {"species": [{"element": "Ge", "occu": 1}], "abc": [0.35723606, 0.64276394, 0.75], "properties": {"magmom": -0.004}, "label": "Ge", "xyz": [3.0759245334446206, 5.53441917411707, 12.499631309999998]}, {"species": [{"element": "Ge", "occu": 1}], "abc": [0.85723606, 0.35723606, 0.75], "properties": {"magmom": -0.004}, "label": "Ge", "xyz": [7.38109536844462, 3.0759256658829304, 12.499631309999998]}, {"species": [{"element": "Ge", "occu": 1}], "abc": [0.64276394, 0.14276394, 0.75], "properties": {"magmom": -0.004}, "label": "Ge", "xyz": [5.534417136555381, 1.2292467541170695, 12.499631309999998]}, {"species": [{"element": "Ge", "occu": 1}], "abc": [0.14276394, 0.85723606, 0.75], "properties": {"magmom": -0.004}, "label": "Ge", "xyz": [1.2292463015553798, 7.38109808588293, 12.499631309999998]}, {"species": [{"element": "Ge", "occu": 1}], "abc": [0.64276394, 0.35723606, 0.25], "properties": {"magmom": -0.004}, "label": "Ge", "xyz": [5.534417136555381, 3.0759256658829304, 4.16654377]}, {"species": [{"element": "Ge", "occu": 1}], "abc": [0.14276394, 0.64276394, 0.25], "properties": {"magmom": -0.004}, "label": "Ge", "xyz": [1.2292463015553798, 5.53441917411707, 4.16654377]}, {"species": [{"element": "Ge", "occu": 1}], "abc": [0.35723606, 0.85723606, 0.25], "properties": {"magmom": -0.004}, "label": "Ge", "xyz": [3.0759245334446206, 7.38109808588293, 4.16654377]}, {"species": [{"element": "Ge", "occu": 1}], "abc": [0.85723606, 0.14276394, 0.25], "properties": {"magmom": -0.004}, "label": "Ge", "xyz": [7.38109536844462, 1.2292467541170695, 4.16654377]}, {"species": [{"element": "Ge", "occu": 1}], "abc": [0.25, 0.25, 0.50773234], "properties": {"magmom": -0.009000000000000001}, "label": "Ge", "xyz": [2.1525854175, 2.15258621, 8.461956072218086]}, {"species": [{"element": "Ge", "occu": 1}], "abc": [0.75, 0.75, 0.99226766], "properties": {"magmom": -0.009000000000000001}, "label": "Ge", "xyz": [6.4577562525, 6.45775863, 16.53730654778191]}, {"species": [{"element": "Ge", "occu": 1}], "abc": [0.75, 0.75, 0.49226766], "properties": {"magmom": -0.009000000000000001}, "label": "Ge", "xyz": [6.4577562525, 6.45775863, 8.204219007781912]}, {"species": [{"element": "Ge", "occu": 1}], "abc": [0.25, 0.25, 0.00773234], "properties": {"magmom": -0.009000000000000001}, "label": "Ge", "xyz": [2.1525854175, 2.15258621, 0.1288685322180872]}]}, "task_ids": null, "uncorrected_energy_per_atom": null, "energy_per_atom": -3.4341732134375, "formation_energy_per_atom": -0.5011784303124991, "energy_above_hull": 0.017004229062497, "is_stable": false, "equilibrium_reaction_energy_per_atom": null, "decomposes_to": null, "xas": null, "grain_boundaries": null, "band_gap": 0.0, "cbm": null, "vbm": null, "efermi": 2.44248583, "is_gap_direct": null, "is_metal": null, "es_source_calc_id": null, "bandstructure": null, "dos": null, "dos_energy_up": null, "dos_energy_down": null, "is_magnetic": null, "ordering": null, "total_magnetization": 0.3251398, "total_magnetization_normalized_vol": null, "total_magnetization_normalized_formula_units": null, "num_magnetic_sites": null, "num_unique_magnetic_sites": null, "types_of_magnetic_species": null, "bulk_modulus": null, "shear_modulus": null, "universal_anisotropy": null, "homogeneous_poisson": null, "e_total": null, "e_ionic": null, "e_electronic": null, "n": null, "e_ij_max": null, "weighted_surface_energy_EV_PER_ANG2": null, "weighted_surface_energy": null, "weighted_work_function": null, "surface_anisotropy": null, "shape_factor": null, "has_reconstructed": null, "possible_species": null, "has_props": null, "theoretical": null, "database_IDs": null, "fields_not_requested": ["builder_meta", "nsites", "elements", "nelements", "composition", "composition_reduced", "chemsys", "symmetry", "property_name", "deprecated", "deprecation_reasons", "last_updated", "origins", "warnings", "task_ids", "uncorrected_energy_per_atom", "equilibrium_reaction_energy_per_atom", "decomposes_to", "xas", "grain_boundaries", "cbm", "vbm", "is_gap_direct", "is_metal", "es_source_calc_id", "bandstructure", "dos", "dos_energy_up", "dos_energy_down", "is_magnetic", "ordering", "total_magnetization_normalized_vol", "total_magnetization_normalized_formula_units", "num_magnetic_sites", "num_unique_magnetic_sites", "types_of_magnetic_species", "bulk_modulus", "shear_modulus", "universal_anisotropy", "homogeneous_poisson", "e_total", "e_ionic", "e_electronic", "n", "e_ij_max", "weighted_surface_energy_EV_PER_ANG2", "weighted_surface_energy", "weighted_work_function", "surface_anisotropy", "shape_factor", "has_reconstructed", "possible_species", "has_props", "theoretical", "database_IDs"]}