{
  "builder_meta": null,
  "nsites": null,
  "elements": null,
  "nelements": null,
  "composition": null,
  "composition_reduced": null,
  "formula_pretty": "Ba5P4",
  "formula_anonymous": "A4B5",
  "chemsys": null,
  "volume": 600.1986393214199,
  "density": 4.48490456719081,
  "density_atomic": 33.34436885119,
  "symmetry": null,
  "property_name": null,
  "material_id": "mp-1105231",
  "deprecated": null,
  "deprecation_reasons": null,
  "last_updated": null,
  "origins": null,
  "warnings": null,
  "structure": {
    "@module": "pymatgen.core.structure",
    "@class": "Structure",
    "charge": 0,
    "lattice": {
      "matrix": [
        [-1.666e-5, 8.43055145, -2.12e-6],
        [-2.649999999999998e-6, -2.14e-6, 8.51139651],
        [8.36447395, -4.21529224, -1.55e-6]
      ],
      "pbc": [true, true, true],
      "a": 8.430551450016727,
      "b": 8.511396510000683,
      "c": 9.366595599727535,
      "alpha": 90.00001892864191,
      "beta": 116.74601802776297,
      "gamma": 90.00002881366565,
      "volume": 600.1986393214199
    },
    "properties": {},
    "sites": [
      {
        "species": [{ "element": "Ba", "occu": 1 }],
        "abc": [0.02047853, 0.66257069, 0.70548108],
        "properties": { "magmom": -0.0 },
        "label": "Ba",
        "xyz": [5.900976018893228, -2.8011650391067273, 5.639400721584136]
      },
      {
        "species": [{ "element": "Ba", "occu": 1 }],
        "abc": [0.68497513, 0.33743543, 0.7054625800000001],
        "properties": { "magmom": 0.0 },
        "label": "Ba",
        "xyz": [5.9008110672202365, 2.800986414239239, 2.8720441956380744]
      },
      {
        "species": [{ "element": "Ba", "occu": 1 }],
        "abc": [0.18497594, 0.16256501, 0.70546332],
        "properties": { "magmom": -0.0 },
        "label": "Ba",
        "xyz": [5.900826050324078, -1.4142852271076456, 1.3836537731449765]
      },
      {
        "species": [{ "element": "Ba", "occu": 1 }],
        "abc": [0.52047849, 0.8374292600000001, 0.70548108],
        "properties": { "magmom": 0.0 },
        "label": "Ba",
        "xyz": [5.900967225518684, 1.4141099744738752, 7.127690284025811]
      },
      {
        "species": [{ "element": "Ba", "occu": 1 }],
        "abc": [0.97952138, 0.3374335, 0.29451753],
        "properties": { "magmom": -0.0 },
        "label": "Ba",
        "xyz": [2.4634669944783782, 7.016427209604343, 2.8720277811695882]
      },
      {
        "species": [{ "element": "Ba", "occu": 1 }],
        "abc": [0.31502422, 0.66256791, 0.29453657],
        "properties": { "magmom": 0.0 },
        "label": "Ba",
        "xyz": [2.463636462978885, 1.4142687588935747, 5.639377072428965]
      },
      {
        "species": [{ "element": "Ba", "occu": 1 }],
        "abc": [0.81502427, 0.837432, 0.29453671],
        "properties": { "magmom": -0.0 },
        "label": "Ba",
        "xyz": [2.4636288406145663, 5.629543941071081, 7.1277136177789675]
      },
      {
        "species": [{ "element": "Ba", "occu": 1 }],
        "abc": [0.4795212, 0.16256635, 0.29451739],
        "properties": { "magmom": 0.0 },
        "label": "Ba",
        "xyz": [2.463474616852971, 2.801150931461697, 1.38366519094654]
      },
      {
        "species": [{ "element": "Ba", "occu": 1 }],
        "abc": [0.50000026, 0.50000455, 1.81e-6],
        "properties": { "magmom": 0.0 },
        "label": "Ba",
        "xyz": [5.484681460400003e-6, 4.2152692172546855, 4.255735921850764]
      },
      {
        "species": [{ "element": "Ba", "occu": 1 }],
        "abc": [4e-7, -4.53e-6, 1.68e-6],
        "properties": { "magmom": 0.0 },
        "label": "Ba",
        "xyz": [
          1.40523215765e-5, -3.7094606890000007e-6, -3.8556629642300004e-5
        ]
      },
      {
        "species": [{ "element": "P", "occu": 1 }],
        "abc": [0.30300996, 0.50000265, 0.6060247400000001],
        "properties": { "magmom": -0.0 },
        "label": "P",
        "xyz": [5.069071777632567, -3.139613324742996e-5, 4.25571922848129]
      },
      {
        "species": [{ "element": "P", "occu": 1 }],
        "abc": [0.80301004, -2.74e-6, 0.60602476],
        "properties": { "magmom": 0.0 },
        "label": "P",
        "xyz": [5.069064939934997, 4.215245989016559, -2.59629461002e-5]
      },
      {
        "species": [{ "element": "P", "occu": 1 }],
        "abc": [0.69698894, 0.50000106, 0.39397374],
        "properties": { "magmom": 0.0 },
        "label": "P",
        "xyz": [3.295370148375524, 4.215285599762916, 4.255705188804451]
      },
      {
        "species": [{ "element": "P", "occu": 1 }],
        "abc": [0.19698894, -1.09e-6, 0.39397382000000003],
        "properties": { "magmom": -0.0 },
        "label": "P",
        "xyz": [3.295380472539138, 1.0607544138618863e-5, -1.03056981697e-5]
      },
      {
        "species": [{ "element": "P", "occu": 1 }],
        "abc": [0.40327579, 0.90506727, -6.009999999999997e-6],
        "properties": { "magmom": -0.0 },
        "label": "P",
        "xyz": [-5.938749136639998e-5, 3.3998606931968003, 7.703385548257868]
      },
      {
        "species": [{ "element": "P", "occu": 1 }],
        "abc": [0.59672533, 0.09492929, 7.599999999999997e-6],
        "properties": { "magmom": 0.0 },
        "label": "P",
        "xyz": [5.3376995403699976e-5, 5.030691356713523, 0.8079795625332984]
      },
      {
        "species": [{ "element": "P", "occu": 1 }],
        "abc": [0.09672536, 0.40507064, 7.5600000000000005e-6],
        "properties": { "magmom": -0.0 },
        "label": "P",
        "xyz": [6.0550541368400014e-5, 0.815415389539268, 3.447716626529985]
      },
      {
        "species": [{ "element": "P", "occu": 1 }],
        "abc": [0.9032758200000001, 0.59493277, -5.95e-6],
        "properties": { "magmom": 0.0 },
        "label": "P",
        "xyz": [-6.639376700420001e-5, 7.615137081883639, 5.063706787327117]
      }
    ]
  },
  "task_ids": null,
  "uncorrected_energy_per_atom": null,
  "energy_per_atom": -4.483248874999983,
  "formation_energy_per_atom": -1.010274563730141,
  "energy_above_hull": 0.0,
  "is_stable": true,
  "equilibrium_reaction_energy_per_atom": null,
  "decomposes_to": null,
  "xas": null,
  "grain_boundaries": null,
  "band_gap": 0.9422,
  "cbm": null,
  "vbm": null,
  "efermi": 3.9474605,
  "is_gap_direct": null,
  "is_metal": null,
  "es_source_calc_id": null,
  "bandstructure": null,
  "dos": null,
  "dos_energy_up": null,
  "dos_energy_down": null,
  "is_magnetic": null,
  "ordering": null,
  "total_magnetization": 0.0,
  "total_magnetization_normalized_vol": null,
  "total_magnetization_normalized_formula_units": null,
  "num_magnetic_sites": null,
  "num_unique_magnetic_sites": null,
  "types_of_magnetic_species": null,
  "bulk_modulus": null,
  "shear_modulus": null,
  "universal_anisotropy": null,
  "homogeneous_poisson": null,
  "e_total": null,
  "e_ionic": null,
  "e_electronic": null,
  "n": null,
  "e_ij_max": null,
  "weighted_surface_energy_EV_PER_ANG2": null,
  "weighted_surface_energy": null,
  "weighted_work_function": null,
  "surface_anisotropy": null,
  "shape_factor": null,
  "has_reconstructed": null,
  "possible_species": null,
  "has_props": null,
  "theoretical": null,
  "database_IDs": null,
  "fields_not_requested": [
    "builder_meta",
    "nsites",
    "elements",
    "nelements",
    "composition",
    "composition_reduced",
    "chemsys",
    "symmetry",
    "property_name",
    "deprecated",
    "deprecation_reasons",
    "last_updated",
    "origins",
    "warnings",
    "task_ids",
    "uncorrected_energy_per_atom",
    "equilibrium_reaction_energy_per_atom",
    "decomposes_to",
    "xas",
    "grain_boundaries",
    "cbm",
    "vbm",
    "is_gap_direct",
    "is_metal",
    "es_source_calc_id",
    "bandstructure",
    "dos",
    "dos_energy_up",
    "dos_energy_down",
    "is_magnetic",
    "ordering",
    "total_magnetization_normalized_vol",
    "total_magnetization_normalized_formula_units",
    "num_magnetic_sites",
    "num_unique_magnetic_sites",
    "types_of_magnetic_species",
    "bulk_modulus",
    "shear_modulus",
    "universal_anisotropy",
    "homogeneous_poisson",
    "e_total",
    "e_ionic",
    "e_electronic",
    "n",
    "e_ij_max",
    "weighted_surface_energy_EV_PER_ANG2",
    "weighted_surface_energy",
    "weighted_work_function",
    "surface_anisotropy",
    "shape_factor",
    "has_reconstructed",
    "possible_species",
    "has_props",
    "theoretical",
    "database_IDs"
  ]
}
