{
  "builder_meta": null,
  "nsites": null,
  "elements": null,
  "nelements": null,
  "composition": null,
  "composition_reduced": null,
  "formula_pretty": "Ba5Pb3",
  "formula_anonymous": "A3B5",
  "chemsys": null,
  "volume": 731.2550326214906,
  "density": 5.941498461913238,
  "density_atomic": 45.70343953884316,
  "symmetry": null,
  "property_name": null,
  "material_id": "mp-622106",
  "deprecated": null,
  "deprecation_reasons": null,
  "last_updated": null,
  "origins": null,
  "warnings": null,
  "structure": {
    "@module": "pymatgen.core.structure",
    "@class": "Structure",
    "charge": 0,
    "lattice": {
      "matrix": [
        [-4.57597891, 4.57597891, 8.73053481],
        [4.57597891, -4.57597891, 8.73053481],
        [4.57597891, 4.57597891, -8.73053481]
      ],
      "pbc": [true, true, true],
      "a": 10.867446988053418,
      "b": 10.867446988053418,
      "c": 10.867446988053418,
      "alpha": 130.1954135277096,
      "beta": 130.1954135277096,
      "gamma": 73.09455693366164,
      "volume": 731.2550326214906
    },
    "properties": {},
    "sites": [
      {
        "species": [{ "element": "Ba", "occu": 1 }],
        "abc": [0.03551688, 0.53551688, 0.8549888600000001],
        "properties": { "magmom": 0.007 },
        "label": "Ba",
        "xyz": [6.200400446644943, 1.624421536644943, -2.4790798850270317]
      },
      {
        "species": [{ "element": "Ba", "occu": 1 }],
        "abc": [0.53551688, 0.6805300200000001, 0.5],
        "properties": { "magmom": 0.007 },
        "label": "Ba",
        "xyz": [2.9515665253128778, 1.6244123846871221, 6.251472386042589]
      },
      {
        "species": [{ "element": "Ba", "occu": 1 }],
        "abc": [0.81946998, 0.96448312, 0.5],
        "properties": { "magmom": 0.007 },
        "label": "Ba",
        "xyz": [2.9515665253128778, 1.6244123846871221, 11.20959723395741]
      },
      {
        "species": [{ "element": "Ba", "occu": 1 }],
        "abc": [0.31946998, 0.81946998, 0.8549888600000001],
        "properties": { "magmom": 0.007 },
        "label": "Ba",
        "xyz": [6.200400446644943, 1.624421536644943, 2.479044962887791]
      },
      {
        "species": [{ "element": "Ba", "occu": 1 }],
        "abc": [0.0, -0.0, -0.0],
        "properties": { "magmom": -0.0 },
        "label": "Ba",
        "xyz": [0.0, 0.0, 0.0]
      },
      {
        "species": [{ "element": "Ba", "occu": 1 }],
        "abc": [0.46448312, 0.31946998, 0.5],
        "properties": { "magmom": 0.007 },
        "label": "Ba",
        "xyz": [1.6244123846871223, 2.9515665253128773, 2.4790624239574113]
      },
      {
        "species": [{ "element": "Ba", "occu": 1 }],
        "abc": [0.96448312, 0.46448312, 0.14501114],
        "properties": { "magmom": 0.007 },
        "label": "Ba",
        "xyz": [-1.624421536644943, 2.9515573733550577, 11.209614695027032]
      },
      {
        "species": [{ "element": "Ba", "occu": 1 }],
        "abc": [0.6805300200000001, 0.18053002, 0.14501114],
        "properties": { "magmom": 0.007 },
        "label": "Ba",
        "xyz": [-1.6244215366449426, 2.9515573733550573, 6.251489847112209]
      },
      {
        "species": [{ "element": "Ba", "occu": 1 }],
        "abc": [0.18053002, 0.03551688, 0.5],
        "properties": { "magmom": 0.007 },
        "label": "Ba",
        "xyz": [1.6244123846871226, 2.9515665253128773, -2.479062423957411]
      },
      {
        "species": [{ "element": "Ba", "occu": 1 }],
        "abc": [0.5, 0.5, -0.0],
        "properties": { "magmom": -0.0 },
        "label": "Ba",
        "xyz": [0.0, 0.0, 8.73053481]
      },
      {
        "species": [{ "element": "Pb", "occu": 1 }],
        "abc": [0.8810143500000001, 0.61898565, 0.5],
        "properties": { "magmom": -0.003 },
        "label": "Pb",
        "xyz": [1.0889516499852832, 3.4870272600147167, 8.730534810000002]
      },
      {
        "species": [{ "element": "Pb", "occu": 1 }],
        "abc": [0.61898565, 0.11898565, 0.7379703],
        "properties": { "magmom": -0.003 },
        "label": "Pb",
        "xyz": [1.0889470740063727, 5.664925984006373, 8.730534810652557e-6]
      },
      {
        "species": [{ "element": "Pb", "occu": 1 }],
        "abc": [0.75, 0.75, -0.0],
        "properties": { "magmom": -0.018000000000000002 },
        "label": "Pb",
        "xyz": [0.0, 0.0, 13.095802214999999]
      },
      {
        "species": [{ "element": "Pb", "occu": 1 }],
        "abc": [0.11898565, 0.38101435, 0.5],
        "properties": { "magmom": -0.003 },
        "label": "Pb",
        "xyz": [3.4870272600147167, 1.0889516499852832, 0.0]
      },
      {
        "species": [{ "element": "Pb", "occu": 1 }],
        "abc": [0.38101435, 0.8810143500000001, 0.2620297],
        "properties": { "magmom": -0.003 },
        "label": "Pb",
        "xyz": [3.4870318359936268, -1.0889470740063731, 8.73052607946519]
      },
      {
        "species": [{ "element": "Pb", "occu": 1 }],
        "abc": [0.25, 0.25, -0.0],
        "properties": { "magmom": -0.018000000000000002 },
        "label": "Pb",
        "xyz": [0.0, 0.0, 4.365267405]
      }
    ]
  },
  "task_ids": null,
  "uncorrected_energy_per_atom": null,
  "energy_per_atom": -3.129500836250002,
  "formation_energy_per_atom": -0.537898847500001,
  "energy_above_hull": 0.015117826874995001,
  "is_stable": false,
  "equilibrium_reaction_energy_per_atom": null,
  "decomposes_to": null,
  "xas": null,
  "grain_boundaries": null,
  "band_gap": 0.0,
  "cbm": null,
  "vbm": null,
  "efermi": 3.07140844,
  "is_gap_direct": null,
  "is_metal": null,
  "es_source_calc_id": null,
  "bandstructure": null,
  "dos": null,
  "dos_energy_up": null,
  "dos_energy_down": null,
  "is_magnetic": null,
  "ordering": null,
  "total_magnetization": 0.2410356,
  "total_magnetization_normalized_vol": null,
  "total_magnetization_normalized_formula_units": null,
  "num_magnetic_sites": null,
  "num_unique_magnetic_sites": null,
  "types_of_magnetic_species": null,
  "bulk_modulus": null,
  "shear_modulus": null,
  "universal_anisotropy": null,
  "homogeneous_poisson": null,
  "e_total": null,
  "e_ionic": null,
  "e_electronic": null,
  "n": null,
  "e_ij_max": null,
  "weighted_surface_energy_EV_PER_ANG2": null,
  "weighted_surface_energy": null,
  "weighted_work_function": null,
  "surface_anisotropy": null,
  "shape_factor": null,
  "has_reconstructed": null,
  "possible_species": null,
  "has_props": null,
  "theoretical": null,
  "database_IDs": null,
  "fields_not_requested": [
    "builder_meta",
    "nsites",
    "elements",
    "nelements",
    "composition",
    "composition_reduced",
    "chemsys",
    "symmetry",
    "property_name",
    "deprecated",
    "deprecation_reasons",
    "last_updated",
    "origins",
    "warnings",
    "task_ids",
    "uncorrected_energy_per_atom",
    "equilibrium_reaction_energy_per_atom",
    "decomposes_to",
    "xas",
    "grain_boundaries",
    "cbm",
    "vbm",
    "is_gap_direct",
    "is_metal",
    "es_source_calc_id",
    "bandstructure",
    "dos",
    "dos_energy_up",
    "dos_energy_down",
    "is_magnetic",
    "ordering",
    "total_magnetization_normalized_vol",
    "total_magnetization_normalized_formula_units",
    "num_magnetic_sites",
    "num_unique_magnetic_sites",
    "types_of_magnetic_species",
    "bulk_modulus",
    "shear_modulus",
    "universal_anisotropy",
    "homogeneous_poisson",
    "e_total",
    "e_ionic",
    "e_electronic",
    "n",
    "e_ij_max",
    "weighted_surface_energy_EV_PER_ANG2",
    "weighted_surface_energy",
    "weighted_work_function",
    "surface_anisotropy",
    "shape_factor",
    "has_reconstructed",
    "possible_species",
    "has_props",
    "theoretical",
    "database_IDs"
  ]
}
