{
  "builder_meta": null,
  "nsites": null,
  "elements": null,
  "nelements": null,
  "composition": null,
  "composition_reduced": null,
  "formula_pretty": "Ba5Sn3",
  "formula_anonymous": "A3B5",
  "chemsys": null,
  "volume": 712.8937301945748,
  "density": 4.857812452104312,
  "density_atomic": 44.555858137160925,
  "symmetry": null,
  "property_name": null,
  "material_id": "mp-17325",
  "deprecated": null,
  "deprecation_reasons": null,
  "last_updated": null,
  "origins": null,
  "warnings": null,
  "structure": {
    "@module": "pymatgen.core.structure",
    "@class": "Structure",
    "charge": 0,
    "lattice": {
      "matrix": [
        [8.21179326, -1e-8, -3.88806709],
        [-1.8408982200000001, 8.00278937, -3.888067099999999],
        [0.06961596, 0.08744673, 10.76292269]
      ],
      "pbc": [true, true, true],
      "a": 9.085736857367294,
      "b": 9.0857366091631,
      "c": 10.763503060964458,
      "alpha": 114.96485376211979,
      "beta": 114.96484649748739,
      "gamma": 90.00000689914373,
      "volume": 712.8937301945748
    },
    "properties": {},
    "sites": [
      {
        "species": [{ "element": "Ba", "occu": 1 }],
        "abc": [0.6782460100000001, 0.17824601, 0.71665889],
        "properties": { "magmom": 0.006 },
        "label": "Ba",
        "xyz": [5.291374147628676, 1.4891347437463833, 4.383245790579132]
      },
      {
        "species": [{ "element": "Ba", "occu": 1 }],
        "abc": [0.96158613, 0.46158513, 0.28334111],
        "properties": { "magmom": 0.006 },
        "label": "Ba",
        "xyz": [7.066340320428131, 3.7187458156422775, -2.4838068822268986]
      },
      {
        "species": [{ "element": "Ba", "occu": 1 }],
        "abc": [0.0, -0.0, -0.0],
        "properties": { "magmom": 0.0 },
        "label": "Ba",
        "xyz": [0.0, 0.0, 0.0]
      },
      {
        "species": [{ "element": "Ba", "occu": 1 }],
        "abc": [0.5, 0.5, -0.0],
        "properties": { "magmom": 0.0 },
        "label": "Ba",
        "xyz": [3.1854475200000003, 4.00139468, -3.8880670949999994]
      },
      {
        "species": [{ "element": "Ba", "occu": 1 }],
        "abc": [0.03841387, 0.53841387, 0.71665889],
        "properties": { "magmom": 0.006 },
        "label": "Ba",
        "xyz": [-0.6258274795299107, 4.371482271568352, 5.4705992702940005]
      },
      {
        "species": [{ "element": "Ba", "occu": 1 }],
        "abc": [0.17824601, 0.03841387, 0.71665889],
        "properties": { "magmom": 0.006 },
        "label": "Ba",
        "xyz": [1.4428942552534656, 0.3700875851700315, 6.870956078635727]
      },
      {
        "species": [{ "element": "Ba", "occu": 1 }],
        "abc": [0.53841387, 0.6782460100000001, 0.71665889],
        "properties": { "magmom": 0.006 },
        "label": "Ba",
        "xyz": [3.2226524128452985, 5.490529430144705, 2.982888982237406]
      },
      {
        "species": [{ "element": "Ba", "occu": 1 }],
        "abc": [0.82175399, 0.96158613, 0.28334111],
        "properties": { "magmom": 0.006 },
        "label": "Ba",
        "xyz": [4.9976167447465345, 7.72014850482997, -3.8841675786357253]
      },
      {
        "species": [{ "element": "Ba", "occu": 1 }],
        "abc": [0.46158513, 0.32175399, 0.28334111],
        "properties": { "magmom": 0.006 },
        "label": "Ba",
        "xyz": [3.217850375361442, 2.5997066598553054, 0.0039034058296856244]
      },
      {
        "species": [{ "element": "Ba", "occu": 1 }],
        "abc": [0.32175399, 0.82175399, 0.28334111],
        "properties": { "magmom": 0.006 },
        "label": "Ba",
        "xyz": [1.1491368523713248, 6.601101346253618, -1.3964572905791317]
      },
      {
        "species": [{ "element": "Sn", "occu": 1 }],
        "abc": [0.75, 0.75, 0.5],
        "properties": { "magmom": -0.012 },
        "label": "Sn",
        "xyz": [4.8129792600000005, 6.045815385, -0.45063929749999865]
      },
      {
        "species": [{ "element": "Sn", "occu": 1 }],
        "abc": [0.25, 0.25, 0.5],
        "properties": { "magmom": -0.012 },
        "label": "Sn",
        "xyz": [1.6275317400000002, 2.044420705, 3.4374277975000003]
      },
      {
        "species": [{ "element": "Sn", "occu": 1 }],
        "abc": [0.6142784, 0.114278399999999, -0.0],
        "properties": { "magmom": -0.002 },
        "label": "Sn",
        "xyz": [4.8339523217391385, 0.9145459585978161, -2.832677718418492]
      },
      {
        "species": [{ "element": "Sn", "occu": 1 }],
        "abc": [0.8857216, 0.6142784, 0.0],
        "properties": { "magmom": -0.002 },
        "label": "Sn",
        "xyz": [6.142538651971968, 4.915940640883392, -5.832100641142783]
      },
      {
        "species": [{ "element": "Sn", "occu": 1 }],
        "abc": [0.114278399999999, 0.3857216, -0.0],
        "properties": { "magmom": -0.002 },
        "label": "Sn",
        "xyz": [0.22835638802802383, 3.086848719116608, -1.9440335488572116]
      },
      {
        "species": [{ "element": "Sn", "occu": 1 }],
        "abc": [0.3857216, 0.8857216, 0.0],
        "properties": { "magmom": -0.002 },
        "label": "Sn",
        "xyz": [1.536942718260864, 7.088243401402177, -4.943456471581503]
      }
    ]
  },
  "task_ids": null,
  "uncorrected_energy_per_atom": null,
  "energy_per_atom": -3.323207379999999,
  "formation_energy_per_atom": -0.6202585968749991,
  "energy_above_hull": 0.011261958125002,
  "is_stable": false,
  "equilibrium_reaction_energy_per_atom": null,
  "decomposes_to": null,
  "xas": null,
  "grain_boundaries": null,
  "band_gap": 0.0,
  "cbm": null,
  "vbm": null,
  "efermi": 3.19572742,
  "is_gap_direct": null,
  "is_metal": null,
  "es_source_calc_id": null,
  "bandstructure": null,
  "dos": null,
  "dos_energy_up": null,
  "dos_energy_down": null,
  "is_magnetic": null,
  "ordering": null,
  "total_magnetization": 0.213551499999999,
  "total_magnetization_normalized_vol": null,
  "total_magnetization_normalized_formula_units": null,
  "num_magnetic_sites": null,
  "num_unique_magnetic_sites": null,
  "types_of_magnetic_species": null,
  "bulk_modulus": null,
  "shear_modulus": null,
  "universal_anisotropy": null,
  "homogeneous_poisson": null,
  "e_total": null,
  "e_ionic": null,
  "e_electronic": null,
  "n": null,
  "e_ij_max": null,
  "weighted_surface_energy_EV_PER_ANG2": null,
  "weighted_surface_energy": null,
  "weighted_work_function": null,
  "surface_anisotropy": null,
  "shape_factor": null,
  "has_reconstructed": null,
  "possible_species": null,
  "has_props": null,
  "theoretical": null,
  "database_IDs": null,
  "fields_not_requested": [
    "builder_meta",
    "nsites",
    "elements",
    "nelements",
    "composition",
    "composition_reduced",
    "chemsys",
    "symmetry",
    "property_name",
    "deprecated",
    "deprecation_reasons",
    "last_updated",
    "origins",
    "warnings",
    "task_ids",
    "uncorrected_energy_per_atom",
    "equilibrium_reaction_energy_per_atom",
    "decomposes_to",
    "xas",
    "grain_boundaries",
    "cbm",
    "vbm",
    "is_gap_direct",
    "is_metal",
    "es_source_calc_id",
    "bandstructure",
    "dos",
    "dos_energy_up",
    "dos_energy_down",
    "is_magnetic",
    "ordering",
    "total_magnetization_normalized_vol",
    "total_magnetization_normalized_formula_units",
    "num_magnetic_sites",
    "num_unique_magnetic_sites",
    "types_of_magnetic_species",
    "bulk_modulus",
    "shear_modulus",
    "universal_anisotropy",
    "homogeneous_poisson",
    "e_total",
    "e_ionic",
    "e_electronic",
    "n",
    "e_ij_max",
    "weighted_surface_energy_EV_PER_ANG2",
    "weighted_surface_energy",
    "weighted_work_function",
    "surface_anisotropy",
    "shape_factor",
    "has_reconstructed",
    "possible_species",
    "has_props",
    "theoretical",
    "database_IDs"
  ]
}
