{"builder_meta": null, "nsites": null, "elements": null, "nelements": null, "composition": null, "composition_reduced": null, "formula_pretty": "Ba5Sb4", "formula_anonymous": "A4B5", "chemsys": null, "volume": 757.0565238134271, "density": 5.148712487608282, "density_atomic": 42.058695767412615, "symmetry": null, "property_name": null, "material_id": "mp-10089", "deprecated": null, "deprecation_reasons": null, "last_updated": null, "origins": null, "warnings": null, "structure": {"@module": "pymatgen.core.structure", "@class": "Structure", "charge": 0, "lattice": {"matrix": [[8.1514973, -0.0, -4.143031459999999], [-0.0, 9.18840753, -0.0], [0.00687792, 0.0, 10.10416528]], "pbc": [true, true, true], "a": 9.143938861915965, "b": 9.18840753, "c": 10.104167620904802, "alpha": 90.0, "beta": 116.90313686972335, "gamma": 90.0, "volume": 757.0565238134271}, "properties": {}, "sites": [{"species": [{"element": "Ba", "occu": 1}], "abc": [0.5, 0.5, 0.0], "properties": {"magmom": -0.0}, "label": "Ba", "xyz": [4.07574865, 4.594203765, -2.0715157299999993]}, {"species": [{"element": "Ba", "occu": 1}], "abc": [0.0, -0.0, 0.0], "properties": {"magmom": -0.0}, "label": "Ba", "xyz": [0.0, 0.0, 0.0]}, {"species": [{"element": "Ba", "occu": 1}], "abc": [0.31468299, 0.3356093, 0.2922866], "properties": {"magmom": -0.0}, "label": "Ba", "xyz": [2.567147867192799, 3.0837150192580287, 1.6495705880323834]}, {"species": [{"element": "Ba", "occu": 1}], "abc": [0.52239739, 0.1643907, 0.707713399999999], "properties": {"magmom": -0.0}, "label": "Ba", "xyz": [4.263188510260175, 1.510488745741971, 4.9865443430788545]}, {"species": [{"element": "Ba", "occu": 1}], "abc": [0.18531701, 0.8356093, 0.707713399999999], "properties": {"magmom": -0.0}, "label": "Ba", "xyz": [1.5154787028072012, 7.677918784258028, 6.383078961967608]}, {"species": [{"element": "Ba", "occu": 1}], "abc": [0.97760261, 0.6643907, 0.2922866], "properties": {"magmom": -0.0}, "label": "Ba", "xyz": [7.970935359739826, 6.1046925107419705, -1.0969262530788613]}, {"species": [{"element": "Ba", "occu": 1}], "abc": [0.68531701, 0.6643907, 0.707713399999999], "properties": {"magmom": -0.0}, "label": "Ba", "xyz": [5.591227352807202, 6.1046925107419705, 4.311563231967609]}, {"species": [{"element": "Ba", "occu": 1}], "abc": [0.47760261, 0.8356093, 0.2922866], "properties": {"magmom": -0.0}, "label": "Ba", "xyz": [3.895186709739825, 7.677918784258028, 0.9745894769211385]}, {"species": [{"element": "Ba", "occu": 1}], "abc": [0.81468299, 0.1643907, 0.2922866], "properties": {"magmom": -0.0}, "label": "Ba", "xyz": [6.642896517192799, 1.510488745741971, -0.4219451419676159]}, {"species": [{"element": "Ba", "occu": 1}], "abc": [0.02239739, 0.3356093, 0.707713399999999], "properties": {"magmom": -0.0}, "label": "Ba", "xyz": [0.187439860260175, 3.0837150192580287, 7.058060073078853]}, {"species": [{"element": "Sb", "occu": 1}], "abc": [0.88761272, 0.38752203, 0.0], "properties": {"magmom": -0.0}, "label": "Sb", "xyz": [7.235372690525657, 3.5607103384928855, -3.67740742325617]}, {"species": [{"element": "Sb", "occu": 1}], "abc": [0.38761272, 0.11247797, 0.0], "properties": {"magmom": -0.0}, "label": "Sb", "xyz": [3.1596240405256566, 1.033493426507114, -1.6058916932561709]}, {"species": [{"element": "Sb", "occu": 1}], "abc": [0.61238728, 0.8875220300000001, -0.0], "properties": {"magmom": -0.0}, "label": "Sb", "xyz": [4.991873259474344, 8.154914103492885, -2.537139766743828]}, {"species": [{"element": "Sb", "occu": 1}], "abc": [0.11238728, 0.61247797, -0.0], "properties": {"magmom": -0.0}, "label": "Sb", "xyz": [0.9161246094743442, 5.627697191507114, -0.4656240367438287]}, {"species": [{"element": "Sb", "occu": 1}], "abc": [0.19823405, -0.0, 0.39646611], "properties": {"magmom": 0.0}, "label": "Sb", "xyz": [1.6186311855303563, 0.0, 3.1846691977654484]}, {"species": [{"element": "Sb", "occu": 1}], "abc": [0.30176595, 0.5, 0.60353389], "properties": {"magmom": 0.0}, "label": "Sb", "xyz": [2.463995384469644, 4.594203765, 4.847980352234552]}, {"species": [{"element": "Sb", "occu": 1}], "abc": [0.8017659500000001, -0.0, 0.60353389], "properties": {"magmom": 0.0}, "label": "Sb", "xyz": [6.539744034469645, 0.0, 2.776464622234553]}, {"species": [{"element": "Sb", "occu": 1}], "abc": [0.69823405, 0.5, 0.39646611], "properties": {"magmom": 0.0}, "label": "Sb", "xyz": [5.694379835530357, 4.594203765, 1.1131534677654487]}]}, "task_ids": null, "uncorrected_energy_per_atom": null, "energy_per_atom": -4.03895163444444, "formation_energy_per_atom": -1.137742783333328, "energy_above_hull": 0.0, "is_stable": true, "equilibrium_reaction_energy_per_atom": null, "decomposes_to": null, "xas": null, "grain_boundaries": null, "band_gap": 0.264899999999999, "cbm": null, "vbm": null, "efermi": 3.37409542, "is_gap_direct": null, "is_metal": null, "es_source_calc_id": null, "bandstructure": null, "dos": null, "dos_energy_up": null, "dos_energy_down": null, "is_magnetic": null, "ordering": null, "total_magnetization": 0.0, "total_magnetization_normalized_vol": null, "total_magnetization_normalized_formula_units": null, "num_magnetic_sites": null, "num_unique_magnetic_sites": null, "types_of_magnetic_species": null, "bulk_modulus": null, "shear_modulus": null, "universal_anisotropy": null, "homogeneous_poisson": null, "e_total": null, "e_ionic": null, "e_electronic": null, "n": null, "e_ij_max": null, "weighted_surface_energy_EV_PER_ANG2": null, "weighted_surface_energy": null, "weighted_work_function": null, "surface_anisotropy": null, "shape_factor": null, "has_reconstructed": null, "possible_species": null, "has_props": null, "theoretical": null, "database_IDs": null, "fields_not_requested": ["builder_meta", "nsites", "elements", "nelements", "composition", "composition_reduced", "chemsys", "symmetry", "property_name", "deprecated", "deprecation_reasons", "last_updated", "origins", "warnings", "task_ids", "uncorrected_energy_per_atom", "equilibrium_reaction_energy_per_atom", "decomposes_to", "xas", "grain_boundaries", "cbm", "vbm", "is_gap_direct", "is_metal", "es_source_calc_id", "bandstructure", "dos", "dos_energy_up", "dos_energy_down", "is_magnetic", "ordering", "total_magnetization_normalized_vol", "total_magnetization_normalized_formula_units", "num_magnetic_sites", "num_unique_magnetic_sites", "types_of_magnetic_species", "bulk_modulus", "shear_modulus", "universal_anisotropy", "homogeneous_poisson", "e_total", "e_ionic", "e_electronic", "n", "e_ij_max", "weighted_surface_energy_EV_PER_ANG2", "weighted_surface_energy", "weighted_work_function", "surface_anisotropy", "shape_factor", "has_reconstructed", "possible_species", "has_props", "theoretical", "database_IDs"]}