{
  "builder_meta": null,
  "nsites": null,
  "elements": null,
  "nelements": null,
  "composition": null,
  "composition_reduced": null,
  "formula_pretty": "Ba5Sb3",
  "formula_anonymous": "A3B5",
  "chemsys": null,
  "volume": 702.3341836756755,
  "density": 4.974116290626551,
  "density_atomic": 43.89588647972972,
  "symmetry": null,
  "property_name": null,
  "material_id": "mp-9909",
  "deprecated": null,
  "deprecation_reasons": null,
  "last_updated": null,
  "origins": null,
  "warnings": null,
  "structure": {
    "@module": "pymatgen.core.structure",
    "@class": "Structure",
    "charge": 0,
    "lattice": {
      "matrix": [
        [10.13492873, 6.22e-6, 0.0],
        [-5.06746069, 8.77709751, 0.0],
        [-0.0, 0.0, 7.8953617]
      ],
      "pbc": [true, true, true],
      "a": 10.134928730001908,
      "b": 10.134919760153185,
      "c": 7.8953617,
      "alpha": 90.0,
      "beta": 90.0,
      "gamma": 119.99997012355918,
      "volume": 702.3341836756755
    },
    "properties": {},
    "sites": [
      {
        "species": [{ "element": "Ba", "occu": 1 }],
        "abc": [-0.0, 0.25625462, 0.75],
        "properties": { "magmom": 0.059000000000000004 },
        "label": "Ba",
        "xyz": [-1.2985602134808878, 2.249171787127996, 5.921521275]
      },
      {
        "species": [{ "element": "Ba", "occu": 1 }],
        "abc": [0.0, 0.74374538, 0.25],
        "properties": { "magmom": 0.059000000000000004 },
        "label": "Ba",
        "xyz": [-3.768900476519112, 6.527925722872005, 1.973840425]
      },
      {
        "species": [{ "element": "Ba", "occu": 1 }],
        "abc": [0.25625462, 0.25625462, 0.25],
        "properties": { "magmom": 0.059000000000000004 },
        "label": "Ba",
        "xyz": [1.2985620969523448, 2.2491733810317327, 1.973840425]
      },
      {
        "species": [{ "element": "Ba", "occu": 1 }],
        "abc": [0.25625462, -0.0, 0.75],
        "properties": { "magmom": 0.059000000000000004 },
        "label": "Ba",
        "xyz": [2.5971223104332326, 1.5939037363999998e-6, 5.921521275]
      },
      {
        "species": [{ "element": "Ba", "occu": 1 }],
        "abc": [0.74374538, 0.74374538, 0.75],
        "properties": { "magmom": 0.059000000000000004 },
        "label": "Ba",
        "xyz": [3.7689059430476557, 6.527930348968268, 5.921521275]
      },
      {
        "species": [{ "element": "Ba", "occu": 1 }],
        "abc": [0.74374538, 0.0, 0.25],
        "properties": { "magmom": 0.059000000000000004 },
        "label": "Ba",
        "xyz": [7.537806419566768, 4.6260962636e-6, 1.973840425]
      },
      {
        "species": [{ "element": "Ba", "occu": 1 }],
        "abc": [0.333333, 0.666667, 0.5],
        "properties": { "magmom": 0.005 },
        "label": "Ba",
        "xyz": [-2.61746314000888e-6, 5.85140333903043, 3.94768085]
      },
      {
        "species": [{ "element": "Ba", "occu": 1 }],
        "abc": [0.666667, 0.333333, -0.0],
        "properties": { "magmom": 0.005 },
        "label": "Ba",
        "xyz": [5.06747065746314, 2.92570039096957, 0.0]
      },
      {
        "species": [{ "element": "Ba", "occu": 1 }],
        "abc": [0.666667, 0.333333, 0.5],
        "properties": { "magmom": 0.005 },
        "label": "Ba",
        "xyz": [5.06747065746314, 2.92570039096957, 3.94768085]
      },
      {
        "species": [{ "element": "Ba", "occu": 1 }],
        "abc": [0.333333, 0.666667, -0.0],
        "properties": { "magmom": 0.005 },
        "label": "Ba",
        "xyz": [-2.61746314000888e-6, 5.85140333903043, 0.0]
      },
      {
        "species": [{ "element": "Sb", "occu": 1 }],
        "abc": [0.60986282, 0.0, 0.75],
        "properties": { "magmom": 0.007 },
        "label": "Sb",
        "xyz": [6.180916215776819, 3.7933467404e-6, 5.921521275]
      },
      {
        "species": [{ "element": "Sb", "occu": 1 }],
        "abc": [0.60986282, 0.60986282, 0.25],
        "properties": { "magmom": 0.007 },
        "label": "Sb",
        "xyz": [3.0904603491342737, 5.352829232210319, 1.973840425]
      },
      {
        "species": [{ "element": "Sb", "occu": 1 }],
        "abc": [-0.0, 0.39013718000000003, 0.25],
        "properties": { "magmom": 0.007 },
        "label": "Sb",
        "xyz": [-1.9770048233574542, 3.4242720711364223, 1.973840425]
      },
      {
        "species": [{ "element": "Sb", "occu": 1 }],
        "abc": [0.0, 0.60986282, 0.75],
        "properties": { "magmom": 0.007 },
        "label": "Sb",
        "xyz": [-3.0904558666425457, 5.3528254388635785, 5.921521275]
      },
      {
        "species": [{ "element": "Sb", "occu": 1 }],
        "abc": [0.39013718000000003, 0.39013718000000003, 0.75],
        "properties": { "magmom": 0.007 },
        "label": "Sb",
        "xyz": [1.9770076908657277, 3.424274497789682, 5.921521275]
      },
      {
        "species": [{ "element": "Sb", "occu": 1 }],
        "abc": [0.39013718000000003, -0.0, 0.25],
        "properties": { "magmom": 0.007 },
        "label": "Sb",
        "xyz": [3.954012514223182, 2.4266532596e-6, 1.973840425]
      }
    ]
  },
  "task_ids": null,
  "uncorrected_energy_per_atom": null,
  "energy_per_atom": -3.816693260625001,
  "formation_energy_per_atom": -1.068958458125001,
  "energy_above_hull": 0.0,
  "is_stable": true,
  "equilibrium_reaction_energy_per_atom": null,
  "decomposes_to": null,
  "xas": null,
  "grain_boundaries": null,
  "band_gap": 0.0,
  "cbm": null,
  "vbm": null,
  "efermi": 3.54303234,
  "is_gap_direct": null,
  "is_metal": null,
  "es_source_calc_id": null,
  "bandstructure": null,
  "dos": null,
  "dos_energy_up": null,
  "dos_energy_down": null,
  "is_magnetic": null,
  "ordering": null,
  "total_magnetization": 2.0064554,
  "total_magnetization_normalized_vol": null,
  "total_magnetization_normalized_formula_units": null,
  "num_magnetic_sites": null,
  "num_unique_magnetic_sites": null,
  "types_of_magnetic_species": null,
  "bulk_modulus": null,
  "shear_modulus": null,
  "universal_anisotropy": null,
  "homogeneous_poisson": null,
  "e_total": null,
  "e_ionic": null,
  "e_electronic": null,
  "n": null,
  "e_ij_max": null,
  "weighted_surface_energy_EV_PER_ANG2": null,
  "weighted_surface_energy": null,
  "weighted_work_function": null,
  "surface_anisotropy": null,
  "shape_factor": null,
  "has_reconstructed": null,
  "possible_species": null,
  "has_props": null,
  "theoretical": null,
  "database_IDs": null,
  "fields_not_requested": [
    "builder_meta",
    "nsites",
    "elements",
    "nelements",
    "composition",
    "composition_reduced",
    "chemsys",
    "symmetry",
    "property_name",
    "deprecated",
    "deprecation_reasons",
    "last_updated",
    "origins",
    "warnings",
    "task_ids",
    "uncorrected_energy_per_atom",
    "equilibrium_reaction_energy_per_atom",
    "decomposes_to",
    "xas",
    "grain_boundaries",
    "cbm",
    "vbm",
    "is_gap_direct",
    "is_metal",
    "es_source_calc_id",
    "bandstructure",
    "dos",
    "dos_energy_up",
    "dos_energy_down",
    "is_magnetic",
    "ordering",
    "total_magnetization_normalized_vol",
    "total_magnetization_normalized_formula_units",
    "num_magnetic_sites",
    "num_unique_magnetic_sites",
    "types_of_magnetic_species",
    "bulk_modulus",
    "shear_modulus",
    "universal_anisotropy",
    "homogeneous_poisson",
    "e_total",
    "e_ionic",
    "e_electronic",
    "n",
    "e_ij_max",
    "weighted_surface_energy_EV_PER_ANG2",
    "weighted_surface_energy",
    "weighted_work_function",
    "surface_anisotropy",
    "shape_factor",
    "has_reconstructed",
    "possible_species",
    "has_props",
    "theoretical",
    "database_IDs"
  ]
}
