{
  "builder_meta": null,
  "nsites": null,
  "elements": null,
  "nelements": null,
  "composition": null,
  "composition_reduced": null,
  "formula_pretty": "Ba5Si3",
  "formula_anonymous": "A3B5",
  "chemsys": null,
  "volume": 1214.4353494586255,
  "density": 4.216265451859642,
  "density_atomic": 37.95110467058205,
  "symmetry": null,
  "property_name": null,
  "material_id": "mp-669320",
  "deprecated": null,
  "deprecation_reasons": null,
  "last_updated": null,
  "origins": null,
  "warnings": null,
  "structure": {
    "@module": "pymatgen.core.structure",
    "@class": "Structure",
    "charge": 0,
    "lattice": {
      "matrix": [
        [8.54285382, 0.0, -0.0],
        [0.0, 8.54285382, -0.0],
        [-0.0, -0.0, 16.64057964]
      ],
      "pbc": [true, true, true],
      "a": 8.54285382,
      "b": 8.54285382,
      "c": 16.64057964,
      "alpha": 90.0,
      "beta": 90.0,
      "gamma": 90.0,
      "volume": 1214.4353494586255
    },
    "properties": {},
    "sites": [
      {
        "species": [{ "element": "Ba", "occu": 1 }],
        "abc": [0.05269508, 0.91932608, 0.10951472],
        "properties": { "magmom": 0.01 },
        "label": "Ba",
        "xyz": [0.45016636547320554, 7.853668314353626, 1.8223884199123006]
      },
      {
        "species": [{ "element": "Ba", "occu": 1 }],
        "abc": [0.91932608, 0.44730492, 0.10951472],
        "properties": { "magmom": 0.01 },
        "label": "Ba",
        "xyz": [7.853668314353626, 3.821260544526794, 1.8223884199123006]
      },
      {
        "species": [{ "element": "Ba", "occu": 1 }],
        "abc": [0.25, 0.25, 0.71930092],
        "properties": { "magmom": -0.0 },
        "label": "Ba",
        "xyz": [2.135713455, 2.135713455, 11.969584244385269]
      },
      {
        "species": [{ "element": "Ba", "occu": 1 }],
        "abc": [0.08067392, 0.94730492, 0.39048528],
        "properties": { "magmom": 0.01 },
        "label": "Ba",
        "xyz": [0.6891855056463744, 8.092687454526795, 6.497901400087699]
      },
      {
        "species": [{ "element": "Ba", "occu": 1 }],
        "abc": [0.41932608, 0.94730492, 0.89048528],
        "properties": { "magmom": 0.01 },
        "label": "Ba",
        "xyz": [3.5822414043536255, 8.092687454526795, 14.818191220087698]
      },
      {
        "species": [{ "element": "Ba", "occu": 1 }],
        "abc": [0.94730492, 0.41932608, 0.39048528],
        "properties": { "magmom": 0.01 },
        "label": "Ba",
        "xyz": [8.092687454526795, 3.5822414043536255, 6.497901400087699]
      },
      {
        "species": [{ "element": "Ba", "occu": 1 }],
        "abc": [0.41932608, 0.55269508, 0.39048528],
        "properties": { "magmom": 0.01 },
        "label": "Ba",
        "xyz": [3.5822414043536255, 4.7215932754732055, 6.497901400087699]
      },
      {
        "species": [{ "element": "Ba", "occu": 1 }],
        "abc": [0.91932608, 0.05269508, 0.6095147200000001],
        "properties": { "magmom": 0.01 },
        "label": "Ba",
        "xyz": [7.853668314353626, 0.45016636547320554, 10.142678239912302]
      },
      {
        "species": [{ "element": "Ba", "occu": 1 }],
        "abc": [0.08067392, 0.55269508, 0.89048528],
        "properties": { "magmom": 0.01 },
        "label": "Ba",
        "xyz": [0.6891855056463744, 4.7215932754732055, 14.818191220087698]
      },
      {
        "species": [{ "element": "Ba", "occu": 1 }],
        "abc": [0.94730492, 0.08067392, 0.89048528],
        "properties": { "magmom": 0.01 },
        "label": "Ba",
        "xyz": [8.092687454526795, 0.6891855056463744, 14.818191220087698]
      },
      {
        "species": [{ "element": "Ba", "occu": 1 }],
        "abc": [0.25, 0.25, 0.21930092],
        "properties": { "magmom": -0.0 },
        "label": "Ba",
        "xyz": [2.135713455, 2.135713455, 3.6492944243852685]
      },
      {
        "species": [{ "element": "Ba", "occu": 1 }],
        "abc": [0.5806739200000001, 0.44730492, 0.6095147200000001],
        "properties": { "magmom": 0.01 },
        "label": "Ba",
        "xyz": [4.9606124156463745, 3.821260544526794, 10.142678239912302]
      },
      {
        "species": [{ "element": "Ba", "occu": 1 }],
        "abc": [0.05269508, 0.5806739200000001, 0.6095147200000001],
        "properties": { "magmom": 0.01 },
        "label": "Ba",
        "xyz": [0.45016636547320554, 4.9606124156463745, 10.142678239912302]
      },
      {
        "species": [{ "element": "Ba", "occu": 1 }],
        "abc": [0.55269508, 0.08067392, 0.39048528],
        "properties": { "magmom": 0.01 },
        "label": "Ba",
        "xyz": [4.7215932754732055, 0.6891855056463744, 6.497901400087699]
      },
      {
        "species": [{ "element": "Ba", "occu": 1 }],
        "abc": [0.55269508, 0.41932608, 0.89048528],
        "properties": { "magmom": 0.01 },
        "label": "Ba",
        "xyz": [4.7215932754732055, 3.5822414043536255, 14.818191220087698]
      },
      {
        "species": [{ "element": "Ba", "occu": 1 }],
        "abc": [0.5806739200000001, 0.05269508, 0.10951472],
        "properties": { "magmom": 0.01 },
        "label": "Ba",
        "xyz": [4.9606124156463745, 0.45016636547320554, 1.8223884199123006]
      },
      {
        "species": [{ "element": "Ba", "occu": 1 }],
        "abc": [0.75, 0.75, 0.28069908],
        "properties": { "magmom": -0.0 },
        "label": "Ba",
        "xyz": [6.407140365, 6.407140365, 4.670995395614731]
      },
      {
        "species": [{ "element": "Ba", "occu": 1 }],
        "abc": [0.75, 0.75, 0.78069908],
        "properties": { "magmom": -0.0 },
        "label": "Ba",
        "xyz": [6.407140365, 6.407140365, 12.99128521561473]
      },
      {
        "species": [{ "element": "Ba", "occu": 1 }],
        "abc": [0.44730492, 0.5806739200000001, 0.10951472],
        "properties": { "magmom": 0.01 },
        "label": "Ba",
        "xyz": [3.821260544526794, 4.9606124156463745, 1.8223884199123006]
      },
      {
        "species": [{ "element": "Ba", "occu": 1 }],
        "abc": [0.44730492, 0.91932608, 0.6095147200000001],
        "properties": { "magmom": 0.01 },
        "label": "Ba",
        "xyz": [3.821260544526794, 7.853668314353626, 10.142678239912302]
      },
      {
        "species": [{ "element": "Si", "occu": 1 }],
        "abc": [0.85126626, 0.35126626, 0.75],
        "properties": { "magmom": -0.007 },
        "label": "Si",
        "xyz": [7.272243221078114, 3.000816311078113, 12.480434729999999]
      },
      {
        "species": [{ "element": "Si", "occu": 1 }],
        "abc": [0.14873374, 0.85126626, 0.75],
        "properties": { "magmom": -0.007 },
        "label": "Si",
        "xyz": [1.2706105989218868, 7.272243221078114, 12.480434729999999]
      },
      {
        "species": [{ "element": "Si", "occu": 1 }],
        "abc": [0.75, 0.75, 0.98967659],
        "properties": { "magmom": -0.011 },
        "label": "Si",
        "xyz": [6.407140365, 6.407140365, 16.468792113738626]
      },
      {
        "species": [{ "element": "Si", "occu": 1 }],
        "abc": [0.35126626, 0.85126626, 0.25],
        "properties": { "magmom": -0.007 },
        "label": "Si",
        "xyz": [3.000816311078113, 7.272243221078114, 4.16014491]
      },
      {
        "species": [{ "element": "Si", "occu": 1 }],
        "abc": [0.25, 0.25, 0.01032341],
        "properties": { "magmom": -0.011 },
        "label": "Si",
        "xyz": [2.135713455, 2.135713455, 0.1717875262613724]
      },
      {
        "species": [{ "element": "Si", "occu": 1 }],
        "abc": [0.85126626, 0.14873374, 0.25],
        "properties": { "magmom": -0.007 },
        "label": "Si",
        "xyz": [7.272243221078114, 1.2706105989218868, 4.16014491]
      },
      {
        "species": [{ "element": "Si", "occu": 1 }],
        "abc": [0.35126626, 0.6487337400000001, 0.75],
        "properties": { "magmom": -0.007 },
        "label": "Si",
        "xyz": [3.000816311078113, 5.542037508921887, 12.480434729999999]
      },
      {
        "species": [{ "element": "Si", "occu": 1 }],
        "abc": [0.6487337400000001, 0.14873374, 0.75],
        "properties": { "magmom": -0.007 },
        "label": "Si",
        "xyz": [5.542037508921887, 1.2706105989218868, 12.480434729999999]
      },
      {
        "species": [{ "element": "Si", "occu": 1 }],
        "abc": [0.14873374, 0.6487337400000001, 0.25],
        "properties": { "magmom": -0.007 },
        "label": "Si",
        "xyz": [1.2706105989218868, 5.542037508921887, 4.16014491]
      },
      {
        "species": [{ "element": "Si", "occu": 1 }],
        "abc": [0.6487337400000001, 0.35126626, 0.25],
        "properties": { "magmom": -0.007 },
        "label": "Si",
        "xyz": [5.542037508921887, 3.000816311078113, 4.16014491]
      },
      {
        "species": [{ "element": "Si", "occu": 1 }],
        "abc": [0.25, 0.25, 0.51032341],
        "properties": { "magmom": -0.011 },
        "label": "Si",
        "xyz": [2.135713455, 2.135713455, 8.492077346261372]
      },
      {
        "species": [{ "element": "Si", "occu": 1 }],
        "abc": [0.75, 0.75, 0.48967659],
        "properties": { "magmom": -0.011 },
        "label": "Si",
        "xyz": [6.407140365, 6.407140365, 8.148502293738627]
      }
    ]
  },
  "task_ids": null,
  "uncorrected_energy_per_atom": null,
  "energy_per_atom": -3.534004393749999,
  "formation_energy_per_atom": -0.300150794999999,
  "energy_above_hull": 0.013945256250001,
  "is_stable": false,
  "equilibrium_reaction_energy_per_atom": null,
  "decomposes_to": null,
  "xas": null,
  "grain_boundaries": null,
  "band_gap": 0.0,
  "cbm": null,
  "vbm": null,
  "efermi": 3.09283332,
  "is_gap_direct": null,
  "is_metal": null,
  "es_source_calc_id": null,
  "bandstructure": null,
  "dos": null,
  "dos_energy_up": null,
  "dos_energy_down": null,
  "is_magnetic": null,
  "ordering": null,
  "total_magnetization": 0.547857399999999,
  "total_magnetization_normalized_vol": null,
  "total_magnetization_normalized_formula_units": null,
  "num_magnetic_sites": null,
  "num_unique_magnetic_sites": null,
  "types_of_magnetic_species": null,
  "bulk_modulus": null,
  "shear_modulus": null,
  "universal_anisotropy": null,
  "homogeneous_poisson": null,
  "e_total": null,
  "e_ionic": null,
  "e_electronic": null,
  "n": null,
  "e_ij_max": null,
  "weighted_surface_energy_EV_PER_ANG2": null,
  "weighted_surface_energy": null,
  "weighted_work_function": null,
  "surface_anisotropy": null,
  "shape_factor": null,
  "has_reconstructed": null,
  "possible_species": null,
  "has_props": null,
  "theoretical": null,
  "database_IDs": null,
  "fields_not_requested": [
    "builder_meta",
    "nsites",
    "elements",
    "nelements",
    "composition",
    "composition_reduced",
    "chemsys",
    "symmetry",
    "property_name",
    "deprecated",
    "deprecation_reasons",
    "last_updated",
    "origins",
    "warnings",
    "task_ids",
    "uncorrected_energy_per_atom",
    "equilibrium_reaction_energy_per_atom",
    "decomposes_to",
    "xas",
    "grain_boundaries",
    "cbm",
    "vbm",
    "is_gap_direct",
    "is_metal",
    "es_source_calc_id",
    "bandstructure",
    "dos",
    "dos_energy_up",
    "dos_energy_down",
    "is_magnetic",
    "ordering",
    "total_magnetization_normalized_vol",
    "total_magnetization_normalized_formula_units",
    "num_magnetic_sites",
    "num_unique_magnetic_sites",
    "types_of_magnetic_species",
    "bulk_modulus",
    "shear_modulus",
    "universal_anisotropy",
    "homogeneous_poisson",
    "e_total",
    "e_ionic",
    "e_electronic",
    "n",
    "e_ij_max",
    "weighted_surface_energy_EV_PER_ANG2",
    "weighted_surface_energy",
    "weighted_work_function",
    "surface_anisotropy",
    "shape_factor",
    "has_reconstructed",
    "possible_species",
    "has_props",
    "theoretical",
    "database_IDs"
  ]
}
