{
  "builder_meta": null,
  "nsites": null,
  "elements": null,
  "nelements": null,
  "composition": null,
  "composition_reduced": null,
  "formula_pretty": "Ba7Ge6",
  "formula_anonymous": "A6B7",
  "chemsys": null,
  "volume": 1860.8294246996154,
  "density": 4.98699613147894,
  "density_atomic": 35.785181244223374,
  "symmetry": null,
  "property_name": null,
  "material_id": "mp-1204965",
  "deprecated": null,
  "deprecation_reasons": null,
  "last_updated": null,
  "origins": null,
  "warnings": null,
  "structure": {
    "@module": "pymatgen.core.structure",
    "@class": "Structure",
    "charge": 0,
    "lattice": {
      "matrix": [
        [-8.20147236, 0.0, 0.0],
        [0.0, 0.0, -9.09507235],
        [0.0, -24.94644017, 0.0]
      ],
      "pbc": [true, true, true],
      "a": 8.20147236,
      "b": 9.09507235,
      "c": 24.94644017,
      "alpha": 90.0,
      "beta": 90.0,
      "gamma": 90.0,
      "volume": 1860.8294246996154
    },
    "properties": {},
    "sites": [
      {
        "species": [{ "element": "Ba", "occu": 1 }],
        "abc": [0.46367157000000003, 0.68242723, 0.33842698],
        "properties": { "magmom": 0.002 },
        "label": "Ba",
        "xyz": [-3.8027895654728057, -8.442548408483786, -6.206725030460091]
      },
      {
        "species": [{ "element": "Ba", "occu": 1 }],
        "abc": [0.96367157, 0.8175727700000001, 0.16157302],
        "properties": { "magmom": 0.002 },
        "label": "Ba",
        "xyz": [-7.903525745472805, -4.030671676516214, -7.435883494539911]
      },
      {
        "species": [{ "element": "Ba", "occu": 1 }],
        "abc": [0.53632843, 0.31757277, 0.83842698],
        "properties": { "magmom": 0.002 },
        "label": "Ba",
        "xyz": [-4.398682794527195, -20.915768493483785, -2.8883473195399096]
      },
      {
        "species": [{ "element": "Ba", "occu": 1 }],
        "abc": [0.03632843, 0.18242723, 0.6615730200000001],
        "properties": { "magmom": 0.002 },
        "label": "Ba",
        "xyz": [-0.29794661452719484, -16.503891761516215, -1.6591888554600907]
      },
      {
        "species": [{ "element": "Ba", "occu": 1 }],
        "abc": [0.53632843, 0.31757277, 0.6615730200000001],
        "properties": { "magmom": 0.002 },
        "label": "Ba",
        "xyz": [-4.398682794527195, -16.503891761516215, -2.8883473195399096]
      },
      {
        "species": [{ "element": "Ba", "occu": 1 }],
        "abc": [0.03632843, 0.18242723, 0.83842698],
        "properties": { "magmom": 0.002 },
        "label": "Ba",
        "xyz": [-0.29794661452719484, -20.915768493483785, -1.6591888554600907]
      },
      {
        "species": [{ "element": "Ba", "occu": 1 }],
        "abc": [0.46367157000000003, 0.68242723, 0.16157302],
        "properties": { "magmom": 0.002 },
        "label": "Ba",
        "xyz": [-3.8027895654728057, -4.030671676516214, -6.206725030460091]
      },
      {
        "species": [{ "element": "Ba", "occu": 1 }],
        "abc": [0.96367157, 0.8175727700000001, 0.33842698],
        "properties": { "magmom": 0.002 },
        "label": "Ba",
        "xyz": [-7.903525745472805, -8.442548408483786, -7.435883494539911]
      },
      {
        "species": [{ "element": "Ba", "occu": 1 }],
        "abc": [0.37671471, 0.81554046, 0.86040081],
        "properties": { "magmom": 0.001 },
        "label": "Ba",
        "xyz": [-3.0896152816704157, -21.463937328884537, -7.417399488052282]
      },
      {
        "species": [{ "element": "Ba", "occu": 1 }],
        "abc": [0.87671471, 0.68445954, 0.63959919],
        "properties": { "magmom": 0.001 },
        "label": "Ba",
        "xyz": [-7.190351461670416, -15.955722926115461, -6.225209036947719]
      },
      {
        "species": [{ "element": "Ba", "occu": 1 }],
        "abc": [0.62328529, 0.18445954, 0.36040081],
        "properties": { "magmom": 0.001 },
        "label": "Ba",
        "xyz": [-5.111857078329584, -8.990717243884538, -1.6776728619477193]
      },
      {
        "species": [{ "element": "Ba", "occu": 1 }],
        "abc": [0.12328529, 0.31554046, 0.13959919],
        "properties": { "magmom": 0.001 },
        "label": "Ba",
        "xyz": [-1.0111208983295845, -3.4825028411154624, -2.8698633130522815]
      },
      {
        "species": [{ "element": "Ba", "occu": 1 }],
        "abc": [0.62328529, 0.18445954, 0.13959919],
        "properties": { "magmom": 0.001 },
        "label": "Ba",
        "xyz": [-5.111857078329584, -3.4825028411154624, -1.6776728619477193]
      },
      {
        "species": [{ "element": "Ba", "occu": 1 }],
        "abc": [0.12328529, 0.31554046, 0.36040081],
        "properties": { "magmom": 0.001 },
        "label": "Ba",
        "xyz": [-1.0111208983295845, -8.990717243884538, -2.8698633130522815]
      },
      {
        "species": [{ "element": "Ba", "occu": 1 }],
        "abc": [0.37671471, 0.81554046, 0.63959919],
        "properties": { "magmom": 0.001 },
        "label": "Ba",
        "xyz": [-3.0896152816704157, -15.955722926115461, -7.417399488052282]
      },
      {
        "species": [{ "element": "Ba", "occu": 1 }],
        "abc": [0.87671471, 0.68445954, 0.86040081],
        "properties": { "magmom": 0.001 },
        "label": "Ba",
        "xyz": [-7.190351461670416, -21.463937328884537, -6.225209036947719]
      },
      {
        "species": [{ "element": "Ba", "occu": 1 }],
        "abc": [0.15538821, 0.67637208, 0.48084617],
        "properties": { "magmom": 0.004 },
        "label": "Ba",
        "xyz": [-1.2744121093848757, -11.995400210878648, -6.151653003119989]
      },
      {
        "species": [{ "element": "Ba", "occu": 1 }],
        "abc": [0.65538821, 0.8236279200000001, 0.01915383],
        "properties": { "magmom": 0.004 },
        "label": "Ba",
        "xyz": [-5.375148289384876, -0.4778198741213511, -7.4909555218800135]
      },
      {
        "species": [{ "element": "Ba", "occu": 1 }],
        "abc": [0.84461179, 0.32362792, 0.9808461700000001],
        "properties": { "magmom": 0.004 },
        "label": "Ba",
        "xyz": [-6.927060250615124, -24.46862029587865, -2.9434193468800123]
      },
      {
        "species": [{ "element": "Ba", "occu": 1 }],
        "abc": [0.34461179000000003, 0.17637208000000001, 0.51915383],
        "properties": { "magmom": 0.004 },
        "label": "Ba",
        "xyz": [-2.826324070615125, -12.951039959121351, -1.6041168281199882]
      },
      {
        "species": [{ "element": "Ba", "occu": 1 }],
        "abc": [0.84461179, 0.32362792, 0.51915383],
        "properties": { "magmom": 0.004 },
        "label": "Ba",
        "xyz": [-6.927060250615124, -12.951039959121351, -2.9434193468800123]
      },
      {
        "species": [{ "element": "Ba", "occu": 1 }],
        "abc": [0.34461179000000003, 0.17637208000000001, 0.9808461700000001],
        "properties": { "magmom": 0.004 },
        "label": "Ba",
        "xyz": [-2.826324070615125, -24.46862029587865, -1.6041168281199882]
      },
      {
        "species": [{ "element": "Ba", "occu": 1 }],
        "abc": [0.15538821, 0.67637208, 0.01915383],
        "properties": { "magmom": 0.004 },
        "label": "Ba",
        "xyz": [-1.2744121093848757, -0.4778198741213511, -6.151653003119989]
      },
      {
        "species": [{ "element": "Ba", "occu": 1 }],
        "abc": [0.65538821, 0.8236279200000001, 0.48084617],
        "properties": { "magmom": 0.004 },
        "label": "Ba",
        "xyz": [-5.375148289384876, -11.995400210878648, -7.4909555218800135]
      },
      {
        "species": [{ "element": "Ba", "occu": 1 }],
        "abc": [0.20997981000000002, 0.53200145, 0.75],
        "properties": { "magmom": -0.002 },
        "label": "Ba",
        "xyz": [-1.7221436078730519, -18.7098301275, -4.838591678054907]
      },
      {
        "species": [{ "element": "Ba", "occu": 1 }],
        "abc": [0.70997981, 0.96799855, 0.75],
        "properties": { "magmom": -0.002 },
        "label": "Ba",
        "xyz": [-5.822879787873052, -18.7098301275, -8.804016846945093]
      },
      {
        "species": [{ "element": "Ba", "occu": 1 }],
        "abc": [0.79002019, 0.46799855, 0.25],
        "properties": { "magmom": -0.002 },
        "label": "Ba",
        "xyz": [-6.479328752126949, -6.2366100425, -4.256480671945093]
      },
      {
        "species": [{ "element": "Ba", "occu": 1 }],
        "abc": [0.29002019, 0.03200145, 0.25],
        "properties": { "magmom": -0.002 },
        "label": "Ba",
        "xyz": [-2.3785925721269487, -6.2366100425, -0.2910555030549075]
      },
      {
        "species": [{ "element": "Ge", "occu": 1 }],
        "abc": [0.4944047, 0.53471317, 0.94943802],
        "properties": { "magmom": 0.004 },
        "label": "Ge",
        "xyz": [-4.054846481704092, -23.68509876105326, -4.863254967647849]
      },
      {
        "species": [{ "element": "Ge", "occu": 1 }],
        "abc": [0.994404699999999, 0.96528683, 0.55056198],
        "properties": { "magmom": 0.004 },
        "label": "Ge",
        "xyz": [-8.155582661704084, -13.734561493946735, -8.77935355735215]
      },
      {
        "species": [{ "element": "Ge", "occu": 1 }],
        "abc": [0.5055953, 0.46528683, 0.44943802],
        "properties": { "magmom": 0.004 },
        "label": "Ge",
        "xyz": [-4.146625878295908, -11.211878676053264, -4.23181738235215]
      },
      {
        "species": [{ "element": "Ge", "occu": 1 }],
        "abc": [0.0055953, 0.03471317, 0.05056198],
        "properties": { "magmom": 0.005 },
        "label": "Ge",
        "xyz": [-0.045889698295908006, -1.2613414089467365, -0.3157187926478495]
      },
      {
        "species": [{ "element": "Ge", "occu": 1 }],
        "abc": [0.5055953, 0.46528683, 0.05056198],
        "properties": { "magmom": 0.004 },
        "label": "Ge",
        "xyz": [-4.146625878295908, -1.2613414089467365, -4.23181738235215]
      },
      {
        "species": [{ "element": "Ge", "occu": 1 }],
        "abc": [0.0055953, 0.03471317, 0.44943802],
        "properties": { "magmom": 0.005 },
        "label": "Ge",
        "xyz": [-0.045889698295908006, -11.211878676053264, -0.3157187926478495]
      },
      {
        "species": [{ "element": "Ge", "occu": 1 }],
        "abc": [0.4944047, 0.53471317, 0.55056198],
        "properties": { "magmom": 0.004 },
        "label": "Ge",
        "xyz": [-4.054846481704092, -13.734561493946735, -4.863254967647849]
      },
      {
        "species": [{ "element": "Ge", "occu": 1 }],
        "abc": [0.994404699999999, 0.96528683, 0.94943802],
        "properties": { "magmom": 0.004 },
        "label": "Ge",
        "xyz": [-8.155582661704084, -23.68509876105326, -8.77935355735215]
      },
      {
        "species": [{ "element": "Ge", "occu": 1 }],
        "abc": [0.28893791, 0.97487304, 0.404779599999999],
        "properties": { "magmom": 0.002 },
        "label": "Ge",
        "xyz": [-2.3697162826211677, -10.097810073436507, -8.866540830864444]
      },
      {
        "species": [{ "element": "Ge", "occu": 1 }],
        "abc": [0.78893791, 0.52512696, 0.0952204],
        "properties": { "magmom": 0.002 },
        "label": "Ge",
        "xyz": [-6.470452462621168, -2.375410011563468, -4.776067694135556]
      },
      {
        "species": [{ "element": "Ge", "occu": 1 }],
        "abc": [0.71106209, 0.02512696, 0.904779599999999],
        "properties": { "magmom": 0.002 },
        "label": "Ge",
        "xyz": [-5.831756077378833, -22.571030158436507, -0.22853151913555603]
      },
      {
        "species": [{ "element": "Ge", "occu": 1 }],
        "abc": [0.21106209, 0.47487304, 0.5952204],
        "properties": { "magmom": 0.002 },
        "label": "Ge",
        "xyz": [-1.7310198973788324, -14.848630096563467, -4.319004655864444]
      },
      {
        "species": [{ "element": "Ge", "occu": 1 }],
        "abc": [0.71106209, 0.02512696, 0.5952204],
        "properties": { "magmom": 0.002 },
        "label": "Ge",
        "xyz": [-5.831756077378833, -14.848630096563467, -0.22853151913555603]
      },
      {
        "species": [{ "element": "Ge", "occu": 1 }],
        "abc": [0.21106209, 0.47487304, 0.904779599999999],
        "properties": { "magmom": 0.002 },
        "label": "Ge",
        "xyz": [-1.7310198973788324, -22.571030158436507, -4.319004655864444]
      },
      {
        "species": [{ "element": "Ge", "occu": 1 }],
        "abc": [0.28893791, 0.97487304, 0.0952204],
        "properties": { "magmom": 0.002 },
        "label": "Ge",
        "xyz": [-2.3697162826211677, -2.375410011563468, -8.866540830864444]
      },
      {
        "species": [{ "element": "Ge", "occu": 1 }],
        "abc": [0.78893791, 0.52512696, 0.404779599999999],
        "properties": { "magmom": 0.002 },
        "label": "Ge",
        "xyz": [-6.470452462621168, -10.097810073436507, -4.776067694135556]
      },
      {
        "species": [{ "element": "Ge", "occu": 1 }],
        "abc": [0.33015741, 0.08402129, 0.75],
        "properties": { "magmom": -0.003 },
        "label": "Ge",
        "xyz": [-2.7077768725641875, -18.7098301275, -0.7641797114903315]
      },
      {
        "species": [{ "element": "Ge", "occu": 1 }],
        "abc": [0.83015741, 0.41597871000000003, 0.75],
        "properties": { "magmom": -0.002 },
        "label": "Ge",
        "xyz": [-6.808513052564188, -18.7098301275, -3.783356463509669]
      },
      {
        "species": [{ "element": "Ge", "occu": 1 }],
        "abc": [0.66984259, 0.91597871, 0.25],
        "properties": { "magmom": -0.003 },
        "label": "Ge",
        "xyz": [-5.493695487435812, -6.2366100425, -8.330892638509669]
      },
      {
        "species": [{ "element": "Ge", "occu": 1 }],
        "abc": [0.16984259000000002, 0.58402129, 0.25],
        "properties": { "magmom": -0.002 },
        "label": "Ge",
        "xyz": [-1.3929593074358126, -6.2366100425, -5.311715886490332]
      },
      {
        "species": [{ "element": "Ge", "occu": 1 }],
        "abc": [0.11109569, 0.88723869, 0.75],
        "properties": { "magmom": -0.001 },
        "label": "Ge",
        "xyz": [-0.9111482308501284, -18.7098301275, -8.069500077269222]
      },
      {
        "species": [{ "element": "Ge", "occu": 1 }],
        "abc": [0.61109569, 0.61276131, 0.75],
        "properties": { "magmom": -0.001 },
        "label": "Ge",
        "xyz": [-5.011884410850128, -18.7098301275, -5.573108447730779]
      },
      {
        "species": [{ "element": "Ge", "occu": 1 }],
        "abc": [0.88890431, 0.11276131, 0.25],
        "properties": { "magmom": -0.002 },
        "label": "Ge",
        "xyz": [-7.290324129149872, -6.2366100425, -1.0255722727307786]
      },
      {
        "species": [{ "element": "Ge", "occu": 1 }],
        "abc": [0.38890431000000003, 0.38723869, 0.25],
        "properties": { "magmom": -0.001 },
        "label": "Ge",
        "xyz": [-3.189587949149872, -6.2366100425, -3.5219639022692215]
      }
    ]
  },
  "task_ids": null,
  "uncorrected_energy_per_atom": null,
  "energy_per_atom": -3.726917736538461,
  "formation_energy_per_atom": -0.5599183742307691,
  "energy_above_hull": 0.012294160384614,
  "is_stable": false,
  "equilibrium_reaction_energy_per_atom": null,
  "decomposes_to": null,
  "xas": null,
  "grain_boundaries": null,
  "band_gap": 0.0,
  "cbm": null,
  "vbm": null,
  "efermi": 2.98723035,
  "is_gap_direct": null,
  "is_metal": null,
  "es_source_calc_id": null,
  "bandstructure": null,
  "dos": null,
  "dos_energy_up": null,
  "dos_energy_down": null,
  "is_magnetic": null,
  "ordering": null,
  "total_magnetization": 0.2665695,
  "total_magnetization_normalized_vol": null,
  "total_magnetization_normalized_formula_units": null,
  "num_magnetic_sites": null,
  "num_unique_magnetic_sites": null,
  "types_of_magnetic_species": null,
  "bulk_modulus": null,
  "shear_modulus": null,
  "universal_anisotropy": null,
  "homogeneous_poisson": null,
  "e_total": null,
  "e_ionic": null,
  "e_electronic": null,
  "n": null,
  "e_ij_max": null,
  "weighted_surface_energy_EV_PER_ANG2": null,
  "weighted_surface_energy": null,
  "weighted_work_function": null,
  "surface_anisotropy": null,
  "shape_factor": null,
  "has_reconstructed": null,
  "possible_species": null,
  "has_props": null,
  "theoretical": null,
  "database_IDs": null,
  "fields_not_requested": [
    "builder_meta",
    "nsites",
    "elements",
    "nelements",
    "composition",
    "composition_reduced",
    "chemsys",
    "symmetry",
    "property_name",
    "deprecated",
    "deprecation_reasons",
    "last_updated",
    "origins",
    "warnings",
    "task_ids",
    "uncorrected_energy_per_atom",
    "equilibrium_reaction_energy_per_atom",
    "decomposes_to",
    "xas",
    "grain_boundaries",
    "cbm",
    "vbm",
    "is_gap_direct",
    "is_metal",
    "es_source_calc_id",
    "bandstructure",
    "dos",
    "dos_energy_up",
    "dos_energy_down",
    "is_magnetic",
    "ordering",
    "total_magnetization_normalized_vol",
    "total_magnetization_normalized_formula_units",
    "num_magnetic_sites",
    "num_unique_magnetic_sites",
    "types_of_magnetic_species",
    "bulk_modulus",
    "shear_modulus",
    "universal_anisotropy",
    "homogeneous_poisson",
    "e_total",
    "e_ionic",
    "e_electronic",
    "n",
    "e_ij_max",
    "weighted_surface_energy_EV_PER_ANG2",
    "weighted_surface_energy",
    "weighted_work_function",
    "surface_anisotropy",
    "shape_factor",
    "has_reconstructed",
    "possible_species",
    "has_props",
    "theoretical",
    "database_IDs"
  ]
}
