{"builder_meta": null, "nsites": null, "elements": null, "nelements": null, "composition": null, "composition_reduced": null, "formula_pretty": "Ba8Ga7", "formula_anonymous": "A7B8", "chemsys": null, "volume": 2230.366606035365, "density": 4.725212684670031, "density_atomic": 37.17277676725608, "symmetry": null, "property_name": null, "material_id": "mp-30429", "deprecated": null, "deprecation_reasons": null, "last_updated": null, "origins": null, "warnings": null, "structure": {"@module": "pymatgen.core.structure", "@class": "Structure", "charge": 0, "lattice": {"matrix": [[13.06548146, -0.0, 0.0], [0.0, 13.06548146, -0.0], [0.0, 0.0, 13.06548146]], "pbc": [true, true, true], "a": 13.06548146, "b": 13.06548146, "c": 13.06548146, "alpha": 90.0, "beta": 90.0, "gamma": 90.0, "volume": 2230.366606035365}, "properties": {}, "sites": [{"species": [{"element": "Ba", "occu": 1}], "abc": [0.81259735, 0.81259735, 0.81259735], "properties": {"magmom": 0.067}, "label": "Ba", "xyz": [10.616975610870131, 10.616975610870131, 10.616975610870131]}, {"species": [{"element": "Ba", "occu": 1}], "abc": [0.68740265, 0.18740265, 0.31259735], "properties": {"magmom": 0.067}, "label": "Ba", "xyz": [8.98124657912987, 2.448505849129869, 4.084234880870131]}, {"species": [{"element": "Ba", "occu": 1}], "abc": [0.31259735, 0.68740265, 0.18740265], "properties": {"magmom": 0.067}, "label": "Ba", "xyz": [4.084234880870131, 8.98124657912987, 2.448505849129869]}, {"species": [{"element": "Ba", "occu": 1}], "abc": [0.18740265, 0.31259735, 0.68740265], "properties": {"magmom": 0.067}, "label": "Ba", "xyz": [2.448505849129869, 4.084234880870131, 8.98124657912987]}, {"species": [{"element": "Ba", "occu": 1}], "abc": [0.1878523, 0.1878523, 0.1878523], "properties": {"magmom": 0.069}, "label": "Ba", "xyz": [2.454380742868358, 2.454380742868358, 2.454380742868358]}, {"species": [{"element": "Ba", "occu": 1}], "abc": [0.3121477, 0.812147699999999, 0.6878523], "properties": {"magmom": 0.069}, "label": "Ba", "xyz": [4.078359987131642, 10.61110071713163, 8.987121472868358]}, {"species": [{"element": "Ba", "occu": 1}], "abc": [0.6878523, 0.3121477, 0.812147699999999], "properties": {"magmom": 0.069}, "label": "Ba", "xyz": [8.987121472868358, 4.078359987131642, 10.61110071713163]}, {"species": [{"element": "Ba", "occu": 1}], "abc": [0.812147699999999, 0.6878523, 0.3121477], "properties": {"magmom": 0.069}, "label": "Ba", "xyz": [10.61110071713163, 8.987121472868358, 4.078359987131642]}, {"species": [{"element": "Ba", "occu": 1}], "abc": [0.79534837, 0.55646416, 0.0013742], "properties": {"magmom": 0.082}, "label": "Ba", "xyz": [10.391609382476222, 7.270472165634474, 0.017954584622332]}, {"species": [{"element": "Ba", "occu": 1}], "abc": [0.0013742, 0.79534837, 0.55646416], "properties": {"magmom": 0.082}, "label": "Ba", "xyz": [0.017954584622332, 10.391609382476222, 7.270472165634474]}, {"species": [{"element": "Ba", "occu": 1}], "abc": [0.55646416, 0.0013742, 0.79534837], "properties": {"magmom": 0.082}, "label": "Ba", "xyz": [7.270472165634474, 0.017954584622332, 10.391609382476222]}, {"species": [{"element": "Ba", "occu": 1}], "abc": [0.94353584, 0.9986258, 0.29534837], "properties": {"magmom": 0.082}, "label": "Ba", "xyz": [12.327750024365528, 13.047526875377669, 3.858868652476221]}, {"species": [{"element": "Ba", "occu": 1}], "abc": [0.5013742, 0.70465163, 0.44353584], "properties": {"magmom": 0.082}, "label": "Ba", "xyz": [6.550695314622332, 9.20661280752378, 5.795009294365527]}, {"species": [{"element": "Ba", "occu": 1}], "abc": [0.44353584, 0.5013742, 0.70465163], "properties": {"magmom": 0.082}, "label": "Ba", "xyz": [5.795009294365527, 6.550695314622332, 9.20661280752378]}, {"species": [{"element": "Ba", "occu": 1}], "abc": [0.49862579999999906, 0.20465163, 0.05646416], "properties": {"magmom": 0.082}, "label": "Ba", "xyz": [6.5147861453776565, 2.67387207752378, 0.7377314356344736]}, {"species": [{"element": "Ba", "occu": 1}], "abc": [0.9986258, 0.29534837, 0.94353584], "properties": {"magmom": 0.082}, "label": "Ba", "xyz": [13.047526875377669, 3.858868652476221, 12.327750024365528]}, {"species": [{"element": "Ba", "occu": 1}], "abc": [0.05646416, 0.49862579999999906, 0.20465163], "properties": {"magmom": 0.082}, "label": "Ba", "xyz": [0.7377314356344736, 6.5147861453776565, 2.67387207752378]}, {"species": [{"element": "Ba", "occu": 1}], "abc": [0.29534837, 0.94353584, 0.9986258], "properties": {"magmom": 0.082}, "label": "Ba", "xyz": [3.858868652476221, 12.327750024365528, 13.047526875377669]}, {"species": [{"element": "Ba", "occu": 1}], "abc": [0.20465163, 0.05646416, 0.49862579999999906], "properties": {"magmom": 0.082}, "label": "Ba", "xyz": [2.67387207752378, 0.7377314356344736, 6.5147861453776565]}, {"species": [{"element": "Ba", "occu": 1}], "abc": [0.70465163, 0.44353584, 0.5013742], "properties": {"magmom": 0.082}, "label": "Ba", "xyz": [9.20661280752378, 5.795009294365527, 6.550695314622332]}, {"species": [{"element": "Ba", "occu": 1}], "abc": [0.52022592, 0.70512882, 0.93852608], "properties": {"magmom": 0.066}, "label": "Ba", "xyz": [6.797002112771444, 9.212847524621678, 12.262295097966478]}, {"species": [{"element": "Ba", "occu": 1}], "abc": [0.93852608, 0.52022592, 0.70512882], "properties": {"magmom": 0.066}, "label": "Ba", "xyz": [12.262295097966478, 6.797002112771444, 9.212847524621678]}, {"species": [{"element": "Ba", "occu": 1}], "abc": [0.70512882, 0.93852608, 0.52022592], "properties": {"magmom": 0.066}, "label": "Ba", "xyz": [9.212847524621678, 12.262295097966478, 6.797002112771444]}, {"species": [{"element": "Ba", "occu": 1}], "abc": [0.79487118, 0.06147392, 0.02022592], "properties": {"magmom": 0.066}, "label": "Ba", "xyz": [10.385374665378324, 0.8031863620335232, 0.26426138277144323]}, {"species": [{"element": "Ba", "occu": 1}], "abc": [0.43852608, 0.97977408, 0.29487118], "properties": {"magmom": 0.066}, "label": "Ba", "xyz": [5.729554367966477, 12.801220077228557, 3.852633935378323]}, {"species": [{"element": "Ba", "occu": 1}], "abc": [0.29487118, 0.43852608, 0.97977408], "properties": {"magmom": 0.066}, "label": "Ba", "xyz": [3.852633935378323, 5.729554367966477, 12.801220077228557]}, {"species": [{"element": "Ba", "occu": 1}], "abc": [0.56147392, 0.47977408, 0.20512882000000002], "properties": {"magmom": 0.066}, "label": "Ba", "xyz": [7.335927092033523, 6.268479347228557, 2.6801067946216777]}, {"species": [{"element": "Ba", "occu": 1}], "abc": [0.06147392, 0.02022592, 0.79487118], "properties": {"magmom": 0.066}, "label": "Ba", "xyz": [0.8031863620335232, 0.26426138277144323, 10.385374665378324]}, {"species": [{"element": "Ba", "occu": 1}], "abc": [0.20512882000000002, 0.56147392, 0.47977408], "properties": {"magmom": 0.066}, "label": "Ba", "xyz": [2.6801067946216777, 7.335927092033523, 6.268479347228557]}, {"species": [{"element": "Ba", "occu": 1}], "abc": [0.02022592, 0.79487118, 0.06147392], "properties": {"magmom": 0.066}, "label": "Ba", "xyz": [0.26426138277144323, 10.385374665378324, 0.8031863620335232]}, {"species": [{"element": "Ba", "occu": 1}], "abc": [0.47977408, 0.20512882000000002, 0.56147392], "properties": {"magmom": 0.066}, "label": "Ba", "xyz": [6.268479347228557, 2.6801067946216777, 7.335927092033523]}, {"species": [{"element": "Ba", "occu": 1}], "abc": [0.97977408, 0.29487118, 0.43852608], "properties": {"magmom": 0.066}, "label": "Ba", "xyz": [12.801220077228557, 3.852633935378323, 5.729554367966477]}, {"species": [{"element": "Ga", "occu": 1}], "abc": [0.43097209000000003, 0.43097209000000003, 0.43097209000000003], "properties": {"magmom": 0.004}, "label": "Ga", "xyz": [5.630857851672452, 5.630857851672452, 5.630857851672452]}, {"species": [{"element": "Ga", "occu": 1}], "abc": [0.06902791, 0.56902791, 0.93097209], "properties": {"magmom": 0.004}, "label": "Ga", "xyz": [0.9018828783275487, 7.4346236083275485, 12.163598581672453]}, {"species": [{"element": "Ga", "occu": 1}], "abc": [0.93097209, 0.06902791, 0.56902791], "properties": {"magmom": 0.004}, "label": "Ga", "xyz": [12.163598581672453, 0.9018828783275487, 7.4346236083275485]}, {"species": [{"element": "Ga", "occu": 1}], "abc": [0.56902791, 0.93097209, 0.06902791], "properties": {"magmom": 0.004}, "label": "Ga", "xyz": [7.4346236083275485, 12.163598581672453, 0.9018828783275487]}, {"species": [{"element": "Ga", "occu": 1}], "abc": [0.76169435, 0.19267226, 0.57631856], "properties": {"magmom": 0.016}, "label": "Ga", "xyz": [9.95190340811175, 2.5173558408863, 7.529879460733898]}, {"species": [{"element": "Ga", "occu": 1}], "abc": [0.57631856, 0.76169435, 0.19267226], "properties": {"magmom": 0.016}, "label": "Ga", "xyz": [7.529879460733898, 9.95190340811175, 2.5173558408863]}, {"species": [{"element": "Ga", "occu": 1}], "abc": [0.19267226, 0.57631856, 0.76169435], "properties": {"magmom": 0.016}, "label": "Ga", "xyz": [2.5173558408863, 7.529879460733898, 9.95190340811175]}, {"species": [{"element": "Ga", "occu": 1}], "abc": [0.30732774, 0.42368144, 0.26169435], "properties": {"magmom": 0.016}, "label": "Ga", "xyz": [4.015384889113701, 5.535601999266103, 3.4191626781117517]}, {"species": [{"element": "Ga", "occu": 1}], "abc": [0.07631856000000001, 0.73830565, 0.8073277400000001], "properties": {"magmom": 0.016}, "label": "Ga", "xyz": [0.9971387307338978, 9.646318781888251, 10.548125619113701]}, {"species": [{"element": "Ga", "occu": 1}], "abc": [0.8073277400000001, 0.07631856000000001, 0.73830565], "properties": {"magmom": 0.016}, "label": "Ga", "xyz": [10.548125619113701, 0.9971387307338978, 9.646318781888251]}, {"species": [{"element": "Ga", "occu": 1}], "abc": [0.92368144, 0.23830565, 0.69267226], "properties": {"magmom": 0.016}, "label": "Ga", "xyz": [12.068342729266103, 3.113578051888249, 9.0500965708863]}, {"species": [{"element": "Ga", "occu": 1}], "abc": [0.42368144, 0.26169435, 0.30732774], "properties": {"magmom": 0.016}, "label": "Ga", "xyz": [5.535601999266103, 3.4191626781117517, 4.015384889113701]}, {"species": [{"element": "Ga", "occu": 1}], "abc": [0.69267226, 0.92368144, 0.23830565], "properties": {"magmom": 0.016}, "label": "Ga", "xyz": [9.0500965708863, 12.068342729266103, 3.113578051888249]}, {"species": [{"element": "Ga", "occu": 1}], "abc": [0.26169435, 0.30732774, 0.42368144], "properties": {"magmom": 0.016}, "label": "Ga", "xyz": [3.4191626781117517, 4.015384889113701, 5.535601999266103]}, {"species": [{"element": "Ga", "occu": 1}], "abc": [0.23830565, 0.69267226, 0.92368144], "properties": {"magmom": 0.016}, "label": "Ga", "xyz": [3.113578051888249, 9.0500965708863, 12.068342729266103]}, {"species": [{"element": "Ga", "occu": 1}], "abc": [0.73830565, 0.8073277400000001, 0.07631856000000001], "properties": {"magmom": 0.016}, "label": "Ga", "xyz": [9.646318781888251, 10.548125619113701, 0.9971387307338978]}, {"species": [{"element": "Ga", "occu": 1}], "abc": [0.743499599999999, 0.6875896300000001, 0.5821397500000001], "properties": {"magmom": 0.084}, "label": "Ga", "xyz": [9.714180239317404, 8.983689562853261, 7.605936110754036]}, {"species": [{"element": "Ga", "occu": 1}], "abc": [0.5821397500000001, 0.743499599999999, 0.6875896300000001], "properties": {"magmom": 0.084}, "label": "Ga", "xyz": [7.605936110754036, 9.714180239317404, 8.983689562853261]}, {"species": [{"element": "Ga", "occu": 1}], "abc": [0.6875896300000001, 0.5821397500000001, 0.743499599999999], "properties": {"magmom": 0.084}, "label": "Ga", "xyz": [8.983689562853261, 7.605936110754036, 9.714180239317404]}, {"species": [{"element": "Ga", "occu": 1}], "abc": [0.81241037, 0.41786025, 0.243499599999999], "properties": {"magmom": 0.084}, "label": "Ga", "xyz": [10.614532627146742, 5.459545349245965, 3.1814395093174035]}, {"species": [{"element": "Ga", "occu": 1}], "abc": [0.08213975, 0.7565004, 0.31241037], "properties": {"magmom": 0.084}, "label": "Ga", "xyz": [1.073195380754035, 9.884041950682585, 4.08179189714674]}, {"species": [{"element": "Ga", "occu": 1}], "abc": [0.31241037, 0.08213975, 0.7565004], "properties": {"magmom": 0.084}, "label": "Ga", "xyz": [4.08179189714674, 1.073195380754035, 9.884041950682585]}, {"species": [{"element": "Ga", "occu": 1}], "abc": [0.91786025, 0.256500399999999, 0.18758963], "properties": {"magmom": 0.084}, "label": "Ga", "xyz": [11.992286079245966, 3.351301220682571, 2.45094883285326]}, {"species": [{"element": "Ga", "occu": 1}], "abc": [0.41786025, 0.243499599999999, 0.81241037], "properties": {"magmom": 0.084}, "label": "Ga", "xyz": [5.459545349245965, 3.1814395093174035, 10.614532627146742]}, {"species": [{"element": "Ga", "occu": 1}], "abc": [0.18758963, 0.91786025, 0.256500399999999], "properties": {"magmom": 0.084}, "label": "Ga", "xyz": [2.45094883285326, 11.992286079245966, 3.351301220682571]}, {"species": [{"element": "Ga", "occu": 1}], "abc": [0.243499599999999, 0.81241037, 0.41786025], "properties": {"magmom": 0.084}, "label": "Ga", "xyz": [3.1814395093174035, 10.614532627146742, 5.459545349245965]}, {"species": [{"element": "Ga", "occu": 1}], "abc": [0.256500399999999, 0.18758963, 0.91786025], "properties": {"magmom": 0.084}, "label": "Ga", "xyz": [3.351301220682571, 2.45094883285326, 11.992286079245966]}, {"species": [{"element": "Ga", "occu": 1}], "abc": [0.7565004, 0.31241037, 0.08213975], "properties": {"magmom": 0.084}, "label": "Ga", "xyz": [9.884041950682585, 4.08179189714674, 1.073195380754035]}]}, "task_ids": null, "uncorrected_energy_per_atom": null, "energy_per_atom": -2.807704989833333, "formation_energy_per_atom": -0.371140211333333, "energy_above_hull": 0.0, "is_stable": true, "equilibrium_reaction_energy_per_atom": null, "decomposes_to": null, "xas": null, "grain_boundaries": null, "band_gap": 0.0, "cbm": null, "vbm": null, "efermi": 2.35250448, "is_gap_direct": null, "is_metal": null, "es_source_calc_id": null, "bandstructure": null, "dos": null, "dos_energy_up": null, "dos_energy_down": null, "is_magnetic": null, "ordering": null, "total_magnetization": 11.5565117, "total_magnetization_normalized_vol": null, "total_magnetization_normalized_formula_units": null, "num_magnetic_sites": null, "num_unique_magnetic_sites": null, "types_of_magnetic_species": null, "bulk_modulus": null, "shear_modulus": null, "universal_anisotropy": null, "homogeneous_poisson": null, "e_total": null, "e_ionic": null, "e_electronic": null, "n": null, "e_ij_max": null, "weighted_surface_energy_EV_PER_ANG2": null, "weighted_surface_energy": null, "weighted_work_function": null, "surface_anisotropy": null, "shape_factor": null, "has_reconstructed": null, "possible_species": null, "has_props": null, "theoretical": null, "database_IDs": null, "fields_not_requested": ["builder_meta", "nsites", "elements", "nelements", "composition", "composition_reduced", "chemsys", "symmetry", "property_name", "deprecated", "deprecation_reasons", "last_updated", "origins", "warnings", "task_ids", "uncorrected_energy_per_atom", "equilibrium_reaction_energy_per_atom", "decomposes_to", "xas", "grain_boundaries", "cbm", "vbm", "is_gap_direct", "is_metal", "es_source_calc_id", "bandstructure", "dos", "dos_energy_up", "dos_energy_down", "is_magnetic", "ordering", "total_magnetization_normalized_vol", "total_magnetization_normalized_formula_units", "num_magnetic_sites", "num_unique_magnetic_sites", "types_of_magnetic_species", "bulk_modulus", "shear_modulus", "universal_anisotropy", "homogeneous_poisson", "e_total", "e_ionic", "e_electronic", "n", "e_ij_max", "weighted_surface_energy_EV_PER_ANG2", "weighted_surface_energy", "weighted_work_function", "surface_anisotropy", "shape_factor", "has_reconstructed", "possible_species", "has_props", "theoretical", "database_IDs"]}