{
  "builder_meta": null,
  "nsites": null,
  "elements": null,
  "nelements": null,
  "composition": null,
  "composition_reduced": null,
  "formula_pretty": "BaAc3",
  "formula_anonymous": "AB3",
  "chemsys": null,
  "volume": 387.48248730159133,
  "density": 7.013808351529065,
  "density_atomic": 48.43531091269892,
  "symmetry": null,
  "property_name": null,
  "material_id": "mp-1183364",
  "deprecated": null,
  "deprecation_reasons": null,
  "last_updated": null,
  "origins": null,
  "warnings": null,
  "structure": {
    "@module": "pymatgen.core.structure",
    "@class": "Structure",
    "charge": 0,
    "lattice": {
      "matrix": [
        [4.120202, -7.136399, 0.0],
        [4.120202, 7.136399, 0.0],
        [0.0, 0.0, 6.589075]
      ],
      "pbc": [true, true, true],
      "a": 8.240403825541865,
      "b": 8.240403825541865,
      "c": 6.589075,
      "alpha": 90.0,
      "beta": 90.0,
      "gamma": 119.99999859933354,
      "volume": 387.48248730159133
    },
    "properties": {},
    "sites": [
      {
        "species": [{ "element": "Ba", "occu": 1 }],
        "abc": [0.333333, 0.666667, 0.75],
        "properties": { "magmom": 0.0 },
        "label": "Ba",
        "xyz": [4.120202, 2.378804424266, 4.94180625]
      },
      {
        "species": [{ "element": "Ba", "occu": 1 }],
        "abc": [0.666667, 0.333333, 0.25],
        "properties": { "magmom": 0.0 },
        "label": "Ba",
        "xyz": [4.120202, -2.378804424266, 1.64726875]
      },
      {
        "species": [{ "element": "Ac", "occu": 1 }],
        "abc": [0.161999, 0.323997, 0.25],
        "properties": { "magmom": -0.0 },
        "label": "Ac",
        "xyz": [2.002401691192, 1.1560823652019998, 1.64726875]
      },
      {
        "species": [{ "element": "Ac", "occu": 1 }],
        "abc": [0.676003, 0.838001, 0.25],
        "properties": { "magmom": 0.0 },
        "label": "Ac",
        "xyz": [6.238002308807999, 1.1560823652019998, 1.64726875]
      },
      {
        "species": [{ "element": "Ac", "occu": 1 }],
        "abc": [0.161999, 0.838001, 0.25],
        "properties": { "magmom": -0.0 },
        "label": "Ac",
        "xyz": [4.120202, 4.824219996798, 1.64726875]
      },
      {
        "species": [{ "element": "Ac", "occu": 1 }],
        "abc": [0.838001, 0.676003, 0.75],
        "properties": { "magmom": -0.0 },
        "label": "Ac",
        "xyz": [6.238002308807999, -1.1560823652019998, 4.94180625]
      },
      {
        "species": [{ "element": "Ac", "occu": 1 }],
        "abc": [0.323997, 0.161999, 0.75],
        "properties": { "magmom": -0.0 },
        "label": "Ac",
        "xyz": [2.002401691192, -1.1560823652019998, 4.94180625]
      },
      {
        "species": [{ "element": "Ac", "occu": 1 }],
        "abc": [0.838001, 0.161999, 0.75],
        "properties": { "magmom": -0.0 },
        "label": "Ac",
        "xyz": [4.120202, -4.824219996798, 4.94180625]
      }
    ]
  },
  "task_ids": null,
  "uncorrected_energy_per_atom": null,
  "energy_per_atom": -3.46618578875,
  "formation_energy_per_atom": 0.104439201875,
  "energy_above_hull": 0.104439201875,
  "is_stable": false,
  "equilibrium_reaction_energy_per_atom": null,
  "decomposes_to": null,
  "xas": null,
  "grain_boundaries": null,
  "band_gap": 0.0,
  "cbm": null,
  "vbm": null,
  "efermi": 4.82541018,
  "is_gap_direct": null,
  "is_metal": null,
  "es_source_calc_id": null,
  "bandstructure": null,
  "dos": null,
  "dos_energy_up": null,
  "dos_energy_down": null,
  "is_magnetic": null,
  "ordering": null,
  "total_magnetization": 0.0013664,
  "total_magnetization_normalized_vol": null,
  "total_magnetization_normalized_formula_units": null,
  "num_magnetic_sites": null,
  "num_unique_magnetic_sites": null,
  "types_of_magnetic_species": null,
  "bulk_modulus": null,
  "shear_modulus": null,
  "universal_anisotropy": null,
  "homogeneous_poisson": null,
  "e_total": null,
  "e_ionic": null,
  "e_electronic": null,
  "n": null,
  "e_ij_max": null,
  "weighted_surface_energy_EV_PER_ANG2": null,
  "weighted_surface_energy": null,
  "weighted_work_function": null,
  "surface_anisotropy": null,
  "shape_factor": null,
  "has_reconstructed": null,
  "possible_species": null,
  "has_props": null,
  "theoretical": null,
  "database_IDs": null,
  "fields_not_requested": [
    "builder_meta",
    "nsites",
    "elements",
    "nelements",
    "composition",
    "composition_reduced",
    "chemsys",
    "symmetry",
    "property_name",
    "deprecated",
    "deprecation_reasons",
    "last_updated",
    "origins",
    "warnings",
    "task_ids",
    "uncorrected_energy_per_atom",
    "equilibrium_reaction_energy_per_atom",
    "decomposes_to",
    "xas",
    "grain_boundaries",
    "cbm",
    "vbm",
    "is_gap_direct",
    "is_metal",
    "es_source_calc_id",
    "bandstructure",
    "dos",
    "dos_energy_up",
    "dos_energy_down",
    "is_magnetic",
    "ordering",
    "total_magnetization_normalized_vol",
    "total_magnetization_normalized_formula_units",
    "num_magnetic_sites",
    "num_unique_magnetic_sites",
    "types_of_magnetic_species",
    "bulk_modulus",
    "shear_modulus",
    "universal_anisotropy",
    "homogeneous_poisson",
    "e_total",
    "e_ionic",
    "e_electronic",
    "n",
    "e_ij_max",
    "weighted_surface_energy_EV_PER_ANG2",
    "weighted_surface_energy",
    "weighted_work_function",
    "surface_anisotropy",
    "shape_factor",
    "has_reconstructed",
    "possible_species",
    "has_props",
    "theoretical",
    "database_IDs"
  ]
}
