{
  "builder_meta": null,
  "nsites": null,
  "elements": null,
  "nelements": null,
  "composition": null,
  "composition_reduced": null,
  "formula_pretty": "BaAg5",
  "formula_anonymous": "AB5",
  "chemsys": null,
  "volume": 136.98248965846517,
  "density": 8.20275388423451,
  "density_atomic": 22.83041494307753,
  "symmetry": null,
  "property_name": null,
  "material_id": "mp-1814",
  "deprecated": null,
  "deprecation_reasons": null,
  "last_updated": null,
  "origins": null,
  "warnings": null,
  "structure": {
    "@module": "pymatgen.core.structure",
    "@class": "Structure",
    "charge": 0,
    "lattice": {
      "matrix": [
        [5.89040616, -0.00028599, -2.069999999999999e-6],
        [-2.94545169, 5.10105559, -6.2e-6],
        [-2.09e-6, -7.339999999999997e-6, 4.55902457]
      ],
      "pbc": [true, true, true],
      "a": 5.890406166943033,
      "b": 5.890369580122502,
      "c": 4.559024570006388,
      "alpha": 90.00012705810238,
      "beta": 90.00004639652474,
      "gamma": 120.0057796275972,
      "volume": 136.98248965846517
    },
    "properties": {},
    "sites": [
      {
        "species": [{ "element": "Ba", "occu": 1 }],
        "abc": [0.0, 0.0, -0.0],
        "properties": { "magmom": 0.0 },
        "label": "Ba",
        "xyz": [0.0, 0.0, 0.0]
      },
      {
        "species": [{ "element": "Ag", "occu": 1 }],
        "abc": [0.33333245, 0.66666855, -0.0],
        "properties": { "magmom": -0.0 },
        "label": "Ag",
        "xyz": [-0.00017649045945744568, 3.4006180039073186, -4.8233431815e-6]
      },
      {
        "species": [{ "element": "Ag", "occu": 1 }],
        "abc": [0.66666755, 0.33333145000000003, 0.0],
        "properties": { "magmom": -0.0 },
        "label": "Ag",
        "xyz": [2.9451309604594575, 1.700151596092681, -3.4466568184999996e-6]
      },
      {
        "species": [{ "element": "Ag", "occu": 1 }],
        "abc": [0.5, 0.0, 0.5],
        "properties": { "magmom": 0.0 },
        "label": "Ag",
        "xyz": [2.9452020350000003, -0.000146665, 2.27951125]
      },
      {
        "species": [{ "element": "Ag", "occu": 1 }],
        "abc": [0.5, 0.5, 0.5],
        "properties": { "magmom": 0.0 },
        "label": "Ag",
        "xyz": [1.47247619, 2.55038113, 2.27950815]
      },
      {
        "species": [{ "element": "Ag", "occu": 1 }],
        "abc": [0.0, 0.5, 0.5],
        "properties": { "magmom": 0.0 },
        "label": "Ag",
        "xyz": [-1.4727268900000001, 2.550524125, 2.279509185]
      }
    ]
  },
  "task_ids": null,
  "uncorrected_energy_per_atom": null,
  "energy_per_atom": -2.843946691666666,
  "formation_energy_per_atom": -0.155002803055553,
  "energy_above_hull": 0.0,
  "is_stable": true,
  "equilibrium_reaction_energy_per_atom": null,
  "decomposes_to": null,
  "xas": null,
  "grain_boundaries": null,
  "band_gap": 0.0,
  "cbm": null,
  "vbm": null,
  "efermi": 2.75492064,
  "is_gap_direct": null,
  "is_metal": null,
  "es_source_calc_id": null,
  "bandstructure": null,
  "dos": null,
  "dos_energy_up": null,
  "dos_energy_down": null,
  "is_magnetic": null,
  "ordering": null,
  "total_magnetization": 1e-7,
  "total_magnetization_normalized_vol": null,
  "total_magnetization_normalized_formula_units": null,
  "num_magnetic_sites": null,
  "num_unique_magnetic_sites": null,
  "types_of_magnetic_species": null,
  "bulk_modulus": null,
  "shear_modulus": null,
  "universal_anisotropy": null,
  "homogeneous_poisson": null,
  "e_total": null,
  "e_ionic": null,
  "e_electronic": null,
  "n": null,
  "e_ij_max": null,
  "weighted_surface_energy_EV_PER_ANG2": null,
  "weighted_surface_energy": null,
  "weighted_work_function": null,
  "surface_anisotropy": null,
  "shape_factor": null,
  "has_reconstructed": null,
  "possible_species": null,
  "has_props": null,
  "theoretical": null,
  "database_IDs": null,
  "fields_not_requested": [
    "builder_meta",
    "nsites",
    "elements",
    "nelements",
    "composition",
    "composition_reduced",
    "chemsys",
    "symmetry",
    "property_name",
    "deprecated",
    "deprecation_reasons",
    "last_updated",
    "origins",
    "warnings",
    "task_ids",
    "uncorrected_energy_per_atom",
    "equilibrium_reaction_energy_per_atom",
    "decomposes_to",
    "xas",
    "grain_boundaries",
    "cbm",
    "vbm",
    "is_gap_direct",
    "is_metal",
    "es_source_calc_id",
    "bandstructure",
    "dos",
    "dos_energy_up",
    "dos_energy_down",
    "is_magnetic",
    "ordering",
    "total_magnetization_normalized_vol",
    "total_magnetization_normalized_formula_units",
    "num_magnetic_sites",
    "num_unique_magnetic_sites",
    "types_of_magnetic_species",
    "bulk_modulus",
    "shear_modulus",
    "universal_anisotropy",
    "homogeneous_poisson",
    "e_total",
    "e_ionic",
    "e_electronic",
    "n",
    "e_ij_max",
    "weighted_surface_energy_EV_PER_ANG2",
    "weighted_surface_energy",
    "weighted_work_function",
    "surface_anisotropy",
    "shape_factor",
    "has_reconstructed",
    "possible_species",
    "has_props",
    "theoretical",
    "database_IDs"
  ]
}
