{"builder_meta": null, "nsites": null, "elements": null, "nelements": null, "composition": null, "composition_reduced": null, "formula_pretty": "BaAg2", "formula_anonymous": "AB2", "chemsys": null, "volume": 180.0615351636691, "density": 6.511946798117878, "density_atomic": 30.01025586061152, "symmetry": null, "property_name": null, "material_id": "mp-1241", "deprecated": null, "deprecation_reasons": null, "last_updated": null, "origins": null, "warnings": null, "structure": {"@module": "pymatgen.core.structure", "@class": "Structure", "charge": 0, "lattice": {"matrix": [[4.46427775, -1e-08, 1.89472727], [2.23392346, 6.09691078, 0.94315671], [-0.14711483, -0.2923418, 6.55325738]], "pbc": [true, true, true], "a": 4.849718265716754, "b": 6.5614236004114685, "c": 6.561424295818526, "alpha": 84.57574283871372, "beta": 68.31135458654514, "gamma": 68.31134157359695, "volume": 180.0615351636691}, "properties": {}, "sites": [{"species": [{"element": "Ba", "occu": 1}], "abc": [0.9986172, 0.7513828, 0.251382799999999], "properties": {"magmom": 0.0}, "label": "Ba", "xyz": [6.099654073200863, 4.507624182999373, 4.248155160034689]}, {"species": [{"element": "Ba", "occu": 1}], "abc": [0.0013828, 0.248617199999999, 0.7486172], "properties": {"magmom": 0.0}, "label": "Ba", "xyz": [0.4514323067991338, 1.2969447870006219, 5.142986199965303]}, {"species": [{"element": "Ag", "occu": 1}], "abc": [0.66658754, 0.83174954, 0.8350763800000001], "properties": {"magmom": -0.0}, "label": "Ag", "xyz": [4.7110446138187285, 4.8269749979534815, 7.519942199669314]}, {"species": [{"element": "Ag", "occu": 1}], "abc": [0.33341246, 0.16825046, 0.16492362], "properties": {"magmom": -0.0}, "label": "Ag", "xyz": [1.840041766181272, 0.9775939720465182, 1.8711991603306863]}, {"species": [{"element": "Ag", "occu": 1}], "abc": [0.33341246, 0.66492362, 0.66825046], "properties": {"magmom": -0.0}, "label": "Ag", "xyz": [2.8755247477565686, 3.858622440993271, 5.638070112643669]}, {"species": [{"element": "Ag", "occu": 1}], "abc": [0.66658754, 0.33507638, 0.33174954], "properties": {"magmom": -0.0}, "label": "Ag", "xyz": [3.6755616322434315, 1.9459465290067293, 3.7530712473563312]}]}, "task_ids": null, "uncorrected_energy_per_atom": null, "energy_per_atom": -2.823142946666667, "formation_energy_per_atom": -0.28819284777777604, "energy_above_hull": 0.0, "is_stable": true, "equilibrium_reaction_energy_per_atom": null, "decomposes_to": null, "xas": null, "grain_boundaries": null, "band_gap": 0.0, "cbm": null, "vbm": null, "efermi": 2.35907384, "is_gap_direct": null, "is_metal": null, "es_source_calc_id": null, "bandstructure": null, "dos": null, "dos_energy_up": null, "dos_energy_down": null, "is_magnetic": null, "ordering": null, "total_magnetization": 5.5e-06, "total_magnetization_normalized_vol": null, "total_magnetization_normalized_formula_units": null, "num_magnetic_sites": null, "num_unique_magnetic_sites": null, "types_of_magnetic_species": null, "bulk_modulus": null, "shear_modulus": null, "universal_anisotropy": null, "homogeneous_poisson": null, "e_total": null, "e_ionic": null, "e_electronic": null, "n": null, "e_ij_max": null, "weighted_surface_energy_EV_PER_ANG2": null, "weighted_surface_energy": null, "weighted_work_function": null, "surface_anisotropy": null, "shape_factor": null, "has_reconstructed": null, "possible_species": null, "has_props": null, "theoretical": null, "database_IDs": null, "fields_not_requested": ["builder_meta", "nsites", "elements", "nelements", "composition", "composition_reduced", "chemsys", "symmetry", "property_name", "deprecated", "deprecation_reasons", "last_updated", "origins", "warnings", "task_ids", "uncorrected_energy_per_atom", "equilibrium_reaction_energy_per_atom", "decomposes_to", "xas", "grain_boundaries", "cbm", "vbm", "is_gap_direct", "is_metal", "es_source_calc_id", "bandstructure", "dos", "dos_energy_up", "dos_energy_down", "is_magnetic", "ordering", "total_magnetization_normalized_vol", "total_magnetization_normalized_formula_units", "num_magnetic_sites", "num_unique_magnetic_sites", "types_of_magnetic_species", "bulk_modulus", "shear_modulus", "universal_anisotropy", "homogeneous_poisson", "e_total", "e_ionic", "e_electronic", "n", "e_ij_max", "weighted_surface_energy_EV_PER_ANG2", "weighted_surface_energy", "weighted_work_function", "surface_anisotropy", "shape_factor", "has_reconstructed", "possible_species", "has_props", "theoretical", "database_IDs"]}