{"builder_meta": null, "nsites": null, "elements": null, "nelements": null, "composition": null, "composition_reduced": null, "formula_pretty": "BaAg", "formula_anonymous": "AB", "chemsys": null, "volume": 291.6263924431248, "density": 5.584627716741473, "density_atomic": 36.4532990553906, "symmetry": null, "property_name": null, "material_id": "mp-11840", "deprecated": null, "deprecation_reasons": null, "last_updated": null, "origins": null, "warnings": null, "structure": {"@module": "pymatgen.core.structure", "@class": "Structure", "charge": 0, "lattice": {"matrix": [[4.99178311, -0.0, 0.0], [-0.0, 6.67116559, 0.0], [0.0, 0.0, 8.75728326]], "pbc": [true, true, true], "a": 4.99178311, "b": 6.67116559, "c": 8.75728326, "alpha": 90.0, "beta": 90.0, "gamma": 90.0, "volume": 291.6263924431248}, "properties": {}, "sites": [{"species": [{"element": "Ba", "occu": 1}], "abc": [0.25, 0.13011247, 0.18113546], "properties": {"magmom": 0.0}, "label": "Ba", "xyz": [1.2479457775, 0.8680018326939074, 1.5862545316503995]}, {"species": [{"element": "Ba", "occu": 1}], "abc": [0.75, 0.86988753, 0.81886454], "properties": {"magmom": 0.0}, "label": "Ba", "xyz": [3.7438373325, 5.803163757306093, 7.1710287283496]}, {"species": [{"element": "Ba", "occu": 1}], "abc": [0.75, 0.63011247, 0.31886454000000003], "properties": {"magmom": 0.0}, "label": "Ba", "xyz": [3.7438373325, 4.203584627693908, 2.7923870983496006]}, {"species": [{"element": "Ba", "occu": 1}], "abc": [0.25, 0.36988753, 0.68113546], "properties": {"magmom": 0.0}, "label": "Ba", "xyz": [1.2479457775, 2.467580962306093, 5.964896161650399]}, {"species": [{"element": "Ag", "occu": 1}], "abc": [0.25, 0.611839399999999, 0.033181499999999], "properties": {"magmom": 0.0}, "label": "Ag", "xyz": [1.2479457775, 4.08168195188624, 0.29057979449168125]}, {"species": [{"element": "Ag", "occu": 1}], "abc": [0.75, 0.388160599999999, 0.966818499999999], "properties": {"magmom": 0.0}, "label": "Ag", "xyz": [3.7438373325, 2.5894836381137476, 8.466703465508301]}, {"species": [{"element": "Ag", "occu": 1}], "abc": [0.75, 0.111839399999999, 0.466818499999999], "properties": {"magmom": 0.0}, "label": "Ag", "xyz": [3.7438373325, 0.7460991568862394, 4.088061835508301]}, {"species": [{"element": "Ag", "occu": 1}], "abc": [0.25, 0.8881606, 0.5331815], "properties": {"magmom": 0.0}, "label": "Ag", "xyz": [1.2479457775, 5.925066433113754, 4.669221424491689]}]}, "task_ids": null, "uncorrected_energy_per_atom": null, "energy_per_atom": -2.65695213375, "formation_energy_per_atom": -0.275995824583332, "energy_above_hull": 0.0, "is_stable": true, "equilibrium_reaction_energy_per_atom": null, "decomposes_to": null, "xas": null, "grain_boundaries": null, "band_gap": 0.0, "cbm": null, "vbm": null, "efermi": 2.41366206, "is_gap_direct": null, "is_metal": null, "es_source_calc_id": null, "bandstructure": null, "dos": null, "dos_energy_up": null, "dos_energy_down": null, "is_magnetic": null, "ordering": null, "total_magnetization": 3e-07, "total_magnetization_normalized_vol": null, "total_magnetization_normalized_formula_units": null, "num_magnetic_sites": null, "num_unique_magnetic_sites": null, "types_of_magnetic_species": null, "bulk_modulus": null, "shear_modulus": null, "universal_anisotropy": null, "homogeneous_poisson": null, "e_total": null, "e_ionic": null, "e_electronic": null, "n": null, "e_ij_max": null, "weighted_surface_energy_EV_PER_ANG2": null, "weighted_surface_energy": null, "weighted_work_function": null, "surface_anisotropy": null, "shape_factor": null, "has_reconstructed": null, "possible_species": null, "has_props": null, "theoretical": null, "database_IDs": null, "fields_not_requested": ["builder_meta", "nsites", "elements", "nelements", "composition", "composition_reduced", "chemsys", "symmetry", "property_name", "deprecated", "deprecation_reasons", "last_updated", "origins", "warnings", "task_ids", "uncorrected_energy_per_atom", "equilibrium_reaction_energy_per_atom", "decomposes_to", "xas", "grain_boundaries", "cbm", "vbm", "is_gap_direct", "is_metal", "es_source_calc_id", "bandstructure", "dos", "dos_energy_up", "dos_energy_down", "is_magnetic", "ordering", "total_magnetization_normalized_vol", "total_magnetization_normalized_formula_units", "num_magnetic_sites", "num_unique_magnetic_sites", "types_of_magnetic_species", "bulk_modulus", "shear_modulus", "universal_anisotropy", "homogeneous_poisson", "e_total", "e_ionic", "e_electronic", "n", "e_ij_max", "weighted_surface_energy_EV_PER_ANG2", "weighted_surface_energy", "weighted_work_function", "surface_anisotropy", "shape_factor", "has_reconstructed", "possible_species", "has_props", "theoretical", "database_IDs"]}