{"builder_meta": null, "nsites": null, "elements": null, "nelements": null, "composition": null, "composition_reduced": null, "formula_pretty": "BaAl4", "formula_anonymous": "AB4", "chemsys": null, "volume": 118.22684999220105, "density": 3.444669667803434, "density_atomic": 23.64536999844021, "symmetry": null, "property_name": null, "material_id": "mp-1903", "deprecated": null, "deprecation_reasons": null, "last_updated": null, "origins": null, "warnings": null, "structure": {"@module": "pymatgen.core.structure", "@class": "Structure", "charge": 0, "lattice": {"matrix": [[4.27027642, -0.0, -1.6088311], [-0.60612945, 4.22704054, -1.6088311], [0.02210417, 0.02550047, 6.53032383]], "pbc": [true, true, true], "a": 4.5632880921036785, "b": 4.563288523125402, "c": 6.530411027873168, "alpha": 110.44984566274536, "beta": 110.44985304903199, "gamma": 90.0000076751937, "volume": 118.22684999220105}, "properties": {}, "sites": [{"species": [{"element": "Ba", "occu": 1}], "abc": [0.0, -0.0, 0.0], "properties": {"magmom": 0.0}, "label": "Ba", "xyz": [0.0, 0.0, 0.0]}, {"species": [{"element": "Al", "occu": 1}], "abc": [0.75, 0.25, 0.5], "properties": {"magmom": -0.0}, "label": "Al", "xyz": [3.0622270375000005, 1.06951037, 1.6563308150000002]}, {"species": [{"element": "Al", "occu": 1}], "abc": [0.25, 0.75, 0.5], "properties": {"magmom": -0.0}, "label": "Al", "xyz": [0.6240241025000001, 3.1830306399999997, 1.6563308150000002]}, {"species": [{"element": "Al", "occu": 1}], "abc": [0.38006063, 0.38006063, 0.76012025], "properties": {"magmom": 0.0}, "label": "Al", "xyz": [1.4093998330572337, 1.625915114299458, 3.7409246593813723]}, {"species": [{"element": "Al", "occu": 1}], "abc": [0.61993937, 0.61993937, 0.23987975], "properties": {"magmom": 0.0}, "label": "Al", "xyz": [2.2768513069427665, 2.6266258957005424, -0.4282630293813712]}]}, "task_ids": null, "uncorrected_energy_per_atom": null, "energy_per_atom": -3.621437192, "formation_energy_per_atom": -0.24118154000000003, "energy_above_hull": 0.0, "is_stable": true, "equilibrium_reaction_energy_per_atom": null, "decomposes_to": null, "xas": null, "grain_boundaries": null, "band_gap": 0.0, "cbm": null, "vbm": null, "efermi": 5.12808595, "is_gap_direct": null, "is_metal": null, "es_source_calc_id": null, "bandstructure": null, "dos": null, "dos_energy_up": null, "dos_energy_down": null, "is_magnetic": null, "ordering": null, "total_magnetization": 1e-07, "total_magnetization_normalized_vol": null, "total_magnetization_normalized_formula_units": null, "num_magnetic_sites": null, "num_unique_magnetic_sites": null, "types_of_magnetic_species": null, "bulk_modulus": null, "shear_modulus": null, "universal_anisotropy": null, "homogeneous_poisson": null, "e_total": null, "e_ionic": null, "e_electronic": null, "n": null, "e_ij_max": null, "weighted_surface_energy_EV_PER_ANG2": null, "weighted_surface_energy": null, "weighted_work_function": null, "surface_anisotropy": null, "shape_factor": null, "has_reconstructed": null, "possible_species": null, "has_props": null, "theoretical": null, "database_IDs": null, "fields_not_requested": ["builder_meta", "nsites", "elements", "nelements", "composition", "composition_reduced", "chemsys", "symmetry", "property_name", "deprecated", "deprecation_reasons", "last_updated", "origins", "warnings", "task_ids", "uncorrected_energy_per_atom", "equilibrium_reaction_energy_per_atom", "decomposes_to", "xas", "grain_boundaries", "cbm", "vbm", "is_gap_direct", "is_metal", "es_source_calc_id", "bandstructure", "dos", "dos_energy_up", "dos_energy_down", "is_magnetic", "ordering", "total_magnetization_normalized_vol", "total_magnetization_normalized_formula_units", "num_magnetic_sites", "num_unique_magnetic_sites", "types_of_magnetic_species", "bulk_modulus", "shear_modulus", "universal_anisotropy", "homogeneous_poisson", "e_total", "e_ionic", "e_electronic", "n", "e_ij_max", "weighted_surface_energy_EV_PER_ANG2", "weighted_surface_energy", "weighted_work_function", "surface_anisotropy", "shape_factor", "has_reconstructed", "possible_species", "has_props", "theoretical", "database_IDs"]}