{
  "builder_meta": null,
  "nsites": null,
  "elements": null,
  "nelements": null,
  "composition": null,
  "composition_reduced": null,
  "formula_pretty": "BaAl",
  "formula_anonymous": "AB",
  "chemsys": null,
  "volume": 297.6126031809706,
  "density": 3.667059047971118,
  "density_atomic": 37.201575397621326,
  "symmetry": null,
  "property_name": null,
  "material_id": "mp-1079984",
  "deprecated": null,
  "deprecation_reasons": null,
  "last_updated": null,
  "origins": null,
  "warnings": null,
  "structure": {
    "@module": "pymatgen.core.structure",
    "@class": "Structure",
    "charge": 0,
    "lattice": {
      "matrix": [
        [4.709759, 0.0, 0.0],
        [0.0, 6.423899, 0.0],
        [0.0, 0.0, 9.836802]
      ],
      "pbc": [true, true, true],
      "a": 4.709759,
      "b": 6.423899,
      "c": 9.836802,
      "alpha": 90.0,
      "beta": 90.0,
      "gamma": 90.0,
      "volume": 297.6126031809706
    },
    "properties": {},
    "sites": [
      {
        "species": [{ "element": "Ba", "occu": 1 }],
        "abc": [0.25, 0.085933, 0.678613],
        "properties": { "magmom": 0.001 },
        "label": "Ba",
        "xyz": [1.17743975, 0.5520249127669999, 6.675381715626001]
      },
      {
        "species": [{ "element": "Ba", "occu": 1 }],
        "abc": [0.75, 0.914067, 0.321387],
        "properties": { "magmom": 0.001 },
        "label": "Ba",
        "xyz": [3.53231925, 5.8718740872329995, 3.161420284374]
      },
      {
        "species": [{ "element": "Ba", "occu": 1 }],
        "abc": [0.75, 0.585932999999999, 0.821387],
        "properties": { "magmom": 0.002 },
        "label": "Ba",
        "xyz": [3.53231925, 3.7639744127669936, 8.079821284374]
      },
      {
        "species": [{ "element": "Ba", "occu": 1 }],
        "abc": [0.25, 0.414066999999999, 0.178613],
        "properties": { "magmom": 0.002 },
        "label": "Ba",
        "xyz": [1.17743975, 2.6599245872329935, 1.756980715626]
      },
      {
        "species": [{ "element": "Al", "occu": 1 }],
        "abc": [0.25, 0.915547999999999, 0.022612],
        "properties": { "magmom": 0.0 },
        "label": "Al",
        "xyz": [1.17743975, 5.881387881651993, 0.222429766824]
      },
      {
        "species": [{ "element": "Al", "occu": 1 }],
        "abc": [0.75, 0.084452, 0.977387999999999],
        "properties": { "magmom": -0.0 },
        "label": "Al",
        "xyz": [3.53231925, 0.5425111183479999, 9.614372233175992]
      },
      {
        "species": [{ "element": "Al", "occu": 1 }],
        "abc": [0.75, 0.415548, 0.477388],
        "properties": { "magmom": 0.0 },
        "label": "Al",
        "xyz": [3.53231925, 2.6694383816519998, 4.695971233176]
      },
      {
        "species": [{ "element": "Al", "occu": 1 }],
        "abc": [0.25, 0.584452, 0.522612],
        "properties": { "magmom": 0.001 },
        "label": "Al",
        "xyz": [1.17743975, 3.7544606183479994, 5.140830766824]
      }
    ]
  },
  "task_ids": null,
  "uncorrected_energy_per_atom": null,
  "energy_per_atom": -2.954166995,
  "formation_energy_per_atom": -0.12189161000000001,
  "energy_above_hull": 0.07773347349999901,
  "is_stable": false,
  "equilibrium_reaction_energy_per_atom": null,
  "decomposes_to": null,
  "xas": null,
  "grain_boundaries": null,
  "band_gap": 0.0,
  "cbm": null,
  "vbm": null,
  "efermi": 2.790716439999999,
  "is_gap_direct": null,
  "is_metal": null,
  "es_source_calc_id": null,
  "bandstructure": null,
  "dos": null,
  "dos_energy_up": null,
  "dos_energy_down": null,
  "is_magnetic": null,
  "ordering": null,
  "total_magnetization": 0.0357331,
  "total_magnetization_normalized_vol": null,
  "total_magnetization_normalized_formula_units": null,
  "num_magnetic_sites": null,
  "num_unique_magnetic_sites": null,
  "types_of_magnetic_species": null,
  "bulk_modulus": null,
  "shear_modulus": null,
  "universal_anisotropy": null,
  "homogeneous_poisson": null,
  "e_total": null,
  "e_ionic": null,
  "e_electronic": null,
  "n": null,
  "e_ij_max": null,
  "weighted_surface_energy_EV_PER_ANG2": null,
  "weighted_surface_energy": null,
  "weighted_work_function": null,
  "surface_anisotropy": null,
  "shape_factor": null,
  "has_reconstructed": null,
  "possible_species": null,
  "has_props": null,
  "theoretical": null,
  "database_IDs": null,
  "fields_not_requested": [
    "builder_meta",
    "nsites",
    "elements",
    "nelements",
    "composition",
    "composition_reduced",
    "chemsys",
    "symmetry",
    "property_name",
    "deprecated",
    "deprecation_reasons",
    "last_updated",
    "origins",
    "warnings",
    "task_ids",
    "uncorrected_energy_per_atom",
    "equilibrium_reaction_energy_per_atom",
    "decomposes_to",
    "xas",
    "grain_boundaries",
    "cbm",
    "vbm",
    "is_gap_direct",
    "is_metal",
    "es_source_calc_id",
    "bandstructure",
    "dos",
    "dos_energy_up",
    "dos_energy_down",
    "is_magnetic",
    "ordering",
    "total_magnetization_normalized_vol",
    "total_magnetization_normalized_formula_units",
    "num_magnetic_sites",
    "num_unique_magnetic_sites",
    "types_of_magnetic_species",
    "bulk_modulus",
    "shear_modulus",
    "universal_anisotropy",
    "homogeneous_poisson",
    "e_total",
    "e_ionic",
    "e_electronic",
    "n",
    "e_ij_max",
    "weighted_surface_energy_EV_PER_ANG2",
    "weighted_surface_energy",
    "weighted_work_function",
    "surface_anisotropy",
    "shape_factor",
    "has_reconstructed",
    "possible_species",
    "has_props",
    "theoretical",
    "database_IDs"
  ]
}
