{
  "builder_meta": null,
  "nsites": null,
  "elements": null,
  "nelements": null,
  "composition": null,
  "composition_reduced": null,
  "formula_pretty": "BaAs3",
  "formula_anonymous": "AB3",
  "chemsys": null,
  "volume": 226.09881338171945,
  "density": 5.318626582797692,
  "density_atomic": 28.26235167271493,
  "symmetry": null,
  "property_name": null,
  "material_id": "mp-15325",
  "deprecated": null,
  "deprecation_reasons": null,
  "last_updated": null,
  "origins": null,
  "warnings": null,
  "structure": {
    "@module": "pymatgen.core.structure",
    "@class": "Structure",
    "charge": 0,
    "lattice": {
      "matrix": [
        [5.81208527, -0.01605118, 1.92604659],
        [1.59341305, 6.02115688, 1.68951031],
        [-0.00196565, -0.01001663, 6.45349938]
      ],
      "pbc": [true, true, true],
      "a": 6.1229280816437,
      "b": 6.453506055554449,
      "c": 6.453507452875286,
      "alpha": 74.91370240049898,
      "beta": 71.68279457078324,
      "gamma": 71.68278330396775,
      "volume": 226.09881338171945
    },
    "properties": {},
    "sites": [
      {
        "species": [{ "element": "Ba", "occu": 1 }],
        "abc": [0.33827367, 0.83603573, 0.83603573],
        "properties": { "magmom": -0.0 },
        "label": "Ba",
        "xyz": [3.296582303451443, 5.020098335474703, 7.459377899166508]
      },
      {
        "species": [{ "element": "Ba", "occu": 1 }],
        "abc": [0.6617273300000001, 0.16396427, 0.16396427],
        "properties": { "magmom": -0.0 },
        "label": "Ba",
        "xyz": [4.106956178633828, 0.9749907184741181, 2.6096803068800813]
      },
      {
        "species": [{ "element": "As", "occu": 1 }],
        "abc": [0.18098531, 0.903332199999999, 0.37552788],
        "properties": { "magmom": 0.0 },
        "label": "As",
        "xyz": [2.4905452139252704, 5.43243833933872, 4.298244145173288]
      },
      {
        "species": [{ "element": "As", "occu": 1 }],
        "abc": [0.81901469, 0.62447212, 0.0966678],
        "properties": { "magmom": 0.0 },
        "label": "As",
        "xyz": [5.755035225970713, 3.745930163908837, 3.256358123247928]
      },
      {
        "species": [{ "element": "As", "occu": 1 }],
        "abc": [0.20023589, 0.50613862, 0.50613862],
        "properties": { "magmom": -0.0 },
        "label": "As",
        "xyz": [1.9692810576329283, 3.039256208448605, 4.507155340273343]
      },
      {
        "species": [{ "element": "As", "occu": 1 }],
        "abc": [0.79976411, 0.49386138, 0.49386138],
        "properties": { "magmom": -0.0 },
        "label": "As",
        "xyz": [5.434251612367071, 2.9558328615513956, 5.561900939726657]
      },
      {
        "species": [{ "element": "As", "occu": 1 }],
        "abc": [0.18098531, 0.37552788, 0.903332199999999],
        "properties": { "magmom": 0.0 },
        "label": "As",
        "xyz": [1.6484974440292879, 2.2491589060911625, 6.812698156752066]
      },
      {
        "species": [{ "element": "As", "occu": 1 }],
        "abc": [0.81901469, 0.0966678, 0.62447212],
        "properties": { "magmom": 0.0 },
        "label": "As",
        "xyz": [4.912987456074728, 0.5626507306612741, 5.770812134826711]
      }
    ]
  },
  "task_ids": null,
  "uncorrected_energy_per_atom": null,
  "energy_per_atom": -4.601777228749999,
  "formation_energy_per_atom": -0.619441594374999,
  "energy_above_hull": 0.0,
  "is_stable": true,
  "equilibrium_reaction_energy_per_atom": null,
  "decomposes_to": null,
  "xas": null,
  "grain_boundaries": null,
  "band_gap": 0.0,
  "cbm": null,
  "vbm": null,
  "efermi": 3.87690655,
  "is_gap_direct": null,
  "is_metal": null,
  "es_source_calc_id": null,
  "bandstructure": null,
  "dos": null,
  "dos_energy_up": null,
  "dos_energy_down": null,
  "is_magnetic": null,
  "ordering": null,
  "total_magnetization": 0.0,
  "total_magnetization_normalized_vol": null,
  "total_magnetization_normalized_formula_units": null,
  "num_magnetic_sites": null,
  "num_unique_magnetic_sites": null,
  "types_of_magnetic_species": null,
  "bulk_modulus": null,
  "shear_modulus": null,
  "universal_anisotropy": null,
  "homogeneous_poisson": null,
  "e_total": null,
  "e_ionic": null,
  "e_electronic": null,
  "n": null,
  "e_ij_max": null,
  "weighted_surface_energy_EV_PER_ANG2": null,
  "weighted_surface_energy": null,
  "weighted_work_function": null,
  "surface_anisotropy": null,
  "shape_factor": null,
  "has_reconstructed": null,
  "possible_species": null,
  "has_props": null,
  "theoretical": null,
  "database_IDs": null,
  "fields_not_requested": [
    "builder_meta",
    "nsites",
    "elements",
    "nelements",
    "composition",
    "composition_reduced",
    "chemsys",
    "symmetry",
    "property_name",
    "deprecated",
    "deprecation_reasons",
    "last_updated",
    "origins",
    "warnings",
    "task_ids",
    "uncorrected_energy_per_atom",
    "equilibrium_reaction_energy_per_atom",
    "decomposes_to",
    "xas",
    "grain_boundaries",
    "cbm",
    "vbm",
    "is_gap_direct",
    "is_metal",
    "es_source_calc_id",
    "bandstructure",
    "dos",
    "dos_energy_up",
    "dos_energy_down",
    "is_magnetic",
    "ordering",
    "total_magnetization_normalized_vol",
    "total_magnetization_normalized_formula_units",
    "num_magnetic_sites",
    "num_unique_magnetic_sites",
    "types_of_magnetic_species",
    "bulk_modulus",
    "shear_modulus",
    "universal_anisotropy",
    "homogeneous_poisson",
    "e_total",
    "e_ionic",
    "e_electronic",
    "n",
    "e_ij_max",
    "weighted_surface_energy_EV_PER_ANG2",
    "weighted_surface_energy",
    "weighted_work_function",
    "surface_anisotropy",
    "shape_factor",
    "has_reconstructed",
    "possible_species",
    "has_props",
    "theoretical",
    "database_IDs"
  ]
}
