{
  "builder_meta": null,
  "nsites": null,
  "elements": null,
  "nelements": null,
  "composition": null,
  "composition_reduced": null,
  "formula_pretty": "BaAs2",
  "formula_anonymous": "AB2",
  "chemsys": null,
  "volume": 547.2425624795424,
  "density": 5.228292189511429,
  "density_atomic": 30.402364582196796,
  "symmetry": null,
  "property_name": null,
  "material_id": "mp-31243",
  "deprecated": null,
  "deprecation_reasons": null,
  "last_updated": null,
  "origins": null,
  "warnings": null,
  "structure": {
    "@module": "pymatgen.core.structure",
    "@class": "Structure",
    "charge": 0,
    "lattice": {
      "matrix": [
        [6.65309418, 0.0099144, 0.0],
        [-1.64612226, 6.4496084, 0.0],
        [0.0, 0.0, 12.74845931]
      ],
      "pbc": [true, true, true],
      "a": 6.653101567184829,
      "b": 6.656362896373519,
      "c": 12.74845931,
      "alpha": 90.0,
      "beta": 90.0,
      "gamma": 104.23244867810831,
      "volume": 547.2425624795424
    },
    "properties": {},
    "sites": [
      {
        "species": [{ "element": "Ba", "occu": 1 }],
        "abc": [0.353681099999999, 0.17960096, 0.77300194],
        "properties": { "magmom": -0.0 },
        "label": "Ba",
        "xyz": [2.057428529812622, 1.161862396161904, 9.85458377864106]
      },
      {
        "species": [{ "element": "Ba", "occu": 1 }],
        "abc": [0.8536811, 0.67960096, 0.22699806],
        "properties": { "magmom": -0.0 },
        "label": "Ba",
        "xyz": [4.560914489812628, 4.3916237961619045, 2.8938755313589386]
      },
      {
        "species": [{ "element": "Ba", "occu": 1 }],
        "abc": [0.99332197, 0.548188999999999, 0.91563206],
        "properties": { "magmom": 0.0 },
        "label": "Ba",
        "xyz": [5.706278501885997, 3.5454525705269617, 11.672898059841478]
      },
      {
        "species": [{ "element": "Ba", "occu": 1 }],
        "abc": [0.49332197, 0.048188999999999, 0.08436794],
        "properties": { "magmom": 0.0 },
        "label": "Ba",
        "xyz": [3.202792541885996, 0.31569117052696155, 1.0755612501585214]
      },
      {
        "species": [{ "element": "Ba", "occu": 1 }],
        "abc": [0.6427360400000001, 0.75005079, 0.57714917],
        "properties": { "magmom": -0.0 },
        "label": "Ba",
        "xyz": [3.041508105450662, 4.843906217805612, 7.3577627095452725]
      },
      {
        "species": [{ "element": "Ba", "occu": 1 }],
        "abc": [0.14273604, 0.25005079, 0.42285083],
        "properties": { "magmom": -0.0 },
        "label": "Ba",
        "xyz": [0.5380221454506618, 1.6141448178056121, 5.390696600454727]
      },
      {
        "species": [{ "element": "As", "occu": 1 }],
        "abc": [0.16725876, 0.84109667, 0.57752654],
        "properties": { "magmom": -0.0 },
        "label": "As",
        "xyz": [-0.2717596685888575, 5.426402418294172, 7.362573595635087]
      },
      {
        "species": [{ "element": "As", "occu": 1 }],
        "abc": [0.6672587600000001, 0.34109667, 0.42247346],
        "properties": { "magmom": -0.0 },
        "label": "As",
        "xyz": [3.877848551411143, 2.206555418294172, 5.385885714364913]
      },
      {
        "species": [{ "element": "As", "occu": 1 }],
        "abc": [0.25374573, 0.78891698, 0.39293386],
        "properties": { "magmom": 0.0 },
        "label": "As",
        "xyz": [0.3895404373928766, 5.090721317776144, 5.009301325731236]
      },
      {
        "species": [{ "element": "As", "occu": 1 }],
        "abc": [0.75374573, 0.28891698, 0.60706614],
        "properties": { "magmom": 0.0 },
        "label": "As",
        "xyz": [4.539148657392877, 1.8708743177761438, 7.739157984268764]
      },
      {
        "species": [{ "element": "As", "occu": 1 }],
        "abc": [0.10765073, 0.49612498, 0.6538874100000001],
        "properties": { "magmom": 0.0 },
        "label": "As",
        "xyz": [-0.10047192808430339, 3.200879130855344, 8.336057039706288]
      },
      {
        "species": [{ "element": "As", "occu": 1 }],
        "abc": [0.60765073, 0.99612498, 0.34611259],
        "properties": { "magmom": 0.0 },
        "label": "As",
        "xyz": [2.4030140319156965, 6.430640530855344, 4.412402270293713]
      },
      {
        "species": [{ "element": "As", "occu": 1 }],
        "abc": [0.00881954, 0.01030872, 0.0130169],
        "properties": { "magmom": 0.0 },
        "label": "As",
        "xyz": [0.04170781678017001, 0.066574647552624, 0.165945419992339]
      },
      {
        "species": [{ "element": "As", "occu": 1 }],
        "abc": [0.50881954, 0.51030872, 0.9869831],
        "properties": { "magmom": 0.0 },
        "label": "As",
        "xyz": [2.5451937767801693, 3.296336047552624, 12.582513890007661]
      },
      {
        "species": [{ "element": "As", "occu": 1 }],
        "abc": [0.329857199999999, 0.53545298, 0.15075369],
        "properties": { "magmom": 0.0 },
        "label": "As",
        "xyz": [1.3131499479897544, 3.456732373836712, 1.9218772827973538]
      },
      {
        "species": [{ "element": "As", "occu": 1 }],
        "abc": [0.8298572, 0.03545298, 0.8492463100000001],
        "properties": { "magmom": 0.0 },
        "label": "As",
        "xyz": [5.462758167989761, 0.23688537383671202, 10.826582027202646]
      },
      {
        "species": [{ "element": "As", "occu": 1 }],
        "abc": [0.99622993, 0.24965592, 0.15469166],
        "properties": { "magmom": -0.0 },
        "label": "As",
        "xyz": [6.217047381972028, 1.62005994075972, 1.9720803331063546]
      },
      {
        "species": [{ "element": "As", "occu": 1 }],
        "abc": [0.49622993, 0.74965592, 0.84530834],
        "properties": { "magmom": -0.0 },
        "label": "As",
        "xyz": [2.067439161972028, 4.83990694075972, 10.776378976893644]
      }
    ]
  },
  "task_ids": null,
  "uncorrected_energy_per_atom": null,
  "energy_per_atom": -4.532290752777779,
  "formation_energy_per_atom": -0.7792174177777801,
  "energy_above_hull": 0.0,
  "is_stable": true,
  "equilibrium_reaction_energy_per_atom": null,
  "decomposes_to": null,
  "xas": null,
  "grain_boundaries": null,
  "band_gap": 0.41449999999999904,
  "cbm": null,
  "vbm": null,
  "efermi": 3.24069539,
  "is_gap_direct": null,
  "is_metal": null,
  "es_source_calc_id": null,
  "bandstructure": null,
  "dos": null,
  "dos_energy_up": null,
  "dos_energy_down": null,
  "is_magnetic": null,
  "ordering": null,
  "total_magnetization": 0.0,
  "total_magnetization_normalized_vol": null,
  "total_magnetization_normalized_formula_units": null,
  "num_magnetic_sites": null,
  "num_unique_magnetic_sites": null,
  "types_of_magnetic_species": null,
  "bulk_modulus": null,
  "shear_modulus": null,
  "universal_anisotropy": null,
  "homogeneous_poisson": null,
  "e_total": null,
  "e_ionic": null,
  "e_electronic": null,
  "n": null,
  "e_ij_max": null,
  "weighted_surface_energy_EV_PER_ANG2": null,
  "weighted_surface_energy": null,
  "weighted_work_function": null,
  "surface_anisotropy": null,
  "shape_factor": null,
  "has_reconstructed": null,
  "possible_species": null,
  "has_props": null,
  "theoretical": null,
  "database_IDs": null,
  "fields_not_requested": [
    "builder_meta",
    "nsites",
    "elements",
    "nelements",
    "composition",
    "composition_reduced",
    "chemsys",
    "symmetry",
    "property_name",
    "deprecated",
    "deprecation_reasons",
    "last_updated",
    "origins",
    "warnings",
    "task_ids",
    "uncorrected_energy_per_atom",
    "equilibrium_reaction_energy_per_atom",
    "decomposes_to",
    "xas",
    "grain_boundaries",
    "cbm",
    "vbm",
    "is_gap_direct",
    "is_metal",
    "es_source_calc_id",
    "bandstructure",
    "dos",
    "dos_energy_up",
    "dos_energy_down",
    "is_magnetic",
    "ordering",
    "total_magnetization_normalized_vol",
    "total_magnetization_normalized_formula_units",
    "num_magnetic_sites",
    "num_unique_magnetic_sites",
    "types_of_magnetic_species",
    "bulk_modulus",
    "shear_modulus",
    "universal_anisotropy",
    "homogeneous_poisson",
    "e_total",
    "e_ionic",
    "e_electronic",
    "n",
    "e_ij_max",
    "weighted_surface_energy_EV_PER_ANG2",
    "weighted_surface_energy",
    "weighted_work_function",
    "surface_anisotropy",
    "shape_factor",
    "has_reconstructed",
    "possible_species",
    "has_props",
    "theoretical",
    "database_IDs"
  ]
}
