{
  "builder_meta": null,
  "nsites": null,
  "elements": null,
  "nelements": null,
  "composition": null,
  "composition_reduced": null,
  "formula_pretty": "BaB6",
  "formula_anonymous": "AB6",
  "chemsys": null,
  "volume": 78.2054570963525,
  "density": 4.293170680907804,
  "density_atomic": 11.172208156621787,
  "symmetry": null,
  "property_name": null,
  "material_id": "mp-954",
  "deprecated": null,
  "deprecation_reasons": null,
  "last_updated": null,
  "origins": null,
  "warnings": null,
  "structure": {
    "@module": "pymatgen.core.structure",
    "@class": "Structure",
    "charge": 0,
    "lattice": {
      "matrix": [
        [4.27640688, -0.0, 0.0],
        [-0.0, 4.27640688, -0.0],
        [-0.0, 0.0, 4.27640688]
      ],
      "pbc": [true, true, true],
      "a": 4.27640688,
      "b": 4.27640688,
      "c": 4.27640688,
      "alpha": 90.0,
      "beta": 90.0,
      "gamma": 90.0,
      "volume": 78.2054570963525
    },
    "properties": {},
    "sites": [
      {
        "species": [{ "element": "Ba", "occu": 1 }],
        "abc": [0.0, -0.0, 0.0],
        "properties": { "magmom": 0.0 },
        "label": "Ba",
        "xyz": [0.0, 0.0, 0.0]
      },
      {
        "species": [{ "element": "B", "occu": 1 }],
        "abc": [0.2056634, 0.5, 0.5],
        "properties": { "magmom": 0.0 },
        "label": "B",
        "xyz": [0.879500378724192, 2.13820344, 2.13820344]
      },
      {
        "species": [{ "element": "B", "occu": 1 }],
        "abc": [0.5, 0.5, 0.7943366],
        "properties": { "magmom": 0.0 },
        "label": "B",
        "xyz": [2.13820344, 2.13820344, 3.3969065012758075]
      },
      {
        "species": [{ "element": "B", "occu": 1 }],
        "abc": [0.5, 0.5, 0.2056634],
        "properties": { "magmom": 0.0 },
        "label": "B",
        "xyz": [2.13820344, 2.13820344, 0.879500378724192]
      },
      {
        "species": [{ "element": "B", "occu": 1 }],
        "abc": [0.5, 0.2056634, 0.5],
        "properties": { "magmom": 0.0 },
        "label": "B",
        "xyz": [2.13820344, 0.879500378724192, 2.13820344]
      },
      {
        "species": [{ "element": "B", "occu": 1 }],
        "abc": [0.5, 0.7943366, 0.5],
        "properties": { "magmom": 0.0 },
        "label": "B",
        "xyz": [2.13820344, 3.3969065012758075, 2.13820344]
      },
      {
        "species": [{ "element": "B", "occu": 1 }],
        "abc": [0.7943366, 0.5, 0.5],
        "properties": { "magmom": 0.0 },
        "label": "B",
        "xyz": [3.3969065012758075, 2.13820344, 2.13820344]
      }
    ]
  },
  "task_ids": null,
  "uncorrected_energy_per_atom": null,
  "energy_per_atom": -6.409304588571429,
  "formation_energy_per_atom": -0.409972365,
  "energy_above_hull": 0.0,
  "is_stable": true,
  "equilibrium_reaction_energy_per_atom": null,
  "decomposes_to": null,
  "xas": null,
  "grain_boundaries": null,
  "band_gap": 0.0,
  "cbm": null,
  "vbm": null,
  "efermi": 4.20854871,
  "is_gap_direct": null,
  "is_metal": null,
  "es_source_calc_id": null,
  "bandstructure": null,
  "dos": null,
  "dos_energy_up": null,
  "dos_energy_down": null,
  "is_magnetic": null,
  "ordering": null,
  "total_magnetization": 0.0,
  "total_magnetization_normalized_vol": null,
  "total_magnetization_normalized_formula_units": null,
  "num_magnetic_sites": null,
  "num_unique_magnetic_sites": null,
  "types_of_magnetic_species": null,
  "bulk_modulus": null,
  "shear_modulus": null,
  "universal_anisotropy": null,
  "homogeneous_poisson": null,
  "e_total": null,
  "e_ionic": null,
  "e_electronic": null,
  "n": null,
  "e_ij_max": null,
  "weighted_surface_energy_EV_PER_ANG2": null,
  "weighted_surface_energy": null,
  "weighted_work_function": null,
  "surface_anisotropy": null,
  "shape_factor": null,
  "has_reconstructed": null,
  "possible_species": null,
  "has_props": null,
  "theoretical": null,
  "database_IDs": null,
  "fields_not_requested": [
    "builder_meta",
    "nsites",
    "elements",
    "nelements",
    "composition",
    "composition_reduced",
    "chemsys",
    "symmetry",
    "property_name",
    "deprecated",
    "deprecation_reasons",
    "last_updated",
    "origins",
    "warnings",
    "task_ids",
    "uncorrected_energy_per_atom",
    "equilibrium_reaction_energy_per_atom",
    "decomposes_to",
    "xas",
    "grain_boundaries",
    "cbm",
    "vbm",
    "is_gap_direct",
    "is_metal",
    "es_source_calc_id",
    "bandstructure",
    "dos",
    "dos_energy_up",
    "dos_energy_down",
    "is_magnetic",
    "ordering",
    "total_magnetization_normalized_vol",
    "total_magnetization_normalized_formula_units",
    "num_magnetic_sites",
    "num_unique_magnetic_sites",
    "types_of_magnetic_species",
    "bulk_modulus",
    "shear_modulus",
    "universal_anisotropy",
    "homogeneous_poisson",
    "e_total",
    "e_ionic",
    "e_electronic",
    "n",
    "e_ij_max",
    "weighted_surface_energy_EV_PER_ANG2",
    "weighted_surface_energy",
    "weighted_work_function",
    "surface_anisotropy",
    "shape_factor",
    "has_reconstructed",
    "possible_species",
    "has_props",
    "theoretical",
    "database_IDs"
  ]
}
