{
  "builder_meta": null,
  "nsites": null,
  "elements": null,
  "nelements": null,
  "composition": null,
  "composition_reduced": null,
  "formula_pretty": "BaBi5",
  "formula_anonymous": "AB5",
  "chemsys": null,
  "volume": 211.9047032020044,
  "density": 9.264246666087596,
  "density_atomic": 35.317450533667404,
  "symmetry": null,
  "property_name": null,
  "material_id": "mp-1228008",
  "deprecated": null,
  "deprecation_reasons": null,
  "last_updated": null,
  "origins": null,
  "warnings": null,
  "structure": {
    "@module": "pymatgen.core.structure",
    "@class": "Structure",
    "charge": 0,
    "lattice": {
      "matrix": [
        [2.453554, 4.249679, 0.0],
        [2.128742, -1.22903, 8.764595],
        [4.401517, -2.541216, 0.554196]
      ],
      "pbc": [true, true, true],
      "a": 4.907106971929286,
      "b": 9.102756876764808,
      "c": 5.11255942423763,
      "alpha": 68.11064258338241,
      "beta": 89.99998316436226,
      "gamma": 89.99999940008507,
      "volume": 211.9047032020044
    },
    "properties": {},
    "sites": [
      {
        "species": [{ "element": "Ba", "occu": 1 }],
        "abc": [0.0, 0.0, 0.0],
        "properties": { "magmom": -0.0 },
        "label": "Ba",
        "xyz": [0.0, 0.0, 0.0]
      },
      {
        "species": [{ "element": "Bi", "occu": 1 }],
        "abc": [0.5, 0.32692000000000004, 0.710917999999999],
        "properties": { "magmom": -0.0 },
        "label": "Bi",
        "xyz": [5.051822997245996, -0.08355118388799743, 3.2593093093279997]
      },
      {
        "species": [{ "element": "Bi", "occu": 1 }],
        "abc": [0.0, 0.32162, 0.280943],
        "properties": { "magmom": -0.0 },
        "label": "Bi",
        "xyz": [1.921221392571, -1.109217475288, 2.974566530728]
      },
      {
        "species": [{ "element": "Bi", "occu": 1 }],
        "abc": [0.5, 0.67308, 0.289082],
        "properties": { "magmom": -0.0 },
        "label": "Bi",
        "xyz": [3.9319900027539996, 0.5629841838880001, 6.059481690672]
      },
      {
        "species": [{ "element": "Bi", "occu": 1 }],
        "abc": [0.0, 0.6783800000000001, 0.719057],
        "properties": { "magmom": -0.0 },
        "label": "Bi",
        "xyz": [4.609037607429, -2.661028524712, 6.3442244692720005]
      },
      {
        "species": [{ "element": "Bi", "occu": 1 }],
        "abc": [0.5, 0.0, 0.5],
        "properties": { "magmom": -0.0 },
        "label": "Bi",
        "xyz": [3.4275355000000003, 0.8542315000000003, 0.277098]
      }
    ]
  },
  "task_ids": null,
  "uncorrected_energy_per_atom": null,
  "energy_per_atom": -3.7794175816666673,
  "formation_energy_per_atom": -0.21789316666666902,
  "energy_above_hull": 0.101324915833333,
  "is_stable": false,
  "equilibrium_reaction_energy_per_atom": null,
  "decomposes_to": null,
  "xas": null,
  "grain_boundaries": null,
  "band_gap": 0.0,
  "cbm": null,
  "vbm": null,
  "efermi": 5.11653189,
  "is_gap_direct": null,
  "is_metal": null,
  "es_source_calc_id": null,
  "bandstructure": null,
  "dos": null,
  "dos_energy_up": null,
  "dos_energy_down": null,
  "is_magnetic": null,
  "ordering": null,
  "total_magnetization": 0.0054819,
  "total_magnetization_normalized_vol": null,
  "total_magnetization_normalized_formula_units": null,
  "num_magnetic_sites": null,
  "num_unique_magnetic_sites": null,
  "types_of_magnetic_species": null,
  "bulk_modulus": null,
  "shear_modulus": null,
  "universal_anisotropy": null,
  "homogeneous_poisson": null,
  "e_total": null,
  "e_ionic": null,
  "e_electronic": null,
  "n": null,
  "e_ij_max": null,
  "weighted_surface_energy_EV_PER_ANG2": null,
  "weighted_surface_energy": null,
  "weighted_work_function": null,
  "surface_anisotropy": null,
  "shape_factor": null,
  "has_reconstructed": null,
  "possible_species": null,
  "has_props": null,
  "theoretical": null,
  "database_IDs": null,
  "fields_not_requested": [
    "builder_meta",
    "nsites",
    "elements",
    "nelements",
    "composition",
    "composition_reduced",
    "chemsys",
    "symmetry",
    "property_name",
    "deprecated",
    "deprecation_reasons",
    "last_updated",
    "origins",
    "warnings",
    "task_ids",
    "uncorrected_energy_per_atom",
    "equilibrium_reaction_energy_per_atom",
    "decomposes_to",
    "xas",
    "grain_boundaries",
    "cbm",
    "vbm",
    "is_gap_direct",
    "is_metal",
    "es_source_calc_id",
    "bandstructure",
    "dos",
    "dos_energy_up",
    "dos_energy_down",
    "is_magnetic",
    "ordering",
    "total_magnetization_normalized_vol",
    "total_magnetization_normalized_formula_units",
    "num_magnetic_sites",
    "num_unique_magnetic_sites",
    "types_of_magnetic_species",
    "bulk_modulus",
    "shear_modulus",
    "universal_anisotropy",
    "homogeneous_poisson",
    "e_total",
    "e_ionic",
    "e_electronic",
    "n",
    "e_ij_max",
    "weighted_surface_energy_EV_PER_ANG2",
    "weighted_surface_energy",
    "weighted_work_function",
    "surface_anisotropy",
    "shape_factor",
    "has_reconstructed",
    "possible_species",
    "has_props",
    "theoretical",
    "database_IDs"
  ]
}
