{
  "builder_meta": null,
  "nsites": null,
  "elements": null,
  "nelements": null,
  "composition": null,
  "composition_reduced": null,
  "formula_pretty": "BaBr2",
  "formula_anonymous": "AB2",
  "chemsys": null,
  "volume": 419.8424677017977,
  "density": 4.700851519428873,
  "density_atomic": 34.98687230848314,
  "symmetry": null,
  "property_name": null,
  "material_id": "mp-27456",
  "deprecated": null,
  "deprecation_reasons": null,
  "last_updated": null,
  "origins": null,
  "warnings": null,
  "structure": {
    "@module": "pymatgen.core.structure",
    "@class": "Structure",
    "charge": 0,
    "lattice": {
      "matrix": [
        [5.01365732, 0.0, 0.0],
        [0.0, 8.33781658, 0.0],
        [0.0, 0.0, 10.04336814]
      ],
      "pbc": [true, true, true],
      "a": 5.01365732,
      "b": 8.33781658,
      "c": 10.04336814,
      "alpha": 90.0,
      "beta": 90.0,
      "gamma": 90.0,
      "volume": 419.8424677017977
    },
    "properties": {},
    "sites": [
      {
        "species": [{ "element": "Ba", "occu": 1 }],
        "abc": [0.25, 0.74776887, 0.3834063],
        "properties": { "magmom": -0.0 },
        "label": "Ba",
        "xyz": [1.25341433, 6.234759682293865, 3.850690618095282]
      },
      {
        "species": [{ "element": "Ba", "occu": 1 }],
        "abc": [0.75, 0.25223113, 0.6165937],
        "properties": { "magmom": -0.0 },
        "label": "Ba",
        "xyz": [3.76024299, 2.1030568977061357, 6.192677521904718]
      },
      {
        "species": [{ "element": "Ba", "occu": 1 }],
        "abc": [0.25, 0.24776887, 0.1165937],
        "properties": { "magmom": -0.0 },
        "label": "Ba",
        "xyz": [1.25341433, 2.065851392293865, 1.170993451904718]
      },
      {
        "species": [{ "element": "Ba", "occu": 1 }],
        "abc": [0.75, 0.75223113, 0.8834063],
        "properties": { "magmom": -0.0 },
        "label": "Ba",
        "xyz": [3.76024299, 6.271965187706135, 8.872374688095283]
      },
      {
        "species": [{ "element": "Br", "occu": 1 }],
        "abc": [0.25, 0.52627313, 0.66914662],
        "properties": { "magmom": 0.0 },
        "label": "Br",
        "xyz": [1.25341433, 4.387968828922495, 6.720485844296687]
      },
      {
        "species": [{ "element": "Br", "occu": 1 }],
        "abc": [0.75, 0.47372687, 0.33085338000000003],
        "properties": { "magmom": 0.0 },
        "label": "Br",
        "xyz": [3.76024299, 3.9498477510775047, 3.3228822957033137]
      },
      {
        "species": [{ "element": "Br", "occu": 1 }],
        "abc": [0.25, 0.026273130000000002, 0.83085338],
        "properties": { "magmom": 0.0 },
        "label": "Br",
        "xyz": [1.25341433, 0.2190605389224954, 8.344566365703313]
      },
      {
        "species": [{ "element": "Br", "occu": 1 }],
        "abc": [0.75, 0.97372687, 0.16914662],
        "properties": { "magmom": 0.0 },
        "label": "Br",
        "xyz": [3.76024299, 8.118756041077505, 1.6988017742966868]
      },
      {
        "species": [{ "element": "Br", "occu": 1 }],
        "abc": [0.75, 0.85664709, 0.57130788],
        "properties": { "magmom": 0.0 },
        "label": "Br",
        "xyz": [3.76024299, 7.142566310210753, 5.737855360122943]
      },
      {
        "species": [{ "element": "Br", "occu": 1 }],
        "abc": [0.25, 0.14335291, 0.42869212],
        "properties": { "magmom": 0.0 },
        "label": "Br",
        "xyz": [1.25341433, 1.1952502697892478, 4.305512779877057]
      },
      {
        "species": [{ "element": "Br", "occu": 1 }],
        "abc": [0.75, 0.35664709, 0.92869212],
        "properties": { "magmom": 0.0 },
        "label": "Br",
        "xyz": [3.76024299, 2.973658020210752, 9.327196849877057]
      },
      {
        "species": [{ "element": "Br", "occu": 1 }],
        "abc": [0.25, 0.6433529100000001, 0.07130788],
        "properties": { "magmom": 0.0 },
        "label": "Br",
        "xyz": [1.25341433, 5.3641585597892485, 0.7161712901229432]
      }
    ]
  },
  "task_ids": null,
  "uncorrected_energy_per_atom": null,
  "energy_per_atom": -4.311672940000004,
  "formation_energy_per_atom": -2.5807169366666702,
  "energy_above_hull": 0.0,
  "is_stable": true,
  "equilibrium_reaction_energy_per_atom": null,
  "decomposes_to": null,
  "xas": null,
  "grain_boundaries": null,
  "band_gap": 4.3731,
  "cbm": null,
  "vbm": null,
  "efermi": -0.03463019,
  "is_gap_direct": null,
  "is_metal": null,
  "es_source_calc_id": null,
  "bandstructure": null,
  "dos": null,
  "dos_energy_up": null,
  "dos_energy_down": null,
  "is_magnetic": null,
  "ordering": null,
  "total_magnetization": 0.0,
  "total_magnetization_normalized_vol": null,
  "total_magnetization_normalized_formula_units": null,
  "num_magnetic_sites": null,
  "num_unique_magnetic_sites": null,
  "types_of_magnetic_species": null,
  "bulk_modulus": null,
  "shear_modulus": null,
  "universal_anisotropy": null,
  "homogeneous_poisson": null,
  "e_total": null,
  "e_ionic": null,
  "e_electronic": null,
  "n": null,
  "e_ij_max": null,
  "weighted_surface_energy_EV_PER_ANG2": null,
  "weighted_surface_energy": null,
  "weighted_work_function": null,
  "surface_anisotropy": null,
  "shape_factor": null,
  "has_reconstructed": null,
  "possible_species": null,
  "has_props": null,
  "theoretical": null,
  "database_IDs": null,
  "fields_not_requested": [
    "builder_meta",
    "nsites",
    "elements",
    "nelements",
    "composition",
    "composition_reduced",
    "chemsys",
    "symmetry",
    "property_name",
    "deprecated",
    "deprecation_reasons",
    "last_updated",
    "origins",
    "warnings",
    "task_ids",
    "uncorrected_energy_per_atom",
    "equilibrium_reaction_energy_per_atom",
    "decomposes_to",
    "xas",
    "grain_boundaries",
    "cbm",
    "vbm",
    "is_gap_direct",
    "is_metal",
    "es_source_calc_id",
    "bandstructure",
    "dos",
    "dos_energy_up",
    "dos_energy_down",
    "is_magnetic",
    "ordering",
    "total_magnetization_normalized_vol",
    "total_magnetization_normalized_formula_units",
    "num_magnetic_sites",
    "num_unique_magnetic_sites",
    "types_of_magnetic_species",
    "bulk_modulus",
    "shear_modulus",
    "universal_anisotropy",
    "homogeneous_poisson",
    "e_total",
    "e_ionic",
    "e_electronic",
    "n",
    "e_ij_max",
    "weighted_surface_energy_EV_PER_ANG2",
    "weighted_surface_energy",
    "weighted_work_function",
    "surface_anisotropy",
    "shape_factor",
    "has_reconstructed",
    "possible_species",
    "has_props",
    "theoretical",
    "database_IDs"
  ]
}
