{"builder_meta": null, "nsites": null, "elements": null, "nelements": null, "composition": null, "composition_reduced": null, "formula_pretty": "BaBr3", "formula_anonymous": "AB3", "chemsys": null, "volume": 259.6491236724874, "density": 4.822569629940468, "density_atomic": 32.456140459060926, "symmetry": null, "property_name": null, "material_id": "mp-1183339", "deprecated": null, "deprecation_reasons": null, "last_updated": null, "origins": null, "warnings": null, "structure": {"@module": "pymatgen.core.structure", "@class": "Structure", "charge": 0, "lattice": {"matrix": [[3.46129, -5.99513, 0.0], [3.46129, 5.99513, 0.0], [0.0, 0.0, 6.256339]], "pbc": [true, true, true], "a": 6.922579878990202, "b": 6.922579878990202, "c": 6.256339, "alpha": 90.0, "beta": 90.0, "gamma": 119.99999884350285, "volume": 259.6491236724874}, "properties": {}, "sites": [{"species": [{"element": "Ba", "occu": 1}], "abc": [0.333333, 0.666667, 0.75], "properties": {"magmom": -0.003}, "label": "Ba", "xyz": [3.46129, 1.9983806634199999, 4.6922542499999995]}, {"species": [{"element": "Ba", "occu": 1}], "abc": [0.666667, 0.333333, 0.25], "properties": {"magmom": -0.003}, "label": "Ba", "xyz": [3.46129, -1.9983806634199999, 1.56408475]}, {"species": [{"element": "Br", "occu": 1}], "abc": [0.171841, 0.343680999999999, 0.25], "properties": {"magmom": 0.262}, "label": "Br", "xyz": [1.7843711433799965, 1.0302031391999942, 1.56408475]}, {"species": [{"element": "Br", "occu": 1}], "abc": [0.656319, 0.828159, 0.25], "properties": {"magmom": 0.262}, "label": "Br", "xyz": [5.13820885662, 1.0302031392000002, 1.56408475]}, {"species": [{"element": "Br", "occu": 1}], "abc": [0.171841, 0.828159, 0.25], "properties": {"magmom": 0.261}, "label": "Br", "xyz": [3.46129, 3.93471173134, 1.56408475]}, {"species": [{"element": "Br", "occu": 1}], "abc": [0.828159, 0.656319, 0.75], "properties": {"magmom": 0.264}, "label": "Br", "xyz": [5.13820885662, -1.0302031392000002, 4.6922542499999995]}, {"species": [{"element": "Br", "occu": 1}], "abc": [0.343680999999999, 0.171841, 0.75], "properties": {"magmom": 0.264}, "label": "Br", "xyz": [1.7843711433799965, -1.0302031391999942, 4.6922542499999995]}, {"species": [{"element": "Br", "occu": 1}], "abc": [0.828159, 0.171841, 0.75], "properties": {"magmom": 0.263}, "label": "Br", "xyz": [3.46129, -3.93471173134, 4.6922542499999995]}]}, "task_ids": null, "uncorrected_energy_per_atom": null, "energy_per_atom": -3.543497818749999, "formation_energy_per_atom": -1.8360441825, "energy_above_hull": 0.09949352000000201, "is_stable": false, "equilibrium_reaction_energy_per_atom": null, "decomposes_to": null, "xas": null, "grain_boundaries": null, "band_gap": 0.0, "cbm": null, "vbm": null, "efermi": 1.04863738, "is_gap_direct": null, "is_metal": null, "es_source_calc_id": null, "bandstructure": null, "dos": null, "dos_energy_up": null, "dos_energy_down": null, "is_magnetic": null, "ordering": null, "total_magnetization": 1.9987464, "total_magnetization_normalized_vol": null, "total_magnetization_normalized_formula_units": null, "num_magnetic_sites": null, "num_unique_magnetic_sites": null, "types_of_magnetic_species": null, "bulk_modulus": null, "shear_modulus": null, "universal_anisotropy": null, "homogeneous_poisson": null, "e_total": null, "e_ionic": null, "e_electronic": null, "n": null, "e_ij_max": null, "weighted_surface_energy_EV_PER_ANG2": null, "weighted_surface_energy": null, "weighted_work_function": null, "surface_anisotropy": null, "shape_factor": null, "has_reconstructed": null, "possible_species": null, "has_props": null, "theoretical": null, "database_IDs": null, "fields_not_requested": ["builder_meta", "nsites", "elements", "nelements", "composition", "composition_reduced", "chemsys", "symmetry", "property_name", "deprecated", "deprecation_reasons", "last_updated", "origins", "warnings", "task_ids", "uncorrected_energy_per_atom", "equilibrium_reaction_energy_per_atom", "decomposes_to", "xas", "grain_boundaries", "cbm", "vbm", "is_gap_direct", "is_metal", "es_source_calc_id", "bandstructure", "dos", "dos_energy_up", "dos_energy_down", "is_magnetic", "ordering", "total_magnetization_normalized_vol", "total_magnetization_normalized_formula_units", "num_magnetic_sites", "num_unique_magnetic_sites", "types_of_magnetic_species", "bulk_modulus", "shear_modulus", "universal_anisotropy", "homogeneous_poisson", "e_total", "e_ionic", "e_electronic", "n", "e_ij_max", "weighted_surface_energy_EV_PER_ANG2", "weighted_surface_energy", "weighted_work_function", "surface_anisotropy", "shape_factor", "has_reconstructed", "possible_species", "has_props", "theoretical", "database_IDs"]}