{
  "builder_meta": null,
  "nsites": null,
  "elements": null,
  "nelements": null,
  "composition": null,
  "composition_reduced": null,
  "formula_pretty": "BaC2",
  "formula_anonymous": "AB2",
  "chemsys": null,
  "volume": 143.23446742601212,
  "density": 3.741073309352728,
  "density_atomic": 23.872411237668686,
  "symmetry": null,
  "property_name": null,
  "material_id": "mp-10293",
  "deprecated": null,
  "deprecation_reasons": null,
  "last_updated": null,
  "origins": null,
  "warnings": null,
  "structure": {
    "@module": "pymatgen.core.structure",
    "@class": "Structure",
    "charge": 0,
    "lattice": {
      "matrix": [
        [2.388627, 3.83047, 0.0],
        [-2.388627, 3.83047, 0.0],
        [0.0, 2.880929, 7.827393]
      ],
      "pbc": [true, true, true],
      "a": 4.5142041785932765,
      "b": 4.5142041785932765,
      "c": 8.34073336580723,
      "alpha": 72.95703278214856,
      "beta": 72.95703278214856,
      "gamma": 63.89416460931964,
      "volume": 143.23446742601212
    },
    "properties": {},
    "sites": [
      {
        "species": [{ "element": "Ba", "occu": 1 }],
        "abc": [0.18979000000000001, 0.8102100000000001, 0.25],
        "properties": { "magmom": 0.0 },
        "label": "Ba",
        "xyz": [-1.4819519633400002, 4.5507022500000005, 1.95684825]
      },
      {
        "species": [{ "element": "Ba", "occu": 1 }],
        "abc": [0.8102100000000001, 0.18979000000000001, 0.75],
        "properties": { "magmom": 0.0 },
        "label": "Ba",
        "xyz": [1.4819519633400002, 5.99116675, 5.87054475]
      },
      {
        "species": [{ "element": "C", "occu": 1 }],
        "abc": [0.414028, 0.106722, 0.445527],
        "properties": { "magmom": -0.0 },
        "label": "C",
        "xyz": [0.734039408862, 3.2782489070830003, 3.487314921111]
      },
      {
        "species": [{ "element": "C", "occu": 1 }],
        "abc": [0.893277999999999, 0.585971999999999, 0.054473],
        "properties": { "magmom": -0.0 },
        "label": "C",
        "xyz": [0.7340394088619999, 5.823155592916993, 0.42638157888899997]
      },
      {
        "species": [{ "element": "C", "occu": 1 }],
        "abc": [0.106722, 0.414028, 0.945527],
        "properties": { "magmom": -0.0 },
        "label": "C",
        "xyz": [-0.734039408862, 4.718713407083, 7.401011421111]
      },
      {
        "species": [{ "element": "C", "occu": 1 }],
        "abc": [0.585971999999999, 0.893277999999999, 0.554473],
        "properties": { "magmom": -0.0 },
        "label": "C",
        "xyz": [-0.7340394088619999, 7.263620092916993, 4.340078078888999]
      }
    ]
  },
  "task_ids": null,
  "uncorrected_energy_per_atom": null,
  "energy_per_atom": -6.710404973333333,
  "formation_energy_per_atom": 0.081697001666665,
  "energy_above_hull": 0.146835474444444,
  "is_stable": false,
  "equilibrium_reaction_energy_per_atom": null,
  "decomposes_to": null,
  "xas": null,
  "grain_boundaries": null,
  "band_gap": 2.1291,
  "cbm": null,
  "vbm": null,
  "efermi": 0.12749713000000001,
  "is_gap_direct": null,
  "is_metal": null,
  "es_source_calc_id": null,
  "bandstructure": null,
  "dos": null,
  "dos_energy_up": null,
  "dos_energy_down": null,
  "is_magnetic": null,
  "ordering": null,
  "total_magnetization": 0.0005,
  "total_magnetization_normalized_vol": null,
  "total_magnetization_normalized_formula_units": null,
  "num_magnetic_sites": null,
  "num_unique_magnetic_sites": null,
  "types_of_magnetic_species": null,
  "bulk_modulus": null,
  "shear_modulus": null,
  "universal_anisotropy": null,
  "homogeneous_poisson": null,
  "e_total": null,
  "e_ionic": null,
  "e_electronic": null,
  "n": null,
  "e_ij_max": null,
  "weighted_surface_energy_EV_PER_ANG2": null,
  "weighted_surface_energy": null,
  "weighted_work_function": null,
  "surface_anisotropy": null,
  "shape_factor": null,
  "has_reconstructed": null,
  "possible_species": null,
  "has_props": null,
  "theoretical": null,
  "database_IDs": null,
  "fields_not_requested": [
    "builder_meta",
    "nsites",
    "elements",
    "nelements",
    "composition",
    "composition_reduced",
    "chemsys",
    "symmetry",
    "property_name",
    "deprecated",
    "deprecation_reasons",
    "last_updated",
    "origins",
    "warnings",
    "task_ids",
    "uncorrected_energy_per_atom",
    "equilibrium_reaction_energy_per_atom",
    "decomposes_to",
    "xas",
    "grain_boundaries",
    "cbm",
    "vbm",
    "is_gap_direct",
    "is_metal",
    "es_source_calc_id",
    "bandstructure",
    "dos",
    "dos_energy_up",
    "dos_energy_down",
    "is_magnetic",
    "ordering",
    "total_magnetization_normalized_vol",
    "total_magnetization_normalized_formula_units",
    "num_magnetic_sites",
    "num_unique_magnetic_sites",
    "types_of_magnetic_species",
    "bulk_modulus",
    "shear_modulus",
    "universal_anisotropy",
    "homogeneous_poisson",
    "e_total",
    "e_ionic",
    "e_electronic",
    "n",
    "e_ij_max",
    "weighted_surface_energy_EV_PER_ANG2",
    "weighted_surface_energy",
    "weighted_work_function",
    "surface_anisotropy",
    "shape_factor",
    "has_reconstructed",
    "possible_species",
    "has_props",
    "theoretical",
    "database_IDs"
  ]
}
