{"builder_meta": null, "nsites": null, "elements": null, "nelements": null, "composition": null, "composition_reduced": null, "formula_pretty": "BaC6", "formula_anonymous": "AB6", "chemsys": null, "volume": 172.39172162004743, "density": 4.033862699841146, "density_atomic": 12.31369440143196, "symmetry": null, "property_name": null, "material_id": "mp-1214417", "deprecated": null, "deprecation_reasons": null, "last_updated": null, "origins": null, "warnings": null, "structure": {"@module": "pymatgen.core.structure", "@class": "Structure", "charge": 0, "lattice": {"matrix": [[-2.15823711, -3.73817887, 0.0], [-2.15823711, 3.73817887, -0.0], [-0.0, -0.0, -10.68383512]], "pbc": [true, true, true], "a": 4.316476420310393, "b": 4.316476420310393, "c": 10.68383512, "alpha": 90.0, "beta": 90.0, "gamma": 120.00003372457935, "volume": 172.39172162004743}, "properties": {}, "sites": [{"species": [{"element": "Ba", "occu": 1}], "abc": [0.666667, 0.333333, 0.75], "properties": {"magmom": -0.0}, "label": "Ba", "xyz": [-2.15823711, -1.24606211545258, -8.01287634]}, {"species": [{"element": "Ba", "occu": 1}], "abc": [0.333333, 0.666667, 0.25], "properties": {"magmom": -0.0}, "label": "Ba", "xyz": [-2.15823711, 1.24606211545258, -2.67095878]}, {"species": [{"element": "C", "occu": 1}], "abc": [0.66649799, 0.66649799, -0.0], "properties": {"magmom": -0.0}, "label": "C", "xyz": [-2.8769213915168175, 0.0, 0.0]}, {"species": [{"element": "C", "occu": 1}], "abc": [0.33350201, 0.33350201, 0.0], "properties": {"magmom": -0.0}, "label": "C", "xyz": [-1.4395528284831822, 0.0, 0.0]}, {"species": [{"element": "C", "occu": 1}], "abc": [0.0, 0.33350201, 0.0], "properties": {"magmom": -0.0}, "label": "C", "xyz": [-0.7197764142415911, 1.2466901668845287, 0.0]}, {"species": [{"element": "C", "occu": 1}], "abc": [0.33350201, 0.33350201, 0.5], "properties": {"magmom": -0.0}, "label": "C", "xyz": [-1.4395528284831822, 0.0, -5.34191756]}, {"species": [{"element": "C", "occu": 1}], "abc": [-0.0, 0.66649799, 0.0], "properties": {"magmom": -0.0}, "label": "C", "xyz": [-1.4384606957584087, 2.491488703115471, 0.0]}, {"species": [{"element": "C", "occu": 1}], "abc": [0.66649799, 0.66649799, 0.5], "properties": {"magmom": -0.0}, "label": "C", "xyz": [-2.8769213915168175, 0.0, -5.34191756]}, {"species": [{"element": "C", "occu": 1}], "abc": [0.33350201, 0.0, -0.0], "properties": {"magmom": -0.0}, "label": "C", "xyz": [-0.7197764142415911, -1.2466901668845287, 0.0]}, {"species": [{"element": "C", "occu": 1}], "abc": [-0.0, 0.66649799, 0.5], "properties": {"magmom": -0.0}, "label": "C", "xyz": [-1.4384606957584087, 2.491488703115471, -5.34191756]}, {"species": [{"element": "C", "occu": 1}], "abc": [0.66649799, -0.0, 0.0], "properties": {"magmom": -0.0}, "label": "C", "xyz": [-1.4384606957584087, -2.491488703115471, 0.0]}, {"species": [{"element": "C", "occu": 1}], "abc": [0.0, 0.33350201, 0.5], "properties": {"magmom": -0.0}, "label": "C", "xyz": [-0.7197764142415911, 1.2466901668845287, -5.34191756]}, {"species": [{"element": "C", "occu": 1}], "abc": [0.66649799, -0.0, 0.5], "properties": {"magmom": -0.0}, "label": "C", "xyz": [-1.4384606957584087, -2.491488703115471, -5.34191756]}, {"species": [{"element": "C", "occu": 1}], "abc": [0.33350201, 0.0, 0.5], "properties": {"magmom": -0.0}, "label": "C", "xyz": [-0.7197764142415911, -1.2466901668845287, -5.34191756]}]}, "task_ids": null, "uncorrected_energy_per_atom": null, "energy_per_atom": -8.26817345, "formation_energy_per_atom": -0.08374946500000101, "energy_above_hull": 0.0, "is_stable": true, "equilibrium_reaction_energy_per_atom": null, "decomposes_to": null, "xas": null, "grain_boundaries": null, "band_gap": 0.0, "cbm": null, "vbm": null, "efermi": 5.58967106, "is_gap_direct": null, "is_metal": null, "es_source_calc_id": null, "bandstructure": null, "dos": null, "dos_energy_up": null, "dos_energy_down": null, "is_magnetic": null, "ordering": null, "total_magnetization": 0.0, "total_magnetization_normalized_vol": null, "total_magnetization_normalized_formula_units": null, "num_magnetic_sites": null, "num_unique_magnetic_sites": null, "types_of_magnetic_species": null, "bulk_modulus": null, "shear_modulus": null, "universal_anisotropy": null, "homogeneous_poisson": null, "e_total": null, "e_ionic": null, "e_electronic": null, "n": null, "e_ij_max": null, "weighted_surface_energy_EV_PER_ANG2": null, "weighted_surface_energy": null, "weighted_work_function": null, "surface_anisotropy": null, "shape_factor": null, "has_reconstructed": null, "possible_species": null, "has_props": null, "theoretical": null, "database_IDs": null, "fields_not_requested": ["builder_meta", "nsites", "elements", "nelements", "composition", "composition_reduced", "chemsys", "symmetry", "property_name", "deprecated", "deprecation_reasons", "last_updated", "origins", "warnings", "task_ids", "uncorrected_energy_per_atom", "equilibrium_reaction_energy_per_atom", "decomposes_to", "xas", "grain_boundaries", "cbm", "vbm", "is_gap_direct", "is_metal", "es_source_calc_id", "bandstructure", "dos", "dos_energy_up", "dos_energy_down", "is_magnetic", "ordering", "total_magnetization_normalized_vol", "total_magnetization_normalized_formula_units", "num_magnetic_sites", "num_unique_magnetic_sites", "types_of_magnetic_species", "bulk_modulus", "shear_modulus", "universal_anisotropy", "homogeneous_poisson", "e_total", "e_ionic", "e_electronic", "n", "e_ij_max", "weighted_surface_energy_EV_PER_ANG2", "weighted_surface_energy", "weighted_work_function", "surface_anisotropy", "shape_factor", "has_reconstructed", "possible_species", "has_props", "theoretical", "database_IDs"]}