{
  "builder_meta": null,
  "nsites": null,
  "elements": null,
  "nelements": null,
  "composition": null,
  "composition_reduced": null,
  "formula_pretty": "BaCd2",
  "formula_anonymous": "AB2",
  "chemsys": null,
  "volume": 192.04942806602207,
  "density": 6.262581133263142,
  "density_atomic": 32.00823801100368,
  "symmetry": null,
  "property_name": null,
  "material_id": "mp-11266",
  "deprecated": null,
  "deprecation_reasons": null,
  "last_updated": null,
  "origins": null,
  "warnings": null,
  "structure": {
    "@module": "pymatgen.core.structure",
    "@class": "Structure",
    "charge": 0,
    "lattice": {
      "matrix": [
        [4.86577017, -1e-8, 2.08739998],
        [2.35618202, 6.02110443, 1.22249502],
        [0.05782879, 0.00017086, 6.58000411]
      ],
      "pbc": [true, true, true],
      "a": 5.294615946767606,
      "b": 6.580257315809292,
      "c": 6.580258223334621,
      "alpha": 79.10874171471004,
      "beta": 66.2772863864079,
      "gamma": 66.27729340603334,
      "volume": 192.04942806602207
    },
    "properties": {},
    "sites": [
      {
        "species": [{ "element": "Ba", "occu": 1 }],
        "abc": [0.54867005, 0.70132995, 0.20132995],
        "properties": { "magmom": 0.0 },
        "label": "Ba",
        "xyz": [4.333806048139167, 4.222815262585234, 3.327418121114542]
      },
      {
        "species": [{ "element": "Ba", "occu": 1 }],
        "abc": [0.45132995000000004, 0.29867005, 0.79867005],
        "properties": { "magmom": 0.0 },
        "label": "Ba",
        "xyz": [2.945974931860832, 1.7984600174147651, 6.562480988885458]
      },
      {
        "species": [{ "element": "Cd", "occu": 1 }],
        "abc": [0.83593542, 0.7265250400000001, 0.60160613],
        "properties": { "magmom": 0.0 },
        "label": "Cd",
        "xyz": [5.8140850215646855, 4.3745859189139455, 6.591675630295786]
      },
      {
        "species": [{ "element": "Cd", "occu": 1 }],
        "abc": [0.16406458000000002, 0.27347496, 0.39839387],
        "properties": { "magmom": 0.0 },
        "label": "Cd",
        "xyz": [1.465695958435315, 1.6466893610860551, 3.2982234797042134]
      },
      {
        "species": [{ "element": "Cd", "occu": 1 }],
        "abc": [0.83593542, 0.10160613, 0.22652504],
        "properties": { "magmom": 0.0 },
        "label": "Cd",
        "xyz": [4.319971836278106, 0.6118198151671361, 3.3596802611336782]
      },
      {
        "species": [{ "element": "Cd", "occu": 1 }],
        "abc": [0.16406458000000002, 0.89839387, 0.77347496],
        "properties": { "magmom": 0.0 },
        "label": "Cd",
        "xyz": [2.9598091437218947, 5.409455464832864, 6.530218848866322]
      }
    ]
  },
  "task_ids": null,
  "uncorrected_energy_per_atom": null,
  "energy_per_atom": -1.5892582600000011,
  "formation_energy_per_atom": -0.30959315333333304,
  "energy_above_hull": 0.0,
  "is_stable": true,
  "equilibrium_reaction_energy_per_atom": null,
  "decomposes_to": null,
  "xas": null,
  "grain_boundaries": null,
  "band_gap": 0.0,
  "cbm": null,
  "vbm": null,
  "efermi": 2.18861808,
  "is_gap_direct": null,
  "is_metal": null,
  "es_source_calc_id": null,
  "bandstructure": null,
  "dos": null,
  "dos_energy_up": null,
  "dos_energy_down": null,
  "is_magnetic": null,
  "ordering": null,
  "total_magnetization": 1.5700000000000002e-5,
  "total_magnetization_normalized_vol": null,
  "total_magnetization_normalized_formula_units": null,
  "num_magnetic_sites": null,
  "num_unique_magnetic_sites": null,
  "types_of_magnetic_species": null,
  "bulk_modulus": null,
  "shear_modulus": null,
  "universal_anisotropy": null,
  "homogeneous_poisson": null,
  "e_total": null,
  "e_ionic": null,
  "e_electronic": null,
  "n": null,
  "e_ij_max": null,
  "weighted_surface_energy_EV_PER_ANG2": null,
  "weighted_surface_energy": null,
  "weighted_work_function": null,
  "surface_anisotropy": null,
  "shape_factor": null,
  "has_reconstructed": null,
  "possible_species": null,
  "has_props": null,
  "theoretical": null,
  "database_IDs": null,
  "fields_not_requested": [
    "builder_meta",
    "nsites",
    "elements",
    "nelements",
    "composition",
    "composition_reduced",
    "chemsys",
    "symmetry",
    "property_name",
    "deprecated",
    "deprecation_reasons",
    "last_updated",
    "origins",
    "warnings",
    "task_ids",
    "uncorrected_energy_per_atom",
    "equilibrium_reaction_energy_per_atom",
    "decomposes_to",
    "xas",
    "grain_boundaries",
    "cbm",
    "vbm",
    "is_gap_direct",
    "is_metal",
    "es_source_calc_id",
    "bandstructure",
    "dos",
    "dos_energy_up",
    "dos_energy_down",
    "is_magnetic",
    "ordering",
    "total_magnetization_normalized_vol",
    "total_magnetization_normalized_formula_units",
    "num_magnetic_sites",
    "num_unique_magnetic_sites",
    "types_of_magnetic_species",
    "bulk_modulus",
    "shear_modulus",
    "universal_anisotropy",
    "homogeneous_poisson",
    "e_total",
    "e_ionic",
    "e_electronic",
    "n",
    "e_ij_max",
    "weighted_surface_energy_EV_PER_ANG2",
    "weighted_surface_energy",
    "weighted_work_function",
    "surface_anisotropy",
    "shape_factor",
    "has_reconstructed",
    "possible_species",
    "has_props",
    "theoretical",
    "database_IDs"
  ]
}
