{"builder_meta": null, "nsites": null, "elements": null, "nelements": null, "composition": null, "composition_reduced": null, "formula_pretty": "BaCe3", "formula_anonymous": "AB3", "chemsys": null, "volume": 267.54125896185656, "density": 6.922604218575356, "density_atomic": 33.44265737023207, "symmetry": null, "property_name": null, "material_id": "mp-1183525", "deprecated": null, "deprecation_reasons": null, "last_updated": null, "origins": null, "warnings": null, "structure": {"@module": "pymatgen.core.structure", "@class": "Structure", "charge": 0, "lattice": {"matrix": [[3.609654, -6.252103, 0.0], [3.609654, 6.252103, 0.0], [0.0, 0.0, 5.927466]], "pbc": [true, true, true], "a": 7.2193070250769225, "b": 7.2193070250769225, "c": 5.927466, "alpha": 90.0, "beta": 90.0, "gamma": 119.99999106557001, "volume": 267.54125896185656}, "properties": {}, "sites": [{"species": [{"element": "Ba", "occu": 1}], "abc": [0.333333, 0.666667, 0.75], "properties": {"magmom": -0.004}, "label": "Ba", "xyz": [3.609654, 2.0840385014020004, 4.4455995]}, {"species": [{"element": "Ba", "occu": 1}], "abc": [0.666667, 0.333333, 0.25], "properties": {"magmom": -0.003}, "label": "Ba", "xyz": [3.609654, -2.0840385014020004, 1.4818665]}, {"species": [{"element": "Ce", "occu": 1}], "abc": [0.133516, 0.267030999999999, 0.25], "properties": {"magmom": 0.068}, "label": "Ce", "xyz": [1.4458360807379964, 0.8347495320449938, 1.4818665]}, {"species": [{"element": "Ce", "occu": 1}], "abc": [0.732969, 0.866483999999999, 0.25], "properties": {"magmom": 0.066}, "label": "Ce", "xyz": [5.773471919261996, 0.8347495320449934, 1.4818665]}, {"species": [{"element": "Ce", "occu": 1}], "abc": [0.133516, 0.866483999999999, 0.25], "properties": {"magmom": 0.067}, "label": "Ce", "xyz": [3.6096539999999964, 4.582591431703993, 1.4818665]}, {"species": [{"element": "Ce", "occu": 1}], "abc": [0.866483999999999, 0.732969, 0.75], "properties": {"magmom": 0.068}, "label": "Ce", "xyz": [5.773471919261996, -0.8347495320449934, 4.4455995]}, {"species": [{"element": "Ce", "occu": 1}], "abc": [0.267030999999999, 0.133516, 0.75], "properties": {"magmom": 0.064}, "label": "Ce", "xyz": [1.4458360807379964, -0.8347495320449938, 4.4455995]}, {"species": [{"element": "Ce", "occu": 1}], "abc": [0.866483999999999, 0.133516, 0.75], "properties": {"magmom": 0.063}, "label": "Ce", "xyz": [3.6096539999999964, -4.582591431703993, 4.4455995]}]}, "task_ids": null, "uncorrected_energy_per_atom": null, "energy_per_atom": -4.56483765625, "formation_energy_per_atom": 0.367618481250002, "energy_above_hull": 0.367618481250002, "is_stable": false, "equilibrium_reaction_energy_per_atom": null, "decomposes_to": null, "xas": null, "grain_boundaries": null, "band_gap": 0.0, "cbm": null, "vbm": null, "efermi": 6.4150075300000005, "is_gap_direct": null, "is_metal": null, "es_source_calc_id": null, "bandstructure": null, "dos": null, "dos_energy_up": null, "dos_energy_down": null, "is_magnetic": null, "ordering": null, "total_magnetization": 0.4475286, "total_magnetization_normalized_vol": null, "total_magnetization_normalized_formula_units": null, "num_magnetic_sites": null, "num_unique_magnetic_sites": null, "types_of_magnetic_species": null, "bulk_modulus": null, "shear_modulus": null, "universal_anisotropy": null, "homogeneous_poisson": null, "e_total": null, "e_ionic": null, "e_electronic": null, "n": null, "e_ij_max": null, "weighted_surface_energy_EV_PER_ANG2": null, "weighted_surface_energy": null, "weighted_work_function": null, "surface_anisotropy": null, "shape_factor": null, "has_reconstructed": null, "possible_species": null, "has_props": null, "theoretical": null, "database_IDs": null, "fields_not_requested": ["builder_meta", "nsites", "elements", "nelements", "composition", "composition_reduced", "chemsys", "symmetry", "property_name", "deprecated", "deprecation_reasons", "last_updated", "origins", "warnings", "task_ids", "uncorrected_energy_per_atom", "equilibrium_reaction_energy_per_atom", "decomposes_to", "xas", "grain_boundaries", "cbm", "vbm", "is_gap_direct", "is_metal", "es_source_calc_id", "bandstructure", "dos", "dos_energy_up", "dos_energy_down", "is_magnetic", "ordering", "total_magnetization_normalized_vol", "total_magnetization_normalized_formula_units", "num_magnetic_sites", "num_unique_magnetic_sites", "types_of_magnetic_species", "bulk_modulus", "shear_modulus", "universal_anisotropy", "homogeneous_poisson", "e_total", "e_ionic", "e_electronic", "n", "e_ij_max", "weighted_surface_energy_EV_PER_ANG2", "weighted_surface_energy", "weighted_work_function", "surface_anisotropy", "shape_factor", "has_reconstructed", "possible_species", "has_props", "theoretical", "database_IDs"]}