{"builder_meta": null, "nsites": null, "elements": null, "nelements": null, "composition": null, "composition_reduced": null, "formula_pretty": "BaDy", "formula_anonymous": "AB", "chemsys": null, "volume": 84.50966703557366, "density": 5.891331301919601, "density_atomic": 42.25483351778683, "symmetry": null, "property_name": null, "material_id": "mp-1183294", "deprecated": null, "deprecation_reasons": null, "last_updated": null, "origins": null, "warnings": null, "structure": {"@module": "pymatgen.core.structure", "@class": "Structure", "charge": 0, "lattice": {"matrix": [[3.880552, -0.000146, 0.0], [-1.940402999999999, 3.360573, 1e-06], [0.0, 2e-06, 6.480507]], "pbc": [true, true, true], "a": 3.880552002746516, "b": 3.880543092240955, "c": 6.480507000000308, "alpha": 89.99996992196564, "beta": 90.00000000066528, "gamma": 120.00439685401456, "volume": 84.50966703557366}, "properties": {}, "sites": [{"species": [{"element": "Ba", "occu": 1}], "abc": [0.666675999999999, 0.333326, 0.75], "properties": {"magmom": 0.034}, "label": "Ba", "xyz": [1.9402841147739966, 1.120070521102, 4.860380583326]}, {"species": [{"element": "Dy", "occu": 1}], "abc": [0.333324, 0.666671999999999, 0.25], "properties": {"magmom": 0.247}, "label": "Dy", "xyz": [-0.00013123396799752385, 2.240351757751997, 1.620127416672]}]}, "task_ids": null, "uncorrected_energy_per_atom": null, "energy_per_atom": -2.94936778, "formation_energy_per_atom": 0.319307454166668, "energy_above_hull": 0.319307454166668, "is_stable": false, "equilibrium_reaction_energy_per_atom": null, "decomposes_to": null, "xas": null, "grain_boundaries": null, "band_gap": 0.0, "cbm": null, "vbm": null, "efermi": 2.58022674, "is_gap_direct": null, "is_metal": null, "es_source_calc_id": null, "bandstructure": null, "dos": null, "dos_energy_up": null, "dos_energy_down": null, "is_magnetic": null, "ordering": null, "total_magnetization": 0.4973841, "total_magnetization_normalized_vol": null, "total_magnetization_normalized_formula_units": null, "num_magnetic_sites": null, "num_unique_magnetic_sites": null, "types_of_magnetic_species": null, "bulk_modulus": null, "shear_modulus": null, "universal_anisotropy": null, "homogeneous_poisson": null, "e_total": null, "e_ionic": null, "e_electronic": null, "n": null, "e_ij_max": null, "weighted_surface_energy_EV_PER_ANG2": null, "weighted_surface_energy": null, "weighted_work_function": null, "surface_anisotropy": null, "shape_factor": null, "has_reconstructed": null, "possible_species": null, "has_props": null, "theoretical": null, "database_IDs": null, "fields_not_requested": ["builder_meta", "nsites", "elements", "nelements", "composition", "composition_reduced", "chemsys", "symmetry", "property_name", "deprecated", "deprecation_reasons", "last_updated", "origins", "warnings", "task_ids", "uncorrected_energy_per_atom", "equilibrium_reaction_energy_per_atom", "decomposes_to", "xas", "grain_boundaries", "cbm", "vbm", "is_gap_direct", "is_metal", "es_source_calc_id", "bandstructure", "dos", "dos_energy_up", "dos_energy_down", "is_magnetic", "ordering", "total_magnetization_normalized_vol", "total_magnetization_normalized_formula_units", "num_magnetic_sites", "num_unique_magnetic_sites", "types_of_magnetic_species", "bulk_modulus", "shear_modulus", "universal_anisotropy", "homogeneous_poisson", "e_total", "e_ionic", "e_electronic", "n", "e_ij_max", "weighted_surface_energy_EV_PER_ANG2", "weighted_surface_energy", "weighted_work_function", "surface_anisotropy", "shape_factor", "has_reconstructed", "possible_species", "has_props", "theoretical", "database_IDs"]}