{"builder_meta": null, "nsites": null, "elements": null, "nelements": null, "composition": null, "composition_reduced": null, "formula_pretty": "BaEu3", "formula_anonymous": "AB3", "chemsys": null, "volume": 392.35080618303846, "density": 5.021339622734641, "density_atomic": 49.04385077287981, "symmetry": null, "property_name": null, "material_id": "mp-1183388", "deprecated": null, "deprecation_reasons": null, "last_updated": null, "origins": null, "warnings": null, "structure": {"@module": "pymatgen.core.structure", "@class": "Structure", "charge": 0, "lattice": {"matrix": [[4.124364, -7.143607, 0.0], [4.124364, 7.143607, 0.0], [0.0, 0.0, 6.658402]], "pbc": [true, true, true], "a": 8.248727136652358, "b": 8.248727136652358, "c": 6.658402, "alpha": 90.0, "beta": 90.0, "gamma": 119.9999930754624, "volume": 392.35080618303846}, "properties": {}, "sites": [{"species": [{"element": "Ba", "occu": 1}], "abc": [0.333333, 0.666667, 0.75], "properties": {"magmom": 0.124}, "label": "Ba", "xyz": [4.124364, 2.381207095738, 4.9938015]}, {"species": [{"element": "Ba", "occu": 1}], "abc": [0.666667, 0.333333, 0.25], "properties": {"magmom": 0.12}, "label": "Ba", "xyz": [4.124364, -2.381207095738, 1.6646005]}, {"species": [{"element": "Eu", "occu": 1}], "abc": [0.164277, 0.328555, 0.25], "properties": {"magmom": 7.006}, "label": "Eu", "xyz": [2.032618558848, 1.1735374707459998, 1.6646005]}, {"species": [{"element": "Eu", "occu": 1}], "abc": [0.671445, 0.835723, 0.25], "properties": {"magmom": 7.007}, "label": "Eu", "xyz": [6.216109441152, 1.173537470746001, 1.6646005]}, {"species": [{"element": "Eu", "occu": 1}], "abc": [0.164277, 0.835723, 0.25], "properties": {"magmom": 7.006}, "label": "Eu", "xyz": [4.124364, 4.796546345722001, 1.6646005]}, {"species": [{"element": "Eu", "occu": 1}], "abc": [0.835723, 0.671445, 0.75], "properties": {"magmom": 7.006}, "label": "Eu", "xyz": [6.216109441152, -1.173537470746001, 4.9938015]}, {"species": [{"element": "Eu", "occu": 1}], "abc": [0.328555, 0.164277, 0.75], "properties": {"magmom": 7.007}, "label": "Eu", "xyz": [2.032618558848, -1.1735374707459998, 4.9938015]}, {"species": [{"element": "Eu", "occu": 1}], "abc": [0.835723, 0.164277, 0.75], "properties": {"magmom": 7.006}, "label": "Eu", "xyz": [4.124364, -4.796546345722001, 4.9938015]}]}, "task_ids": null, "uncorrected_energy_per_atom": null, "energy_per_atom": -8.13449573, "formation_energy_per_atom": 0.061331941249996004, "energy_above_hull": 0.061331941249996004, "is_stable": false, "equilibrium_reaction_energy_per_atom": null, "decomposes_to": null, "xas": null, "grain_boundaries": null, "band_gap": 0.0, "cbm": null, "vbm": null, "efermi": 1.85092476, "is_gap_direct": null, "is_metal": null, "es_source_calc_id": null, "bandstructure": null, "dos": null, "dos_energy_up": null, "dos_energy_down": null, "is_magnetic": null, "ordering": null, "total_magnetization": 45.9773497, "total_magnetization_normalized_vol": null, "total_magnetization_normalized_formula_units": null, "num_magnetic_sites": null, "num_unique_magnetic_sites": null, "types_of_magnetic_species": null, "bulk_modulus": null, "shear_modulus": null, "universal_anisotropy": null, "homogeneous_poisson": null, "e_total": null, "e_ionic": null, "e_electronic": null, "n": null, "e_ij_max": null, "weighted_surface_energy_EV_PER_ANG2": null, "weighted_surface_energy": null, "weighted_work_function": null, "surface_anisotropy": null, "shape_factor": null, "has_reconstructed": null, "possible_species": null, "has_props": null, "theoretical": null, "database_IDs": null, "fields_not_requested": ["builder_meta", "nsites", "elements", "nelements", "composition", "composition_reduced", "chemsys", "symmetry", "property_name", "deprecated", "deprecation_reasons", "last_updated", "origins", "warnings", "task_ids", "uncorrected_energy_per_atom", "equilibrium_reaction_energy_per_atom", "decomposes_to", "xas", "grain_boundaries", "cbm", "vbm", "is_gap_direct", "is_metal", "es_source_calc_id", "bandstructure", "dos", "dos_energy_up", "dos_energy_down", "is_magnetic", "ordering", "total_magnetization_normalized_vol", "total_magnetization_normalized_formula_units", "num_magnetic_sites", "num_unique_magnetic_sites", "types_of_magnetic_species", "bulk_modulus", "shear_modulus", "universal_anisotropy", "homogeneous_poisson", "e_total", "e_ionic", "e_electronic", "n", "e_ij_max", "weighted_surface_energy_EV_PER_ANG2", "weighted_surface_energy", "weighted_work_function", "surface_anisotropy", "shape_factor", "has_reconstructed", "possible_species", "has_props", "theoretical", "database_IDs"]}