{"builder_meta": null, "nsites": null, "elements": null, "nelements": null, "composition": null, "composition_reduced": null, "formula_pretty": "BaF2", "formula_anonymous": "AB2", "chemsys": null, "volume": 60.32690236247557, "density": 4.825907156361877, "density_atomic": 20.108967454158524, "symmetry": null, "property_name": null, "material_id": "mp-1029", "deprecated": null, "deprecation_reasons": null, "last_updated": null, "origins": null, "warnings": null, "structure": {"@module": "pymatgen.core.structure", "@class": "Structure", "charge": 0, "lattice": {"matrix": [[3.81246481, -1e-08, 2.20112828], [1.27082092, 3.59442753, 2.20112828], [-0.0, -0.0, 4.40225758]], "pbc": [true, true, true], "a": 4.402255516494255, "b": 4.4022563287645236, "c": 4.40225758, "alpha": 59.99999826243465, "beta": 59.99999215881645, "gamma": 60.00000989251514, "volume": 60.32690236247557}, "properties": {}, "sites": [{"species": [{"element": "Ba", "occu": 1}], "abc": [-0.0, 0.0, -0.0], "properties": {"magmom": -0.0}, "label": "Ba", "xyz": [0.0, 0.0, 0.0]}, {"species": [{"element": "F", "occu": 1}], "abc": [0.75, 0.75, 0.75], "properties": {"magmom": -0.0}, "label": "F", "xyz": [3.8124642975, 2.6958206399999995, 6.603385605]}, {"species": [{"element": "F", "occu": 1}], "abc": [0.25, 0.25, 0.25], "properties": {"magmom": -0.0}, "label": "F", "xyz": [1.2708214325, 0.89860688, 2.2011285349999996]}]}, "task_ids": null, "uncorrected_energy_per_atom": null, "energy_per_atom": -6.077961740000002, "formation_energy_per_atom": -4.162401843333335, "energy_above_hull": 0.0, "is_stable": true, "equilibrium_reaction_energy_per_atom": null, "decomposes_to": null, "xas": null, "grain_boundaries": null, "band_gap": 6.6029, "cbm": null, "vbm": null, "efermi": -1.97931744, "is_gap_direct": null, "is_metal": null, "es_source_calc_id": null, "bandstructure": null, "dos": null, "dos_energy_up": null, "dos_energy_down": null, "is_magnetic": null, "ordering": null, "total_magnetization": 0.0, "total_magnetization_normalized_vol": null, "total_magnetization_normalized_formula_units": null, "num_magnetic_sites": null, "num_unique_magnetic_sites": null, "types_of_magnetic_species": null, "bulk_modulus": null, "shear_modulus": null, "universal_anisotropy": null, "homogeneous_poisson": null, "e_total": null, "e_ionic": null, "e_electronic": null, "n": null, "e_ij_max": null, "weighted_surface_energy_EV_PER_ANG2": null, "weighted_surface_energy": null, "weighted_work_function": null, "surface_anisotropy": null, "shape_factor": null, "has_reconstructed": null, "possible_species": null, "has_props": null, "theoretical": null, "database_IDs": null, "fields_not_requested": ["builder_meta", "nsites", "elements", "nelements", "composition", "composition_reduced", "chemsys", "symmetry", "property_name", "deprecated", "deprecation_reasons", "last_updated", "origins", "warnings", "task_ids", "uncorrected_energy_per_atom", "equilibrium_reaction_energy_per_atom", "decomposes_to", "xas", "grain_boundaries", "cbm", "vbm", "is_gap_direct", "is_metal", "es_source_calc_id", "bandstructure", "dos", "dos_energy_up", "dos_energy_down", "is_magnetic", "ordering", "total_magnetization_normalized_vol", "total_magnetization_normalized_formula_units", "num_magnetic_sites", "num_unique_magnetic_sites", "types_of_magnetic_species", "bulk_modulus", "shear_modulus", "universal_anisotropy", "homogeneous_poisson", "e_total", "e_ionic", "e_electronic", "n", "e_ij_max", "weighted_surface_energy_EV_PER_ANG2", "weighted_surface_energy", "weighted_work_function", "surface_anisotropy", "shape_factor", "has_reconstructed", "possible_species", "has_props", "theoretical", "database_IDs"]}