{
  "builder_meta": null,
  "nsites": null,
  "elements": null,
  "nelements": null,
  "composition": null,
  "composition_reduced": null,
  "formula_pretty": "BaF3",
  "formula_anonymous": "AB3",
  "chemsys": null,
  "volume": 143.6465255395852,
  "density": 4.492689528503932,
  "density_atomic": 17.95581569244815,
  "symmetry": null,
  "property_name": null,
  "material_id": "mp-1080821",
  "deprecated": null,
  "deprecation_reasons": null,
  "last_updated": null,
  "origins": null,
  "warnings": null,
  "structure": {
    "@module": "pymatgen.core.structure",
    "@class": "Structure",
    "charge": 0,
    "lattice": {
      "matrix": [
        [4.442775, 0.0, 0.0],
        [0.0, 4.674879, 0.0],
        [0.0, 1.036984, 6.916246]
      ],
      "pbc": [true, true, true],
      "a": 4.442775,
      "b": 4.674879,
      "c": 6.99355378536349,
      "alpha": 81.47290379274853,
      "beta": 90.0,
      "gamma": 90.0,
      "volume": 143.6465255395852
    },
    "properties": {},
    "sites": [
      {
        "species": [{ "element": "Ba", "occu": 1 }],
        "abc": [0.75, 0.208853999999999, 0.711175999999999],
        "properties": { "magmom": 0.002 },
        "label": "Ba",
        "xyz": [3.33208125, 1.7138453118499943, 4.918668165295993]
      },
      {
        "species": [{ "element": "Ba", "occu": 1 }],
        "abc": [0.25, 0.791146, 0.288823999999999],
        "properties": { "magmom": 0.002 },
        "label": "Ba",
        "xyz": [1.11069375, 3.9980176881499987, 1.9975778347039932]
      },
      {
        "species": [{ "element": "F", "occu": 1 }],
        "abc": [0.75, 0.751885999999999, 0.5236200000000001],
        "properties": { "magmom": 0.014 },
        "label": "F",
        "xyz": [3.33208125, 4.057961633873996, 3.6214847305200006]
      },
      {
        "species": [{ "element": "F", "occu": 1 }],
        "abc": [0.25, 0.248114, 0.47638],
        "properties": { "magmom": 0.014 },
        "label": "F",
        "xyz": [1.11069375, 1.653901366126, 3.2947612694800004]
      },
      {
        "species": [{ "element": "F", "occu": 1 }],
        "abc": [0.75, 0.104363, 0.111992],
        "properties": { "magmom": 0.425 },
        "label": "F",
        "xyz": [3.33208125, 0.604018309205, 0.7745642220319999]
      },
      {
        "species": [{ "element": "F", "occu": 1 }],
        "abc": [0.25, 0.895636999999999, 0.888007999999999],
        "properties": { "magmom": 0.425 },
        "label": "F",
        "xyz": [1.11069375, 5.107844690794995, 6.141681777967993]
      },
      {
        "species": [{ "element": "F", "occu": 1 }],
        "abc": [0.75, 0.509290999999999, 0.16525],
        "properties": { "magmom": 0.47000000000000003 },
        "label": "F",
        "xyz": [3.33208125, 2.5522354067889954, 1.1429096515000001]
      },
      {
        "species": [{ "element": "F", "occu": 1 }],
        "abc": [0.25, 0.49070899999999906, 0.8347500000000001],
        "properties": { "magmom": 0.47000000000000003 },
        "label": "F",
        "xyz": [1.11069375, 3.1596275932109954, 5.773336348500001]
      }
    ]
  },
  "task_ids": null,
  "uncorrected_energy_per_atom": null,
  "energy_per_atom": -5.10831957,
  "formation_energy_per_atom": -3.19318655375,
  "energy_above_hull": 0.0,
  "is_stable": true,
  "equilibrium_reaction_energy_per_atom": null,
  "decomposes_to": null,
  "xas": null,
  "grain_boundaries": null,
  "band_gap": 0.7896000000000001,
  "cbm": null,
  "vbm": null,
  "efermi": -2.17887995,
  "is_gap_direct": null,
  "is_metal": null,
  "es_source_calc_id": null,
  "bandstructure": null,
  "dos": null,
  "dos_energy_up": null,
  "dos_energy_down": null,
  "is_magnetic": null,
  "ordering": null,
  "total_magnetization": 1.9995697,
  "total_magnetization_normalized_vol": null,
  "total_magnetization_normalized_formula_units": null,
  "num_magnetic_sites": null,
  "num_unique_magnetic_sites": null,
  "types_of_magnetic_species": null,
  "bulk_modulus": null,
  "shear_modulus": null,
  "universal_anisotropy": null,
  "homogeneous_poisson": null,
  "e_total": null,
  "e_ionic": null,
  "e_electronic": null,
  "n": null,
  "e_ij_max": null,
  "weighted_surface_energy_EV_PER_ANG2": null,
  "weighted_surface_energy": null,
  "weighted_work_function": null,
  "surface_anisotropy": null,
  "shape_factor": null,
  "has_reconstructed": null,
  "possible_species": null,
  "has_props": null,
  "theoretical": null,
  "database_IDs": null,
  "fields_not_requested": [
    "builder_meta",
    "nsites",
    "elements",
    "nelements",
    "composition",
    "composition_reduced",
    "chemsys",
    "symmetry",
    "property_name",
    "deprecated",
    "deprecation_reasons",
    "last_updated",
    "origins",
    "warnings",
    "task_ids",
    "uncorrected_energy_per_atom",
    "equilibrium_reaction_energy_per_atom",
    "decomposes_to",
    "xas",
    "grain_boundaries",
    "cbm",
    "vbm",
    "is_gap_direct",
    "is_metal",
    "es_source_calc_id",
    "bandstructure",
    "dos",
    "dos_energy_up",
    "dos_energy_down",
    "is_magnetic",
    "ordering",
    "total_magnetization_normalized_vol",
    "total_magnetization_normalized_formula_units",
    "num_magnetic_sites",
    "num_unique_magnetic_sites",
    "types_of_magnetic_species",
    "bulk_modulus",
    "shear_modulus",
    "universal_anisotropy",
    "homogeneous_poisson",
    "e_total",
    "e_ionic",
    "e_electronic",
    "n",
    "e_ij_max",
    "weighted_surface_energy_EV_PER_ANG2",
    "weighted_surface_energy",
    "weighted_work_function",
    "surface_anisotropy",
    "shape_factor",
    "has_reconstructed",
    "possible_species",
    "has_props",
    "theoretical",
    "database_IDs"
  ]
}
