{"builder_meta": null, "nsites": null, "elements": null, "nelements": null, "composition": null, "composition_reduced": null, "formula_pretty": "BaGa4", "formula_anonymous": "AB4", "chemsys": null, "volume": 112.73660125980902, "density": 6.1306434825757155, "density_atomic": 22.547320251961803, "symmetry": null, "property_name": null, "material_id": "mp-335", "deprecated": null, "deprecation_reasons": null, "last_updated": null, "origins": null, "warnings": null, "structure": {"@module": "pymatgen.core.structure", "@class": "Structure", "charge": 0, "lattice": {"matrix": [[4.27037411, -1e-08, -1.66582071], [-0.64981639, 4.22064313, -1.66582071], [-0.01481794, -0.01727365, 6.26853552]], "pbc": [true, true, true], "a": 4.583781591352624, "b": 4.583781016736482, "c": 6.2685768333675105, "alpha": 111.4455021877936, "beta": 111.44550188418881, "gamma": 90.00000134288261, "volume": 112.73660125980902}, "properties": {}, "sites": [{"species": [{"element": "Ba", "occu": 1}], "abc": [-0.0, -0.0, -0.0], "properties": {"magmom": 0.0}, "label": "Ba", "xyz": [0.0, 0.0, 0.0]}, {"species": [{"element": "Ga", "occu": 1}], "abc": [0.62212254, 0.62212254, 0.24424509], "properties": {"magmom": -0.0}, "label": "Ga", "xyz": [2.2488113558940936, 2.621538214049046, -0.5416302003290099]}, {"species": [{"element": "Ga", "occu": 1}], "abc": [0.75, 0.25, 0.5], "properties": {"magmom": -0.0}, "label": "Ga", "xyz": [3.032917515, 1.04652395, 1.4684470500000002]}, {"species": [{"element": "Ga", "occu": 1}], "abc": [0.25, 0.75, 0.5], "properties": {"magmom": -0.0}, "label": "Ga", "xyz": [0.5728222649999999, 3.15684552, 1.4684470500000002]}, {"species": [{"element": "Ga", "occu": 1}], "abc": [0.37787746, 0.37787746, 0.7557549100000001], "properties": {"magmom": -0.0}, "label": "Ga", "xyz": [1.3569284241059056, 1.5818312559509535, 3.4785243003290103]}]}, "task_ids": null, "uncorrected_energy_per_atom": null, "energy_per_atom": -3.257321308, "formation_energy_per_atom": -0.45104950200000005, "energy_above_hull": 0.0, "is_stable": true, "equilibrium_reaction_energy_per_atom": null, "decomposes_to": null, "xas": null, "grain_boundaries": null, "band_gap": 0.0, "cbm": null, "vbm": null, "efermi": 3.41671877, "is_gap_direct": null, "is_metal": null, "es_source_calc_id": null, "bandstructure": null, "dos": null, "dos_energy_up": null, "dos_energy_down": null, "is_magnetic": null, "ordering": null, "total_magnetization": 0.0, "total_magnetization_normalized_vol": null, "total_magnetization_normalized_formula_units": null, "num_magnetic_sites": null, "num_unique_magnetic_sites": null, "types_of_magnetic_species": null, "bulk_modulus": null, "shear_modulus": null, "universal_anisotropy": null, "homogeneous_poisson": null, "e_total": null, "e_ionic": null, "e_electronic": null, "n": null, "e_ij_max": null, "weighted_surface_energy_EV_PER_ANG2": null, "weighted_surface_energy": null, "weighted_work_function": null, "surface_anisotropy": null, "shape_factor": null, "has_reconstructed": null, "possible_species": null, "has_props": null, "theoretical": null, "database_IDs": null, "fields_not_requested": ["builder_meta", "nsites", "elements", "nelements", "composition", "composition_reduced", "chemsys", "symmetry", "property_name", "deprecated", "deprecation_reasons", "last_updated", "origins", "warnings", "task_ids", "uncorrected_energy_per_atom", "equilibrium_reaction_energy_per_atom", "decomposes_to", "xas", "grain_boundaries", "cbm", "vbm", "is_gap_direct", "is_metal", "es_source_calc_id", "bandstructure", "dos", "dos_energy_up", "dos_energy_down", "is_magnetic", "ordering", "total_magnetization_normalized_vol", "total_magnetization_normalized_formula_units", "num_magnetic_sites", "num_unique_magnetic_sites", "types_of_magnetic_species", "bulk_modulus", "shear_modulus", "universal_anisotropy", "homogeneous_poisson", "e_total", "e_ionic", "e_electronic", "n", "e_ij_max", "weighted_surface_energy_EV_PER_ANG2", "weighted_surface_energy", "weighted_work_function", "surface_anisotropy", "shape_factor", "has_reconstructed", "possible_species", "has_props", "theoretical", "database_IDs"]}