{"builder_meta": null, "nsites": null, "elements": null, "nelements": null, "composition": null, "composition_reduced": null, "formula_pretty": "BaGe", "formula_anonymous": "AB", "chemsys": null, "volume": 133.83119691275593, "density": 5.210420503436, "density_atomic": 33.45779922818898, "symmetry": null, "property_name": null, "material_id": "mp-1730", "deprecated": null, "deprecation_reasons": null, "last_updated": null, "origins": null, "warnings": null, "structure": {"@module": "pymatgen.core.structure", "@class": "Structure", "charge": 0, "lattice": {"matrix": [[4.3290124, -0.0, 0.0], [0.0, 4.68623839, -1.98445018], [0.0, 0.02567851, 6.58609071]], "pbc": [true, true, true], "a": 4.3290124, "b": 5.089093511109009, "c": 6.586140768782894, "alpha": 112.72748741297882, "beta": 90.0, "gamma": 90.0, "volume": 133.8311969127559}, "properties": {}, "sites": [{"species": [{"element": "Ba", "occu": 1}], "abc": [0.25, 0.862447099999999, 0.7248922], "properties": {"magmom": 0.0}, "label": "Ba", "xyz": [1.0822531, 4.0602468609707865, 3.0627224813359852]}, {"species": [{"element": "Ba", "occu": 1}], "abc": [0.75, 0.1375529, 0.2751078], "properties": {"magmom": 0.0}, "label": "Ba", "xyz": [3.2467593, 0.6516700390292091, 1.5389180486640162]}, {"species": [{"element": "Ge", "occu": 1}], "abc": [0.25, 0.56333243, 0.12666487], "properties": {"magmom": 0.0}, "label": "Ge", "xyz": [1.0822531, 2.643162624928931, -0.2836788185229797]}, {"species": [{"element": "Ge", "occu": 1}], "abc": [0.75, 0.43666757, 0.8733351300000001], "properties": {"magmom": 0.0}, "label": "Ge", "xyz": [3.2467593, 2.068754275071069, 4.88531934852298]}]}, "task_ids": null, "uncorrected_energy_per_atom": null, "energy_per_atom": -3.867227209999999, "formation_energy_per_atom": -0.5962258124999991, "energy_above_hull": 0.0, "is_stable": true, "equilibrium_reaction_energy_per_atom": null, "decomposes_to": null, "xas": null, "grain_boundaries": null, "band_gap": 0.0, "cbm": null, "vbm": null, "efermi": 3.48977955, "is_gap_direct": null, "is_metal": null, "es_source_calc_id": null, "bandstructure": null, "dos": null, "dos_energy_up": null, "dos_energy_down": null, "is_magnetic": null, "ordering": null, "total_magnetization": 1e-07, "total_magnetization_normalized_vol": null, "total_magnetization_normalized_formula_units": null, "num_magnetic_sites": null, "num_unique_magnetic_sites": null, "types_of_magnetic_species": null, "bulk_modulus": null, "shear_modulus": null, "universal_anisotropy": null, "homogeneous_poisson": null, "e_total": null, "e_ionic": null, "e_electronic": null, "n": null, "e_ij_max": null, "weighted_surface_energy_EV_PER_ANG2": null, "weighted_surface_energy": null, "weighted_work_function": null, "surface_anisotropy": null, "shape_factor": null, "has_reconstructed": null, "possible_species": null, "has_props": null, "theoretical": null, "database_IDs": null, "fields_not_requested": ["builder_meta", "nsites", "elements", "nelements", "composition", "composition_reduced", "chemsys", "symmetry", "property_name", "deprecated", "deprecation_reasons", "last_updated", "origins", "warnings", "task_ids", "uncorrected_energy_per_atom", "equilibrium_reaction_energy_per_atom", "decomposes_to", "xas", "grain_boundaries", "cbm", "vbm", "is_gap_direct", "is_metal", "es_source_calc_id", "bandstructure", "dos", "dos_energy_up", "dos_energy_down", "is_magnetic", "ordering", "total_magnetization_normalized_vol", "total_magnetization_normalized_formula_units", "num_magnetic_sites", "num_unique_magnetic_sites", "types_of_magnetic_species", "bulk_modulus", "shear_modulus", "universal_anisotropy", "homogeneous_poisson", "e_total", "e_ionic", "e_electronic", "n", "e_ij_max", "weighted_surface_energy_EV_PER_ANG2", "weighted_surface_energy", "weighted_work_function", "surface_anisotropy", "shape_factor", "has_reconstructed", "possible_species", "has_props", "theoretical", "database_IDs"]}