{"builder_meta": null, "nsites": null, "elements": null, "nelements": null, "composition": null, "composition_reduced": null, "formula_pretty": "BaGe2", "formula_anonymous": "AB2", "chemsys": null, "volume": 741.2725268258605, "density": 5.064587686842674, "density_atomic": 30.886355284410854, "symmetry": null, "property_name": null, "material_id": "mp-2139", "deprecated": null, "deprecation_reasons": null, "last_updated": null, "origins": null, "warnings": null, "structure": {"@module": "pymatgen.core.structure", "@class": "Structure", "charge": 0, "lattice": {"matrix": [[6.86588645, -0.0, 0.0], [0.0, 9.20070564, 0.0], [0.0, 0.0, 11.73438009]], "pbc": [true, true, true], "a": 6.86588645, "b": 9.20070564, "c": 11.73438009, "alpha": 90.0, "beta": 90.0, "gamma": 90.0, "volume": 741.2725268258605}, "properties": {}, "sites": [{"species": [{"element": "Ba", "occu": 1}], "abc": [0.25, 0.34472396, 0.40586686], "properties": {"magmom": -0.0}, "label": "Ba", "xyz": [1.7164716125, 3.1717036830151346, 4.762596001174818]}, {"species": [{"element": "Ba", "occu": 1}], "abc": [0.75, 0.6552760400000001, 0.5941331400000001], "properties": {"magmom": -0.0}, "label": "Ba", "xyz": [5.1494148375, 6.0290019569848665, 6.971784088825183]}, {"species": [{"element": "Ba", "occu": 1}], "abc": [0.25, 0.84472396, 0.09413314], "properties": {"magmom": -0.0}, "label": "Ba", "xyz": [1.7164716125, 7.772056503015135, 1.1045940438251827]}, {"species": [{"element": "Ba", "occu": 1}], "abc": [0.75, 0.15527604, 0.90586686], "properties": {"magmom": -0.0}, "label": "Ba", "xyz": [5.1494148375, 1.4286491369848657, 10.629786046174818]}, {"species": [{"element": "Ba", "occu": 1}], "abc": [0.25, 0.51436251, 0.80884328], "properties": {"magmom": -0.0}, "label": "Ba", "xyz": [1.7164716125, 4.732498046761557, 9.491274480762296]}, {"species": [{"element": "Ba", "occu": 1}], "abc": [0.75, 0.48563749, 0.19115672], "properties": {"magmom": -0.0}, "label": "Ba", "xyz": [5.1494148375, 4.468207593238444, 2.2431056092377046]}, {"species": [{"element": "Ba", "occu": 1}], "abc": [0.25, 0.01436251, 0.6911567200000001], "properties": {"magmom": -0.0}, "label": "Ba", "xyz": [1.7164716125, 0.1321452267615564, 8.110295654237705]}, {"species": [{"element": "Ba", "occu": 1}], "abc": [0.75, 0.98563749, 0.30884328], "properties": {"magmom": -0.0}, "label": "Ba", "xyz": [5.1494148375, 9.068560413238444, 3.6240844357622954]}, {"species": [{"element": "Ge", "occu": 1}], "abc": [0.93508503, 0.30765759, 0.64788883], "properties": {"magmom": -0.0}, "label": "Ge", "xyz": [6.420187637074843, 2.830666923501808, 7.602573787285395]}, {"species": [{"element": "Ge", "occu": 1}], "abc": [0.43508503, 0.69234241, 0.35211117000000003], "properties": {"magmom": -0.0}, "label": "Ge", "xyz": [2.987244412074843, 6.370038716498192, 4.1318063027146055]}, {"species": [{"element": "Ge", "occu": 1}], "abc": [0.56491497, 0.80765759, 0.85211117], "properties": {"magmom": -0.0}, "label": "Ge", "xyz": [3.8786420379251565, 7.431019743501809, 9.998996347714606]}, {"species": [{"element": "Ge", "occu": 1}], "abc": [0.06491497, 0.19234241, 0.14788883], "properties": {"magmom": -0.0}, "label": "Ge", "xyz": [0.4456988129251565, 1.7696858964981925, 1.7353837422853946]}, {"species": [{"element": "Ge", "occu": 1}], "abc": [0.06491497, 0.69234241, 0.35211117000000003], "properties": {"magmom": -0.0}, "label": "Ge", "xyz": [0.4456988129251565, 6.370038716498192, 4.1318063027146055]}, {"species": [{"element": "Ge", "occu": 1}], "abc": [0.56491497, 0.30765759, 0.64788883], "properties": {"magmom": -0.0}, "label": "Ge", "xyz": [3.8786420379251565, 2.830666923501808, 7.602573787285395]}, {"species": [{"element": "Ge", "occu": 1}], "abc": [0.43508503, 0.19234241, 0.14788883], "properties": {"magmom": -0.0}, "label": "Ge", "xyz": [2.987244412074843, 1.7696858964981925, 1.7353837422853946]}, {"species": [{"element": "Ge", "occu": 1}], "abc": [0.93508503, 0.80765759, 0.85211117], "properties": {"magmom": -0.0}, "label": "Ge", "xyz": [6.420187637074843, 7.431019743501809, 9.998996347714606]}, {"species": [{"element": "Ge", "occu": 1}], "abc": [0.75, 0.57899283, 0.90851434], "properties": {"magmom": -0.0}, "label": "Ge", "xyz": [5.1494148375, 5.327142596500562, 10.66085258277549]}, {"species": [{"element": "Ge", "occu": 1}], "abc": [0.25, 0.42100717, 0.09148566], "properties": {"magmom": -0.0}, "label": "Ge", "xyz": [1.7164716125, 3.873563043499439, 1.0735275072245094]}, {"species": [{"element": "Ge", "occu": 1}], "abc": [0.75, 0.07899283, 0.59148566], "properties": {"magmom": -0.0}, "label": "Ge", "xyz": [5.1494148375, 0.7267897765005612, 6.94071755222451]}, {"species": [{"element": "Ge", "occu": 1}], "abc": [0.25, 0.92100717, 0.40851434000000003], "properties": {"magmom": -0.0}, "label": "Ge", "xyz": [1.7164716125, 8.473915863499439, 4.793662537775491]}, {"species": [{"element": "Ge", "occu": 1}], "abc": [0.75, 0.8041166200000001, 0.03904821], "properties": {"magmom": 0.0}, "label": "Ge", "xyz": [5.1494148375, 7.398440320851738, 0.4582065379741389]}, {"species": [{"element": "Ge", "occu": 1}], "abc": [0.25, 0.19588338, 0.96095179], "properties": {"magmom": 0.0}, "label": "Ge", "xyz": [1.7164716125, 1.8022653191482634, 11.276173552025861]}, {"species": [{"element": "Ge", "occu": 1}], "abc": [0.75, 0.30411662, 0.46095179000000003], "properties": {"magmom": 0.0}, "label": "Ge", "xyz": [5.1494148375, 2.798087500851737, 5.408983507025861]}, {"species": [{"element": "Ge", "occu": 1}], "abc": [0.25, 0.69588338, 0.53904821], "properties": {"magmom": 0.0}, "label": "Ge", "xyz": [1.7164716125, 6.402618139148264, 6.32539658297414]}]}, "task_ids": null, "uncorrected_energy_per_atom": null, "energy_per_atom": -4.251933381250001, "formation_energy_per_atom": -0.5302564979166671, "energy_above_hull": 0.0, "is_stable": true, "equilibrium_reaction_energy_per_atom": null, "decomposes_to": null, "xas": null, "grain_boundaries": null, "band_gap": 0.5255000000000001, "cbm": null, "vbm": null, "efermi": 2.264938899999999, "is_gap_direct": null, "is_metal": null, "es_source_calc_id": null, "bandstructure": null, "dos": null, "dos_energy_up": null, "dos_energy_down": null, "is_magnetic": null, "ordering": null, "total_magnetization": 0.0, "total_magnetization_normalized_vol": null, "total_magnetization_normalized_formula_units": null, "num_magnetic_sites": null, "num_unique_magnetic_sites": null, "types_of_magnetic_species": null, "bulk_modulus": null, "shear_modulus": null, "universal_anisotropy": null, "homogeneous_poisson": null, "e_total": null, "e_ionic": null, "e_electronic": null, "n": null, "e_ij_max": null, "weighted_surface_energy_EV_PER_ANG2": null, "weighted_surface_energy": null, "weighted_work_function": null, "surface_anisotropy": null, "shape_factor": null, "has_reconstructed": null, "possible_species": null, "has_props": null, "theoretical": null, "database_IDs": null, "fields_not_requested": ["builder_meta", "nsites", "elements", "nelements", "composition", "composition_reduced", "chemsys", "symmetry", "property_name", "deprecated", "deprecation_reasons", "last_updated", "origins", "warnings", "task_ids", "uncorrected_energy_per_atom", "equilibrium_reaction_energy_per_atom", "decomposes_to", "xas", "grain_boundaries", "cbm", "vbm", "is_gap_direct", "is_metal", "es_source_calc_id", "bandstructure", "dos", "dos_energy_up", "dos_energy_down", "is_magnetic", "ordering", "total_magnetization_normalized_vol", "total_magnetization_normalized_formula_units", "num_magnetic_sites", "num_unique_magnetic_sites", "types_of_magnetic_species", "bulk_modulus", "shear_modulus", "universal_anisotropy", "homogeneous_poisson", "e_total", "e_ionic", "e_electronic", "n", "e_ij_max", "weighted_surface_energy_EV_PER_ANG2", "weighted_surface_energy", "weighted_work_function", "surface_anisotropy", "shape_factor", "has_reconstructed", "possible_species", "has_props", "theoretical", "database_IDs"]}