{"builder_meta": null, "nsites": null, "elements": null, "nelements": null, "composition": null, "composition_reduced": null, "formula_pretty": "BaGe3", "formula_anonymous": "AB3", "chemsys": null, "volume": 208.77625550749227, "density": 5.6510403480369025, "density_atomic": 26.097031938436533, "symmetry": null, "property_name": null, "material_id": "mp-1078234", "deprecated": null, "deprecation_reasons": null, "last_updated": null, "origins": null, "warnings": null, "structure": {"@module": "pymatgen.core.structure", "@class": "Structure", "charge": 0, "lattice": {"matrix": [[3.44580846, -5.96831492, -0.0], [3.44580846, 5.96831492, 0.0], [0.0, -0.0, 5.07584375]], "pbc": [true, true, true], "a": 6.891616568505693, "b": 6.891616568505693, "c": 5.07584375, "alpha": 90.0, "beta": 90.0, "gamma": 119.99999662565723, "volume": 208.77625550749227}, "properties": {}, "sites": [{"species": [{"element": "Ba", "occu": 1}], "abc": [0.333333, 0.666667, 0.75], "properties": {"magmom": 0.0}, "label": "Ba", "xyz": [3.44580846, 1.98944228554328, 3.8068828124999996]}, {"species": [{"element": "Ba", "occu": 1}], "abc": [0.666667, 0.333333, 0.25], "properties": {"magmom": 0.0}, "label": "Ba", "xyz": [3.44580846, -1.98944228554328, 1.2689609375]}, {"species": [{"element": "Ge", "occu": 1}], "abc": [0.12543143, 0.87456857, 0.25], "properties": {"magmom": -0.0}, "label": "Ge", "xyz": [3.44580846, 4.471086369788129, 1.2689609375]}, {"species": [{"element": "Ge", "occu": 1}], "abc": [0.12543143, 0.25086286, 0.25], "properties": {"magmom": -0.0}, "label": "Ge", "xyz": [1.2966380479316935, 0.7486142751059357, 1.2689609375]}, {"species": [{"element": "Ge", "occu": 1}], "abc": [0.74913714, 0.87456857, 0.25], "properties": {"magmom": -0.0}, "label": "Ge", "xyz": [5.594978872068307, 0.7486142751059361, 1.2689609375]}, {"species": [{"element": "Ge", "occu": 1}], "abc": [0.87456857, 0.12543143, 0.75], "properties": {"magmom": -0.0}, "label": "Ge", "xyz": [3.44580846, -4.471086369788129, 3.8068828124999996]}, {"species": [{"element": "Ge", "occu": 1}], "abc": [0.87456857, 0.74913714, 0.75], "properties": {"magmom": -0.0}, "label": "Ge", "xyz": [5.594978872068307, -0.7486142751059361, 3.8068828124999996]}, {"species": [{"element": "Ge", "occu": 1}], "abc": [0.25086286, 0.12543143, 0.75], "properties": {"magmom": -0.0}, "label": "Ge", "xyz": [1.2966380479316935, -0.7486142751059357, 3.8068828124999996]}]}, "task_ids": null, "uncorrected_energy_per_atom": null, "energy_per_atom": -4.306689052500001, "formation_energy_per_atom": -0.359674426250001, "energy_above_hull": 0.038017947187499006, "is_stable": false, "equilibrium_reaction_energy_per_atom": null, "decomposes_to": null, "xas": null, "grain_boundaries": null, "band_gap": 0.0, "cbm": null, "vbm": null, "efermi": 4.55684933, "is_gap_direct": null, "is_metal": null, "es_source_calc_id": null, "bandstructure": null, "dos": null, "dos_energy_up": null, "dos_energy_down": null, "is_magnetic": null, "ordering": null, "total_magnetization": 3.9e-06, "total_magnetization_normalized_vol": null, "total_magnetization_normalized_formula_units": null, "num_magnetic_sites": null, "num_unique_magnetic_sites": null, "types_of_magnetic_species": null, "bulk_modulus": null, "shear_modulus": null, "universal_anisotropy": null, "homogeneous_poisson": null, "e_total": null, "e_ionic": null, "e_electronic": null, "n": null, "e_ij_max": null, "weighted_surface_energy_EV_PER_ANG2": null, "weighted_surface_energy": null, "weighted_work_function": null, "surface_anisotropy": null, "shape_factor": null, "has_reconstructed": null, "possible_species": null, "has_props": null, "theoretical": null, "database_IDs": null, "fields_not_requested": ["builder_meta", "nsites", "elements", "nelements", "composition", "composition_reduced", "chemsys", "symmetry", "property_name", "deprecated", "deprecation_reasons", "last_updated", "origins", "warnings", "task_ids", "uncorrected_energy_per_atom", "equilibrium_reaction_energy_per_atom", "decomposes_to", "xas", "grain_boundaries", "cbm", "vbm", "is_gap_direct", "is_metal", "es_source_calc_id", "bandstructure", "dos", "dos_energy_up", "dos_energy_down", "is_magnetic", "ordering", "total_magnetization_normalized_vol", "total_magnetization_normalized_formula_units", "num_magnetic_sites", "num_unique_magnetic_sites", "types_of_magnetic_species", "bulk_modulus", "shear_modulus", "universal_anisotropy", "homogeneous_poisson", "e_total", "e_ionic", "e_electronic", "n", "e_ij_max", "weighted_surface_energy_EV_PER_ANG2", "weighted_surface_energy", "weighted_work_function", "surface_anisotropy", "shape_factor", "has_reconstructed", "possible_species", "has_props", "theoretical", "database_IDs"]}