{"builder_meta": null, "nsites": null, "elements": null, "nelements": null, "composition": null, "composition_reduced": null, "formula_pretty": "BaGe6", "formula_anonymous": "AB6", "chemsys": null, "volume": 331.91593811151847, "density": 5.734983385257889, "density_atomic": 23.708281293679892, "symmetry": null, "property_name": null, "material_id": "mp-1103747", "deprecated": null, "deprecation_reasons": null, "last_updated": null, "origins": null, "warnings": null, "structure": {"@module": "pymatgen.core.structure", "@class": "Structure", "charge": 0, "lattice": {"matrix": [[2.433245, -5.464876999999999, 0.0], [2.433245, 5.464876999999999, 0.0], [0.0, 0.0, 12.480497]], "pbc": [true, true, true], "a": 5.982103464096387, "b": 5.982103464096387, "c": 12.480497, "alpha": 90.0, "beta": 90.0, "gamma": 131.99781258267842, "volume": 331.9159381115183}, "properties": {}, "sites": [{"species": [{"element": "Ba", "occu": 1}], "abc": [0.730538999999999, 0.269461, 0.25], "properties": {"magmom": 0.0}, "label": "Ba", "xyz": [2.4332449999999977, -2.519734557405994, 3.12012425]}, {"species": [{"element": "Ba", "occu": 1}], "abc": [0.269461, 0.730538999999999, 0.75], "properties": {"magmom": 0.0}, "label": "Ba", "xyz": [2.4332449999999977, 2.519734557405994, 9.36037275]}, {"species": [{"element": "Ge", "occu": 1}], "abc": [0.751211, 0.248788999999999, 0.963714], "properties": {"magmom": 0.0}, "label": "Ge", "xyz": [2.4332449999999977, -2.7456744320940043, 12.027629685857999]}, {"species": [{"element": "Ge", "occu": 1}], "abc": [0.248788999999999, 0.751211, 0.036286], "properties": {"magmom": 0.0}, "label": "Ge", "xyz": [2.4332449999999977, 2.7456744320940043, 0.452867314142]}, {"species": [{"element": "Ge", "occu": 1}], "abc": [0.751211, 0.248788999999999, 0.536285999999999], "properties": {"magmom": 0.0}, "label": "Ge", "xyz": [2.4332449999999977, -2.7456744320940043, 6.693115814141988]}, {"species": [{"element": "Ge", "occu": 1}], "abc": [0.248788999999999, 0.751211, 0.463713999999999], "properties": {"magmom": 0.0}, "label": "Ge", "xyz": [2.4332449999999977, 2.7456744320940043, 5.7873811858579876]}, {"species": [{"element": "Ge", "occu": 1}], "abc": [0.554593, 0.445407, 0.854416], "properties": {"magmom": 0.0}, "label": "Ge", "xyz": [2.433245, -0.5966880601220002, 10.663536324751998]}, {"species": [{"element": "Ge", "occu": 1}], "abc": [0.445407, 0.554593, 0.145584], "properties": {"magmom": 0.0}, "label": "Ge", "xyz": [2.433245, 0.5966880601220002, 1.8169606752479999]}, {"species": [{"element": "Ge", "occu": 1}], "abc": [0.554593, 0.445407, 0.645583999999999], "properties": {"magmom": 0.0}, "label": "Ge", "xyz": [2.433245, -0.5966880601220002, 8.057209175247987]}, {"species": [{"element": "Ge", "occu": 1}], "abc": [0.445407, 0.554593, 0.354416], "properties": {"magmom": 0.0}, "label": "Ge", "xyz": [2.433245, 0.5966880601220002, 4.423287824752]}, {"species": [{"element": "Ge", "occu": 1}], "abc": [0.975945, 0.024055, 0.899193999999999], "properties": {"magmom": 0.0}, "label": "Ge", "xyz": [2.4332449999999994, -5.2019617675299985, 11.222388019417988]}, {"species": [{"element": "Ge", "occu": 1}], "abc": [0.024055, 0.975945, 0.10080599999999901], "properties": {"magmom": 0.0}, "label": "Ge", "xyz": [2.4332449999999994, 5.2019617675299985, 1.2581089805819876]}, {"species": [{"element": "Ge", "occu": 1}], "abc": [0.975945, 0.024055, 0.600806], "properties": {"magmom": 0.0}, "label": "Ge", "xyz": [2.4332449999999994, -5.2019617675299985, 7.4983574805819995]}, {"species": [{"element": "Ge", "occu": 1}], "abc": [0.024055, 0.975945, 0.399194], "properties": {"magmom": 0.0}, "label": "Ge", "xyz": [2.4332449999999994, 5.2019617675299985, 4.982139519417999]}]}, "task_ids": null, "uncorrected_energy_per_atom": null, "energy_per_atom": -4.403486049285714, "formation_energy_per_atom": -0.166751467857142, "energy_above_hull": 0.060501316964286005, "is_stable": false, "equilibrium_reaction_energy_per_atom": null, "decomposes_to": null, "xas": null, "grain_boundaries": null, "band_gap": 0.0, "cbm": null, "vbm": null, "efermi": 4.93460695, "is_gap_direct": null, "is_metal": null, "es_source_calc_id": null, "bandstructure": null, "dos": null, "dos_energy_up": null, "dos_energy_down": null, "is_magnetic": null, "ordering": null, "total_magnetization": 0.0028932, "total_magnetization_normalized_vol": null, "total_magnetization_normalized_formula_units": null, "num_magnetic_sites": null, "num_unique_magnetic_sites": null, "types_of_magnetic_species": null, "bulk_modulus": null, "shear_modulus": null, "universal_anisotropy": null, "homogeneous_poisson": null, "e_total": null, "e_ionic": null, "e_electronic": null, "n": null, "e_ij_max": null, "weighted_surface_energy_EV_PER_ANG2": null, "weighted_surface_energy": null, "weighted_work_function": null, "surface_anisotropy": null, "shape_factor": null, "has_reconstructed": null, "possible_species": null, "has_props": null, "theoretical": null, "database_IDs": null, "fields_not_requested": ["builder_meta", "nsites", "elements", "nelements", "composition", "composition_reduced", "chemsys", "symmetry", "property_name", "deprecated", "deprecation_reasons", "last_updated", "origins", "warnings", "task_ids", "uncorrected_energy_per_atom", "equilibrium_reaction_energy_per_atom", "decomposes_to", "xas", "grain_boundaries", "cbm", "vbm", "is_gap_direct", "is_metal", "es_source_calc_id", "bandstructure", "dos", "dos_energy_up", "dos_energy_down", "is_magnetic", "ordering", "total_magnetization_normalized_vol", "total_magnetization_normalized_formula_units", "num_magnetic_sites", "num_unique_magnetic_sites", "types_of_magnetic_species", "bulk_modulus", "shear_modulus", "universal_anisotropy", "homogeneous_poisson", "e_total", "e_ionic", "e_electronic", "n", "e_ij_max", "weighted_surface_energy_EV_PER_ANG2", "weighted_surface_energy", "weighted_work_function", "surface_anisotropy", "shape_factor", "has_reconstructed", "possible_species", "has_props", "theoretical", "database_IDs"]}