{
  "builder_meta": null,
  "nsites": null,
  "elements": null,
  "nelements": null,
  "composition": null,
  "composition_reduced": null,
  "formula_pretty": "BaGe5",
  "formula_anonymous": "AB5",
  "chemsys": null,
  "volume": 286.8163604066549,
  "density": 5.795657097173132,
  "density_atomic": 23.90136336722124,
  "symmetry": null,
  "property_name": null,
  "material_id": "mp-1095284",
  "deprecated": null,
  "deprecation_reasons": null,
  "last_updated": null,
  "origins": null,
  "warnings": null,
  "structure": {
    "@module": "pymatgen.core.structure",
    "@class": "Structure",
    "charge": 0,
    "lattice": {
      "matrix": [
        [-2.43903866, 4.2166847, 6.97194764],
        [2.43903866, -4.2166847, 6.97194764],
        [2.43903866, 4.2166847, -6.97194764]
      ],
      "pbc": [true, true, true],
      "a": 8.50513923102322,
      "b": 8.50513923102322,
      "c": 8.50513923102322,
      "alpha": 146.67036220498852,
      "beta": 120.55749977799539,
      "gamma": 69.88374793230328,
      "volume": 286.8163604066549
    },
    "properties": {},
    "sites": [
      {
        "species": [{ "element": "Ba", "occu": 1 }],
        "abc": [0.21748781, 0.9674878100000001, 0.25],
        "properties": { "magmom": 0.0 },
        "label": "Ba",
        "xyz": [2.43903866, -2.1083423500000005, 6.5186010673165375]
      },
      {
        "species": [{ "element": "Ba", "occu": 1 }],
        "abc": [0.78251219, 0.03251219, 0.75],
        "properties": { "magmom": 0.0 },
        "label": "Ba",
        "xyz": [0.0, 6.32502705, 0.4533465726834631]
      },
      {
        "species": [{ "element": "Ge", "occu": 1 }],
        "abc": [0.96222648, 0.71222648, 0.25],
        "properties": { "magmom": 0.0 },
        "label": "Ge",
        "xyz": [-1.1102230246251565e-16, 2.1083423500000005, 9.931211452763016]
      },
      {
        "species": [{ "element": "Ge", "occu": 1 }],
        "abc": [0.03777352, 0.28777352, 0.75],
        "properties": { "magmom": 0.0 },
        "label": "Ge",
        "xyz": [2.43903866, 2.10834235, -2.959263812763014]
      },
      {
        "species": [{ "element": "Ge", "occu": 1 }],
        "abc": [0.59457679, 0.19298848000000002, 0.40158731000000003],
        "properties": { "magmom": -0.0 },
        "label": "Ge",
        "xyz": [-2.4390386597072933e-6, 3.386738348267014, 2.6910181273140137]
      },
      {
        "species": [{ "element": "Ge", "occu": 1 }],
        "abc": [0.70859883, 0.80701152, 0.90158731],
        "properties": { "magmom": -0.0 },
        "label": "Ge",
        "xyz": [2.43903866, 3.3867341315823145, 4.280936484633624]
      },
      {
        "species": [{ "element": "Ge", "occu": 1 }],
        "abc": [0.40542321000000003, 0.80701152, 0.59841269],
        "properties": { "magmom": -0.0 },
        "label": "Ge",
        "xyz": [2.4390410990386595, 0.8299463517329861, 4.280929512685985]
      },
      {
        "species": [{ "element": "Ge", "occu": 1 }],
        "abc": [0.29140117, 0.19298848000000002, 0.09841269],
        "properties": { "magmom": -0.0 },
        "label": "Ge",
        "xyz": [1.1102230246251565e-16, 0.8299505684176859, 2.6910111553663745]
      },
      {
        "species": [{ "element": "Ge", "occu": 1 }],
        "abc": [0.14942583, 0.6271503700000001, 0.52227546],
        "properties": { "magmom": -0.0 },
        "label": "Ge",
        "xyz": [2.43903866, 0.1878571827349238, 1.7729714440932542]
      },
      {
        "species": [{ "element": "Ge", "occu": 1 }],
        "abc": [0.39512409, 0.37284963, 0.02227546],
        "properties": { "magmom": -0.0 },
        "label": "Ge",
        "xyz": [2.439038660109749e-6, 0.18785296605022406, 5.198969223959106]
      },
      {
        "species": [{ "element": "Ge", "occu": 1 }],
        "abc": [0.85057417, 0.37284963, 0.47772454000000003],
        "properties": { "magmom": -0.0 },
        "label": "Ge",
        "xyz": [2.220446049250313e-16, 4.028827517265077, 5.198976195906747]
      },
      {
        "species": [{ "element": "Ge", "occu": 1 }],
        "abc": [0.60487591, 0.6271503700000001, 0.97772454],
        "properties": { "magmom": -0.0 },
        "label": "Ge",
        "xyz": [2.4390362209613397, 4.028831733949776, 1.7729784160408926]
      }
    ]
  },
  "task_ids": null,
  "uncorrected_energy_per_atom": null,
  "energy_per_atom": -4.380174077499999,
  "formation_energy_per_atom": -0.20782170833333102,
  "energy_above_hull": 0.057306540625002005,
  "is_stable": false,
  "equilibrium_reaction_energy_per_atom": null,
  "decomposes_to": null,
  "xas": null,
  "grain_boundaries": null,
  "band_gap": 0.0,
  "cbm": null,
  "vbm": null,
  "efermi": 5.07913905,
  "is_gap_direct": null,
  "is_metal": null,
  "es_source_calc_id": null,
  "bandstructure": null,
  "dos": null,
  "dos_energy_up": null,
  "dos_energy_down": null,
  "is_magnetic": null,
  "ordering": null,
  "total_magnetization": 0.0,
  "total_magnetization_normalized_vol": null,
  "total_magnetization_normalized_formula_units": null,
  "num_magnetic_sites": null,
  "num_unique_magnetic_sites": null,
  "types_of_magnetic_species": null,
  "bulk_modulus": null,
  "shear_modulus": null,
  "universal_anisotropy": null,
  "homogeneous_poisson": null,
  "e_total": null,
  "e_ionic": null,
  "e_electronic": null,
  "n": null,
  "e_ij_max": null,
  "weighted_surface_energy_EV_PER_ANG2": null,
  "weighted_surface_energy": null,
  "weighted_work_function": null,
  "surface_anisotropy": null,
  "shape_factor": null,
  "has_reconstructed": null,
  "possible_species": null,
  "has_props": null,
  "theoretical": null,
  "database_IDs": null,
  "fields_not_requested": [
    "builder_meta",
    "nsites",
    "elements",
    "nelements",
    "composition",
    "composition_reduced",
    "chemsys",
    "symmetry",
    "property_name",
    "deprecated",
    "deprecation_reasons",
    "last_updated",
    "origins",
    "warnings",
    "task_ids",
    "uncorrected_energy_per_atom",
    "equilibrium_reaction_energy_per_atom",
    "decomposes_to",
    "xas",
    "grain_boundaries",
    "cbm",
    "vbm",
    "is_gap_direct",
    "is_metal",
    "es_source_calc_id",
    "bandstructure",
    "dos",
    "dos_energy_up",
    "dos_energy_down",
    "is_magnetic",
    "ordering",
    "total_magnetization_normalized_vol",
    "total_magnetization_normalized_formula_units",
    "num_magnetic_sites",
    "num_unique_magnetic_sites",
    "types_of_magnetic_species",
    "bulk_modulus",
    "shear_modulus",
    "universal_anisotropy",
    "homogeneous_poisson",
    "e_total",
    "e_ionic",
    "e_electronic",
    "n",
    "e_ij_max",
    "weighted_surface_energy_EV_PER_ANG2",
    "weighted_surface_energy",
    "weighted_work_function",
    "surface_anisotropy",
    "shape_factor",
    "has_reconstructed",
    "possible_species",
    "has_props",
    "theoretical",
    "database_IDs"
  ]
}
