{"builder_meta": null, "nsites": null, "elements": null, "nelements": null, "composition": null, "composition_reduced": null, "formula_pretty": "BaHg3", "formula_anonymous": "AB3", "chemsys": null, "volume": 245.8526580802436, "density": 9.984024188229707, "density_atomic": 30.73158226003045, "symmetry": null, "property_name": null, "material_id": "mp-867770", "deprecated": null, "deprecation_reasons": null, "last_updated": null, "origins": null, "warnings": null, "structure": {"@module": "pymatgen.core.structure", "@class": "Structure", "charge": 0, "lattice": {"matrix": [[7.38497762, -2e-08, -0.0], [-3.69248983, 6.3955807, -0.0], [0.0, -0.0, 5.20529973]], "pbc": [true, true, true], "a": 7.38497762, "b": 7.384980273153471, "c": 5.20529973, "alpha": 90.0, "beta": 90.0, "gamma": 119.99999740865425, "volume": 245.8526580802436}, "properties": {}, "sites": [{"species": [{"element": "Ba", "occu": 1}], "abc": [0.333333, 0.666666, 0.75], "properties": {"magmom": 0.0}, "label": "Ba", "xyz": [-6.799993199635423e-07, 4.26371619627954, 3.9039747975]}, {"species": [{"element": "Ba", "occu": 1}], "abc": [0.666666, 0.333331999999999, 0.250002], "properties": {"magmom": 0.0}, "label": "Ba", "xyz": [3.692488470001363, 2.131851692559074, 1.30133534309946]}, {"species": [{"element": "Hg", "occu": 1}], "abc": [0.14617784, 0.29235667, 0.250002], "properties": {"magmom": 0.0}, "label": "Hg", "xyz": [-3.953767725217716e-06, 1.8697906732447123, 1.30133534309946]}, {"species": [{"element": "Hg", "occu": 1}], "abc": [0.70764333, 0.85382216, 0.250002], "properties": {"magmom": 0.0}, "label": "Hg", "xyz": [2.073200512563642, 5.4606885135754455, 1.30133534309946]}, {"species": [{"element": "Hg", "occu": 1}], "abc": [0.14617884, 0.85382216, 0.250002], "properties": {"magmom": 0.0}, "label": "Hg", "xyz": [-2.073202180511072, 5.460688524804735, 1.30133534309946]}, {"species": [{"element": "Hg", "occu": 1}], "abc": [0.85382116, 0.70764233, 0.75], "properties": {"magmom": 0.0}, "label": "Hg", "xyz": [3.6924880512799354, 4.525783611174608, 3.9039747975]}, {"species": [{"element": "Hg", "occu": 1}], "abc": [0.29235667, 0.14617784, 0.75], "properties": {"magmom": 0.0}, "label": "Hg", "xyz": [1.6192872774363583, 0.9348921664245545, 3.9039747975]}, {"species": [{"element": "Hg", "occu": 1}], "abc": [0.85382116, 0.14617784, 0.75], "properties": {"magmom": 0.0}, "label": "Hg", "xyz": [5.765689970511072, 0.9348921551952648, 3.9039747975]}]}, "task_ids": null, "uncorrected_energy_per_atom": null, "energy_per_atom": -1.146170113750002, "formation_energy_per_atom": -0.43417235062500703, "energy_above_hull": 0.0, "is_stable": true, "equilibrium_reaction_energy_per_atom": null, "decomposes_to": null, "xas": null, "grain_boundaries": null, "band_gap": 0.0, "cbm": null, "vbm": null, "efermi": 2.4147795, "is_gap_direct": null, "is_metal": null, "es_source_calc_id": null, "bandstructure": null, "dos": null, "dos_energy_up": null, "dos_energy_down": null, "is_magnetic": null, "ordering": null, "total_magnetization": 0.0, "total_magnetization_normalized_vol": null, "total_magnetization_normalized_formula_units": null, "num_magnetic_sites": null, "num_unique_magnetic_sites": null, "types_of_magnetic_species": null, "bulk_modulus": null, "shear_modulus": null, "universal_anisotropy": null, "homogeneous_poisson": null, "e_total": null, "e_ionic": null, "e_electronic": null, "n": null, "e_ij_max": null, "weighted_surface_energy_EV_PER_ANG2": null, "weighted_surface_energy": null, "weighted_work_function": null, "surface_anisotropy": null, "shape_factor": null, "has_reconstructed": null, "possible_species": null, "has_props": null, "theoretical": null, "database_IDs": null, "fields_not_requested": ["builder_meta", "nsites", "elements", "nelements", "composition", "composition_reduced", "chemsys", "symmetry", "property_name", "deprecated", "deprecation_reasons", "last_updated", "origins", "warnings", "task_ids", "uncorrected_energy_per_atom", "equilibrium_reaction_energy_per_atom", "decomposes_to", "xas", "grain_boundaries", "cbm", "vbm", "is_gap_direct", "is_metal", "es_source_calc_id", "bandstructure", "dos", "dos_energy_up", "dos_energy_down", "is_magnetic", "ordering", "total_magnetization_normalized_vol", "total_magnetization_normalized_formula_units", "num_magnetic_sites", "num_unique_magnetic_sites", "types_of_magnetic_species", "bulk_modulus", "shear_modulus", "universal_anisotropy", "homogeneous_poisson", "e_total", "e_ionic", "e_electronic", "n", "e_ij_max", "weighted_surface_energy_EV_PER_ANG2", "weighted_surface_energy", "weighted_work_function", "surface_anisotropy", "shape_factor", "has_reconstructed", "possible_species", "has_props", "theoretical", "database_IDs"]}