{"builder_meta": null, "nsites": null, "elements": null, "nelements": null, "composition": null, "composition_reduced": null, "formula_pretty": "BaHg6", "formula_anonymous": "AB6", "chemsys": null, "volume": 785.6503299434345, "density": 11.336147656299213, "density_atomic": 28.05894035512266, "symmetry": null, "property_name": null, "material_id": "mp-1193593", "deprecated": null, "deprecation_reasons": null, "last_updated": null, "origins": null, "warnings": null, "structure": {"@module": "pymatgen.core.structure", "@class": "Structure", "charge": 0, "lattice": {"matrix": [[0.0, 5.39610825, 0.0], [0.0, 0.0, 10.59169807], [13.74621245, 0.0, 0.0]], "pbc": [true, true, true], "a": 5.39610825, "b": 10.59169807, "c": 13.74621245, "alpha": 90.0, "beta": 90.0, "gamma": 90.0, "volume": 785.6503299434345}, "properties": {}, "sites": [{"species": [{"element": "Ba", "occu": 1}], "abc": [0.25, 0.12830734, 0.8171059700000001], "properties": {"magmom": 0.0}, "label": "Ba", "xyz": [11.232112257783328, 1.3490270625, 1.3589926054448336]}, {"species": [{"element": "Ba", "occu": 1}], "abc": [0.25, 0.37175732, 0.31707511], "properties": {"magmom": 0.0}, "label": "Ba", "xyz": [4.3585818246671195, 1.3490270625, 3.937541288752372]}, {"species": [{"element": "Ba", "occu": 1}], "abc": [0.75, 0.8717573200000001, 0.18292489], "properties": {"magmom": 0.0}, "label": "Ba", "xyz": [2.5145244003328804, 4.0470811875, 9.233390323752372]}, {"species": [{"element": "Ba", "occu": 1}], "abc": [0.75, 0.62830734, 0.68289403], "properties": {"magmom": 0.0}, "label": "Ba", "xyz": [9.387206417216674, 4.0470811875, 6.654841640444833]}, {"species": [{"element": "Hg", "occu": 1}], "abc": [0.25, 0.89137299, 0.006021299999999], "properties": {"magmom": -0.0}, "label": "Hg", "xyz": [0.08277006902517126, 1.3490270625, 9.441153577833129]}, {"species": [{"element": "Hg", "occu": 1}], "abc": [0.25, 0.60866843, 0.5056440600000001], "properties": {"magmom": 0.0}, "label": "Hg", "xyz": [6.9506906728405475, 1.3490270625, 6.44683223530093]}, {"species": [{"element": "Hg", "occu": 1}], "abc": [0.75, 0.10866843, 0.99435594], "properties": {"magmom": 0.0}, "label": "Hg", "xyz": [13.668628002159453, 4.0470811875, 1.15098320030093]}, {"species": [{"element": "Hg", "occu": 1}], "abc": [0.75, 0.39137299000000003, 0.4939787], "properties": {"magmom": -0.0}, "label": "Hg", "xyz": [6.790336155974815, 4.0470811875, 4.14530454283313]}, {"species": [{"element": "Hg", "occu": 1}], "abc": [0.25, 0.76539953, 0.81177003], "properties": {"magmom": 0.0}, "label": "Hg", "xyz": [11.158763292922874, 1.3490270625, 8.106880724679908]}, {"species": [{"element": "Hg", "occu": 1}], "abc": [0.25, 0.73469779, 0.31157568], "properties": {"magmom": 0.0}, "label": "Hg", "xyz": [4.282985491533216, 1.3490270625, 7.781697164376265]}, {"species": [{"element": "Hg", "occu": 1}], "abc": [0.75, 0.23469779000000002, 0.18842432], "properties": {"magmom": 0.0}, "label": "Hg", "xyz": [2.590120733466784, 4.0470811875, 2.4858481293762655]}, {"species": [{"element": "Hg", "occu": 1}], "abc": [0.75, 0.26539953, 0.68822997], "properties": {"magmom": 0.0}, "label": "Hg", "xyz": [9.460555382077127, 4.0470811875, 2.811031689679907]}, {"species": [{"element": "Hg", "occu": 1}], "abc": [0.25, 0.48957119, 0.84136311], "properties": {"magmom": -0.0}, "label": "Hg", "xyz": [11.565556057652719, 1.3490270625, 5.185390228250603]}, {"species": [{"element": "Hg", "occu": 1}], "abc": [0.25, 0.01031348, 0.34129807], "properties": {"magmom": -0.0}, "label": "Hg", "xyz": [4.691555778994972, 1.3490270625, 0.10923726621098359]}, {"species": [{"element": "Hg", "occu": 1}], "abc": [0.75, 0.51031348, 0.15870193], "properties": {"magmom": -0.0}, "label": "Hg", "xyz": [2.1815504460050286, 4.0470811875, 5.405086301210983]}, {"species": [{"element": "Hg", "occu": 1}], "abc": [0.75, 0.98957119, 0.65863689], "properties": {"magmom": -0.0}, "label": "Hg", "xyz": [9.053762617347282, 4.0470811875, 10.481239263250604]}, {"species": [{"element": "Hg", "occu": 1}], "abc": [0.25, 0.38688477, 0.63355826], "properties": {"magmom": -0.0}, "label": "Hg", "xyz": [8.709026441412338, 1.3490270625, 4.097766671721394]}, {"species": [{"element": "Hg", "occu": 1}], "abc": [0.25, 0.11317001, 0.13385235], "properties": {"magmom": 0.0}, "label": "Hg", "xyz": [1.8399628400317576, 1.3490270625, 1.1986625764988807]}, {"species": [{"element": "Hg", "occu": 1}], "abc": [0.75, 0.61317001, 0.36614865], "properties": {"magmom": 0.0}, "label": "Hg", "xyz": [5.033157131180693, 4.0470811875, 6.494511611498881]}, {"species": [{"element": "Hg", "occu": 1}], "abc": [0.75, 0.88688477, 0.8664417400000001], "properties": {"magmom": -0.0}, "label": "Hg", "xyz": [11.910292233587663, 4.0470811875, 9.393615706721393]}, {"species": [{"element": "Hg", "occu": 1}], "abc": [0.25, 0.85934403, 0.59940299], "properties": {"magmom": -0.0}, "label": "Hg", "xyz": [8.239520843705225, 1.3490270625, 9.101912504017022]}, {"species": [{"element": "Hg", "occu": 1}], "abc": [0.25, 0.64055741, 0.09964644], "properties": {"magmom": 0.0}, "label": "Hg", "xyz": [1.369761134126178, 1.3490270625, 6.784590683221198]}, {"species": [{"element": "Hg", "occu": 1}], "abc": [0.75, 0.14055741, 0.40035356], "properties": {"magmom": 0.0}, "label": "Hg", "xyz": [5.503345090873822, 4.0470811875, 1.4887416482211986]}, {"species": [{"element": "Hg", "occu": 1}], "abc": [0.75, 0.35934403, 0.90059701], "properties": {"magmom": -0.0}, "label": "Hg", "xyz": [12.379797831294775, 4.0470811875, 3.8060634690170216]}, {"species": [{"element": "Hg", "occu": 1}], "abc": [0.25, 0.13350857, 0.5409463800000001], "properties": {"magmom": 0.0}, "label": "Hg", "xyz": [7.435963863538432, 1.3490270625, 1.4140824631974598]}, {"species": [{"element": "Hg", "occu": 1}], "abc": [0.25, 0.36644515, 0.04120548], "properties": {"magmom": -0.0}, "label": "Hg", "xyz": [0.566419282184226, 1.3490270625, 3.8812763880158605]}, {"species": [{"element": "Hg", "occu": 1}], "abc": [0.75, 0.86644515, 0.45879452], "properties": {"magmom": -0.0}, "label": "Hg", "xyz": [6.306686942815774, 4.0470811875, 9.17712542301586]}, {"species": [{"element": "Hg", "occu": 1}], "abc": [0.75, 0.63350857, 0.95905362], "properties": {"magmom": 0.0}, "label": "Hg", "xyz": [13.18335481146157, 4.0470811875, 6.70993149819746]}]}, "task_ids": null, "uncorrected_energy_per_atom": null, "energy_per_atom": -0.81253389142857, "formation_energy_per_atom": -0.27296143928571803, "energy_above_hull": 0.0, "is_stable": true, "equilibrium_reaction_energy_per_atom": null, "decomposes_to": null, "xas": null, "grain_boundaries": null, "band_gap": 0.0, "cbm": null, "vbm": null, "efermi": 2.386711919999999, "is_gap_direct": null, "is_metal": null, "es_source_calc_id": null, "bandstructure": null, "dos": null, "dos_energy_up": null, "dos_energy_down": null, "is_magnetic": null, "ordering": null, "total_magnetization": 1e-07, "total_magnetization_normalized_vol": null, "total_magnetization_normalized_formula_units": null, "num_magnetic_sites": null, "num_unique_magnetic_sites": null, "types_of_magnetic_species": null, "bulk_modulus": null, "shear_modulus": null, "universal_anisotropy": null, "homogeneous_poisson": null, "e_total": null, "e_ionic": null, "e_electronic": null, "n": null, "e_ij_max": null, "weighted_surface_energy_EV_PER_ANG2": null, "weighted_surface_energy": null, "weighted_work_function": null, "surface_anisotropy": null, "shape_factor": null, "has_reconstructed": null, "possible_species": null, "has_props": null, "theoretical": null, "database_IDs": null, "fields_not_requested": ["builder_meta", "nsites", "elements", "nelements", "composition", "composition_reduced", "chemsys", "symmetry", "property_name", "deprecated", "deprecation_reasons", "last_updated", "origins", "warnings", "task_ids", "uncorrected_energy_per_atom", "equilibrium_reaction_energy_per_atom", "decomposes_to", "xas", "grain_boundaries", "cbm", "vbm", "is_gap_direct", "is_metal", "es_source_calc_id", "bandstructure", "dos", "dos_energy_up", "dos_energy_down", "is_magnetic", "ordering", "total_magnetization_normalized_vol", "total_magnetization_normalized_formula_units", "num_magnetic_sites", "num_unique_magnetic_sites", "types_of_magnetic_species", "bulk_modulus", "shear_modulus", "universal_anisotropy", "homogeneous_poisson", "e_total", "e_ionic", "e_electronic", "n", "e_ij_max", "weighted_surface_energy_EV_PER_ANG2", "weighted_surface_energy", "weighted_work_function", "surface_anisotropy", "shape_factor", "has_reconstructed", "possible_species", "has_props", "theoretical", "database_IDs"]}