{"builder_meta": null, "nsites": null, "elements": null, "nelements": null, "composition": null, "composition_reduced": null, "formula_pretty": "BaHg2", "formula_anonymous": "AB2", "chemsys": null, "volume": 195.05692768080334, "density": 9.168727527595223, "density_atomic": 32.509487946800554, "symmetry": null, "property_name": null, "material_id": "mp-11267", "deprecated": null, "deprecation_reasons": null, "last_updated": null, "origins": null, "warnings": null, "structure": {"@module": "pymatgen.core.structure", "@class": "Structure", "charge": 0, "lattice": {"matrix": [[4.74979724, -0.0, 2.04298628], [2.1847169, 6.13320207, 1.46365198], [-0.05590498, 0.01448081, 6.6729382]], "pbc": [true, true, true], "a": 5.1705286732963645, "b": 6.6731875953816715, "c": 6.6731880897863425, "alpha": 77.37454778906663, "beta": 67.20651911477142, "gamma": 67.20651850991133, "volume": 195.05692768080334}, "properties": {}, "sites": [{"species": [{"element": "Ba", "occu": 1}], "abc": [0.499054699999999, 0.2509453, 0.750945299999999], "properties": {"magmom": 0.0}, "label": "Ba", "xyz": [2.8766714925769996, 1.549972529626464, 6.397870068766662]}, {"species": [{"element": "Ba", "occu": 1}], "abc": [0.500945299999999, 0.7490547, 0.2490547], "properties": {"magmom": 0.0}, "label": "Ba", "xyz": [4.001937667422991, 4.597710350373536, 3.781706391233328]}, {"species": [{"element": "Hg", "occu": 1}], "abc": [0.83364187, 0.16510433, 0.16761193], "properties": {"magmom": -0.0}, "label": "Hg", "xyz": [4.310965731694205, 1.0150453750340265, 3.063238232827343]}, {"species": [{"element": "Hg", "occu": 1}], "abc": [0.16635813, 0.83489567, 0.83238807], "properties": {"magmom": -0.0}, "label": "Hg", "xyz": [2.5676434283057956, 5.132637504965974, 7.116338227172657]}, {"species": [{"element": "Hg", "occu": 1}], "abc": [0.16635813, 0.33238807, 0.33489567000000003], "properties": {"magmom": -0.0}, "label": "Hg", "xyz": [1.4976188848795076, 2.043452759534398, 3.061105943297929]}, {"species": [{"element": "Hg", "occu": 1}], "abc": [0.83364187, 0.66761193, 0.66510433], "properties": {"magmom": -0.0}, "label": "Hg", "xyz": [5.380990275120493, 4.104230120465602, 7.118470516702071]}]}, "task_ids": null, "uncorrected_energy_per_atom": null, "energy_per_atom": -1.347891373333333, "formation_energy_per_atom": -0.501785035000004, "energy_above_hull": 0.0, "is_stable": true, "equilibrium_reaction_energy_per_atom": null, "decomposes_to": null, "xas": null, "grain_boundaries": null, "band_gap": 0.0, "cbm": null, "vbm": null, "efermi": 2.50781087, "is_gap_direct": null, "is_metal": null, "es_source_calc_id": null, "bandstructure": null, "dos": null, "dos_energy_up": null, "dos_energy_down": null, "is_magnetic": null, "ordering": null, "total_magnetization": 6e-07, "total_magnetization_normalized_vol": null, "total_magnetization_normalized_formula_units": null, "num_magnetic_sites": null, "num_unique_magnetic_sites": null, "types_of_magnetic_species": null, "bulk_modulus": null, "shear_modulus": null, "universal_anisotropy": null, "homogeneous_poisson": null, "e_total": null, "e_ionic": null, "e_electronic": null, "n": null, "e_ij_max": null, "weighted_surface_energy_EV_PER_ANG2": null, "weighted_surface_energy": null, "weighted_work_function": null, "surface_anisotropy": null, "shape_factor": null, "has_reconstructed": null, "possible_species": null, "has_props": null, "theoretical": null, "database_IDs": null, "fields_not_requested": ["builder_meta", "nsites", "elements", "nelements", "composition", "composition_reduced", "chemsys", "symmetry", "property_name", "deprecated", "deprecation_reasons", "last_updated", "origins", "warnings", "task_ids", "uncorrected_energy_per_atom", "equilibrium_reaction_energy_per_atom", "decomposes_to", "xas", "grain_boundaries", "cbm", "vbm", "is_gap_direct", "is_metal", "es_source_calc_id", "bandstructure", "dos", "dos_energy_up", "dos_energy_down", "is_magnetic", "ordering", "total_magnetization_normalized_vol", "total_magnetization_normalized_formula_units", "num_magnetic_sites", "num_unique_magnetic_sites", "types_of_magnetic_species", "bulk_modulus", "shear_modulus", "universal_anisotropy", "homogeneous_poisson", "e_total", "e_ionic", "e_electronic", "n", "e_ij_max", "weighted_surface_energy_EV_PER_ANG2", "weighted_surface_energy", "weighted_work_function", "surface_anisotropy", "shape_factor", "has_reconstructed", "possible_species", "has_props", "theoretical", "database_IDs"]}