{
  "builder_meta": null,
  "nsites": null,
  "elements": null,
  "nelements": null,
  "composition": null,
  "composition_reduced": null,
  "formula_pretty": "BaI2",
  "formula_anonymous": "AB2",
  "chemsys": null,
  "volume": 523.2483013931756,
  "density": 4.965111263558779,
  "density_atomic": 43.604025116097965,
  "symmetry": null,
  "property_name": null,
  "material_id": "mp-23260",
  "deprecated": null,
  "deprecation_reasons": null,
  "last_updated": null,
  "origins": null,
  "warnings": null,
  "structure": {
    "@module": "pymatgen.core.structure",
    "@class": "Structure",
    "charge": 0,
    "lattice": {
      "matrix": [
        [5.37241696, 0.0, 0.0],
        [0.0, 8.996316, 0.0],
        [0.0, 0.0, 10.82613439]
      ],
      "pbc": [true, true, true],
      "a": 5.37241696,
      "b": 8.996316,
      "c": 10.82613439,
      "alpha": 90.0,
      "beta": 90.0,
      "gamma": 90.0,
      "volume": 523.2483013931756
    },
    "properties": {},
    "sites": [
      {
        "species": [{ "element": "Ba", "occu": 1 }],
        "abc": [0.25, 0.74699665, 0.38415234],
        "properties": { "magmom": -0.0 },
        "label": "Ba",
        "xyz": [1.34310424, 6.720217914341401, 4.158884859072972]
      },
      {
        "species": [{ "element": "Ba", "occu": 1 }],
        "abc": [0.75, 0.25300335, 0.61584766],
        "properties": { "magmom": -0.0 },
        "label": "Ba",
        "xyz": [4.02931272, 2.2760980856586004, 6.667249530927028]
      },
      {
        "species": [{ "element": "Ba", "occu": 1 }],
        "abc": [0.25, 0.24699665, 0.11584766],
        "properties": { "magmom": -0.0 },
        "label": "Ba",
        "xyz": [1.34310424, 2.2220599143414, 1.2541823359270274]
      },
      {
        "species": [{ "element": "Ba", "occu": 1 }],
        "abc": [0.75, 0.7530033500000001, 0.88415234],
        "properties": { "magmom": -0.0 },
        "label": "Ba",
        "xyz": [4.02931272, 6.7742560856586005, 9.571952054072973]
      },
      {
        "species": [{ "element": "I", "occu": 1 }],
        "abc": [0.25, 0.5237963800000001, 0.66578757],
        "properties": { "magmom": 0.0 },
        "label": "I",
        "xyz": [1.34310424, 4.712237754136081, 7.207905708011532]
      },
      {
        "species": [{ "element": "I", "occu": 1 }],
        "abc": [0.75, 0.47620362, 0.33421243],
        "properties": { "magmom": 0.0 },
        "label": "I",
        "xyz": [4.02931272, 4.28407824586392, 3.6182286819884677]
      },
      {
        "species": [{ "element": "I", "occu": 1 }],
        "abc": [0.25, 0.02379638, 0.83421243],
        "properties": { "magmom": 0.0 },
        "label": "I",
        "xyz": [1.34310424, 0.21407975413608, 9.031295876988468]
      },
      {
        "species": [{ "element": "I", "occu": 1 }],
        "abc": [0.75, 0.97620362, 0.16578757],
        "properties": { "magmom": 0.0 },
        "label": "I",
        "xyz": [4.02931272, 8.78223624586392, 1.7948385130115323]
      },
      {
        "species": [{ "element": "I", "occu": 1 }],
        "abc": [0.75, 0.8573739300000001, 0.57276256],
        "properties": { "magmom": 0.0 },
        "label": "I",
        "xyz": [4.02931272, 7.713206804441881, 6.200804448120439]
      },
      {
        "species": [{ "element": "I", "occu": 1 }],
        "abc": [0.25, 0.14262607, 0.42723744],
        "properties": { "magmom": 0.0 },
        "label": "I",
        "xyz": [1.34310424, 1.28310919555812, 4.625329941879562]
      },
      {
        "species": [{ "element": "I", "occu": 1 }],
        "abc": [0.75, 0.35737393, 0.92723744],
        "properties": { "magmom": 0.0 },
        "label": "I",
        "xyz": [4.02931272, 3.21504880444188, 10.038397136879562]
      },
      {
        "species": [{ "element": "I", "occu": 1 }],
        "abc": [0.25, 0.64262607, 0.07276256],
        "properties": { "magmom": 0.0 },
        "label": "I",
        "xyz": [1.34310424, 5.7812671955581205, 0.7877372531204384]
      }
    ]
  },
  "task_ids": null,
  "uncorrected_energy_per_atom": null,
  "energy_per_atom": -3.706371435833333,
  "formation_energy_per_atom": -2.050704712499999,
  "energy_above_hull": 0.0,
  "is_stable": true,
  "equilibrium_reaction_energy_per_atom": null,
  "decomposes_to": null,
  "xas": null,
  "grain_boundaries": null,
  "band_gap": 3.4525,
  "cbm": null,
  "vbm": null,
  "efermi": 1.67744917,
  "is_gap_direct": null,
  "is_metal": null,
  "es_source_calc_id": null,
  "bandstructure": null,
  "dos": null,
  "dos_energy_up": null,
  "dos_energy_down": null,
  "is_magnetic": null,
  "ordering": null,
  "total_magnetization": 0.0,
  "total_magnetization_normalized_vol": null,
  "total_magnetization_normalized_formula_units": null,
  "num_magnetic_sites": null,
  "num_unique_magnetic_sites": null,
  "types_of_magnetic_species": null,
  "bulk_modulus": null,
  "shear_modulus": null,
  "universal_anisotropy": null,
  "homogeneous_poisson": null,
  "e_total": null,
  "e_ionic": null,
  "e_electronic": null,
  "n": null,
  "e_ij_max": null,
  "weighted_surface_energy_EV_PER_ANG2": null,
  "weighted_surface_energy": null,
  "weighted_work_function": null,
  "surface_anisotropy": null,
  "shape_factor": null,
  "has_reconstructed": null,
  "possible_species": null,
  "has_props": null,
  "theoretical": null,
  "database_IDs": null,
  "fields_not_requested": [
    "builder_meta",
    "nsites",
    "elements",
    "nelements",
    "composition",
    "composition_reduced",
    "chemsys",
    "symmetry",
    "property_name",
    "deprecated",
    "deprecation_reasons",
    "last_updated",
    "origins",
    "warnings",
    "task_ids",
    "uncorrected_energy_per_atom",
    "equilibrium_reaction_energy_per_atom",
    "decomposes_to",
    "xas",
    "grain_boundaries",
    "cbm",
    "vbm",
    "is_gap_direct",
    "is_metal",
    "es_source_calc_id",
    "bandstructure",
    "dos",
    "dos_energy_up",
    "dos_energy_down",
    "is_magnetic",
    "ordering",
    "total_magnetization_normalized_vol",
    "total_magnetization_normalized_formula_units",
    "num_magnetic_sites",
    "num_unique_magnetic_sites",
    "types_of_magnetic_species",
    "bulk_modulus",
    "shear_modulus",
    "universal_anisotropy",
    "homogeneous_poisson",
    "e_total",
    "e_ionic",
    "e_electronic",
    "n",
    "e_ij_max",
    "weighted_surface_energy_EV_PER_ANG2",
    "weighted_surface_energy",
    "weighted_work_function",
    "surface_anisotropy",
    "shape_factor",
    "has_reconstructed",
    "possible_species",
    "has_props",
    "theoretical",
    "database_IDs"
  ]
}
