{"builder_meta": null, "nsites": null, "elements": null, "nelements": null, "composition": null, "composition_reduced": null, "formula_pretty": "BaIn", "formula_anonymous": "AB", "chemsys": null, "volume": 296.1772600588647, "density": 5.654676160683528, "density_atomic": 37.02215750735809, "symmetry": null, "property_name": null, "material_id": "mp-31509", "deprecated": null, "deprecation_reasons": null, "last_updated": null, "origins": null, "warnings": null, "structure": {"@module": "pymatgen.core.structure", "@class": "Structure", "charge": 0, "lattice": {"matrix": [[5.59279772, 0.0, 0.0], [0.0, 6.96460829, -3.0699599], [0.0, -0.01694638, 7.61118615]], "pbc": [true, true, true], "a": 5.59279772, "b": 7.611203743215966, "c": 7.611205015616576, "alpha": 113.91518292747544, "beta": 90.0, "gamma": 90.0, "volume": 296.1772600588647}, "properties": {}, "sites": [{"species": [{"element": "Ba", "occu": 1}], "abc": [0.25, 0.32258199, 0.67741801], "properties": {"magmom": -0.0}, "label": "Ba", "xyz": [1.39819943, 2.2351774187423934, 4.16564080171036]}, {"species": [{"element": "Ba", "occu": 1}], "abc": [0.75, 0.67741801, 0.32258199], "properties": {"magmom": -0.0}, "label": "Ba", "xyz": [4.19459829, 4.712484491257607, 0.37558544828963925]}, {"species": [{"element": "Ba", "occu": 1}], "abc": [0.25, 0.87510586, 0.12489414], "properties": {"magmom": -0.0}, "label": "Ba", "xyz": [1.39819943, 6.092653023627366, -1.735947349870853]}, {"species": [{"element": "Ba", "occu": 1}], "abc": [0.75, 0.12489414, 0.87510586], "properties": {"magmom": -0.0}, "label": "Ba", "xyz": [4.19459829, 0.8550088863726338, 6.277173599870853]}, {"species": [{"element": "In", "occu": 1}], "abc": [0.75, 0.22538332, 0.37850271], "properties": {"magmom": 0.0}, "label": "In", "xyz": [4.19459829, 1.563292288145033, 2.188936829560599]}, {"species": [{"element": "In", "occu": 1}], "abc": [0.25, 0.7746166800000001, 0.62149729], "properties": {"magmom": 0.0}, "label": "In", "xyz": [1.39819943, 5.384369621854968, 2.352289420439401]}, {"species": [{"element": "In", "occu": 1}], "abc": [0.25, 0.37850271, 0.22538332], "properties": {"magmom": 0.0}, "label": "In", "xyz": [1.39819943, 2.6323036804670843, 0.5534462618836888]}, {"species": [{"element": "In", "occu": 1}], "abc": [0.75, 0.62149729, 0.7746166800000001], "properties": {"magmom": 0.0}, "label": "In", "xyz": [4.19459829, 4.315358229532915, 3.987779988116311]}]}, "task_ids": null, "uncorrected_energy_per_atom": null, "energy_per_atom": -2.755465192500001, "formation_energy_per_atom": -0.41639085083333305, "energy_above_hull": 0.0, "is_stable": true, "equilibrium_reaction_energy_per_atom": null, "decomposes_to": null, "xas": null, "grain_boundaries": null, "band_gap": 0.0, "cbm": null, "vbm": null, "efermi": 3.97091056, "is_gap_direct": null, "is_metal": null, "es_source_calc_id": null, "bandstructure": null, "dos": null, "dos_energy_up": null, "dos_energy_down": null, "is_magnetic": null, "ordering": null, "total_magnetization": 1e-07, "total_magnetization_normalized_vol": null, "total_magnetization_normalized_formula_units": null, "num_magnetic_sites": null, "num_unique_magnetic_sites": null, "types_of_magnetic_species": null, "bulk_modulus": null, "shear_modulus": null, "universal_anisotropy": null, "homogeneous_poisson": null, "e_total": null, "e_ionic": null, "e_electronic": null, "n": null, "e_ij_max": null, "weighted_surface_energy_EV_PER_ANG2": null, "weighted_surface_energy": null, "weighted_work_function": null, "surface_anisotropy": null, "shape_factor": null, "has_reconstructed": null, "possible_species": null, "has_props": null, "theoretical": null, "database_IDs": null, "fields_not_requested": ["builder_meta", "nsites", "elements", "nelements", "composition", "composition_reduced", "chemsys", "symmetry", "property_name", "deprecated", "deprecation_reasons", "last_updated", "origins", "warnings", "task_ids", "uncorrected_energy_per_atom", "equilibrium_reaction_energy_per_atom", "decomposes_to", "xas", "grain_boundaries", "cbm", "vbm", "is_gap_direct", "is_metal", "es_source_calc_id", "bandstructure", "dos", "dos_energy_up", "dos_energy_down", "is_magnetic", "ordering", "total_magnetization_normalized_vol", "total_magnetization_normalized_formula_units", "num_magnetic_sites", "num_unique_magnetic_sites", "types_of_magnetic_species", "bulk_modulus", "shear_modulus", "universal_anisotropy", "homogeneous_poisson", "e_total", "e_ionic", "e_electronic", "n", "e_ij_max", "weighted_surface_energy_EV_PER_ANG2", "weighted_surface_energy", "weighted_work_function", "surface_anisotropy", "shape_factor", "has_reconstructed", "possible_species", "has_props", "theoretical", "database_IDs"]}