{"builder_meta": null, "nsites": null, "elements": null, "nelements": null, "composition": null, "composition_reduced": null, "formula_pretty": "BaIn2", "formula_anonymous": "AB2", "chemsys": null, "volume": 197.25640713351345, "density": 6.178317919825959, "density_atomic": 32.876067855585575, "symmetry": null, "property_name": null, "material_id": "mp-22141", "deprecated": null, "deprecation_reasons": null, "last_updated": null, "origins": null, "warnings": null, "structure": {"@module": "pymatgen.core.structure", "@class": "Structure", "charge": 0, "lattice": {"matrix": [[4.85693801, -0.0, 2.10629665], [2.42613141, 6.10413061, 1.05853853], [-0.00015493, -0.00559868, 6.65334389]], "pbc": [true, true, true], "a": 5.293990216347589, "b": 6.653347123217165, "c": 6.653346247402234, "alpha": 80.89071501796323, "beta": 66.55652786079665, "gamma": 66.55652659114335, "volume": 197.25640713351345}, "properties": {}, "sites": [{"species": [{"element": "Ba", "occu": 1}], "abc": [0.54827958, 0.70172042, 0.20172042], "properties": {"magmom": 0.0}, "label": "Ba", "xyz": [4.365394631664557, 4.282263727303011, 3.2397528683704238]}, {"species": [{"element": "Ba", "occu": 1}], "abc": [0.45172042, 0.29827958, 0.79827958], "properties": {"magmom": 0.0}, "label": "Ba", "xyz": [2.917519858335443, 1.8162682026969894, 6.578426201629577]}, {"species": [{"element": "In", "occu": 1}], "abc": [0.83948566, 0.72896665, 0.59206404], "properties": {"magmom": 0.0}, "label": "In", "xyz": [5.845806968829696, 4.44639286483469, 6.47905078251378]}, {"species": [{"element": "In", "occu": 1}], "abc": [0.16051434, 0.27103335, 0.40793596], "properties": {"magmom": 0.0}, "label": "In", "xyz": [1.4371075211703042, 1.6521390651653107, 3.3391282874862207]}, {"species": [{"element": "In", "occu": 1}], "abc": [0.83948566, 0.09206404, 0.22896665], "properties": {"magmom": 0.0}, "label": "In", "xyz": [4.3006537962763485, 0.5606890136402425, 3.389053028739769]}, {"species": [{"element": "In", "occu": 1}], "abc": [0.16051434, 0.90793596, 0.7710333500000001], "properties": {"magmom": 0.0}, "label": "In", "xyz": [2.982260693723651, 5.537842916359757, 6.429126041260233]}]}, "task_ids": null, "uncorrected_energy_per_atom": null, "energy_per_atom": -2.956034676666666, "formation_energy_per_atom": -0.47692720111110903, "energy_above_hull": 0.0, "is_stable": true, "equilibrium_reaction_energy_per_atom": null, "decomposes_to": null, "xas": null, "grain_boundaries": null, "band_gap": 0.0, "cbm": null, "vbm": null, "efermi": 5.2412771, "is_gap_direct": null, "is_metal": null, "es_source_calc_id": null, "bandstructure": null, "dos": null, "dos_energy_up": null, "dos_energy_down": null, "is_magnetic": null, "ordering": null, "total_magnetization": 6.0000000000000015e-05, "total_magnetization_normalized_vol": null, "total_magnetization_normalized_formula_units": null, "num_magnetic_sites": null, "num_unique_magnetic_sites": null, "types_of_magnetic_species": null, "bulk_modulus": null, "shear_modulus": null, "universal_anisotropy": null, "homogeneous_poisson": null, "e_total": null, "e_ionic": null, "e_electronic": null, "n": null, "e_ij_max": null, "weighted_surface_energy_EV_PER_ANG2": null, "weighted_surface_energy": null, "weighted_work_function": null, "surface_anisotropy": null, "shape_factor": null, "has_reconstructed": null, "possible_species": null, "has_props": null, "theoretical": null, "database_IDs": null, "fields_not_requested": ["builder_meta", "nsites", "elements", "nelements", "composition", "composition_reduced", "chemsys", "symmetry", "property_name", "deprecated", "deprecation_reasons", "last_updated", "origins", "warnings", "task_ids", "uncorrected_energy_per_atom", "equilibrium_reaction_energy_per_atom", "decomposes_to", "xas", "grain_boundaries", "cbm", "vbm", "is_gap_direct", "is_metal", "es_source_calc_id", "bandstructure", "dos", "dos_energy_up", "dos_energy_down", "is_magnetic", "ordering", "total_magnetization_normalized_vol", "total_magnetization_normalized_formula_units", "num_magnetic_sites", "num_unique_magnetic_sites", "types_of_magnetic_species", "bulk_modulus", "shear_modulus", "universal_anisotropy", "homogeneous_poisson", "e_total", "e_ionic", "e_electronic", "n", "e_ij_max", "weighted_surface_energy_EV_PER_ANG2", "weighted_surface_energy", "weighted_work_function", "surface_anisotropy", "shape_factor", "has_reconstructed", "possible_species", "has_props", "theoretical", "database_IDs"]}