{"builder_meta": null, "nsites": null, "elements": null, "nelements": null, "composition": null, "composition_reduced": null, "formula_pretty": "BaLi4", "formula_anonymous": "AB4", "chemsys": null, "volume": 907.5286575632158, "density": 1.812438997442666, "density_atomic": 30.250955252107193, "symmetry": null, "property_name": null, "material_id": "mp-210", "deprecated": null, "deprecation_reasons": null, "last_updated": null, "origins": null, "warnings": null, "structure": {"@module": "pymatgen.core.structure", "@class": "Structure", "charge": 0, "lattice": {"matrix": [[5.42651384, -9.39900751, 0.0], [5.42652226, 9.39901276, 0.0], [-0.0, -0.0, 8.89665977]], "pbc": [true, true, true], "a": 10.853036194021835, "b": 10.853044950654093, "c": 8.89665977, "alpha": 90.0, "beta": 90.0, "gamma": 120.00002726310356, "volume": 907.5286575632158}, "properties": {}, "sites": [{"species": [{"element": "Ba", "occu": 1}], "abc": [0.4717401, 0.528260899999999, 0.25], "properties": {"magmom": 0.0}, "label": "Ba", "xyz": [5.426523714470613, 0.5312421970409229, 2.2241649425]}, {"species": [{"element": "Ba", "occu": 1}], "abc": [0.4717401, 0.943478199999999, 0.25], "properties": {"magmom": 0.0}, "label": "Ba", "xyz": [7.67970963565771, 4.433874897913671, 2.2241649425]}, {"species": [{"element": "Ba", "occu": 1}], "abc": [0.0565228, 0.528260899999999, 0.25], "properties": {"magmom": 0.0}, "label": "Ba", "xyz": [3.1733412894131807, 4.4338727180228465, 2.2241649425]}, {"species": [{"element": "Ba", "occu": 1}], "abc": [0.5282599, 0.471739099999999, 0.75], "properties": {"magmom": 0.0}, "label": "Ba", "xyz": [5.426512385529376, -0.5312369470409424, 6.6724948275]}, {"species": [{"element": "Ba", "occu": 1}], "abc": [0.5282599, 0.0565218, 0.75], "properties": {"magmom": 0.0}, "label": "Ba", "xyz": [3.173326464342284, -4.433869647913681, 6.6724948275]}, {"species": [{"element": "Ba", "occu": 1}], "abc": [0.9434771999999991, 0.471739099999999, 0.75], "properties": {"magmom": 0.0}, "label": "Ba", "xyz": [7.679694810586804, -4.433867468022857, 6.6724948275]}, {"species": [{"element": "Li", "occu": 1}], "abc": [-0.0, -0.0, 0.5], "properties": {"magmom": 0.0}, "label": "Li", "xyz": [0.0, 0.0, 4.448329885]}, {"species": [{"element": "Li", "occu": 1}], "abc": [-0.0, -0.0, -0.0], "properties": {"magmom": 0.0}, "label": "Li", "xyz": [0.0, 0.0, 0.0]}, {"species": [{"element": "Li", "occu": 1}], "abc": [0.333333, 0.666667, 0.91510041], "properties": {"magmom": -0.0}, "label": "Li", "xyz": [5.42651945333614, 3.1330122693400893, 8.141337003157505]}, {"species": [{"element": "Li", "occu": 1}], "abc": [0.666667, 0.333333, 0.08489959], "properties": {"magmom": -0.0}, "label": "Li", "xyz": [5.42651664666386, -3.133007019340091, 0.7553227668424942]}, {"species": [{"element": "Li", "occu": 1}], "abc": [0.666667, 0.333333, 0.41510041000000003], "properties": {"magmom": -0.0}, "label": "Li", "xyz": [5.42651664666386, -3.133007019340091, 3.6930071181575057]}, {"species": [{"element": "Li", "occu": 1}], "abc": [0.333333, 0.666667, 0.58489959], "properties": {"magmom": -0.0}, "label": "Li", "xyz": [5.42651945333614, 3.1330122693400893, 5.203652651842495]}, {"species": [{"element": "Li", "occu": 1}], "abc": [0.09959767, 0.90040233, 0.25], "properties": {"magmom": 0.0}, "label": "Li", "xyz": [5.426521421387618, 7.526773740495229, 2.2241649425]}, {"species": [{"element": "Li", "occu": 1}], "abc": [0.09959767, 0.19919633, 0.25], "properties": {"magmom": 0.0}, "label": "Li", "xyz": [1.6214114535420585, 0.936129599106669, 2.2241649425]}, {"species": [{"element": "Li", "occu": 1}], "abc": [0.80080367, 0.90040233, 0.25], "properties": {"magmom": 0.0}, "label": "Li", "xyz": [9.23162548507866, 0.9361332804381686, 2.2241649425]}, {"species": [{"element": "Li", "occu": 1}], "abc": [0.90040233, 0.09959767, 0.75], "properties": {"magmom": 0.0}, "label": "Li", "xyz": [5.4265146786123815, -7.526768490495229, 6.6724948275]}, {"species": [{"element": "Li", "occu": 1}], "abc": [0.90040233, 0.80080367, 0.75], "properties": {"magmom": 0.0}, "label": "Li", "xyz": [9.231624646457941, -0.9361243491066693, 6.6724948275]}, {"species": [{"element": "Li", "occu": 1}], "abc": [0.19919633, 0.09959767, 0.75], "properties": {"magmom": 0.0}, "label": "Li", "xyz": [1.6214106149213414, -0.9361280304381692, 6.6724948275]}, {"species": [{"element": "Li", "occu": 1}], "abc": [0.16353823, 0.83646177, 0.93277007], "properties": {"magmom": 0.0}, "label": "Li", "xyz": [5.426520883008103, 6.324817797540077, 8.298537956429083]}, {"species": [{"element": "Li", "occu": 1}], "abc": [0.16353823, 0.32707746, 0.93277007], "properties": {"magmom": 0.0}, "label": "Li", "xyz": [2.662335585898363, 1.537108168106282, 8.298537956429083]}, {"species": [{"element": "Li", "occu": 1}], "abc": [0.6729225400000001, 0.83646177, 0.93277007], "properties": {"magmom": 0.0}, "label": "Li", "xyz": [8.190701891101954, 1.5371108423739086, 8.298537956429083]}, {"species": [{"element": "Li", "occu": 1}], "abc": [0.83646177, 0.16353823, 0.06722993000000001], "properties": {"magmom": 0.0}, "label": "Li", "xyz": [5.426515216991897, -6.324812547540078, 0.5981218135709161]}, {"species": [{"element": "Li", "occu": 1}], "abc": [0.83646177, 0.6729225400000001, 0.06722993000000001], "properties": {"magmom": 0.0}, "label": "Li", "xyz": [8.190700514101637, -1.5371029181062816, 0.5981218135709161]}, {"species": [{"element": "Li", "occu": 1}], "abc": [0.32707746, 0.16353823, 0.06722993000000001], "properties": {"magmom": 0.0}, "label": "Li", "xyz": [2.662334208898046, -1.5371055923739096, 0.5981218135709161]}, {"species": [{"element": "Li", "occu": 1}], "abc": [0.83646177, 0.16353823, 0.43277007], "properties": {"magmom": 0.0}, "label": "Li", "xyz": [5.426515216991897, -6.324812547540078, 3.850208071429084]}, {"species": [{"element": "Li", "occu": 1}], "abc": [0.83646177, 0.6729225400000001, 0.43277007], "properties": {"magmom": 0.0}, "label": "Li", "xyz": [8.190700514101637, -1.5371029181062816, 3.850208071429084]}, {"species": [{"element": "Li", "occu": 1}], "abc": [0.32707746, 0.16353823, 0.43277007], "properties": {"magmom": 0.0}, "label": "Li", "xyz": [2.662334208898046, -1.5371055923739096, 3.850208071429084]}, {"species": [{"element": "Li", "occu": 1}], "abc": [0.16353823, 0.83646177, 0.56722993], "properties": {"magmom": 0.0}, "label": "Li", "xyz": [5.426520883008103, 6.324817797540077, 5.046451698570916]}, {"species": [{"element": "Li", "occu": 1}], "abc": [0.16353823, 0.32707746, 0.56722993], "properties": {"magmom": 0.0}, "label": "Li", "xyz": [2.662335585898363, 1.537108168106282, 5.046451698570916]}, {"species": [{"element": "Li", "occu": 1}], "abc": [0.6729225400000001, 0.83646177, 0.56722993], "properties": {"magmom": 0.0}, "label": "Li", "xyz": [8.190701891101954, 1.5371108423739086, 5.046451698570916]}]}, "task_ids": null, "uncorrected_energy_per_atom": null, "energy_per_atom": -1.911672084666667, "formation_energy_per_atom": -0.0007388033333330001, "energy_above_hull": 0.0, "is_stable": true, "equilibrium_reaction_energy_per_atom": null, "decomposes_to": null, "xas": null, "grain_boundaries": null, "band_gap": 0.0, "cbm": null, "vbm": null, "efermi": 0.5595376, "is_gap_direct": null, "is_metal": null, "es_source_calc_id": null, "bandstructure": null, "dos": null, "dos_energy_up": null, "dos_energy_down": null, "is_magnetic": null, "ordering": null, "total_magnetization": 0.0006263999999990001, "total_magnetization_normalized_vol": null, "total_magnetization_normalized_formula_units": null, "num_magnetic_sites": null, "num_unique_magnetic_sites": null, "types_of_magnetic_species": null, "bulk_modulus": null, "shear_modulus": null, "universal_anisotropy": null, "homogeneous_poisson": null, "e_total": null, "e_ionic": null, "e_electronic": null, "n": null, "e_ij_max": null, "weighted_surface_energy_EV_PER_ANG2": null, "weighted_surface_energy": null, "weighted_work_function": null, "surface_anisotropy": null, "shape_factor": null, "has_reconstructed": null, "possible_species": null, "has_props": null, "theoretical": null, "database_IDs": null, "fields_not_requested": ["builder_meta", "nsites", "elements", "nelements", "composition", "composition_reduced", "chemsys", "symmetry", "property_name", "deprecated", "deprecation_reasons", "last_updated", "origins", "warnings", "task_ids", "uncorrected_energy_per_atom", "equilibrium_reaction_energy_per_atom", "decomposes_to", "xas", "grain_boundaries", "cbm", "vbm", "is_gap_direct", "is_metal", "es_source_calc_id", "bandstructure", "dos", "dos_energy_up", "dos_energy_down", "is_magnetic", "ordering", "total_magnetization_normalized_vol", "total_magnetization_normalized_formula_units", "num_magnetic_sites", "num_unique_magnetic_sites", "types_of_magnetic_species", "bulk_modulus", "shear_modulus", "universal_anisotropy", "homogeneous_poisson", "e_total", "e_ionic", "e_electronic", "n", "e_ij_max", "weighted_surface_energy_EV_PER_ANG2", "weighted_surface_energy", "weighted_work_function", "surface_anisotropy", "shape_factor", "has_reconstructed", "possible_species", "has_props", "theoretical", "database_IDs"]}