{
  "builder_meta": null,
  "nsites": null,
  "elements": null,
  "nelements": null,
  "composition": null,
  "composition_reduced": null,
  "formula_pretty": "BaMg2",
  "formula_anonymous": "AB2",
  "chemsys": null,
  "volume": 404.62934982634755,
  "density": 3.05223190120945,
  "density_atomic": 33.71911248552896,
  "symmetry": null,
  "property_name": null,
  "material_id": "mp-1935",
  "deprecated": null,
  "deprecation_reasons": null,
  "last_updated": null,
  "origins": null,
  "warnings": null,
  "structure": {
    "@module": "pymatgen.core.structure",
    "@class": "Structure",
    "charge": 0,
    "lattice": {
      "matrix": [
        [6.64472627, -1.04e-6, 0.0],
        [-3.32236366, 5.75450108, -0.0],
        [0.0, 0.0, 10.58211921]
      ],
      "pbc": [true, true, true],
      "a": 6.644726270000081,
      "b": 6.644725951385036,
      "c": 10.58211921,
      "alpha": 90.0,
      "beta": 90.0,
      "gamma": 120.00001578109146,
      "volume": 404.62934982634755
    },
    "properties": {},
    "sites": [
      {
        "species": [{ "element": "Ba", "occu": 1 }],
        "abc": [0.333333, 0.666667, 0.44384484],
        "properties": { "magmom": -0.0 },
        "label": "Ba",
        "xyz": [-3.6723633103363795e-6, 3.8363356248340397, 4.696819007623376]
      },
      {
        "species": [{ "element": "Ba", "occu": 1 }],
        "abc": [0.666667, 0.333333, 0.94384484],
        "properties": { "magmom": -0.0 },
        "label": "Ba",
        "xyz": [3.32236628236331, 1.9181644151659598, 9.987878612623376]
      },
      {
        "species": [{ "element": "Ba", "occu": 1 }],
        "abc": [0.666667, 0.333333, 0.55615516],
        "properties": { "magmom": -0.0 },
        "label": "Ba",
        "xyz": [3.32236628236331, 1.9181644151659598, 5.885300202376624]
      },
      {
        "species": [{ "element": "Ba", "occu": 1 }],
        "abc": [0.333333, 0.666667, 0.05615516],
        "properties": { "magmom": -0.0 },
        "label": "Ba",
        "xyz": [-3.6723633103363795e-6, 3.8363356248340397, 0.5942405973766236]
      },
      {
        "species": [{ "element": "Mg", "occu": 1 }],
        "abc": [0.16107416, 0.32214832, 0.75],
        "properties": { "magmom": -0.0 },
        "label": "Mg",
        "xyz": [-1.6912786815481695e-7, 1.8538026878430591, 7.9365894075]
      },
      {
        "species": [{ "element": "Mg", "occu": 1 }],
        "abc": [0.83892584, 0.16107416, 0.25],
        "properties": { "magmom": -0.0 },
        "label": "Mg",
        "xyz": [5.039285631880791, 0.9269005551972191, 2.6455298025]
      },
      {
        "species": [{ "element": "Mg", "occu": 1 }],
        "abc": [0.32214932, 0.16107416, 0.25],
        "properties": { "magmom": -0.0 },
        "label": "Mg",
        "xyz": [1.6054471137176107, 0.9269010926447999, 2.6455298025]
      },
      {
        "species": [{ "element": "Mg", "occu": 1 }],
        "abc": [0.67785068, 0.83892584, 0.75],
        "properties": { "magmom": -0.0 },
        "label": "Mg",
        "xyz": [1.7169154962823887, 4.827598947355201, 7.9365894075]
      },
      {
        "species": [{ "element": "Mg", "occu": 1 }],
        "abc": [-0.0, -0.0, 0.0],
        "properties": { "magmom": -0.0 },
        "label": "Mg",
        "xyz": [0.0, 0.0, 0.0]
      },
      {
        "species": [{ "element": "Mg", "occu": 1 }],
        "abc": [-0.0, -0.0, 0.5],
        "properties": { "magmom": -0.0 },
        "label": "Mg",
        "xyz": [0.0, 0.0, 5.291059605]
      },
      {
        "species": [{ "element": "Mg", "occu": 1 }],
        "abc": [0.83892584, 0.6778516800000001, 0.25],
        "properties": { "magmom": -0.0 },
        "label": "Mg",
        "xyz": [3.3223627791278676, 3.900697352156941, 2.6455298025]
      },
      {
        "species": [{ "element": "Mg", "occu": 1 }],
        "abc": [0.16107416, 0.83892584, 0.75],
        "properties": { "magmom": -0.0 },
        "label": "Mg",
        "xyz": [-1.7169230218807916, 4.827599484802781, 7.9365894075]
      }
    ]
  },
  "task_ids": null,
  "uncorrected_energy_per_atom": null,
  "energy_per_atom": -1.7785000975,
  "formation_energy_per_atom": -0.05186177416666601,
  "energy_above_hull": 0.0,
  "is_stable": true,
  "equilibrium_reaction_energy_per_atom": null,
  "decomposes_to": null,
  "xas": null,
  "grain_boundaries": null,
  "band_gap": 0.0,
  "cbm": null,
  "vbm": null,
  "efermi": 2.52300495,
  "is_gap_direct": null,
  "is_metal": null,
  "es_source_calc_id": null,
  "bandstructure": null,
  "dos": null,
  "dos_energy_up": null,
  "dos_energy_down": null,
  "is_magnetic": null,
  "ordering": null,
  "total_magnetization": 4.5e-6,
  "total_magnetization_normalized_vol": null,
  "total_magnetization_normalized_formula_units": null,
  "num_magnetic_sites": null,
  "num_unique_magnetic_sites": null,
  "types_of_magnetic_species": null,
  "bulk_modulus": null,
  "shear_modulus": null,
  "universal_anisotropy": null,
  "homogeneous_poisson": null,
  "e_total": null,
  "e_ionic": null,
  "e_electronic": null,
  "n": null,
  "e_ij_max": null,
  "weighted_surface_energy_EV_PER_ANG2": null,
  "weighted_surface_energy": null,
  "weighted_work_function": null,
  "surface_anisotropy": null,
  "shape_factor": null,
  "has_reconstructed": null,
  "possible_species": null,
  "has_props": null,
  "theoretical": null,
  "database_IDs": null,
  "fields_not_requested": [
    "builder_meta",
    "nsites",
    "elements",
    "nelements",
    "composition",
    "composition_reduced",
    "chemsys",
    "symmetry",
    "property_name",
    "deprecated",
    "deprecation_reasons",
    "last_updated",
    "origins",
    "warnings",
    "task_ids",
    "uncorrected_energy_per_atom",
    "equilibrium_reaction_energy_per_atom",
    "decomposes_to",
    "xas",
    "grain_boundaries",
    "cbm",
    "vbm",
    "is_gap_direct",
    "is_metal",
    "es_source_calc_id",
    "bandstructure",
    "dos",
    "dos_energy_up",
    "dos_energy_down",
    "is_magnetic",
    "ordering",
    "total_magnetization_normalized_vol",
    "total_magnetization_normalized_formula_units",
    "num_magnetic_sites",
    "num_unique_magnetic_sites",
    "types_of_magnetic_species",
    "bulk_modulus",
    "shear_modulus",
    "universal_anisotropy",
    "homogeneous_poisson",
    "e_total",
    "e_ionic",
    "e_electronic",
    "n",
    "e_ij_max",
    "weighted_surface_energy_EV_PER_ANG2",
    "weighted_surface_energy",
    "weighted_work_function",
    "surface_anisotropy",
    "shape_factor",
    "has_reconstructed",
    "possible_species",
    "has_props",
    "theoretical",
    "database_IDs"
  ]
}
