{"builder_meta": null, "nsites": null, "elements": null, "nelements": null, "composition": null, "composition_reduced": null, "formula_pretty": "BaMg7", "formula_anonymous": "AB7", "chemsys": null, "volume": 221.44442904016108, "density": 2.305556589108753, "density_atomic": 27.680553630020135, "symmetry": null, "property_name": null, "material_id": "mp-1016333", "deprecated": null, "deprecation_reasons": null, "last_updated": null, "origins": null, "warnings": null, "structure": {"@module": "pymatgen.core.structure", "@class": "Structure", "charge": 0, "lattice": {"matrix": [[3.471437, -6.012706, 0.0], [3.471437, 6.012706, 0.0], [0.0, 0.0, 5.304635]], "pbc": [true, true, true], "a": 6.942874641487127, "b": 6.942874641487127, "c": 5.304635, "alpha": 90.0, "beta": 90.0, "gamma": 120.00000611280602, "volume": 221.44442904016108}, "properties": {}, "sites": [{"species": [{"element": "Ba", "occu": 1}], "abc": [0.0, 0.0, 0.5], "properties": {"magmom": -0.0}, "label": "Ba", "xyz": [0.0, 0.0, 2.6523175]}, {"species": [{"element": "Mg", "occu": 1}], "abc": [0.011684, 0.505842, 0.5], "properties": {"magmom": -0.0}, "label": "Mg", "xyz": [1.796558904862, 2.971226771548, 2.6523175]}, {"species": [{"element": "Mg", "occu": 1}], "abc": [0.494158, 0.505842, 0.5], "properties": {"magmom": -0.0}, "label": "Mg", "xyz": [3.471437, 0.07025245690399995, 2.6523175]}, {"species": [{"element": "Mg", "occu": 1}], "abc": [0.494158, 0.988316, 0.5], "properties": {"magmom": -0.0}, "label": "Mg", "xyz": [5.146315095138, 2.971226771548, 2.6523175]}, {"species": [{"element": "Mg", "occu": 1}], "abc": [0.180175, 0.36035, 0.0], "properties": {"magmom": -0.0}, "label": "Mg", "xyz": [1.8763984844250001, 1.0833393035499999, 0.0]}, {"species": [{"element": "Mg", "occu": 1}], "abc": [0.180175, 0.819824999999999, 0.0], "properties": {"magmom": -0.0}, "label": "Mg", "xyz": [3.4714369999999963, 3.8460273928999937, 0.0]}, {"species": [{"element": "Mg", "occu": 1}], "abc": [0.63965, 0.819824999999999, 0.0], "properties": {"magmom": -0.0}, "label": "Mg", "xyz": [5.0664755155749965, 1.0833393035499936, 0.0]}, {"species": [{"element": "Mg", "occu": 1}], "abc": [0.666667, 0.333333, 0.0], "properties": {"magmom": 0.0}, "label": "Mg", "xyz": [3.471437, -2.0042393418040003, 0.0]}]}, "task_ids": null, "uncorrected_energy_per_atom": null, "energy_per_atom": -1.545672843749999, "formation_energy_per_atom": 0.12086028687500001, "energy_above_hull": 0.154477566473214, "is_stable": false, "equilibrium_reaction_energy_per_atom": null, "decomposes_to": null, "xas": null, "grain_boundaries": null, "band_gap": 0.0, "cbm": null, "vbm": null, "efermi": 2.80695752, "is_gap_direct": null, "is_metal": null, "es_source_calc_id": null, "bandstructure": null, "dos": null, "dos_energy_up": null, "dos_energy_down": null, "is_magnetic": null, "ordering": null, "total_magnetization": 0.002348, "total_magnetization_normalized_vol": null, "total_magnetization_normalized_formula_units": null, "num_magnetic_sites": null, "num_unique_magnetic_sites": null, "types_of_magnetic_species": null, "bulk_modulus": null, "shear_modulus": null, "universal_anisotropy": null, "homogeneous_poisson": null, "e_total": null, "e_ionic": null, "e_electronic": null, "n": null, "e_ij_max": null, "weighted_surface_energy_EV_PER_ANG2": null, "weighted_surface_energy": null, "weighted_work_function": null, "surface_anisotropy": null, "shape_factor": null, "has_reconstructed": null, "possible_species": null, "has_props": null, "theoretical": null, "database_IDs": null, "fields_not_requested": ["builder_meta", "nsites", "elements", "nelements", "composition", "composition_reduced", "chemsys", "symmetry", "property_name", "deprecated", "deprecation_reasons", "last_updated", "origins", "warnings", "task_ids", "uncorrected_energy_per_atom", "equilibrium_reaction_energy_per_atom", "decomposes_to", "xas", "grain_boundaries", "cbm", "vbm", "is_gap_direct", "is_metal", "es_source_calc_id", "bandstructure", "dos", "dos_energy_up", "dos_energy_down", "is_magnetic", "ordering", "total_magnetization_normalized_vol", "total_magnetization_normalized_formula_units", "num_magnetic_sites", "num_unique_magnetic_sites", "types_of_magnetic_species", "bulk_modulus", "shear_modulus", "universal_anisotropy", "homogeneous_poisson", "e_total", "e_ionic", "e_electronic", "n", "e_ij_max", "weighted_surface_energy_EV_PER_ANG2", "weighted_surface_energy", "weighted_work_function", "surface_anisotropy", "shape_factor", "has_reconstructed", "possible_species", "has_props", "theoretical", "database_IDs"]}