{
  "builder_meta": null,
  "nsites": null,
  "elements": null,
  "nelements": null,
  "composition": null,
  "composition_reduced": null,
  "formula_pretty": "BaN2",
  "formula_anonymous": "AB2",
  "chemsys": null,
  "volume": 112.76116763626705,
  "density": 4.869658575599328,
  "density_atomic": 18.793527939377842,
  "symmetry": null,
  "property_name": null,
  "material_id": "mp-1001",
  "deprecated": null,
  "deprecation_reasons": null,
  "last_updated": null,
  "origins": null,
  "warnings": null,
  "structure": {
    "@module": "pymatgen.core.structure",
    "@class": "Structure",
    "charge": 0,
    "lattice": {
      "matrix": [
        [4.11711112, -0.02595107, 0.9327565600000001],
        [1.73270619, 3.73483625, 0.93275655],
        [0.00390108, 0.00247177, 7.31309383]
      ],
      "pbc": [true, true, true],
      "a": 4.22152960817342,
      "b": 4.22152902829606,
      "c": 7.313095288211153,
      "alpha": 77.20459870189774,
      "beta": 77.20458902048435,
      "gamma": 63.66145310403109,
      "volume": 112.76116763626706
    },
    "properties": {},
    "sites": [
      {
        "species": [{ "element": "Ba", "occu": 1 }],
        "abc": [0.7959288, 0.204071199999999, 0.25],
        "properties": { "magmom": 0.0 },
        "label": "Ba",
        "xyz": [3.631498014648982, 0.7421352538371803, 2.761030015459287]
      },
      {
        "species": [{ "element": "Ba", "occu": 1 }],
        "abc": [0.204071199999999, 0.7959288, 0.75],
        "properties": { "magmom": 0.0 },
        "label": "Ba",
        "xyz": [2.2222203753510117, 2.969221696162816, 6.417576924540711]
      },
      {
        "species": [{ "element": "N", "occu": 1 }],
        "abc": [0.15001088, 0.44392642, 0.45479638],
        "properties": { "magmom": 0.0 },
        "label": "N",
        "xyz": [1.388579715069616, 1.655223694949276, 3.879967508848759]
      },
      {
        "species": [{ "element": "N", "occu": 1 }],
        "abc": [0.55607358, 0.84998912, 0.04520362],
        "properties": { "magmom": 0.0 },
        "label": "N",
        "xyz": [3.762374472350772, 3.160251206033677, 1.6420925132120856]
      },
      {
        "species": [{ "element": "N", "occu": 1 }],
        "abc": [0.44392642, 0.15001088, 0.95479638],
        "properties": { "magmom": 0.0 },
        "label": "N",
        "xyz": [2.091343917649228, 0.5511057439663233, 7.536514426787915]
      },
      {
        "species": [{ "element": "N", "occu": 1 }],
        "abc": [0.84998912, 0.55607358, 0.54520362],
        "properties": { "magmom": 0.0 },
        "label": "N",
        "xyz": [4.465138674930384, 2.056133255050724, 5.298639431151241]
      }
    ]
  },
  "task_ids": null,
  "uncorrected_energy_per_atom": null,
  "energy_per_atom": -6.950213711666667,
  "formation_energy_per_atom": -0.7517035683333341,
  "energy_above_hull": 0.0,
  "is_stable": true,
  "equilibrium_reaction_energy_per_atom": null,
  "decomposes_to": null,
  "xas": null,
  "grain_boundaries": null,
  "band_gap": 0.0,
  "cbm": null,
  "vbm": null,
  "efermi": 3.6597747,
  "is_gap_direct": null,
  "is_metal": null,
  "es_source_calc_id": null,
  "bandstructure": null,
  "dos": null,
  "dos_energy_up": null,
  "dos_energy_down": null,
  "is_magnetic": null,
  "ordering": null,
  "total_magnetization": 0.0,
  "total_magnetization_normalized_vol": null,
  "total_magnetization_normalized_formula_units": null,
  "num_magnetic_sites": null,
  "num_unique_magnetic_sites": null,
  "types_of_magnetic_species": null,
  "bulk_modulus": null,
  "shear_modulus": null,
  "universal_anisotropy": null,
  "homogeneous_poisson": null,
  "e_total": null,
  "e_ionic": null,
  "e_electronic": null,
  "n": null,
  "e_ij_max": null,
  "weighted_surface_energy_EV_PER_ANG2": null,
  "weighted_surface_energy": null,
  "weighted_work_function": null,
  "surface_anisotropy": null,
  "shape_factor": null,
  "has_reconstructed": null,
  "possible_species": null,
  "has_props": null,
  "theoretical": null,
  "database_IDs": null,
  "fields_not_requested": [
    "builder_meta",
    "nsites",
    "elements",
    "nelements",
    "composition",
    "composition_reduced",
    "chemsys",
    "symmetry",
    "property_name",
    "deprecated",
    "deprecation_reasons",
    "last_updated",
    "origins",
    "warnings",
    "task_ids",
    "uncorrected_energy_per_atom",
    "equilibrium_reaction_energy_per_atom",
    "decomposes_to",
    "xas",
    "grain_boundaries",
    "cbm",
    "vbm",
    "is_gap_direct",
    "is_metal",
    "es_source_calc_id",
    "bandstructure",
    "dos",
    "dos_energy_up",
    "dos_energy_down",
    "is_magnetic",
    "ordering",
    "total_magnetization_normalized_vol",
    "total_magnetization_normalized_formula_units",
    "num_magnetic_sites",
    "num_unique_magnetic_sites",
    "types_of_magnetic_species",
    "bulk_modulus",
    "shear_modulus",
    "universal_anisotropy",
    "homogeneous_poisson",
    "e_total",
    "e_ionic",
    "e_electronic",
    "n",
    "e_ij_max",
    "weighted_surface_energy_EV_PER_ANG2",
    "weighted_surface_energy",
    "weighted_work_function",
    "surface_anisotropy",
    "shape_factor",
    "has_reconstructed",
    "possible_species",
    "has_props",
    "theoretical",
    "database_IDs"
  ]
}
