{"builder_meta": null, "nsites": null, "elements": null, "nelements": null, "composition": null, "composition_reduced": null, "formula_pretty": "BaN6", "formula_anonymous": "AB6", "chemsys": null, "volume": 230.19329970408717, "density": 3.193740948467135, "density_atomic": 16.44237855029194, "symmetry": null, "property_name": null, "material_id": "mp-1707", "deprecated": null, "deprecation_reasons": null, "last_updated": null, "origins": null, "warnings": null, "structure": {"@module": "pymatgen.core.structure", "@class": "Structure", "charge": 0, "lattice": {"matrix": [[4.41020549, 0.0, 0.0], [0.0, 5.40100381, -0.89207275], [0.0, 0.02286334, 9.66027818]], "pbc": [true, true, true], "a": 4.41020549, "b": 5.474179020357946, "c": 9.66030523572108, "alpha": 99.24314906568567, "beta": 90.0, "gamma": 90.0, "volume": 230.19329970408717}, "properties": {}, "sites": [{"species": [{"element": "Ba", "occu": 1}], "abc": [0.75, 0.82938751, 0.78263653], "properties": {"magmom": 0.0}, "label": "Ba", "xyz": [3.3076541175000003, 4.497418786558223, 6.820612596768563]}, {"species": [{"element": "Ba", "occu": 1}], "abc": [0.25, 0.17061249, 0.21736347], "properties": {"magmom": 0.0}, "label": "Ba", "xyz": [1.1025513725, 0.9264483634417767, 1.9475928332314372]}, {"species": [{"element": "N", "occu": 1}], "abc": [0.75, 0.2931232, 0.66622512], "properties": {"magmom": -0.0}, "label": "N", "xyz": [3.3076541175000003, 1.5983916514344925, 6.174432770591082]}, {"species": [{"element": "N", "occu": 1}], "abc": [0.25, 0.7068768, 0.33377488], "properties": {"magmom": -0.0}, "label": "N", "xyz": [1.1025513725, 3.8254754985655066, 2.5937726594089185]}, {"species": [{"element": "N", "occu": 1}], "abc": [0.25, 0.13972989, 0.9037097], "properties": {"magmom": 0.0}, "label": "N", "xyz": [1.1025513725, 0.7753434903932788, 8.60543786873485]}, {"species": [{"element": "N", "occu": 1}], "abc": [0.75, 0.86027011, 0.0962903], "properties": {"magmom": 0.0}, "label": "N", "xyz": [3.3076541175000003, 4.64852365960672, 0.16276756126515157]}, {"species": [{"element": "N", "occu": 1}], "abc": [0.25, 0.35192795, 0.89241853], "properties": {"magmom": 0.0}, "label": "N", "xyz": [1.1025513725, 1.9211678670691794, 8.307065918628314]}, {"species": [{"element": "N", "occu": 1}], "abc": [0.75, 0.64807205, 0.10758147], "properties": {"magmom": 0.0}, "label": "N", "xyz": [3.3076541175000003, 3.50269928293082, 0.46113951137168707]}, {"species": [{"element": "N", "occu": 1}], "abc": [0.25, 0.56277884, 0.88367557], "properties": {"magmom": -0.0}, "label": "N", "xyz": [1.1025513725, 3.059774434033984, 8.034512159629454]}, {"species": [{"element": "N", "occu": 1}], "abc": [0.75, 0.43722116, 0.11632443], "properties": {"magmom": -0.0}, "label": "N", "xyz": [3.3076541175000003, 2.3640927159660157, 0.7336932703705474]}, {"species": [{"element": "N", "occu": 1}], "abc": [0.25, 0.77778671, 0.581303799999999], "properties": {"magmom": 0.0}, "label": "N", "xyz": [1.1025513725, 4.2141195305000565, 4.921714085787922]}, {"species": [{"element": "N", "occu": 1}], "abc": [0.75, 0.22221329, 0.418696199999999], "properties": {"magmom": 0.0}, "label": "N", "xyz": [3.3076541175000003, 1.2097476194999428, 3.846491344212059]}, {"species": [{"element": "N", "occu": 1}], "abc": [0.25, 0.74247135, 0.45746662], "properties": {"magmom": 0.0}, "label": "N", "xyz": [1.1025513725, 4.020549805037554, 3.7569163482736396]}, {"species": [{"element": "N", "occu": 1}], "abc": [0.75, 0.25752865, 0.5425333800000001], "properties": {"magmom": 0.0}, "label": "N", "xyz": [3.3076541175000003, 1.4033173449624456, 5.011289081726362]}]}, "task_ids": null, "uncorrected_energy_per_atom": null, "energy_per_atom": -7.604110810000001, "formation_energy_per_atom": -0.182876322857144, "energy_above_hull": 0.139282349285712, "is_stable": false, "equilibrium_reaction_energy_per_atom": null, "decomposes_to": null, "xas": null, "grain_boundaries": null, "band_gap": 3.8146, "cbm": null, "vbm": null, "efermi": 0.28782295, "is_gap_direct": null, "is_metal": null, "es_source_calc_id": null, "bandstructure": null, "dos": null, "dos_energy_up": null, "dos_energy_down": null, "is_magnetic": null, "ordering": null, "total_magnetization": 0.0, "total_magnetization_normalized_vol": null, "total_magnetization_normalized_formula_units": null, "num_magnetic_sites": null, "num_unique_magnetic_sites": null, "types_of_magnetic_species": null, "bulk_modulus": null, "shear_modulus": null, "universal_anisotropy": null, "homogeneous_poisson": null, "e_total": null, "e_ionic": null, "e_electronic": null, "n": null, "e_ij_max": null, "weighted_surface_energy_EV_PER_ANG2": null, "weighted_surface_energy": null, "weighted_work_function": null, "surface_anisotropy": null, "shape_factor": null, "has_reconstructed": null, "possible_species": null, "has_props": null, "theoretical": null, "database_IDs": null, "fields_not_requested": ["builder_meta", "nsites", "elements", "nelements", "composition", "composition_reduced", "chemsys", "symmetry", "property_name", "deprecated", "deprecation_reasons", "last_updated", "origins", "warnings", "task_ids", "uncorrected_energy_per_atom", "equilibrium_reaction_energy_per_atom", "decomposes_to", "xas", "grain_boundaries", "cbm", "vbm", "is_gap_direct", "is_metal", "es_source_calc_id", "bandstructure", "dos", "dos_energy_up", "dos_energy_down", "is_magnetic", "ordering", "total_magnetization_normalized_vol", "total_magnetization_normalized_formula_units", "num_magnetic_sites", "num_unique_magnetic_sites", "types_of_magnetic_species", "bulk_modulus", "shear_modulus", "universal_anisotropy", "homogeneous_poisson", "e_total", "e_ionic", "e_electronic", "n", "e_ij_max", "weighted_surface_energy_EV_PER_ANG2", "weighted_surface_energy", "weighted_work_function", "surface_anisotropy", "shape_factor", "has_reconstructed", "possible_species", "has_props", "theoretical", "database_IDs"]}