{
  "builder_meta": null,
  "nsites": null,
  "elements": null,
  "nelements": null,
  "composition": null,
  "composition_reduced": null,
  "formula_pretty": "BaNa2",
  "formula_anonymous": "AB2",
  "chemsys": null,
  "volume": 562.1940166740884,
  "density": 2.165712614608327,
  "density_atomic": 46.84950138950737,
  "symmetry": null,
  "property_name": null,
  "material_id": "mp-11820",
  "deprecated": null,
  "deprecation_reasons": null,
  "last_updated": null,
  "origins": null,
  "warnings": null,
  "structure": {
    "@module": "pymatgen.core.structure",
    "@class": "Structure",
    "charge": 0,
    "lattice": {
      "matrix": [
        [7.37131842, -1.07e-6, 1.06e-6],
        [-3.68566027, 6.383751249999999, -0.0],
        [2.109999999999999e-6, 1.06e-6, 11.94717232]
      ],
      "pbc": [true, true, true],
      "a": 7.371318420000153,
      "b": 7.371320888940667,
      "c": 11.947172320000233,
      "alpha": 90.00000065708159,
      "beta": 89.99998164177828,
      "gamma": 120.00000675097975,
      "volume": 562.1940166740883
    },
    "properties": {},
    "sites": [
      {
        "species": [{ "element": "Ba", "occu": 1 }],
        "abc": [0.333333, 0.666667, 0.43844501],
        "properties": { "magmom": 0.065 },
        "label": "Ba",
        "xyz": [-3.467207259184738e-6, 4.25583640266915, 5.238178440647103]
      },
      {
        "species": [{ "element": "Ba", "occu": 1 }],
        "abc": [0.666667, 0.333333, 0.93846384],
        "properties": { "magmom": 0.065 },
        "label": "Ba",
        "xyz": [3.6856645224849323, 2.12791523685423, 11.21198991923593]
      },
      {
        "species": [{ "element": "Ba", "occu": 1 }],
        "abc": [0.666667, 0.333333, 0.56160607],
        "properties": { "magmom": 0.065 },
        "label": "Ba",
        "xyz": [3.6856637273150374, 2.1279148373849934, 6.709605200915002]
      },
      {
        "species": [{ "element": "Ba", "occu": 1 }],
        "abc": [0.333333, 0.666667, 0.06152088],
        "properties": { "magmom": 0.066 },
        "label": "Ba",
        "xyz": [-4.262517173484738e-6, 4.255836003129572, 0.7350009079710216]
      },
      {
        "species": [{ "element": "Na", "occu": 1 }],
        "abc": [0.16905016, 0.33810331, 0.75003917],
        "properties": { "magmom": 0.006 },
        "label": "Na",
        "xyz": [-9.795927897744787e-6, 2.158368041999486, 8.960847389932942]
      },
      {
        "species": [{ "element": "Na", "occu": 1 }],
        "abc": [0.83095544, 0.16904456, 0.24994268],
        "properties": { "magmom": 0.006 },
        "label": "Na",
        "xyz": [5.502196849798628, 1.0791377970226197, 2.986109148895384]
      },
      {
        "species": [{ "element": "Na", "occu": 1 }],
        "abc": [0.33808913, 0.16904456, 0.24994268],
        "properties": { "magmom": 0.006 },
        "label": "Na",
        "xyz": [1.8691223402981982, 1.0791383243895716, 2.9861086264570953]
      },
      {
        "species": [{ "element": "Na", "occu": 1 }],
        "abc": [0.6618966900000001, 0.83094984, 0.75003917],
        "properties": { "magmom": 0.006 },
        "label": "Na",
        "xyz": [1.8164540340658213, 5.304577166599362, 8.960847912350264]
      },
      {
        "species": [{ "element": "Na", "occu": 1 }],
        "abc": [0.0, 0.0, 0.9999765700000001],
        "properties": { "magmom": 0.004 },
        "label": "Na",
        "xyz": [2.109950562699999e-6, 1.0599751642e-6, 11.946892397752544]
      },
      {
        "species": [{ "element": "Na", "occu": 1 }],
        "abc": [-0.0, -0.0, 0.5000431],
        "properties": { "magmom": 0.004 },
        "label": "Na",
        "xyz": [1.0550909409999993e-6, 5.300456859999999e-7, 5.974101083126992]
      },
      {
        "species": [{ "element": "Na", "occu": 1 }],
        "abc": [0.83095544, 0.66191087, 0.24994268],
        "properties": { "magmom": 0.006 },
        "label": "Na",
        "xyz": [3.6856590726101244, 4.225473719568007, 2.986109148895384]
      },
      {
        "species": [{ "element": "Na", "occu": 1 }],
        "abc": [0.16905016, 0.83094984, 0.75003917],
        "properties": { "magmom": 0.006 },
        "label": "Na",
        "xyz": [-1.8164746707562611, 5.3045776939451486, 8.960847389932942]
      }
    ]
  },
  "task_ids": null,
  "uncorrected_energy_per_atom": null,
  "energy_per_atom": -1.532130392499998,
  "formation_energy_per_atom": 0.002008439913794,
  "energy_above_hull": 0.009608295095787001,
  "is_stable": false,
  "equilibrium_reaction_energy_per_atom": null,
  "decomposes_to": null,
  "xas": null,
  "grain_boundaries": null,
  "band_gap": 0.0,
  "cbm": null,
  "vbm": null,
  "efermi": 0.97858688,
  "is_gap_direct": null,
  "is_metal": null,
  "es_source_calc_id": null,
  "bandstructure": null,
  "dos": null,
  "dos_energy_up": null,
  "dos_energy_down": null,
  "is_magnetic": null,
  "ordering": null,
  "total_magnetization": 1.7041373,
  "total_magnetization_normalized_vol": null,
  "total_magnetization_normalized_formula_units": null,
  "num_magnetic_sites": null,
  "num_unique_magnetic_sites": null,
  "types_of_magnetic_species": null,
  "bulk_modulus": null,
  "shear_modulus": null,
  "universal_anisotropy": null,
  "homogeneous_poisson": null,
  "e_total": null,
  "e_ionic": null,
  "e_electronic": null,
  "n": null,
  "e_ij_max": null,
  "weighted_surface_energy_EV_PER_ANG2": null,
  "weighted_surface_energy": null,
  "weighted_work_function": null,
  "surface_anisotropy": null,
  "shape_factor": null,
  "has_reconstructed": null,
  "possible_species": null,
  "has_props": null,
  "theoretical": null,
  "database_IDs": null,
  "fields_not_requested": [
    "builder_meta",
    "nsites",
    "elements",
    "nelements",
    "composition",
    "composition_reduced",
    "chemsys",
    "symmetry",
    "property_name",
    "deprecated",
    "deprecation_reasons",
    "last_updated",
    "origins",
    "warnings",
    "task_ids",
    "uncorrected_energy_per_atom",
    "equilibrium_reaction_energy_per_atom",
    "decomposes_to",
    "xas",
    "grain_boundaries",
    "cbm",
    "vbm",
    "is_gap_direct",
    "is_metal",
    "es_source_calc_id",
    "bandstructure",
    "dos",
    "dos_energy_up",
    "dos_energy_down",
    "is_magnetic",
    "ordering",
    "total_magnetization_normalized_vol",
    "total_magnetization_normalized_formula_units",
    "num_magnetic_sites",
    "num_unique_magnetic_sites",
    "types_of_magnetic_species",
    "bulk_modulus",
    "shear_modulus",
    "universal_anisotropy",
    "homogeneous_poisson",
    "e_total",
    "e_ionic",
    "e_electronic",
    "n",
    "e_ij_max",
    "weighted_surface_energy_EV_PER_ANG2",
    "weighted_surface_energy",
    "weighted_work_function",
    "surface_anisotropy",
    "shape_factor",
    "has_reconstructed",
    "possible_species",
    "has_props",
    "theoretical",
    "database_IDs"
  ]
}
