{
  "builder_meta": null,
  "nsites": null,
  "elements": null,
  "nelements": null,
  "composition": null,
  "composition_reduced": null,
  "formula_pretty": "BaNa",
  "formula_anonymous": "AB",
  "chemsys": null,
  "volume": 1243.1412192930873,
  "density": 2.569737895798391,
  "density_atomic": 51.797550803878636,
  "symmetry": null,
  "property_name": null,
  "material_id": "mp-1247744",
  "deprecated": null,
  "deprecation_reasons": null,
  "last_updated": null,
  "origins": null,
  "warnings": null,
  "structure": {
    "@module": "pymatgen.core.structure",
    "@class": "Structure",
    "charge": 0,
    "lattice": {
      "matrix": [
        [-8.53741188, -8.53773825, -0.00632436],
        [-8.5371258, -0.00660946, -8.53821497],
        [-0.0070522, -8.53701089, -8.53777163]
      ],
      "pbc": [true, true, true],
      "a": 12.073956105262583,
      "b": 12.074091083138276,
      "c": 12.073696578742414,
      "alpha": 59.94347971659208,
      "beta": 59.94900864636416,
      "gamma": 59.95262531929111,
      "volume": 1243.1412192930873
    },
    "properties": {},
    "sites": [
      {
        "species": [{ "element": "Ba", "occu": 1 }],
        "abc": [0.19092497, 0.8090828, 0.80908022],
        "properties": { "magmom": 0.02 },
        "label": "Ba",
        "xyz": [-8.542952548810367, -8.542541668675986, -13.817072501882944]
      },
      {
        "species": [{ "element": "Ba", "occu": 1 }],
        "abc": [0.9409332300000001, 0.9409232200000001, 0.5590630600000001],
        "properties": { "magmom": 0.02 },
        "label": "Ba",
        "xyz": [-16.06985705788158, -12.812388054269434, -12.812908256156074]
      },
      {
        "species": [{ "element": "Ba", "occu": 1 }],
        "abc": [0.80906194, 0.19090985, 0.190961699999999],
        "properties": { "magmom": 0.02 },
        "label": "Ba",
        "xyz": [-8.538463124221717, -8.53906299524729, -3.2655335228378757]
      },
      {
        "species": [{ "element": "Ba", "occu": 1 }],
        "abc": [0.559082299999999, 0.55908, 0.94091126],
        "properties": { "magmom": 0.019 },
        "label": "Ba",
        "xyz": [-9.55268765656949, -12.809563227648388, -12.810366525137983]
      },
      {
        "species": [{ "element": "Ba", "occu": 1 }],
        "abc": [0.80907384, 0.19090491, 0.80909173],
        "properties": { "magmom": 0.02 },
        "label": "Ba",
        "xyz": [-8.542881722619205, -13.81614735922777, -8.542944453100866]
      },
      {
        "species": [{ "element": "Ba", "occu": 1 }],
        "abc": [0.55907599, 0.9409148700000001, 0.94092028],
        "properties": { "magmom": 0.02 },
        "label": "Ba",
        "xyz": [-12.812406169128023, -12.812110080658137, -16.070631699033378]
      },
      {
        "species": [{ "element": "Ba", "occu": 1 }],
        "abc": [0.19092726000000002, 0.80907784, 0.19093008],
        "properties": { "magmom": 0.02 },
        "label": "Ba",
        "xyz": [-8.538570436922296, -3.265406710478633, -8.53940543844695]
      },
      {
        "species": [{ "element": "Ba", "occu": 1 }],
        "abc": [0.94093831, 0.55909165, 0.55903715],
        "properties": { "magmom": 0.02 },
        "label": "Ba",
        "xyz": [-12.810156097709923, -12.80968653153893, -9.552527047628287]
      },
      {
        "species": [{ "element": "Ba", "occu": 1 }],
        "abc": [0.80906427, 0.80907483, 0.19093816],
        "properties": { "magmom": 0.02 },
        "label": "Ba",
        "xyz": [-13.815835049797096, -8.542967663649783, -8.543358044595223]
      },
      {
        "species": [{ "element": "Ba", "occu": 1 }],
        "abc": [0.9409259, 0.55909473, 0.94091043],
        "properties": { "magmom": 0.02 },
        "label": "Ba",
        "xyz": [-12.812769489521171, -16.069636948524405, -12.812900123084132]
      },
      {
        "species": [{ "element": "Ba", "occu": 1 }],
        "abc": [0.19092349, 0.19092409, 0.80908608],
        "properties": { "magmom": 0.019 },
        "label": "Ba",
        "xyz": [-3.265641283130959, -8.538493364439795, -8.539150572306754]
      },
      {
        "species": [{ "element": "Ba", "occu": 1 }],
        "abc": [0.55907048, 0.94092514, 0.55906581],
        "properties": { "magmom": 0.02 },
        "label": "Ba",
        "xyz": [-12.809753890177197, -9.552167336814355, -12.81053309089921]
      },
      {
        "species": [{ "element": "Na", "occu": 1 }],
        "abc": [0.57820185, 0.26536663, 0.57821985],
        "properties": { "magmom": 0.0 },
        "label": "Na",
        "xyz": [-7.205893368686202, -9.874559137356249, -7.206123120689372]
      },
      {
        "species": [{ "element": "Na", "occu": 1 }],
        "abc": [0.4846309, 0.171812599999999, 0.17176989],
        "properties": { "magmom": 0.0 },
        "label": "Na",
        "xyz": [-5.605490738918422, -5.605188782073223, -2.9365699873635585]
      },
      {
        "species": [{ "element": "Na", "occu": 1 }],
        "abc": [0.578229099999999, 0.57821068, 0.57825104],
        "properties": { "magmom": 0.0 },
        "label": "Na",
        "xyz": [-9.876915243749533, -9.877125790327927, -9.877519337110751]
      },
      {
        "species": [{ "element": "Na", "occu": 1 }],
        "abc": [0.17177743, 0.17180457, 0.4846466],
        "properties": { "magmom": 0.0 },
        "label": "Na",
        "xyz": [-2.9366697234552945, -5.605159572032403, -5.605792725851566]
      },
      {
        "species": [{ "element": "Na", "occu": 1 }],
        "abc": [0.26536855, 0.57818707, 0.57822967],
        "properties": { "magmom": 0.0 },
        "label": "Na",
        "xyz": [-7.205694155150554, -7.205821713704825, -9.87515665492758]
      },
      {
        "species": [{ "element": "Na", "occu": 1 }],
        "abc": [0.17179793000000002, 0.48463324, 0.17178051],
        "properties": { "magmom": 0.0 },
        "label": "Na",
        "xyz": [-5.605296055795622, -2.936461006806027, -5.60561206154911]
      },
      {
        "species": [{ "element": "Na", "occu": 1 }],
        "abc": [0.5782218, 0.57819407, 0.26535668],
        "properties": { "magmom": 0.0 },
        "label": "Na",
        "xyz": [-9.874504525377688, -7.205880796315998, -7.205956881197265]
      },
      {
        "species": [{ "element": "Na", "occu": 1 }],
        "abc": [0.17177126, 0.17178879, 0.17174945],
        "properties": { "magmom": 0.0 },
        "label": "Na",
        "xyz": [-2.9342757184976405, -2.933900412890159, -2.9342135434201833]
      },
      {
        "species": [{ "element": "Na", "occu": 1 }],
        "abc": [0.37499968, 0.37500026000000003, 0.37500014],
        "properties": { "magmom": 0.001 },
        "label": "Na",
        "xyz": [-6.405595693668214, -6.405507939823744, -6.4058700232001256]
      },
      {
        "species": [{ "element": "Na", "occu": 1 }],
        "abc": [0.37500015000000003, 0.37499989, 0.87500062],
        "properties": { "magmom": 0.001 },
        "label": "Na",
        "xyz": [-6.409122650900308, -10.674021492880449, -10.674756780163419]
      },
      {
        "species": [{ "element": "Na", "occu": 1 }],
        "abc": [0.37499959, 0.87500033, 0.37500001],
        "properties": { "magmom": 0.001 },
        "label": "Na",
        "xyz": [-10.674158421983167, -6.408810792078548, -10.674976995395669]
      },
      {
        "species": [{ "element": "Na", "occu": 1 }],
        "abc": [0.87499976, 0.37499995, 0.37500061],
        "properties": { "magmom": 0.001 },
        "label": "Na",
        "xyz": [-10.6742996734667, -10.67438175818899, -6.4090335696121]
      }
    ]
  },
  "task_ids": null,
  "uncorrected_energy_per_atom": null,
  "energy_per_atom": -1.641747642083333,
  "formation_energy_per_atom": -0.011399782772988,
  "energy_above_hull": 0.0,
  "is_stable": true,
  "equilibrium_reaction_energy_per_atom": null,
  "decomposes_to": null,
  "xas": null,
  "grain_boundaries": null,
  "band_gap": 0.087899999999999,
  "cbm": null,
  "vbm": null,
  "efermi": 1.18941401,
  "is_gap_direct": null,
  "is_metal": null,
  "es_source_calc_id": null,
  "bandstructure": null,
  "dos": null,
  "dos_energy_up": null,
  "dos_energy_down": null,
  "is_magnetic": null,
  "ordering": null,
  "total_magnetization": 1.0888735,
  "total_magnetization_normalized_vol": null,
  "total_magnetization_normalized_formula_units": null,
  "num_magnetic_sites": null,
  "num_unique_magnetic_sites": null,
  "types_of_magnetic_species": null,
  "bulk_modulus": null,
  "shear_modulus": null,
  "universal_anisotropy": null,
  "homogeneous_poisson": null,
  "e_total": null,
  "e_ionic": null,
  "e_electronic": null,
  "n": null,
  "e_ij_max": null,
  "weighted_surface_energy_EV_PER_ANG2": null,
  "weighted_surface_energy": null,
  "weighted_work_function": null,
  "surface_anisotropy": null,
  "shape_factor": null,
  "has_reconstructed": null,
  "possible_species": null,
  "has_props": null,
  "theoretical": null,
  "database_IDs": null,
  "fields_not_requested": [
    "builder_meta",
    "nsites",
    "elements",
    "nelements",
    "composition",
    "composition_reduced",
    "chemsys",
    "symmetry",
    "property_name",
    "deprecated",
    "deprecation_reasons",
    "last_updated",
    "origins",
    "warnings",
    "task_ids",
    "uncorrected_energy_per_atom",
    "equilibrium_reaction_energy_per_atom",
    "decomposes_to",
    "xas",
    "grain_boundaries",
    "cbm",
    "vbm",
    "is_gap_direct",
    "is_metal",
    "es_source_calc_id",
    "bandstructure",
    "dos",
    "dos_energy_up",
    "dos_energy_down",
    "is_magnetic",
    "ordering",
    "total_magnetization_normalized_vol",
    "total_magnetization_normalized_formula_units",
    "num_magnetic_sites",
    "num_unique_magnetic_sites",
    "types_of_magnetic_species",
    "bulk_modulus",
    "shear_modulus",
    "universal_anisotropy",
    "homogeneous_poisson",
    "e_total",
    "e_ionic",
    "e_electronic",
    "n",
    "e_ij_max",
    "weighted_surface_energy_EV_PER_ANG2",
    "weighted_surface_energy",
    "weighted_work_function",
    "surface_anisotropy",
    "shape_factor",
    "has_reconstructed",
    "possible_species",
    "has_props",
    "theoretical",
    "database_IDs"
  ]
}
