{"builder_meta": null, "nsites": null, "elements": null, "nelements": null, "composition": null, "composition_reduced": null, "formula_pretty": "BaO2", "formula_anonymous": "AB2", "chemsys": null, "volume": 50.806471622351985, "density": 5.534178952108108, "density_atomic": 16.935490540783995, "symmetry": null, "property_name": null, "material_id": "mp-1105", "deprecated": null, "deprecation_reasons": null, "last_updated": null, "origins": null, "warnings": null, "structure": {"@module": "pymatgen.core.structure", "@class": "Structure", "charge": 0, "lattice": {"matrix": [[3.44954583, 0.0, -1.68255569], [-0.82068531, 3.35049809, -1.68255569], [0.00556141, 0.00708824, 4.38878028]], "pbc": [true, true, true], "a": 3.8380151228495394, "b": 3.83801452304376, "c": 4.388789527710842, "alpha": 115.92869987302555, "beta": 115.92869789637517, "gamma": 89.99999198306968, "volume": 50.806471622351985}, "properties": {}, "sites": [{"species": [{"element": "Ba", "occu": 1}], "abc": [-0.0, -0.0, -0.0], "properties": {"magmom": -0.0}, "label": "Ba", "xyz": [0.0, 0.0, 0.0]}, {"species": [{"element": "O", "occu": 1}], "abc": [0.39166473, 0.39166473, 0.78332846], "properties": {"magmom": 0.0}, "label": "O", "xyz": [1.0339883565041883, 1.3178243499086761, 2.119861057943141]}, {"species": [{"element": "O", "occu": 1}], "abc": [0.60833527, 0.60833527, 0.21667154], "properties": {"magmom": 0.0}, "label": "O", "xyz": [1.6004335734958117, 2.039761980091324, -1.0961921579431415]}]}, "task_ids": null, "uncorrected_energy_per_atom": null, "energy_per_atom": -6.108491646666668, "formation_energy_per_atom": -2.170192663333334, "energy_above_hull": 0.0, "is_stable": true, "equilibrium_reaction_energy_per_atom": null, "decomposes_to": null, "xas": null, "grain_boundaries": null, "band_gap": 2.2352, "cbm": null, "vbm": null, "efermi": 2.22834475, "is_gap_direct": null, "is_metal": null, "es_source_calc_id": null, "bandstructure": null, "dos": null, "dos_energy_up": null, "dos_energy_down": null, "is_magnetic": null, "ordering": null, "total_magnetization": 0.0, "total_magnetization_normalized_vol": null, "total_magnetization_normalized_formula_units": null, "num_magnetic_sites": null, "num_unique_magnetic_sites": null, "types_of_magnetic_species": null, "bulk_modulus": null, "shear_modulus": null, "universal_anisotropy": null, "homogeneous_poisson": null, "e_total": null, "e_ionic": null, "e_electronic": null, "n": null, "e_ij_max": null, "weighted_surface_energy_EV_PER_ANG2": null, "weighted_surface_energy": null, "weighted_work_function": null, "surface_anisotropy": null, "shape_factor": null, "has_reconstructed": null, "possible_species": null, "has_props": null, "theoretical": null, "database_IDs": null, "fields_not_requested": ["builder_meta", "nsites", "elements", "nelements", "composition", "composition_reduced", "chemsys", "symmetry", "property_name", "deprecated", "deprecation_reasons", "last_updated", "origins", "warnings", "task_ids", "uncorrected_energy_per_atom", "equilibrium_reaction_energy_per_atom", "decomposes_to", "xas", "grain_boundaries", "cbm", "vbm", "is_gap_direct", "is_metal", "es_source_calc_id", "bandstructure", "dos", "dos_energy_up", "dos_energy_down", "is_magnetic", "ordering", "total_magnetization_normalized_vol", "total_magnetization_normalized_formula_units", "num_magnetic_sites", "num_unique_magnetic_sites", "types_of_magnetic_species", "bulk_modulus", "shear_modulus", "universal_anisotropy", "homogeneous_poisson", "e_total", "e_ionic", "e_electronic", "n", "e_ij_max", "weighted_surface_energy_EV_PER_ANG2", "weighted_surface_energy", "weighted_work_function", "surface_anisotropy", "shape_factor", "has_reconstructed", "possible_species", "has_props", "theoretical", "database_IDs"]}