{"builder_meta": null, "nsites": null, "elements": null, "nelements": null, "composition": null, "composition_reduced": null, "formula_pretty": "BaO3", "formula_anonymous": "AB3", "chemsys": null, "volume": 134.7695645033976, "density": 4.566902560818174, "density_atomic": 16.8461955629247, "symmetry": null, "property_name": null, "material_id": "mp-1206655", "deprecated": null, "deprecation_reasons": null, "last_updated": null, "origins": null, "warnings": null, "structure": {"@module": "pymatgen.core.structure", "@class": "Structure", "charge": 0, "lattice": {"matrix": [[3.472496, 0.0, 0.0], [0.0, 5.157267, 0.0], [0.0, 0.0, 7.525415]], "pbc": [true, true, true], "a": 3.472496, "b": 5.157267, "c": 7.525415, "alpha": 90.0, "beta": 90.0, "gamma": 90.0, "volume": 134.7695645033976}, "properties": {}, "sites": [{"species": [{"element": "Ba", "occu": 1}], "abc": [0.5, 0.329704999999999, 0.983799], "properties": {"magmom": -0.012}, "label": "Ba", "xyz": [1.736248, 1.700376716234995, 7.403495751585]}, {"species": [{"element": "Ba", "occu": 1}], "abc": [0.5, 0.670295, 0.483799], "properties": {"magmom": -0.012}, "label": "Ba", "xyz": [1.736248, 3.456890283765, 3.6407882515849996]}, {"species": [{"element": "O", "occu": 1}], "abc": [0.5, 0.163238, 0.6242700000000001], "properties": {"magmom": 0.228}, "label": "O", "xyz": [1.736248, 0.841861950546, 4.697890822050001]}, {"species": [{"element": "O", "occu": 1}], "abc": [0.5, 0.836762, 0.12427], "properties": {"magmom": 0.228}, "label": "O", "xyz": [1.736248, 4.315405049454, 0.93518332205]}, {"species": [{"element": "O", "occu": 1}], "abc": [0.0, 0.890065, 0.06590599999999901], "properties": {"magmom": 0.368}, "label": "O", "xyz": [0.0, 4.590302852355, 0.4959700009899925]}, {"species": [{"element": "O", "occu": 1}], "abc": [0.0, 0.109934999999999, 0.565906], "properties": {"magmom": 0.368}, "label": "O", "xyz": [0.0, 0.5669641476449949, 4.25867750099]}, {"species": [{"element": "O", "occu": 1}], "abc": [0.0, 0.435602999999999, 0.253824], "properties": {"magmom": 0.767}, "label": "O", "xyz": [0.0, 2.246520977000995, 1.91013093696]}, {"species": [{"element": "O", "occu": 1}], "abc": [0.0, 0.564396999999999, 0.753823999999999], "properties": {"magmom": 0.767}, "label": "O", "xyz": [0.0, 2.910746022998995, 5.672838436959992]}]}, "task_ids": null, "uncorrected_energy_per_atom": null, "energy_per_atom": -5.393824193749999, "formation_energy_per_atom": -1.203109704999999, "energy_above_hull": 0.42786884093750105, "is_stable": false, "equilibrium_reaction_energy_per_atom": null, "decomposes_to": null, "xas": null, "grain_boundaries": null, "band_gap": 0.0, "cbm": null, "vbm": null, "efermi": 0.43754036, "is_gap_direct": null, "is_metal": null, "es_source_calc_id": null, "bandstructure": null, "dos": null, "dos_energy_up": null, "dos_energy_down": null, "is_magnetic": null, "ordering": null, "total_magnetization": 3.3311422, "total_magnetization_normalized_vol": null, "total_magnetization_normalized_formula_units": null, "num_magnetic_sites": null, "num_unique_magnetic_sites": null, "types_of_magnetic_species": null, "bulk_modulus": null, "shear_modulus": null, "universal_anisotropy": null, "homogeneous_poisson": null, "e_total": null, "e_ionic": null, "e_electronic": null, "n": null, "e_ij_max": null, "weighted_surface_energy_EV_PER_ANG2": null, "weighted_surface_energy": null, "weighted_work_function": null, "surface_anisotropy": null, "shape_factor": null, "has_reconstructed": null, "possible_species": null, "has_props": null, "theoretical": null, "database_IDs": null, "fields_not_requested": ["builder_meta", "nsites", "elements", "nelements", "composition", "composition_reduced", "chemsys", "symmetry", "property_name", "deprecated", "deprecation_reasons", "last_updated", "origins", "warnings", "task_ids", "uncorrected_energy_per_atom", "equilibrium_reaction_energy_per_atom", "decomposes_to", "xas", "grain_boundaries", "cbm", "vbm", "is_gap_direct", "is_metal", "es_source_calc_id", "bandstructure", "dos", "dos_energy_up", "dos_energy_down", "is_magnetic", "ordering", "total_magnetization_normalized_vol", "total_magnetization_normalized_formula_units", "num_magnetic_sites", "num_unique_magnetic_sites", "types_of_magnetic_species", "bulk_modulus", "shear_modulus", "universal_anisotropy", "homogeneous_poisson", "e_total", "e_ionic", "e_electronic", "n", "e_ij_max", "weighted_surface_energy_EV_PER_ANG2", "weighted_surface_energy", "weighted_work_function", "surface_anisotropy", "shape_factor", "has_reconstructed", "possible_species", "has_props", "theoretical", "database_IDs"]}