{"builder_meta": null, "nsites": null, "elements": null, "nelements": null, "composition": null, "composition_reduced": null, "formula_pretty": "BaO4", "formula_anonymous": "AB4", "chemsys": null, "volume": 348.55271672850074, "density": 3.836519956067608, "density_atomic": 17.427635836425036, "symmetry": null, "property_name": null, "material_id": "mp-1182327", "deprecated": null, "deprecation_reasons": null, "last_updated": null, "origins": null, "warnings": null, "structure": {"@module": "pymatgen.core.structure", "@class": "Structure", "charge": 0, "lattice": {"matrix": [[9.171077, 0.0, 0.0], [0.0, 4.500459, 0.0], [0.0, 0.848352, 8.444838]], "pbc": [true, true, true], "a": 9.171077, "b": 4.500459, "c": 8.487342927097268, "alpha": 84.26342327392409, "beta": 90.0, "gamma": 90.0, "volume": 348.55271672850074}, "properties": {}, "sites": [{"species": [{"element": "Ba", "occu": 1}], "abc": [0.653652, 0.733561999999999, 0.661636], "properties": {"magmom": 0.003}, "label": "Ba", "xyz": [5.994692823204001, 3.862665928829996, 5.5874088349680004]}, {"species": [{"element": "Ba", "occu": 1}], "abc": [0.153651999999999, 0.266438, 0.838364], "properties": {"magmom": 0.003}, "label": "Ba", "xyz": [1.409154323203991, 1.9103210711700003, 7.079848165032001]}, {"species": [{"element": "Ba", "occu": 1}], "abc": [0.346348, 0.266438, 0.338364], "properties": {"magmom": 0.003}, "label": "Ba", "xyz": [3.176384176796, 1.4861450711700002, 2.8574291650320003]}, {"species": [{"element": "Ba", "occu": 1}], "abc": [0.846348, 0.733561999999999, 0.161636], "properties": {"magmom": 0.003}, "label": "Ba", "xyz": [7.761922676796, 3.438489928829996, 1.364989834968]}, {"species": [{"element": "O", "occu": 1}], "abc": [0.480581999999999, 0.244208999999999, 0.636378999999999], "properties": {"magmom": 0.321}, "label": "O", "xyz": [4.407454526813991, 1.638925989338995, 5.3741175616019925]}, {"species": [{"element": "O", "occu": 1}], "abc": [0.980582, 0.755791, 0.863621], "properties": {"magmom": 0.321}, "label": "O", "xyz": [8.992993026814, 4.134061010661, 7.293139438398001]}, {"species": [{"element": "O", "occu": 1}], "abc": [0.519417999999999, 0.755791, 0.36362099999999903], "properties": {"magmom": 0.321}, "label": "O", "xyz": [4.7636224731859915, 3.709885010660999, 3.0707204383979922]}, {"species": [{"element": "O", "occu": 1}], "abc": [0.019417999999999002, 0.244208999999999, 0.136379], "properties": {"magmom": 0.321}, "label": "O", "xyz": [0.17808397318599087, 1.2147499893389957, 1.1516985616020001]}, {"species": [{"element": "O", "occu": 1}], "abc": [0.273943, 0.797526, 0.670223999999999], "properties": {"magmom": 0.502}, "label": "O", "xyz": [2.512352346611, 4.157818935281999, 5.659933103711992]}, {"species": [{"element": "O", "occu": 1}], "abc": [0.773942999999999, 0.202474, 0.829776], "properties": {"magmom": 0.502}, "label": "O", "xyz": [7.097890846610992, 1.615168064718, 7.007323896288001]}, {"species": [{"element": "O", "occu": 1}], "abc": [0.726057, 0.202474, 0.329775999999999], "properties": {"magmom": 0.502}, "label": "O", "xyz": [6.658724653389, 1.190992064717999, 2.784904896287992]}, {"species": [{"element": "O", "occu": 1}], "abc": [0.226056999999999, 0.797526, 0.170224], "properties": {"magmom": 0.502}, "label": "O", "xyz": [2.073186153388991, 3.733642935282, 1.437514103712]}, {"species": [{"element": "O", "occu": 1}], "abc": [0.223474999999999, 0.680978, 0.543499], "properties": {"magmom": 0.47600000000000003}, "label": "O", "xyz": [2.049506432574991, 3.52579203255, 4.589761008162]}, {"species": [{"element": "O", "occu": 1}], "abc": [0.723475, 0.319022, 0.956500999999999], "properties": {"magmom": 0.47600000000000003}, "label": "O", "xyz": [6.635044932575, 2.247194967449999, 8.077495991837992]}, {"species": [{"element": "O", "occu": 1}], "abc": [0.776524999999999, 0.319022, 0.456501], "properties": {"magmom": 0.47600000000000003}, "label": "O", "xyz": [7.121570567424992, 1.82301896745, 3.855076991838]}, {"species": [{"element": "O", "occu": 1}], "abc": [0.276524999999999, 0.680978, 0.043498999999999004], "properties": {"magmom": 0.47600000000000003}, "label": "O", "xyz": [2.536032067424991, 3.101616032549999, 0.36734200816199164]}, {"species": [{"element": "O", "occu": 1}], "abc": [0.943904, 0.655525, 0.721020999999999], "properties": {"magmom": 0.371}, "label": "O", "xyz": [8.656616264608, 3.5618429933669993, 6.0889055395979925]}, {"species": [{"element": "O", "occu": 1}], "abc": [0.443903999999999, 0.344475, 0.778979], "properties": {"magmom": 0.371}, "label": "O", "xyz": [4.071077764607991, 2.211144006633, 6.578351460402001]}, {"species": [{"element": "O", "occu": 1}], "abc": [0.056096, 0.344475, 0.278979], "properties": {"magmom": 0.371}, "label": "O", "xyz": [0.514460735392, 1.7869680066329998, 2.355932460402]}, {"species": [{"element": "O", "occu": 1}], "abc": [0.556095999999999, 0.655525, 0.221021], "properties": {"magmom": 0.371}, "label": "O", "xyz": [5.099999235391992, 3.1376669933670005, 1.8664865395980001]}]}, "task_ids": null, "uncorrected_energy_per_atom": null, "energy_per_atom": -5.5452396355, "formation_energy_per_atom": -1.2030758435, "energy_above_hull": 0.10437423200000001, "is_stable": false, "equilibrium_reaction_energy_per_atom": null, "decomposes_to": null, "xas": null, "grain_boundaries": null, "band_gap": 0.0, "cbm": null, "vbm": null, "efermi": 1.03295626, "is_gap_direct": null, "is_metal": null, "es_source_calc_id": null, "bandstructure": null, "dos": null, "dos_energy_up": null, "dos_energy_down": null, "is_magnetic": null, "ordering": null, "total_magnetization": 7.9996746, "total_magnetization_normalized_vol": null, "total_magnetization_normalized_formula_units": null, "num_magnetic_sites": null, "num_unique_magnetic_sites": null, "types_of_magnetic_species": null, "bulk_modulus": null, "shear_modulus": null, "universal_anisotropy": null, "homogeneous_poisson": null, "e_total": null, "e_ionic": null, "e_electronic": null, "n": null, "e_ij_max": null, "weighted_surface_energy_EV_PER_ANG2": null, "weighted_surface_energy": null, "weighted_work_function": null, "surface_anisotropy": null, "shape_factor": null, "has_reconstructed": null, "possible_species": null, "has_props": null, "theoretical": null, "database_IDs": null, "fields_not_requested": ["builder_meta", "nsites", "elements", "nelements", "composition", "composition_reduced", "chemsys", "symmetry", "property_name", "deprecated", "deprecation_reasons", "last_updated", "origins", "warnings", "task_ids", "uncorrected_energy_per_atom", "equilibrium_reaction_energy_per_atom", "decomposes_to", "xas", "grain_boundaries", "cbm", "vbm", "is_gap_direct", "is_metal", "es_source_calc_id", "bandstructure", "dos", "dos_energy_up", "dos_energy_down", "is_magnetic", "ordering", "total_magnetization_normalized_vol", "total_magnetization_normalized_formula_units", "num_magnetic_sites", "num_unique_magnetic_sites", "types_of_magnetic_species", "bulk_modulus", "shear_modulus", "universal_anisotropy", "homogeneous_poisson", "e_total", "e_ionic", "e_electronic", "n", "e_ij_max", "weighted_surface_energy_EV_PER_ANG2", "weighted_surface_energy", "weighted_work_function", "surface_anisotropy", "shape_factor", "has_reconstructed", "possible_species", "has_props", "theoretical", "database_IDs"]}