{"builder_meta": null, "nsites": null, "elements": null, "nelements": null, "composition": null, "composition_reduced": null, "formula_pretty": "BaO5", "formula_anonymous": "AB5", "chemsys": null, "volume": 388.3709066148558, "density": 3.716807680114464, "density_atomic": 16.182121108952327, "symmetry": null, "property_name": null, "material_id": "mp-1214539", "deprecated": null, "deprecation_reasons": null, "last_updated": null, "origins": null, "warnings": null, "structure": {"@module": "pymatgen.core.structure", "@class": "Structure", "charge": 0, "lattice": {"matrix": [[5.095259, 0.0, 0.0], [0.0, 7.06975, 0.0], [0.0, 0.0, 10.78143]], "pbc": [true, true, true], "a": 5.095259, "b": 7.06975, "c": 10.78143, "alpha": 90.0, "beta": 90.0, "gamma": 90.0, "volume": 388.3709066148558}, "properties": {}, "sites": [{"species": [{"element": "Ba", "occu": 1}], "abc": [0.475697999999999, 0.437123999999999, 0.25], "properties": {"magmom": -0.0}, "label": "Ba", "xyz": [2.423804515781995, 3.090357398999993, 2.6953575]}, {"species": [{"element": "Ba", "occu": 1}], "abc": [0.524301999999999, 0.562875999999999, 0.75], "properties": {"magmom": -0.0}, "label": "Ba", "xyz": [2.6714544842179953, 3.979392600999993, 8.0860725]}, {"species": [{"element": "Ba", "occu": 1}], "abc": [0.975698, 0.062876, 0.75], "properties": {"magmom": 0.0}, "label": "Ba", "xyz": [4.971434015782, 0.444517601, 8.0860725]}, {"species": [{"element": "Ba", "occu": 1}], "abc": [0.024301999999999, 0.937124, 0.25], "properties": {"magmom": 0.0}, "label": "Ba", "xyz": [0.12382498421799493, 6.625232399, 2.6953575]}, {"species": [{"element": "O", "occu": 1}], "abc": [0.439608, 0.07185899999999901, 0.579786], "properties": {"magmom": 0.001}, "label": "O", "xyz": [2.2399166184720003, 0.508025165249993, 6.25092217398]}, {"species": [{"element": "O", "occu": 1}], "abc": [0.560392, 0.928141, 0.420214], "properties": {"magmom": 0.001}, "label": "O", "xyz": [2.855342381528, 6.56172483475, 4.53050782602]}, {"species": [{"element": "O", "occu": 1}], "abc": [0.939608, 0.428141, 0.420214], "properties": {"magmom": -0.0}, "label": "O", "xyz": [4.787546118472, 3.02684983475, 4.53050782602]}, {"species": [{"element": "O", "occu": 1}], "abc": [0.560392, 0.928141, 0.079786], "properties": {"magmom": 0.001}, "label": "O", "xyz": [2.855342381528, 6.56172483475, 0.86020717398]}, {"species": [{"element": "O", "occu": 1}], "abc": [0.060391999999999, 0.571859, 0.579786], "properties": {"magmom": -0.001}, "label": "O", "xyz": [0.3077128815279949, 4.04290016525, 6.25092217398]}, {"species": [{"element": "O", "occu": 1}], "abc": [0.439608, 0.07185899999999901, 0.920214], "properties": {"magmom": 0.0}, "label": "O", "xyz": [2.2399166184720003, 0.508025165249993, 9.92122282602]}, {"species": [{"element": "O", "occu": 1}], "abc": [0.060391999999999, 0.571859, 0.920214], "properties": {"magmom": -0.001}, "label": "O", "xyz": [0.3077128815279949, 4.04290016525, 9.92122282602]}, {"species": [{"element": "O", "occu": 1}], "abc": [0.939608, 0.428141, 0.079786], "properties": {"magmom": -0.0}, "label": "O", "xyz": [4.787546118472, 3.02684983475, 0.86020717398]}, {"species": [{"element": "O", "occu": 1}], "abc": [0.064846, 0.26922, 0.086209], "properties": {"magmom": 0.0}, "label": "O", "xyz": [0.33040716511400003, 1.9033180950000002, 0.9294562988699999]}, {"species": [{"element": "O", "occu": 1}], "abc": [0.935153999999999, 0.7307800000000001, 0.913790999999999], "properties": {"magmom": -0.0}, "label": "O", "xyz": [4.764851834885995, 5.1664319050000005, 9.851973701129989]}, {"species": [{"element": "O", "occu": 1}], "abc": [0.564846, 0.23078, 0.913790999999999], "properties": {"magmom": 0.0}, "label": "O", "xyz": [2.878036665114, 1.631556905, 9.851973701129989]}, {"species": [{"element": "O", "occu": 1}], "abc": [0.935153999999999, 0.7307800000000001, 0.586209], "properties": {"magmom": -0.0}, "label": "O", "xyz": [4.764851834885995, 5.1664319050000005, 6.32017129887]}, {"species": [{"element": "O", "occu": 1}], "abc": [0.435154, 0.76922, 0.086209], "properties": {"magmom": 0.001}, "label": "O", "xyz": [2.2172223348860003, 5.438193095, 0.9294562988699999]}, {"species": [{"element": "O", "occu": 1}], "abc": [0.064846, 0.26922, 0.413790999999999], "properties": {"magmom": 0.001}, "label": "O", "xyz": [0.33040716511400003, 1.9033180950000002, 4.46125870112999]}, {"species": [{"element": "O", "occu": 1}], "abc": [0.435154, 0.76922, 0.413790999999999], "properties": {"magmom": 0.001}, "label": "O", "xyz": [2.2172223348860003, 5.438193095, 4.46125870112999]}, {"species": [{"element": "O", "occu": 1}], "abc": [0.564846, 0.23078, 0.586209], "properties": {"magmom": 0.001}, "label": "O", "xyz": [2.878036665114, 1.631556905, 6.32017129887]}, {"species": [{"element": "O", "occu": 1}], "abc": [0.527961, 0.059001, 0.25], "properties": {"magmom": 0.0}, "label": "O", "xyz": [2.690098036899, 0.41712231974999997, 2.6953575]}, {"species": [{"element": "O", "occu": 1}], "abc": [0.472039, 0.940998999999999, 0.75], "properties": {"magmom": 0.001}, "label": "O", "xyz": [2.4051609631010002, 6.652627680249993, 8.0860725]}, {"species": [{"element": "O", "occu": 1}], "abc": [0.027961, 0.440999, 0.75], "properties": {"magmom": -0.001}, "label": "O", "xyz": [0.14246853689900002, 3.1177526802499997, 8.0860725]}, {"species": [{"element": "O", "occu": 1}], "abc": [0.972039, 0.559001, 0.25], "properties": {"magmom": -0.001}, "label": "O", "xyz": [4.9527904631010005, 3.95199731975, 2.6953575]}]}, "task_ids": null, "uncorrected_energy_per_atom": null, "energy_per_atom": -5.25656736125, "formation_energy_per_atom": -0.813437367083333, "energy_above_hull": 0.278327061458332, "is_stable": false, "equilibrium_reaction_energy_per_atom": null, "decomposes_to": null, "xas": null, "grain_boundaries": null, "band_gap": 0.0, "cbm": null, "vbm": null, "efermi": 0.88729678, "is_gap_direct": null, "is_metal": null, "es_source_calc_id": null, "bandstructure": null, "dos": null, "dos_energy_up": null, "dos_energy_down": null, "is_magnetic": null, "ordering": null, "total_magnetization": 0.0015673999999990002, "total_magnetization_normalized_vol": null, "total_magnetization_normalized_formula_units": null, "num_magnetic_sites": null, "num_unique_magnetic_sites": null, "types_of_magnetic_species": null, "bulk_modulus": null, "shear_modulus": null, "universal_anisotropy": null, "homogeneous_poisson": null, "e_total": null, "e_ionic": null, "e_electronic": null, "n": null, "e_ij_max": null, "weighted_surface_energy_EV_PER_ANG2": null, "weighted_surface_energy": null, "weighted_work_function": null, "surface_anisotropy": null, "shape_factor": null, "has_reconstructed": null, "possible_species": null, "has_props": null, "theoretical": null, "database_IDs": null, "fields_not_requested": ["builder_meta", "nsites", "elements", "nelements", "composition", "composition_reduced", "chemsys", "symmetry", "property_name", "deprecated", "deprecation_reasons", "last_updated", "origins", "warnings", "task_ids", "uncorrected_energy_per_atom", "equilibrium_reaction_energy_per_atom", "decomposes_to", "xas", "grain_boundaries", "cbm", "vbm", "is_gap_direct", "is_metal", "es_source_calc_id", "bandstructure", "dos", "dos_energy_up", "dos_energy_down", "is_magnetic", "ordering", "total_magnetization_normalized_vol", "total_magnetization_normalized_formula_units", "num_magnetic_sites", "num_unique_magnetic_sites", "types_of_magnetic_species", "bulk_modulus", "shear_modulus", "universal_anisotropy", "homogeneous_poisson", "e_total", "e_ionic", "e_electronic", "n", "e_ij_max", "weighted_surface_energy_EV_PER_ANG2", "weighted_surface_energy", "weighted_work_function", "surface_anisotropy", "shape_factor", "has_reconstructed", "possible_species", "has_props", "theoretical", "database_IDs"]}