{"builder_meta": null, "nsites": null, "elements": null, "nelements": null, "composition": null, "composition_reduced": null, "formula_pretty": "BaO6", "formula_anonymous": "AB6", "chemsys": null, "volume": 227.93658795108132, "density": 3.399564978441192, "density_atomic": 16.281184853648664, "symmetry": null, "property_name": null, "material_id": "mp-2017611", "deprecated": null, "deprecation_reasons": null, "last_updated": null, "origins": null, "warnings": null, "structure": {"@module": "pymatgen.core.structure", "@class": "Structure", "charge": 0, "lattice": {"matrix": [[2.99399075, 4.72949457, -0.08614907000000001], [-2.99403993, 4.7295289, -0.08613242], [-7.769999999999997e-06, 0.22279527000000002, 8.04441934]], "pbc": [true, true, true], "a": 5.598171233626827, "b": 5.59822628268496, "c": 8.04750397639919, "alpha": 89.54106846005341, "beta": 89.54130319764334, "gamma": 64.66308748789132, "volume": 227.93658795108132}, "properties": {}, "sites": [{"species": [{"element": "Ba", "occu": 1}], "abc": [0.21879171, 0.7812112, 0.75000124], "properties": {"magmom": -0.013000000000000001}, "label": "Ba", "xyz": [-1.6839229981561683, 4.896631880575829, 5.947188166552667]}, {"species": [{"element": "Ba", "occu": 1}], "abc": [0.78120829, 0.218788799999999, 0.24999876000000001], "properties": {"magmom": -0.013000000000000001}, "label": "Ba", "xyz": [1.6838660481561714, 4.785186859424166, 1.924949683447332]}, {"species": [{"element": "O", "occu": 1}], "abc": [0.78118529, 0.89627237, 0.52863424], "properties": {"magmom": 0.607}, "label": "O", "xyz": [-0.34461783912771127, 8.051334871637414, 4.108059009603786]}, {"species": [{"element": "O", "occu": 1}], "abc": [0.10374009000000001, 0.21882875000000002, 0.9713580900000001], "properties": {"magmom": 0.607}, "label": "O", "xyz": [-0.3445926929201793, 1.742009077550421, 7.7862264431831685]}, {"species": [{"element": "O", "occu": 1}], "abc": [0.21881471, 0.10372763, 0.47136576], "properties": {"magmom": 0.607}, "label": "O", "xyz": [0.3445608891277114, 1.6304838683625869, 3.764078840396214]}, {"species": [{"element": "O", "occu": 1}], "abc": [0.89625991, 0.78117125, 0.02864191], "properties": {"magmom": 0.607}, "label": "O", "xyz": [0.3445357429201797, 7.93980966244958, 0.08591140681683065]}, {"species": [{"element": "O", "occu": 1}], "abc": [0.64412879, 0.94421988, 0.66245002], "properties": {"magmom": 0.641}, "label": "O", "xyz": [-0.898521531587771, 7.659709556167608, 5.192206713176152]}, {"species": [{"element": "O", "occu": 1}], "abc": [0.05579436, 0.35586229, 0.83755908], "properties": {"magmom": 0.641}, "label": "O", "xyz": [-0.8984246159331213, 2.133544309001358, 6.702218549094919]}, {"species": [{"element": "O", "occu": 1}], "abc": [0.35587121, 0.05578012, 0.33754998], "properties": {"magmom": 0.641}, "label": "O", "xyz": [0.8984645815877712, 2.0221091838323924, 2.679931136823848]}, {"species": [{"element": "O", "occu": 1}], "abc": [0.9442056400000001, 0.64413771, 0.16244092000000002], "properties": {"magmom": 0.641}, "label": "O", "xyz": [0.8983676659331215, 7.548274430998643, 1.1699193009050797]}, {"species": [{"element": "O", "occu": 1}], "abc": [0.60902864, 0.47598196000000004, 0.54387524], "properties": {"magmom": 0.458}, "label": "O", "xyz": [0.39831289453480245, 5.252740912495244, 4.281695770172633]}, {"species": [{"element": "O", "occu": 1}], "abc": [0.52402484, 0.39097656000000003, 0.95611989], "properties": {"magmom": 0.458}, "label": "O", "xyz": [0.3983186623446439, 4.540526564112624, 7.612609324575697]}, {"species": [{"element": "O", "occu": 1}], "abc": [0.39097136, 0.52401904, 0.45612476], "properties": {"magmom": 0.458}, "label": "O", "xyz": [-0.3983728385747324, 4.429082557033657, 3.590441993694946]}, {"species": [{"element": "O", "occu": 1}], "abc": [0.47597516, 0.60902344, 0.04388011], "properties": {"magmom": 0.458}, "label": "O", "xyz": [-0.3983756123446437, 5.1412921758873775, 0.2595285254243014]}]}, "task_ids": null, "uncorrected_energy_per_atom": null, "energy_per_atom": -5.41347475, "formation_energy_per_atom": -0.8982260400000001, "energy_above_hull": 0.039477212142856, "is_stable": false, "equilibrium_reaction_energy_per_atom": null, "decomposes_to": null, "xas": null, "grain_boundaries": null, "band_gap": 0.0177, "cbm": null, "vbm": null, "efermi": 0.87647631, "is_gap_direct": null, "is_metal": null, "es_source_calc_id": null, "bandstructure": null, "dos": null, "dos_energy_up": null, "dos_energy_down": null, "is_magnetic": null, "ordering": null, "total_magnetization": 7.9999999, "total_magnetization_normalized_vol": null, "total_magnetization_normalized_formula_units": null, "num_magnetic_sites": null, "num_unique_magnetic_sites": null, "types_of_magnetic_species": null, "bulk_modulus": null, "shear_modulus": null, "universal_anisotropy": null, "homogeneous_poisson": null, "e_total": null, "e_ionic": null, "e_electronic": null, "n": null, "e_ij_max": null, "weighted_surface_energy_EV_PER_ANG2": null, "weighted_surface_energy": null, "weighted_work_function": null, "surface_anisotropy": null, "shape_factor": null, "has_reconstructed": null, "possible_species": null, "has_props": null, "theoretical": null, "database_IDs": null, "fields_not_requested": ["builder_meta", "nsites", "elements", "nelements", "composition", "composition_reduced", "chemsys", "symmetry", "property_name", "deprecated", "deprecation_reasons", "last_updated", "origins", "warnings", "task_ids", "uncorrected_energy_per_atom", "equilibrium_reaction_energy_per_atom", "decomposes_to", "xas", "grain_boundaries", "cbm", "vbm", "is_gap_direct", "is_metal", "es_source_calc_id", "bandstructure", "dos", "dos_energy_up", "dos_energy_down", "is_magnetic", "ordering", "total_magnetization_normalized_vol", "total_magnetization_normalized_formula_units", "num_magnetic_sites", "num_unique_magnetic_sites", "types_of_magnetic_species", "bulk_modulus", "shear_modulus", "universal_anisotropy", "homogeneous_poisson", "e_total", "e_ionic", "e_electronic", "n", "e_ij_max", "weighted_surface_energy_EV_PER_ANG2", "weighted_surface_energy", "weighted_work_function", "surface_anisotropy", "shape_factor", "has_reconstructed", "possible_species", "has_props", "theoretical", "database_IDs"]}