{"builder_meta": null, "nsites": null, "elements": null, "nelements": null, "composition": null, "composition_reduced": null, "formula_pretty": "BaP2", "formula_anonymous": "AB2", "chemsys": null, "volume": 494.0044283699264, "density": 4.019030353699522, "density_atomic": 27.44469046499591, "symmetry": null, "property_name": null, "material_id": "mp-1105095", "deprecated": null, "deprecation_reasons": null, "last_updated": null, "origins": null, "warnings": null, "structure": {"@module": "pymatgen.core.structure", "@class": "Structure", "charge": 0, "lattice": {"matrix": [[5.16818782, 0.0, -3.84781676], [-5.17165353, 0.0, -3.91658469], [0.0, 12.30666191, 0.0]], "pbc": [true, true, true], "a": 6.443280155428076, "b": 6.487344284705712, "c": 12.30666191, "alpha": 90.0, "beta": 90.0, "gamma": 106.19430568356118, "volume": 494.0044283699264}, "properties": {}, "sites": [{"species": [{"element": "Ba", "occu": 1}], "abc": [0.10525819, 0.33288517, 0.16025517], "properties": {"magmom": 0.0}, "label": "Ba", "xyz": [-1.1775726690019044, 1.972206196519575, -1.7087871879593117]}, {"species": [{"element": "Ba", "occu": 1}], "abc": [0.39474181, 0.16711483, 0.66025517], "properties": {"magmom": 0.0}, "label": "Ba", "xyz": [1.1758398140019042, 8.125537151519575, -2.1734135370406884]}, {"species": [{"element": "Ba", "occu": 1}], "abc": [0.89474181, 0.66711483, 0.83974483], "properties": {"magmom": 0.0}, "label": "Ba", "xyz": [1.1741069590019038, 10.334455713480425, -6.055614262040689]}, {"species": [{"element": "Ba", "occu": 1}], "abc": [0.60525819, 0.8328851700000001, 0.33974483], "properties": {"magmom": 0.0}, "label": "Ba", "xyz": [-1.1793055240019052, 4.181124758480426, -5.590987912959312]}, {"species": [{"element": "Ba", "occu": 1}], "abc": [0.0, 0.5, 0.5], "properties": {"magmom": 0.0}, "label": "Ba", "xyz": [-2.585826765, 6.153330955, -1.958292345]}, {"species": [{"element": "Ba", "occu": 1}], "abc": [0.5, 0.0, -0.0], "properties": {"magmom": 0.0}, "label": "Ba", "xyz": [2.58409391, 0.0, -1.92390838]}, {"species": [{"element": "P", "occu": 1}], "abc": [0.36852443, 0.30023854, 0.39027581], "properties": {"magmom": 0.0}, "label": "P", "xyz": [0.3518737652653965, 4.802992445321397, -2.5939241473353993]}, {"species": [{"element": "P", "occu": 1}], "abc": [0.13147557, 0.19976146, 0.89027581], "properties": {"magmom": 0.0}, "label": "P", "xyz": [-0.35360662026539647, 10.956323400321399, -1.2882765776646008]}, {"species": [{"element": "P", "occu": 1}], "abc": [0.63147557, 0.6997614600000001, 0.60972419], "properties": {"magmom": 0.0}, "label": "P", "xyz": [-0.3553394752653971, 7.5036694646786035, -5.170477302664601]}, {"species": [{"element": "P", "occu": 1}], "abc": [0.86852443, 0.80023854, 0.10972419], "properties": {"magmom": 0.0}, "label": "P", "xyz": [0.35014091026539607, 1.350338509678603, -6.4761248723354]}, {"species": [{"element": "P", "occu": 1}], "abc": [0.64932084, 0.46605155000000004, 0.1295761], "properties": {"magmom": -0.0}, "label": "P", "xyz": [0.9455549128406968, 1.594649254316351, -4.323797976250049]}, {"species": [{"element": "P", "occu": 1}], "abc": [0.85067916, 0.03394845, 0.6295761], "properties": {"magmom": -0.0}, "label": "P", "xyz": [4.220900052159302, 7.747980209316351, -3.406219508749952]}, {"species": [{"element": "P", "occu": 1}], "abc": [0.35067916, 0.53394845, 0.870423899999999], "properties": {"magmom": -0.0}, "label": "P", "xyz": [-0.9490206228406977, 10.712012655683639, -3.4406034737499525]}, {"species": [{"element": "P", "occu": 1}], "abc": [0.14932084, 0.96605155, 0.3704239], "properties": {"magmom": -0.0}, "label": "P", "xyz": [-4.2243657621593025, 4.558681700683649, -4.358181941250048]}, {"species": [{"element": "P", "occu": 1}], "abc": [0.6684207400000001, 0.34840467, 0.29660103], "properties": {"magmom": -0.0}, "label": "P", "xyz": [1.6526956856294015, 3.650168598367767, -3.936516922550105]}, {"species": [{"element": "P", "occu": 1}], "abc": [0.83157926, 0.15159533, 0.79660103], "properties": {"magmom": -0.0}, "label": "P", "xyz": [3.513759279370598, 9.803499553367768, -3.7935005624498954]}, {"species": [{"element": "P", "occu": 1}], "abc": [0.33157926, 0.65159533, 0.7033989700000001], "properties": {"magmom": -0.0}, "label": "P", "xyz": [-1.6561613956294021, 8.656493311632234, -3.8278845274498954]}, {"species": [{"element": "P", "occu": 1}], "abc": [0.16842074, 0.84840467, 0.20339897], "properties": {"magmom": -0.0}, "label": "P", "xyz": [-3.5172249893705985, 2.503162356632233, -3.970900887550105]}]}, "task_ids": null, "uncorrected_energy_per_atom": null, "energy_per_atom": -5.053009618333332, "formation_energy_per_atom": -0.8030356214285691, "energy_above_hull": 0.0, "is_stable": true, "equilibrium_reaction_energy_per_atom": null, "decomposes_to": null, "xas": null, "grain_boundaries": null, "band_gap": 0.5585999999999991, "cbm": null, "vbm": null, "efermi": 4.15351328, "is_gap_direct": null, "is_metal": null, "es_source_calc_id": null, "bandstructure": null, "dos": null, "dos_energy_up": null, "dos_energy_down": null, "is_magnetic": null, "ordering": null, "total_magnetization": 1e-07, "total_magnetization_normalized_vol": null, "total_magnetization_normalized_formula_units": null, "num_magnetic_sites": null, "num_unique_magnetic_sites": null, "types_of_magnetic_species": null, "bulk_modulus": null, "shear_modulus": null, "universal_anisotropy": null, "homogeneous_poisson": null, "e_total": null, "e_ionic": null, "e_electronic": null, "n": null, "e_ij_max": null, "weighted_surface_energy_EV_PER_ANG2": null, "weighted_surface_energy": null, "weighted_work_function": null, "surface_anisotropy": null, "shape_factor": null, "has_reconstructed": null, "possible_species": null, "has_props": null, "theoretical": null, "database_IDs": null, "fields_not_requested": ["builder_meta", "nsites", "elements", "nelements", "composition", "composition_reduced", "chemsys", "symmetry", "property_name", "deprecated", "deprecation_reasons", "last_updated", "origins", "warnings", "task_ids", "uncorrected_energy_per_atom", "equilibrium_reaction_energy_per_atom", "decomposes_to", "xas", "grain_boundaries", "cbm", "vbm", "is_gap_direct", "is_metal", "es_source_calc_id", "bandstructure", "dos", "dos_energy_up", "dos_energy_down", "is_magnetic", "ordering", "total_magnetization_normalized_vol", "total_magnetization_normalized_formula_units", "num_magnetic_sites", "num_unique_magnetic_sites", "types_of_magnetic_species", "bulk_modulus", "shear_modulus", "universal_anisotropy", "homogeneous_poisson", "e_total", "e_ionic", "e_electronic", "n", "e_ij_max", "weighted_surface_energy_EV_PER_ANG2", "weighted_surface_energy", "weighted_work_function", "surface_anisotropy", "shape_factor", "has_reconstructed", "possible_species", "has_props", "theoretical", "database_IDs"]}