{"builder_meta": null, "nsites": null, "elements": null, "nelements": null, "composition": null, "composition_reduced": null, "formula_pretty": "BaP3", "formula_anonymous": "AB3", "chemsys": null, "volume": 201.85164283336917, "density": 3.788289939619789, "density_atomic": 25.231455354171146, "symmetry": null, "property_name": null, "material_id": "mp-7808", "deprecated": null, "deprecation_reasons": null, "last_updated": null, "origins": null, "warnings": null, "structure": {"@module": "pymatgen.core.structure", "@class": "Structure", "charge": 0, "lattice": {"matrix": [[4.53253499, -0.00215305, 1.54202389], [1.42971219, 6.30946787, 2.8124710200000003], [-0.01640477, 0.00643752, 7.05430137]], "pbc": [true, true, true], "a": 4.787662869138693, "b": 7.054321724101955, "c": 7.054323381935816, "alpha": 66.48236493459683, "beta": 71.3443428765481, "gamma": 71.3443361025015, "volume": 201.8516428333692}, "properties": {}, "sites": [{"species": [{"element": "Ba", "occu": 1}], "abc": [0.31542423, 0.8261450300000001, 0.8261450300000001], "properties": {"magmom": -0.0}, "label": "Ba", "xyz": [2.5972682600639305, 5.21717472376031, 8.637776670284577]}, {"species": [{"element": "Ba", "occu": 1}], "abc": [0.68457577, 0.17385497, 0.17385497], "properties": {"magmom": -0.0}, "label": "Ba", "xyz": [3.34857414993607, 1.0965776162396896, 2.771019609715424]}, {"species": [{"element": "P", "occu": 1}], "abc": [0.02374969, 0.59042138, 0.59042138], "properties": {"magmom": -0.0}, "label": "P", "xyz": [0.9420932182072927, 3.728994442043183, 5.862175960009793]}, {"species": [{"element": "P", "occu": 1}], "abc": [0.9762503100000001, 0.40957862, 0.40957862], "properties": {"magmom": -0.0}, "label": "P", "xyz": [5.003749191792709, 2.5847578979568167, 5.5466203199902075]}, {"species": [{"element": "P", "occu": 1}], "abc": [0.70830229, 0.6483591, 0.18681179], "properties": {"magmom": -0.0}, "label": "P", "xyz": [4.134307217241318, 4.090478504060993, 4.233536897954142]}, {"species": [{"element": "P", "occu": 1}], "abc": [0.29169771, 0.81318821, 0.3516409], "properties": {"magmom": -0.0}, "label": "P", "xyz": [2.4789865855920596, 5.132420538829865, 5.217453994526999]}, {"species": [{"element": "P", "occu": 1}], "abc": [0.29169771, 0.3516409, 0.81318821], "properties": {"magmom": -0.0}, "label": "P", "xyz": [1.8115351927586822, 2.2232738359390063, 7.175259382045857]}, {"species": [{"element": "P", "occu": 1}], "abc": [0.70830229, 0.18681179, 0.6483591], "properties": {"magmom": -0.0}, "label": "P", "xyz": [3.4668558244079404, 1.1813318011701348, 6.1913422854730005]}]}, "task_ids": null, "uncorrected_energy_per_atom": null, "energy_per_atom": -5.205943668749999, "formation_energy_per_atom": -0.66459478973214, "energy_above_hull": 0.0, "is_stable": true, "equilibrium_reaction_energy_per_atom": null, "decomposes_to": null, "xas": null, "grain_boundaries": null, "band_gap": 0.5735, "cbm": null, "vbm": null, "efermi": 4.17746109, "is_gap_direct": null, "is_metal": null, "es_source_calc_id": null, "bandstructure": null, "dos": null, "dos_energy_up": null, "dos_energy_down": null, "is_magnetic": null, "ordering": null, "total_magnetization": 0.0, "total_magnetization_normalized_vol": null, "total_magnetization_normalized_formula_units": null, "num_magnetic_sites": null, "num_unique_magnetic_sites": null, "types_of_magnetic_species": null, "bulk_modulus": null, "shear_modulus": null, "universal_anisotropy": null, "homogeneous_poisson": null, "e_total": null, "e_ionic": null, "e_electronic": null, "n": null, "e_ij_max": null, "weighted_surface_energy_EV_PER_ANG2": null, "weighted_surface_energy": null, "weighted_work_function": null, "surface_anisotropy": null, "shape_factor": null, "has_reconstructed": null, "possible_species": null, "has_props": null, "theoretical": null, "database_IDs": null, "fields_not_requested": ["builder_meta", "nsites", "elements", "nelements", "composition", "composition_reduced", "chemsys", "symmetry", "property_name", "deprecated", "deprecation_reasons", "last_updated", "origins", "warnings", "task_ids", "uncorrected_energy_per_atom", "equilibrium_reaction_energy_per_atom", "decomposes_to", "xas", "grain_boundaries", "cbm", "vbm", "is_gap_direct", "is_metal", "es_source_calc_id", "bandstructure", "dos", "dos_energy_up", "dos_energy_down", "is_magnetic", "ordering", "total_magnetization_normalized_vol", "total_magnetization_normalized_formula_units", "num_magnetic_sites", "num_unique_magnetic_sites", "types_of_magnetic_species", "bulk_modulus", "shear_modulus", "universal_anisotropy", "homogeneous_poisson", "e_total", "e_ionic", "e_electronic", "n", "e_ij_max", "weighted_surface_energy_EV_PER_ANG2", "weighted_surface_energy", "weighted_work_function", "surface_anisotropy", "shape_factor", "has_reconstructed", "possible_species", "has_props", "theoretical", "database_IDs"]}