{
  "builder_meta": null,
  "nsites": null,
  "elements": null,
  "nelements": null,
  "composition": null,
  "composition_reduced": null,
  "formula_pretty": "BaP8",
  "formula_anonymous": "AB8",
  "chemsys": null,
  "volume": 406.2458521540358,
  "density": 3.148349600286199,
  "density_atomic": 22.569214008557545,
  "symmetry": null,
  "property_name": null,
  "material_id": "mp-30275",
  "deprecated": null,
  "deprecation_reasons": null,
  "last_updated": null,
  "origins": null,
  "warnings": null,
  "structure": {
    "@module": "pymatgen.core.structure",
    "@class": "Structure",
    "charge": 0,
    "lattice": {
      "matrix": [
        [6.80579086, 0.00487432, 0.70702805],
        [2.42772241, 6.89055454, 0.45742859],
        [0.03402866, -0.02916064, 8.66760983]
      ],
      "pbc": [true, true, true],
      "a": 6.842419283597126,
      "b": 7.320028612217319,
      "c": 8.667725679654335,
      "alpha": 86.52435122978717,
      "beta": 83.84426703611315,
      "gamma": 70.30536816510268,
      "volume": 406.2458521540358
    },
    "properties": {},
    "sites": [
      {
        "species": [{ "element": "Ba", "occu": 1 }],
        "abc": [0.73698452, 0.66491771, 0.31915299],
        "properties": { "magmom": -0.0 },
        "label": "Ba",
        "xyz": [6.640858484135062, 4.575937338306116, 3.5915146920050067]
      },
      {
        "species": [{ "element": "Ba", "occu": 1 }],
        "abc": [0.26301548, 0.33508229, 0.68084601],
        "properties": { "magmom": -0.0 },
        "label": "Ba",
        "xyz": [2.6266834118362783, 2.2903309108545242, 6.240543110385163]
      },
      {
        "species": [{ "element": "P", "occu": 1 }],
        "abc": [0.47803594, 0.6692525500000001, 0.7981162900000001],
        "properties": { "magmom": -0.0 },
        "label": "P",
        "xyz": [4.905330872661025, 4.590577715141312, 7.561880669475653]
      },
      {
        "species": [{ "element": "P", "occu": 1 }],
        "abc": [0.5219640600000001, 0.33074745, 0.20188371],
        "properties": { "magmom": -0.0 },
        "label": "P",
        "xyz": [4.362211057338976, 2.2756905048586877, 2.270185800524348]
      },
      {
        "species": [{ "element": "P", "occu": 1 }],
        "abc": [0.01107231, 0.04282422, 0.61756402],
        "properties": { "magmom": 0.0 },
        "label": "P",
        "xyz": [0.20033602084667, 0.27712803146086523, 5.380221426727062]
      },
      {
        "species": [{ "element": "P", "occu": 1 }],
        "abc": [0.98892769, 0.95717578, 0.38243598],
        "properties": { "magmom": 0.0 },
        "label": "P",
        "xyz": [9.06720590915333, 6.589140188539135, 4.451845043272939]
      },
      {
        "species": [{ "element": "P", "occu": 1 }],
        "abc": [0.09098166, 0.17982595, 0.2410735],
        "properties": { "magmom": 0.0 },
        "label": "P",
        "xyz": [1.0639730469366773, 1.2325141323602444, 2.236115154761978]
      },
      {
        "species": [{ "element": "P", "occu": 1 }],
        "abc": [0.90901834, 0.82017405, 0.7589265],
        "properties": { "magmom": 0.0 },
        "label": "P",
        "xyz": [8.203568883063324, 5.633754087639756, 7.595951315238022]
      },
      {
        "species": [{ "element": "P", "occu": 1 }],
        "abc": [0.14231594, 0.04670918, 0.00416119],
        "properties": { "magmom": -0.0 },
        "label": "P",
        "xyz": [1.0821110464427377, 0.32242450277777646, 0.1580550472380709]
      },
      {
        "species": [{ "element": "P", "occu": 1 }],
        "abc": [0.85768406, 0.95329082, -0.00416119],
        "properties": { "magmom": -0.0 },
        "label": "P",
        "xyz": [8.15140222355726, 6.573004357222223, 1.0064015927619292]
      },
      {
        "species": [{ "element": "P", "occu": 1 }],
        "abc": [0.23527254, 0.6772658500000001, 0.39397838],
        "properties": { "magmom": -0.0 },
        "label": "P",
        "xyz": [3.258835740254054, 4.65639540944467, 3.890995927290874]
      },
      {
        "species": [{ "element": "P", "occu": 1 }],
        "abc": [0.76472746, 0.32273415, 0.60602162],
        "properties": { "magmom": -0.0 },
        "label": "P",
        "xyz": [6.008706189745946, 2.2098728105553316, 5.941070542709126]
      },
      {
        "species": [{ "element": "P", "occu": 1 }],
        "abc": [0.23899663000000002, 0.58008952, 0.15722834],
        "properties": { "magmom": 0.0 },
        "label": "P",
        "xyz": [3.0402076772591693, 3.993718542675425, 1.7971207578114305]
      },
      {
        "species": [{ "element": "P", "occu": 1 }],
        "abc": [0.7610033700000001, 0.41991048000000003, 0.84277166],
        "properties": { "magmom": 0.0 },
        "label": "P",
        "xyz": [6.227334252740831, 2.8725496773245753, 8.03494571218857]
      },
      {
        "species": [{ "element": "P", "occu": 1 }],
        "abc": [0.39525206, 0.12426611, 0.32547578],
        "properties": { "magmom": 0.0 },
        "label": "P",
        "xyz": [3.0027619820505516, 0.8486979114004395, 3.157394234877285]
      },
      {
        "species": [{ "element": "P", "occu": 1 }],
        "abc": [0.60474794, 0.87573389, 0.67452422],
        "properties": { "magmom": 0.0 },
        "label": "P",
        "xyz": [6.264779947949449, 6.01757030859956, 6.674672235122714]
      },
      {
        "species": [{ "element": "P", "occu": 1 }],
        "abc": [0.40116283, 0.77374248, 0.039051960000000004],
        "properties": { "magmom": 0.0 },
        "label": "P",
        "xyz": [4.609991165919884, 5.33233137421353, 0.9760524574536517]
      },
      {
        "species": [{ "element": "P", "occu": 1 }],
        "abc": [0.59883717, 0.22625752000000002, 0.96094804],
        "properties": { "magmom": 0.0 },
        "label": "P",
        "xyz": [4.657550764080115, 1.5339368457864697, 8.85601401254635]
      }
    ]
  },
  "task_ids": null,
  "uncorrected_energy_per_atom": null,
  "energy_per_atom": -5.336677812777776,
  "formation_energy_per_atom": -0.309704130238093,
  "energy_above_hull": 0.008939126984128,
  "is_stable": false,
  "equilibrium_reaction_energy_per_atom": null,
  "decomposes_to": null,
  "xas": null,
  "grain_boundaries": null,
  "band_gap": 0.8917,
  "cbm": null,
  "vbm": null,
  "efermi": 4.89781635,
  "is_gap_direct": null,
  "is_metal": null,
  "es_source_calc_id": null,
  "bandstructure": null,
  "dos": null,
  "dos_energy_up": null,
  "dos_energy_down": null,
  "is_magnetic": null,
  "ordering": null,
  "total_magnetization": 0.0,
  "total_magnetization_normalized_vol": null,
  "total_magnetization_normalized_formula_units": null,
  "num_magnetic_sites": null,
  "num_unique_magnetic_sites": null,
  "types_of_magnetic_species": null,
  "bulk_modulus": null,
  "shear_modulus": null,
  "universal_anisotropy": null,
  "homogeneous_poisson": null,
  "e_total": null,
  "e_ionic": null,
  "e_electronic": null,
  "n": null,
  "e_ij_max": null,
  "weighted_surface_energy_EV_PER_ANG2": null,
  "weighted_surface_energy": null,
  "weighted_work_function": null,
  "surface_anisotropy": null,
  "shape_factor": null,
  "has_reconstructed": null,
  "possible_species": null,
  "has_props": null,
  "theoretical": null,
  "database_IDs": null,
  "fields_not_requested": [
    "builder_meta",
    "nsites",
    "elements",
    "nelements",
    "composition",
    "composition_reduced",
    "chemsys",
    "symmetry",
    "property_name",
    "deprecated",
    "deprecation_reasons",
    "last_updated",
    "origins",
    "warnings",
    "task_ids",
    "uncorrected_energy_per_atom",
    "equilibrium_reaction_energy_per_atom",
    "decomposes_to",
    "xas",
    "grain_boundaries",
    "cbm",
    "vbm",
    "is_gap_direct",
    "is_metal",
    "es_source_calc_id",
    "bandstructure",
    "dos",
    "dos_energy_up",
    "dos_energy_down",
    "is_magnetic",
    "ordering",
    "total_magnetization_normalized_vol",
    "total_magnetization_normalized_formula_units",
    "num_magnetic_sites",
    "num_unique_magnetic_sites",
    "types_of_magnetic_species",
    "bulk_modulus",
    "shear_modulus",
    "universal_anisotropy",
    "homogeneous_poisson",
    "e_total",
    "e_ionic",
    "e_electronic",
    "n",
    "e_ij_max",
    "weighted_surface_energy_EV_PER_ANG2",
    "weighted_surface_energy",
    "weighted_work_function",
    "surface_anisotropy",
    "shape_factor",
    "has_reconstructed",
    "possible_species",
    "has_props",
    "theoretical",
    "database_IDs"
  ]
}
