{"builder_meta": null, "nsites": null, "elements": null, "nelements": null, "composition": null, "composition_reduced": null, "formula_pretty": "BaPa3", "formula_anonymous": "AB3", "chemsys": null, "volume": 111.02940452680359, "density": 12.419855513545604, "density_atomic": 27.757351131700897, "symmetry": null, "property_name": null, "material_id": "mp-1183378", "deprecated": null, "deprecation_reasons": null, "last_updated": null, "origins": null, "warnings": null, "structure": {"@module": "pymatgen.core.structure", "@class": "Structure", "charge": 0, "lattice": {"matrix": [[-2.396989, 2.396989, 4.831099], [2.396989, -2.396989, 4.831099], [2.396989, 2.396989, -4.831099]], "pbc": [true, true, true], "a": 5.9017480529113575, "b": 5.9017480529113575, "c": 5.9017480529113575, "alpha": 132.07370258140242, "beta": 132.07370258140242, "gamma": 70.11264655755939, "volume": 111.02940452680359}, "properties": {}, "sites": [{"species": [{"element": "Ba", "occu": 1}], "abc": [0.0, 0.0, 0.0], "properties": {"magmom": 0.0}, "label": "Ba", "xyz": [0.0, 0.0, 0.0]}, {"species": [{"element": "Pa", "occu": 1}], "abc": [0.75, 0.250001, 0.499998999999999], "properties": {"magmom": 0.0}, "label": "Pa", "xyz": [-2.4424906541753444e-15, 2.3969842060219975, 2.415559162198005]}, {"species": [{"element": "Pa", "occu": 1}], "abc": [0.250001, 0.75, 0.499998999999999], "properties": {"magmom": 0.0}, "label": "Pa", "xyz": [2.3969842060219975, -2.4424906541753444e-15, 2.415559162198005]}, {"species": [{"element": "Pa", "occu": 1}], "abc": [0.5, 0.5, 0.0], "properties": {"magmom": -0.0}, "label": "Pa", "xyz": [0.0, 0.0, 4.831099]}]}, "task_ids": null, "uncorrected_energy_per_atom": null, "energy_per_atom": -6.9256145175, "formation_energy_per_atom": 0.7123521025, "energy_above_hull": 0.7123521025, "is_stable": false, "equilibrium_reaction_energy_per_atom": null, "decomposes_to": null, "xas": null, "grain_boundaries": null, "band_gap": 0.0, "cbm": null, "vbm": null, "efermi": 10.00851481, "is_gap_direct": null, "is_metal": null, "es_source_calc_id": null, "bandstructure": null, "dos": null, "dos_energy_up": null, "dos_energy_down": null, "is_magnetic": null, "ordering": null, "total_magnetization": 0.0020585, "total_magnetization_normalized_vol": null, "total_magnetization_normalized_formula_units": null, "num_magnetic_sites": null, "num_unique_magnetic_sites": null, "types_of_magnetic_species": null, "bulk_modulus": null, "shear_modulus": null, "universal_anisotropy": null, "homogeneous_poisson": null, "e_total": null, "e_ionic": null, "e_electronic": null, "n": null, "e_ij_max": null, "weighted_surface_energy_EV_PER_ANG2": null, "weighted_surface_energy": null, "weighted_work_function": null, "surface_anisotropy": null, "shape_factor": null, "has_reconstructed": null, "possible_species": null, "has_props": null, "theoretical": null, "database_IDs": null, "fields_not_requested": ["builder_meta", "nsites", "elements", "nelements", "composition", "composition_reduced", "chemsys", "symmetry", "property_name", "deprecated", "deprecation_reasons", "last_updated", "origins", "warnings", "task_ids", "uncorrected_energy_per_atom", "equilibrium_reaction_energy_per_atom", "decomposes_to", "xas", "grain_boundaries", "cbm", "vbm", "is_gap_direct", "is_metal", "es_source_calc_id", "bandstructure", "dos", "dos_energy_up", "dos_energy_down", "is_magnetic", "ordering", "total_magnetization_normalized_vol", "total_magnetization_normalized_formula_units", "num_magnetic_sites", "num_unique_magnetic_sites", "types_of_magnetic_species", "bulk_modulus", "shear_modulus", "universal_anisotropy", "homogeneous_poisson", "e_total", "e_ionic", "e_electronic", "n", "e_ij_max", "weighted_surface_energy_EV_PER_ANG2", "weighted_surface_energy", "weighted_work_function", "surface_anisotropy", "shape_factor", "has_reconstructed", "possible_species", "has_props", "theoretical", "database_IDs"]}