{"builder_meta": null, "nsites": null, "elements": null, "nelements": null, "composition": null, "composition_reduced": null, "formula_pretty": "BaPb3", "formula_anonymous": "AB3", "chemsys": null, "volume": 415.19978823841984, "density": 9.105697795832294, "density_atomic": 34.59998235320165, "symmetry": null, "property_name": null, "material_id": "mp-21446", "deprecated": null, "deprecation_reasons": null, "last_updated": null, "origins": null, "warnings": null, "structure": {"@module": "pymatgen.core.structure", "@class": "Structure", "charge": 0, "lattice": {"matrix": [[6.85795617, 0.00065111, 6.86251966], [2.8416301600000002, 6.24153044, 6.86251966], [0.00101171, 0.00065112, 9.70184177]], "pbc": [true, true, true], "a": 9.701842058984047, "b": 9.701842107741948, "c": 9.701841844599977, "alpha": 44.97496836518758, "beta": 44.97496825281849, "gamma": 44.97497280202826, "volume": 415.1997882384199}, "properties": {}, "sites": [{"species": [{"element": "Ba", "occu": 1}], "abc": [0.78324651, 0.78324651, 0.78324651], "properties": {"magmom": 0.0}, "label": "Ba", "xyz": [7.597959559742839, 4.889676901291482, 18.349022853927497]}, {"species": [{"element": "Ba", "occu": 1}], "abc": [0.21675349, 0.21675349, 0.21675349], "properties": {"magmom": 0.0}, "label": "Ba", "xyz": [2.1026384802571596, 1.3531557687085183, 5.077858236072505]}, {"species": [{"element": "Ba", "occu": 1}], "abc": [-0.0, -0.0, 0.0], "properties": {"magmom": -0.0}, "label": "Ba", "xyz": [0.0, 0.0, 0.0]}, {"species": [{"element": "Pb", "occu": 1}], "abc": [0.72698133, 0.30059891, 0.30059891], "properties": {"magmom": 0.0}, "label": "Pb", "xyz": [5.840101145190668, 1.8768663177718758, 9.968152660281989]}, {"species": [{"element": "Pb", "occu": 1}], "abc": [0.30059891, 0.72698133, 0.30059891], "properties": {"magmom": 0.0}, "label": "Pb", "xyz": [4.127610341537924, 4.537867549425255, 9.968152660281989]}, {"species": [{"element": "Pb", "occu": 1}], "abc": [0.30059891, 0.30059891, 0.72698133], "properties": {"magmom": 0.0}, "label": "Pb", "xyz": [2.9164205725302743, 1.8768663220357, 11.178789692703294]}, {"species": [{"element": "Pb", "occu": 1}], "abc": [0.5, 0.5, 0.0], "properties": {"magmom": 0.0}, "label": "Pb", "xyz": [4.8497931649999995, 3.121090775, 6.86251966]}, {"species": [{"element": "Pb", "occu": 1}], "abc": [-0.0, 0.5, 0.5], "properties": {"magmom": 0.0}, "label": "Pb", "xyz": [1.4213209350000002, 3.12109078, 8.282180714999999]}, {"species": [{"element": "Pb", "occu": 1}], "abc": [0.5, -0.0, 0.5], "properties": {"magmom": 0.0}, "label": "Pb", "xyz": [3.42948394, 0.0006511150000000001, 8.282180714999999]}, {"species": [{"element": "Pb", "occu": 1}], "abc": [0.27301867, 0.6994010900000001, 0.6994010900000001], "properties": {"magmom": 0.0}, "label": "Pb", "xyz": [3.8604968948093323, 4.365966352228125, 13.458728429718011]}, {"species": [{"element": "Pb", "occu": 1}], "abc": [0.6994010900000001, 0.6994010900000001, 0.27301867], "properties": {"magmom": 0.0}, "label": "Pb", "xyz": [6.784177467469726, 4.3659663479643, 12.248091397296706]}, {"species": [{"element": "Pb", "occu": 1}], "abc": [0.6994010900000001, 0.27301867, 0.6994010900000001], "properties": {"magmom": 0.0}, "label": "Pb", "xyz": [5.572987698462077, 1.7049651205747456, 13.458728429718011]}]}, "task_ids": null, "uncorrected_energy_per_atom": null, "energy_per_atom": -3.636803832500002, "formation_energy_per_atom": -0.372574795, "energy_above_hull": 0.0, "is_stable": true, "equilibrium_reaction_energy_per_atom": null, "decomposes_to": null, "xas": null, "grain_boundaries": null, "band_gap": 0.0, "cbm": null, "vbm": null, "efermi": 5.49160199, "is_gap_direct": null, "is_metal": null, "es_source_calc_id": null, "bandstructure": null, "dos": null, "dos_energy_up": null, "dos_energy_down": null, "is_magnetic": null, "ordering": null, "total_magnetization": 1e-07, "total_magnetization_normalized_vol": null, "total_magnetization_normalized_formula_units": null, "num_magnetic_sites": null, "num_unique_magnetic_sites": null, "types_of_magnetic_species": null, "bulk_modulus": null, "shear_modulus": null, "universal_anisotropy": null, "homogeneous_poisson": null, "e_total": null, "e_ionic": null, "e_electronic": null, "n": null, "e_ij_max": null, "weighted_surface_energy_EV_PER_ANG2": null, "weighted_surface_energy": null, "weighted_work_function": null, "surface_anisotropy": null, "shape_factor": null, "has_reconstructed": null, "possible_species": null, "has_props": null, "theoretical": null, "database_IDs": null, "fields_not_requested": ["builder_meta", "nsites", "elements", "nelements", "composition", "composition_reduced", "chemsys", "symmetry", "property_name", "deprecated", "deprecation_reasons", "last_updated", "origins", "warnings", "task_ids", "uncorrected_energy_per_atom", "equilibrium_reaction_energy_per_atom", "decomposes_to", "xas", "grain_boundaries", "cbm", "vbm", "is_gap_direct", "is_metal", "es_source_calc_id", "bandstructure", "dos", "dos_energy_up", "dos_energy_down", "is_magnetic", "ordering", "total_magnetization_normalized_vol", "total_magnetization_normalized_formula_units", "num_magnetic_sites", "num_unique_magnetic_sites", "types_of_magnetic_species", "bulk_modulus", "shear_modulus", "universal_anisotropy", "homogeneous_poisson", "e_total", "e_ionic", "e_electronic", "n", "e_ij_max", "weighted_surface_energy_EV_PER_ANG2", "weighted_surface_energy", "weighted_work_function", "surface_anisotropy", "shape_factor", "has_reconstructed", "possible_species", "has_props", "theoretical", "database_IDs"]}