{"builder_meta": null, "nsites": null, "elements": null, "nelements": null, "composition": null, "composition_reduced": null, "formula_pretty": "BaPm", "formula_anonymous": "AB", "chemsys": null, "volume": 88.91726281796213, "density": 5.272485884048976, "density_atomic": 44.45863140898106, "symmetry": null, "property_name": null, "material_id": "mp-1183293", "deprecated": null, "deprecation_reasons": null, "last_updated": null, "origins": null, "warnings": null, "structure": {"@module": "pymatgen.core.structure", "@class": "Structure", "charge": 0, "lattice": {"matrix": [[3.967554, 0.0, 0.0], [-1.983777, 3.435903, 0.0], [0.0, 0.0, 6.522624]], "pbc": [true, true, true], "a": 3.967554, "b": 3.9674677832514282, "c": 6.522624, "alpha": 90.0, "beta": 90.0, "gamma": 120.00071885584735, "volume": 88.91726281796213}, "properties": {}, "sites": [{"species": [{"element": "Ba", "occu": 1}], "abc": [0.666655999999999, 0.333308, 0.749999], "properties": {"magmom": 0.031}, "label": "Ba", "xyz": [1.9837849351079961, 1.145213957124, 4.891961477376]}, {"species": [{"element": "Pm", "occu": 1}], "abc": [0.333347, 0.666693, 0.249998], "properties": {"magmom": 0.20400000000000001}, "label": "Pm", "xyz": [1.983777000003073e-06, 2.290692478779, 1.630642954752]}]}, "task_ids": null, "uncorrected_energy_per_atom": null, "energy_per_atom": -3.086499595, "formation_energy_per_atom": 0.248259036249999, "energy_above_hull": 0.248259036249999, "is_stable": false, "equilibrium_reaction_energy_per_atom": null, "decomposes_to": null, "xas": null, "grain_boundaries": null, "band_gap": 0.0, "cbm": null, "vbm": null, "efermi": 2.54356254, "is_gap_direct": null, "is_metal": null, "es_source_calc_id": null, "bandstructure": null, "dos": null, "dos_energy_up": null, "dos_energy_down": null, "is_magnetic": null, "ordering": null, "total_magnetization": 0.5434668, "total_magnetization_normalized_vol": null, "total_magnetization_normalized_formula_units": null, "num_magnetic_sites": null, "num_unique_magnetic_sites": null, "types_of_magnetic_species": null, "bulk_modulus": null, "shear_modulus": null, "universal_anisotropy": null, "homogeneous_poisson": null, "e_total": null, "e_ionic": null, "e_electronic": null, "n": null, "e_ij_max": null, "weighted_surface_energy_EV_PER_ANG2": null, "weighted_surface_energy": null, "weighted_work_function": null, "surface_anisotropy": null, "shape_factor": null, "has_reconstructed": null, "possible_species": null, "has_props": null, "theoretical": null, "database_IDs": null, "fields_not_requested": ["builder_meta", "nsites", "elements", "nelements", "composition", "composition_reduced", "chemsys", "symmetry", "property_name", "deprecated", "deprecation_reasons", "last_updated", "origins", "warnings", "task_ids", "uncorrected_energy_per_atom", "equilibrium_reaction_energy_per_atom", "decomposes_to", "xas", "grain_boundaries", "cbm", "vbm", "is_gap_direct", "is_metal", "es_source_calc_id", "bandstructure", "dos", "dos_energy_up", "dos_energy_down", "is_magnetic", "ordering", "total_magnetization_normalized_vol", "total_magnetization_normalized_formula_units", "num_magnetic_sites", "num_unique_magnetic_sites", "types_of_magnetic_species", "bulk_modulus", "shear_modulus", "universal_anisotropy", "homogeneous_poisson", "e_total", "e_ionic", "e_electronic", "n", "e_ij_max", "weighted_surface_energy_EV_PER_ANG2", "weighted_surface_energy", "weighted_work_function", "surface_anisotropy", "shape_factor", "has_reconstructed", "possible_species", "has_props", "theoretical", "database_IDs"]}