{
  "builder_meta": null,
  "nsites": null,
  "elements": null,
  "nelements": null,
  "composition": null,
  "composition_reduced": null,
  "formula_pretty": "BaPt2",
  "formula_anonymous": "AB2",
  "chemsys": null,
  "volume": 129.43530836983658,
  "density": 13.534576708132471,
  "density_atomic": 21.572551394972763,
  "symmetry": null,
  "property_name": null,
  "material_id": "mp-747",
  "deprecated": null,
  "deprecation_reasons": null,
  "last_updated": null,
  "origins": null,
  "warnings": null,
  "structure": {
    "@module": "pymatgen.core.structure",
    "@class": "Structure",
    "charge": 0,
    "lattice": {
      "matrix": [
        [4.91722402, -1e-8, 2.83895923],
        [1.6390743300000001, 4.63600118, 2.83895923],
        [-1e-8, -1e-8, 5.67791948]
      ],
      "pbc": [true, true, true],
      "a": 5.677920532419167,
      "b": 5.67791873047057,
      "c": 5.67791948,
      "alpha": 60.00000170454535,
      "beta": 60.00001217488472,
      "gamma": 60.00000111081859,
      "volume": 129.43530836983658
    },
    "properties": {},
    "sites": [
      {
        "species": [{ "element": "Ba", "occu": 1 }],
        "abc": [0.875, 0.875, 0.875],
        "properties": { "magmom": 0.0 },
        "label": "Ba",
        "xyz": [5.7367610475, 4.056501015, 9.936358197499999]
      },
      {
        "species": [{ "element": "Ba", "occu": 1 }],
        "abc": [0.125, 0.125, 0.125],
        "properties": { "magmom": 0.0 },
        "label": "Ba",
        "xyz": [0.8195372925000001, 0.579500145, 1.4194797425]
      },
      {
        "species": [{ "element": "Pt", "occu": 1 }],
        "abc": [0.5, 0.5, 0.5],
        "properties": { "magmom": -0.0 },
        "label": "Pt",
        "xyz": [3.2781491700000003, 2.31800058, 5.67791897]
      },
      {
        "species": [{ "element": "Pt", "occu": 1 }],
        "abc": [0.5, 0.5, 0.0],
        "properties": { "magmom": -0.0 },
        "label": "Pt",
        "xyz": [3.2781491750000002, 2.318000585, 2.83895923]
      },
      {
        "species": [{ "element": "Pt", "occu": 1 }],
        "abc": [0.0, 0.5, 0.5],
        "properties": { "magmom": -0.0 },
        "label": "Pt",
        "xyz": [0.8195371600000001, 2.318000585, 4.258439355]
      },
      {
        "species": [{ "element": "Pt", "occu": 1 }],
        "abc": [0.5, 0.0, 0.5],
        "properties": { "magmom": -0.0 },
        "label": "Pt",
        "xyz": [2.458612005, -1e-8, 4.258439355]
      }
    ]
  },
  "task_ids": null,
  "uncorrected_energy_per_atom": null,
  "energy_per_atom": -5.413245540000001,
  "formation_energy_per_atom": -0.726165013333333,
  "energy_above_hull": 0.0,
  "is_stable": true,
  "equilibrium_reaction_energy_per_atom": null,
  "decomposes_to": null,
  "xas": null,
  "grain_boundaries": null,
  "band_gap": 0.0,
  "cbm": null,
  "vbm": null,
  "efermi": 5.55332515,
  "is_gap_direct": null,
  "is_metal": null,
  "es_source_calc_id": null,
  "bandstructure": null,
  "dos": null,
  "dos_energy_up": null,
  "dos_energy_down": null,
  "is_magnetic": null,
  "ordering": null,
  "total_magnetization": 1e-7,
  "total_magnetization_normalized_vol": null,
  "total_magnetization_normalized_formula_units": null,
  "num_magnetic_sites": null,
  "num_unique_magnetic_sites": null,
  "types_of_magnetic_species": null,
  "bulk_modulus": null,
  "shear_modulus": null,
  "universal_anisotropy": null,
  "homogeneous_poisson": null,
  "e_total": null,
  "e_ionic": null,
  "e_electronic": null,
  "n": null,
  "e_ij_max": null,
  "weighted_surface_energy_EV_PER_ANG2": null,
  "weighted_surface_energy": null,
  "weighted_work_function": null,
  "surface_anisotropy": null,
  "shape_factor": null,
  "has_reconstructed": null,
  "possible_species": null,
  "has_props": null,
  "theoretical": null,
  "database_IDs": null,
  "fields_not_requested": [
    "builder_meta",
    "nsites",
    "elements",
    "nelements",
    "composition",
    "composition_reduced",
    "chemsys",
    "symmetry",
    "property_name",
    "deprecated",
    "deprecation_reasons",
    "last_updated",
    "origins",
    "warnings",
    "task_ids",
    "uncorrected_energy_per_atom",
    "equilibrium_reaction_energy_per_atom",
    "decomposes_to",
    "xas",
    "grain_boundaries",
    "cbm",
    "vbm",
    "is_gap_direct",
    "is_metal",
    "es_source_calc_id",
    "bandstructure",
    "dos",
    "dos_energy_up",
    "dos_energy_down",
    "is_magnetic",
    "ordering",
    "total_magnetization_normalized_vol",
    "total_magnetization_normalized_formula_units",
    "num_magnetic_sites",
    "num_unique_magnetic_sites",
    "types_of_magnetic_species",
    "bulk_modulus",
    "shear_modulus",
    "universal_anisotropy",
    "homogeneous_poisson",
    "e_total",
    "e_ionic",
    "e_electronic",
    "n",
    "e_ij_max",
    "weighted_surface_energy_EV_PER_ANG2",
    "weighted_surface_energy",
    "weighted_work_function",
    "surface_anisotropy",
    "shape_factor",
    "has_reconstructed",
    "possible_species",
    "has_props",
    "theoretical",
    "database_IDs"
  ]
}
