{"builder_meta": null, "nsites": null, "elements": null, "nelements": null, "composition": null, "composition_reduced": null, "formula_pretty": "BaRh2", "formula_anonymous": "AB2", "chemsys": null, "volume": 123.95427966261028, "density": 9.193616481591546, "density_atomic": 20.659046610435045, "symmetry": null, "property_name": null, "material_id": "mp-568430", "deprecated": null, "deprecation_reasons": null, "last_updated": null, "origins": null, "warnings": null, "structure": {"@module": "pymatgen.core.structure", "@class": "Structure", "charge": 0, "lattice": {"matrix": [[4.84756538, -0.0007059, 2.79754741], [1.6149495200000001, 4.56917871, 2.79797152], [-0.00042469000000000003, 0.00021225, 5.59583703]], "pbc": [true, true, true], "a": 5.5968886109040135, "b": 5.595900344251728, "c": 5.5958370501410135, "alpha": 59.99914778404497, "beta": 60.01495015955572, "gamma": 60.01480567916079, "volume": 123.95427966261029}, "properties": {}, "sites": [{"species": [{"element": "Ba", "occu": 1}], "abc": [0.37497416, 0.37500499, 0.37500928], "properties": {"magmom": -0.02}, "label": "Ba", "xyz": [2.4231666223175625, 1.713279717911899, 4.196752087620449]}, {"species": [{"element": "Ba", "occu": 1}], "abc": [0.62502584, 0.62499501, 0.62499072], "properties": {"magmom": -0.02}, "label": "Ba", "xyz": [4.038923587682437, 2.855405342088101, 6.994603872379551]}, {"species": [{"element": "Rh", "occu": 1}], "abc": [-0.0, 0.5, -0.0], "properties": {"magmom": 0.34}, "label": "Rh", "xyz": [0.8074747600000001, 2.284589355, 1.39898576]}, {"species": [{"element": "Rh", "occu": 1}], "abc": [0.5, -0.0, -0.0], "properties": {"magmom": 0.339}, "label": "Rh", "xyz": [2.42378269, -0.00035295, 1.398773705]}, {"species": [{"element": "Rh", "occu": 1}], "abc": [-0.0, -0.0, 0.0], "properties": {"magmom": 0.34}, "label": "Rh", "xyz": [0.0, 0.0, 0.0]}, {"species": [{"element": "Rh", "occu": 1}], "abc": [-0.0, -0.0, 0.5], "properties": {"magmom": 0.34}, "label": "Rh", "xyz": [-0.00021234500000000001, 0.000106125, 2.797918515]}]}, "task_ids": null, "uncorrected_energy_per_atom": null, "energy_per_atom": -5.640080131666669, "formation_energy_per_atom": -0.090883238333335, "energy_above_hull": 0.0, "is_stable": true, "equilibrium_reaction_energy_per_atom": null, "decomposes_to": null, "xas": null, "grain_boundaries": null, "band_gap": 0.0, "cbm": null, "vbm": null, "efermi": 4.29547681, "is_gap_direct": null, "is_metal": null, "es_source_calc_id": null, "bandstructure": null, "dos": null, "dos_energy_up": null, "dos_energy_down": null, "is_magnetic": null, "ordering": null, "total_magnetization": 1.3070954, "total_magnetization_normalized_vol": null, "total_magnetization_normalized_formula_units": null, "num_magnetic_sites": null, "num_unique_magnetic_sites": null, "types_of_magnetic_species": null, "bulk_modulus": null, "shear_modulus": null, "universal_anisotropy": null, "homogeneous_poisson": null, "e_total": null, "e_ionic": null, "e_electronic": null, "n": null, "e_ij_max": null, "weighted_surface_energy_EV_PER_ANG2": null, "weighted_surface_energy": null, "weighted_work_function": null, "surface_anisotropy": null, "shape_factor": null, "has_reconstructed": null, "possible_species": null, "has_props": null, "theoretical": null, "database_IDs": null, "fields_not_requested": ["builder_meta", "nsites", "elements", "nelements", "composition", "composition_reduced", "chemsys", "symmetry", "property_name", "deprecated", "deprecation_reasons", "last_updated", "origins", "warnings", "task_ids", "uncorrected_energy_per_atom", "equilibrium_reaction_energy_per_atom", "decomposes_to", "xas", "grain_boundaries", "cbm", "vbm", "is_gap_direct", "is_metal", "es_source_calc_id", "bandstructure", "dos", "dos_energy_up", "dos_energy_down", "is_magnetic", "ordering", "total_magnetization_normalized_vol", "total_magnetization_normalized_formula_units", "num_magnetic_sites", "num_unique_magnetic_sites", "types_of_magnetic_species", "bulk_modulus", "shear_modulus", "universal_anisotropy", "homogeneous_poisson", "e_total", "e_ionic", "e_electronic", "n", "e_ij_max", "weighted_surface_energy_EV_PER_ANG2", "weighted_surface_energy", "weighted_work_function", "surface_anisotropy", "shape_factor", "has_reconstructed", "possible_species", "has_props", "theoretical", "database_IDs"]}