{"builder_meta": null, "nsites": null, "elements": null, "nelements": null, "composition": null, "composition_reduced": null, "formula_pretty": "BaS2", "formula_anonymous": "AB2", "chemsys": null, "volume": 181.1360806348224, "density": 3.693656366723054, "density_atomic": 30.1893467724704, "symmetry": null, "property_name": null, "material_id": "mp-684", "deprecated": null, "deprecation_reasons": null, "last_updated": null, "origins": null, "warnings": null, "structure": {"@module": "pymatgen.core.structure", "@class": "Structure", "charge": 0, "lattice": {"matrix": [[4.60580724, -1e-08, 1.37740462], [2.23676216, 4.67998712, 0.90986579], [-0.00416973, 0.01979988, 8.40316297]], "pbc": [true, true, true], "a": 4.807359339516213, "b": 5.266235862509966, "c": 8.403187331142602, "alpha": 79.94135210407977, "beta": 73.37875018481532, "gamma": 62.842885275592685, "volume": 181.13608063482243}, "properties": {}, "sites": [{"species": [{"element": "Ba", "occu": 1}], "abc": [0.14243005, 0.25, 0.75], "properties": {"magmom": -0.0}, "label": "Ba", "xyz": [1.212068597983562, 1.1848466885756994, 6.726022483896831]}, {"species": [{"element": "Ba", "occu": 1}], "abc": [0.85756995, 0.75, 0.25], "properties": {"magmom": -0.0}, "label": "Ba", "xyz": [5.626331072016438, 3.5149403014243004, 3.964410896103169]}, {"species": [{"element": "S", "occu": 1}], "abc": [0.4846908, 0.30295389, 0.020361090000000002], "properties": {"magmom": 0.0}, "label": "S", "xyz": [2.9099432929303886, 1.418223445445658, 1.1143602851667564]}, {"species": [{"element": "S", "occu": 1}], "abc": [0.80800478, 0.19704611, 0.47963891000000003], "properties": {"magmom": 0.0}, "label": "S", "xyz": [4.16025958354961, 0.9316700416273861, 5.3227189589788235]}, {"species": [{"element": "S", "occu": 1}], "abc": [0.19199522, 0.8029538900000001, 0.52036109], "properties": {"magmom": 0.0}, "label": "S", "xyz": [2.6781400864503895, 3.768116948372614, 5.3677144210211765]}, {"species": [{"element": "S", "occu": 1}], "abc": [0.5153092, 0.69704611, 0.97963891], "properties": {"magmom": 0.0}, "label": "S", "xyz": [3.9284563770696113, 3.281563544554342, 9.576073094833244]}]}, "task_ids": null, "uncorrected_energy_per_atom": null, "energy_per_atom": -5.150796840000001, "formation_energy_per_atom": -1.752232148333333, "energy_above_hull": 0.0, "is_stable": true, "equilibrium_reaction_energy_per_atom": null, "decomposes_to": null, "xas": null, "grain_boundaries": null, "band_gap": 1.598199999999999, "cbm": null, "vbm": null, "efermi": 2.20192847, "is_gap_direct": null, "is_metal": null, "es_source_calc_id": null, "bandstructure": null, "dos": null, "dos_energy_up": null, "dos_energy_down": null, "is_magnetic": null, "ordering": null, "total_magnetization": 0.0, "total_magnetization_normalized_vol": null, "total_magnetization_normalized_formula_units": null, "num_magnetic_sites": null, "num_unique_magnetic_sites": null, "types_of_magnetic_species": null, "bulk_modulus": null, "shear_modulus": null, "universal_anisotropy": null, "homogeneous_poisson": null, "e_total": null, "e_ionic": null, "e_electronic": null, "n": null, "e_ij_max": null, "weighted_surface_energy_EV_PER_ANG2": null, "weighted_surface_energy": null, "weighted_work_function": null, "surface_anisotropy": null, "shape_factor": null, "has_reconstructed": null, "possible_species": null, "has_props": null, "theoretical": null, "database_IDs": null, "fields_not_requested": ["builder_meta", "nsites", "elements", "nelements", "composition", "composition_reduced", "chemsys", "symmetry", "property_name", "deprecated", "deprecation_reasons", "last_updated", "origins", "warnings", "task_ids", "uncorrected_energy_per_atom", "equilibrium_reaction_energy_per_atom", "decomposes_to", "xas", "grain_boundaries", "cbm", "vbm", "is_gap_direct", "is_metal", "es_source_calc_id", "bandstructure", "dos", "dos_energy_up", "dos_energy_down", "is_magnetic", "ordering", "total_magnetization_normalized_vol", "total_magnetization_normalized_formula_units", "num_magnetic_sites", "num_unique_magnetic_sites", "types_of_magnetic_species", "bulk_modulus", "shear_modulus", "universal_anisotropy", "homogeneous_poisson", "e_total", "e_ionic", "e_electronic", "n", "e_ij_max", "weighted_surface_energy_EV_PER_ANG2", "weighted_surface_energy", "weighted_work_function", "surface_anisotropy", "shape_factor", "has_reconstructed", "possible_species", "has_props", "theoretical", "database_IDs"]}