{"builder_meta": null, "nsites": null, "elements": null, "nelements": null, "composition": null, "composition_reduced": null, "formula_pretty": "BaSb3", "formula_anonymous": "AB3", "chemsys": null, "volume": 288.0853733220005, "density": 5.794105747352703, "density_atomic": 36.010671665250065, "symmetry": null, "property_name": null, "material_id": "mp-6950", "deprecated": null, "deprecation_reasons": null, "last_updated": null, "origins": null, "warnings": null, "structure": {"@module": "pymatgen.core.structure", "@class": "Structure", "charge": 0, "lattice": {"matrix": [[6.26951564, -0.00279132, 1.98675823], [1.70390431, 6.57675062, 1.61705926], [0.00033548000000000003, -0.01461137, 6.98366813]], "pbc": [true, true, true], "a": 6.576780551010097, "b": 6.983682357156482, "c": 6.983683423141244, "alpha": 76.72711637717435, "beta": 72.4142529419619, "gamma": 72.4142521548782, "volume": 288.0853733220005}, "properties": {}, "sites": [{"species": [{"element": "Ba", "occu": 1}], "abc": [0.17595046, 0.66466255, 0.66466255], "properties": {"magmom": -0.0}, "label": "Ba", "xyz": [2.2358685254680593, 4.361117073322079, 6.06615242336953]}, {"species": [{"element": "Ba", "occu": 1}], "abc": [0.82404954, 0.33533745, 0.33533745], "properties": {"magmom": -0.0}, "label": "Ba", "xyz": [5.737886904531941, 2.19823085667792, 4.521333196630469]}, {"species": [{"element": "Sb", "occu": 1}], "abc": [0.30004626, 0.13837591, 0.58620222], "properties": {"magmom": 0.0}, "label": "Sb", "xyz": [2.117120688363444, 0.9006611092278596, 4.913723184611396]}, {"species": [{"element": "Sb", "occu": 1}], "abc": [0.69995374, 0.41379778, 0.8616240900000001], "properties": {"magmom": 0.0}, "label": "Sb", "xyz": [5.093731798666639, 2.706901502916184, 8.077071082853976]}, {"species": [{"element": "Sb", "occu": 1}], "abc": [0.27585467, 0.01024704, 0.01024704], "properties": {"magmom": -0.0}, "label": "Sb", "xyz": [1.7469385812297604, 0.06647250472285561, 0.6361885335008597]}, {"species": [{"element": "Sb", "occu": 1}], "abc": [0.72414533, 0.98975296, 0.98975296], "properties": {"magmom": -0.0}, "label": "Sb", "xyz": [6.226816848770239, 6.492875425277145, 9.951297086499139]}, {"species": [{"element": "Sb", "occu": 1}], "abc": [0.30004626, 0.58620222, 0.13837591], "properties": {"magmom": 0.0}, "label": "Sb", "xyz": [2.8800236313333616, 3.8524464270838163, 2.5104145371460254]}, {"species": [{"element": "Sb", "occu": 1}], "abc": [0.69995374, 0.8616240900000001, 0.41379778], "properties": {"magmom": 0.0}, "label": "Sb", "xyz": [5.856634741636556, 5.65868682077214, 5.673762435388605]}]}, "task_ids": null, "uncorrected_energy_per_atom": null, "energy_per_atom": -4.123901157500001, "formation_energy_per_atom": -0.5474064925000001, "energy_above_hull": 0.09012615833333101, "is_stable": false, "equilibrium_reaction_energy_per_atom": null, "decomposes_to": null, "xas": null, "grain_boundaries": null, "band_gap": 0.0, "cbm": null, "vbm": null, "efermi": 5.02250958, "is_gap_direct": null, "is_metal": null, "es_source_calc_id": null, "bandstructure": null, "dos": null, "dos_energy_up": null, "dos_energy_down": null, "is_magnetic": null, "ordering": null, "total_magnetization": 0.0, "total_magnetization_normalized_vol": null, "total_magnetization_normalized_formula_units": null, "num_magnetic_sites": null, "num_unique_magnetic_sites": null, "types_of_magnetic_species": null, "bulk_modulus": null, "shear_modulus": null, "universal_anisotropy": null, "homogeneous_poisson": null, "e_total": null, "e_ionic": null, "e_electronic": null, "n": null, "e_ij_max": null, "weighted_surface_energy_EV_PER_ANG2": null, "weighted_surface_energy": null, "weighted_work_function": null, "surface_anisotropy": null, "shape_factor": null, "has_reconstructed": null, "possible_species": null, "has_props": null, "theoretical": null, "database_IDs": null, "fields_not_requested": ["builder_meta", "nsites", "elements", "nelements", "composition", "composition_reduced", "chemsys", "symmetry", "property_name", "deprecated", "deprecation_reasons", "last_updated", "origins", "warnings", "task_ids", "uncorrected_energy_per_atom", "equilibrium_reaction_energy_per_atom", "decomposes_to", "xas", "grain_boundaries", "cbm", "vbm", "is_gap_direct", "is_metal", "es_source_calc_id", "bandstructure", "dos", "dos_energy_up", "dos_energy_down", "is_magnetic", "ordering", "total_magnetization_normalized_vol", "total_magnetization_normalized_formula_units", "num_magnetic_sites", "num_unique_magnetic_sites", "types_of_magnetic_species", "bulk_modulus", "shear_modulus", "universal_anisotropy", "homogeneous_poisson", "e_total", "e_ionic", "e_electronic", "n", "e_ij_max", "weighted_surface_energy_EV_PER_ANG2", "weighted_surface_energy", "weighted_work_function", "surface_anisotropy", "shape_factor", "has_reconstructed", "possible_species", "has_props", "theoretical", "database_IDs"]}