{"builder_meta": null, "nsites": null, "elements": null, "nelements": null, "composition": null, "composition_reduced": null, "formula_pretty": "BaSe3", "formula_anonymous": "AB3", "chemsys": null, "volume": 234.39922365187726, "density": 5.301940277908506, "density_atomic": 29.299902956484658, "symmetry": null, "property_name": null, "material_id": "mp-7548", "deprecated": null, "deprecation_reasons": null, "last_updated": null, "origins": null, "warnings": null, "structure": {"@module": "pymatgen.core.structure", "@class": "Structure", "charge": 0, "lattice": {"matrix": [[4.29675126, 0.0, 0.0], [-0.0, 7.38597746, 0.0], [0.0, 0.0, 7.38597746]], "pbc": [true, true, true], "a": 4.29675126, "b": 7.38597746, "c": 7.38597746, "alpha": 90.0, "beta": 90.0, "gamma": 90.0, "volume": 234.39922365187726}, "properties": {}, "sites": [{"species": [{"element": "Ba", "occu": 1}], "abc": [0.0, 0.5, 0.5], "properties": {"magmom": -0.0}, "label": "Ba", "xyz": [0.0, 3.69298873, 3.69298873]}, {"species": [{"element": "Ba", "occu": 1}], "abc": [0.0, 0.0, -0.0], "properties": {"magmom": -0.0}, "label": "Ba", "xyz": [0.0, 0.0, 0.0]}, {"species": [{"element": "Se", "occu": 1}], "abc": [0.48444576, 0.80974977, 0.30974977], "properties": {"magmom": -0.0}, "label": "Se", "xyz": [2.0815429296816577, 5.980793549460185, 2.287804819460184]}, {"species": [{"element": "Se", "occu": 1}], "abc": [0.51555424, 0.30974977, 0.19025023], "properties": {"magmom": -0.0}, "label": "Se", "xyz": [2.2152083303183425, 2.287804819460184, 1.4051839105398158]}, {"species": [{"element": "Se", "occu": 1}], "abc": [0.17891909, 0.0, 0.5], "properties": {"magmom": -0.0}, "label": "Se", "xyz": [0.7687708253955534, 0.0, 3.69298873]}, {"species": [{"element": "Se", "occu": 1}], "abc": [0.82108091, 0.5, -0.0], "properties": {"magmom": -0.0}, "label": "Se", "xyz": [3.5279804346044465, 3.69298873, 0.0]}, {"species": [{"element": "Se", "occu": 1}], "abc": [0.48444576, 0.19025023, 0.69025023], "properties": {"magmom": -0.0}, "label": "Se", "xyz": [2.0815429296816577, 1.4051839105398158, 5.098172640539816]}, {"species": [{"element": "Se", "occu": 1}], "abc": [0.51555424, 0.69025023, 0.80974977], "properties": {"magmom": -0.0}, "label": "Se", "xyz": [2.2152083303183425, 5.098172640539816, 5.980793549460185]}]}, "task_ids": null, "uncorrected_energy_per_atom": null, "energy_per_atom": -4.492955081249999, "formation_energy_per_atom": -1.391277738007811, "energy_above_hull": 0.0, "is_stable": true, "equilibrium_reaction_energy_per_atom": null, "decomposes_to": null, "xas": null, "grain_boundaries": null, "band_gap": 0.926, "cbm": null, "vbm": null, "efermi": 2.62290274, "is_gap_direct": null, "is_metal": null, "es_source_calc_id": null, "bandstructure": null, "dos": null, "dos_energy_up": null, "dos_energy_down": null, "is_magnetic": null, "ordering": null, "total_magnetization": 0.0, "total_magnetization_normalized_vol": null, "total_magnetization_normalized_formula_units": null, "num_magnetic_sites": null, "num_unique_magnetic_sites": null, "types_of_magnetic_species": null, "bulk_modulus": null, "shear_modulus": null, "universal_anisotropy": null, "homogeneous_poisson": null, "e_total": null, "e_ionic": null, "e_electronic": null, "n": null, "e_ij_max": null, "weighted_surface_energy_EV_PER_ANG2": null, "weighted_surface_energy": null, "weighted_work_function": null, "surface_anisotropy": null, "shape_factor": null, "has_reconstructed": null, "possible_species": null, "has_props": null, "theoretical": null, "database_IDs": null, "fields_not_requested": ["builder_meta", "nsites", "elements", "nelements", "composition", "composition_reduced", "chemsys", "symmetry", "property_name", "deprecated", "deprecation_reasons", "last_updated", "origins", "warnings", "task_ids", "uncorrected_energy_per_atom", "equilibrium_reaction_energy_per_atom", "decomposes_to", "xas", "grain_boundaries", "cbm", "vbm", "is_gap_direct", "is_metal", "es_source_calc_id", "bandstructure", "dos", "dos_energy_up", "dos_energy_down", "is_magnetic", "ordering", "total_magnetization_normalized_vol", "total_magnetization_normalized_formula_units", "num_magnetic_sites", "num_unique_magnetic_sites", "types_of_magnetic_species", "bulk_modulus", "shear_modulus", "universal_anisotropy", "homogeneous_poisson", "e_total", "e_ionic", "e_electronic", "n", "e_ij_max", "weighted_surface_energy_EV_PER_ANG2", "weighted_surface_energy", "weighted_work_function", "surface_anisotropy", "shape_factor", "has_reconstructed", "possible_species", "has_props", "theoretical", "database_IDs"]}