{
  "builder_meta": null,
  "nsites": null,
  "elements": null,
  "nelements": null,
  "composition": null,
  "composition_reduced": null,
  "formula_pretty": "BaSe2",
  "formula_anonymous": "AB2",
  "chemsys": null,
  "volume": 204.26639959932737,
  "density": 4.80029195950115,
  "density_atomic": 34.04439993322123,
  "symmetry": null,
  "property_name": null,
  "material_id": "mp-7547",
  "deprecated": null,
  "deprecation_reasons": null,
  "last_updated": null,
  "origins": null,
  "warnings": null,
  "structure": {
    "@module": "pymatgen.core.structure",
    "@class": "Structure",
    "charge": 0,
    "lattice": {
      "matrix": [
        [4.77762161, -2e-8, 1.43274335],
        [2.30608959, 4.89481329, 0.9922097400000001],
        [-0.01494719, 0.02759915, 8.73193401]
      ],
      "pbc": [true, true, true],
      "a": 4.987827358210006,
      "b": 5.50106594299849,
      "c": 8.731990419518581,
      "alpha": 79.48689443477889,
      "beta": 73.40489490604433,
      "gamma": 63.04112916008104,
      "volume": 204.26639959932737
    },
    "properties": {},
    "sites": [
      {
        "species": [{ "element": "Ba", "occu": 1 }],
        "abc": [0.12802229, 0.25, 0.75],
        "properties": { "magmom": 0.0 },
        "label": "Ba",
        "xyz": [1.176954064265687, 1.2444026824395542, 6.980426027149272]
      },
      {
        "species": [{ "element": "Ba", "occu": 1 }],
        "abc": [0.87197771, 0.75, 0.25],
        "properties": { "magmom": 0.0 },
        "label": "Ba",
        "xyz": [5.891809945734313, 3.678009737560446, 4.176461072850729]
      },
      {
        "species": [{ "element": "Se", "occu": 1 }],
        "abc": [0.47303523000000003, 0.28736039, 0.0250273],
        "properties": { "magmom": 0.0 },
        "label": "Se",
        "xyz": [2.9222880532883733, 1.4072661787376737, 1.1813965899948922]
      },
      {
        "species": [{ "element": "Se", "occu": 1 }],
        "abc": [0.78542392, 0.21263961, 0.474972699999999],
        "properties": { "magmom": 0.0 },
        "label": "Se",
        "xyz": [4.235724777053858, 1.0539400160931436, 5.483724263414252]
      },
      {
        "species": [{ "element": "Se", "occu": 1 }],
        "abc": [0.21457608, 0.78736039, 0.5250273],
        "properties": { "magmom": 0.0 },
        "label": "Se",
        "xyz": [2.833039232946142, 3.8684724039068565, 5.673162836585739]
      },
      {
        "species": [{ "element": "Se", "occu": 1 }],
        "abc": [0.52696477, 0.71263961, 0.974972699999999],
        "properties": { "magmom": 0.0 },
        "label": "Se",
        "xyz": [4.146475956711626, 3.5151462412623267, 9.9754905100051]
      }
    ]
  },
  "task_ids": null,
  "uncorrected_energy_per_atom": null,
  "energy_per_atom": -4.678540316666667,
  "formation_energy_per_atom": -1.7082743515625,
  "energy_above_hull": 0.0,
  "is_stable": true,
  "equilibrium_reaction_energy_per_atom": null,
  "decomposes_to": null,
  "xas": null,
  "grain_boundaries": null,
  "band_gap": 0.6166,
  "cbm": null,
  "vbm": null,
  "efermi": 1.72622645,
  "is_gap_direct": null,
  "is_metal": null,
  "es_source_calc_id": null,
  "bandstructure": null,
  "dos": null,
  "dos_energy_up": null,
  "dos_energy_down": null,
  "is_magnetic": null,
  "ordering": null,
  "total_magnetization": 0.0,
  "total_magnetization_normalized_vol": null,
  "total_magnetization_normalized_formula_units": null,
  "num_magnetic_sites": null,
  "num_unique_magnetic_sites": null,
  "types_of_magnetic_species": null,
  "bulk_modulus": null,
  "shear_modulus": null,
  "universal_anisotropy": null,
  "homogeneous_poisson": null,
  "e_total": null,
  "e_ionic": null,
  "e_electronic": null,
  "n": null,
  "e_ij_max": null,
  "weighted_surface_energy_EV_PER_ANG2": null,
  "weighted_surface_energy": null,
  "weighted_work_function": null,
  "surface_anisotropy": null,
  "shape_factor": null,
  "has_reconstructed": null,
  "possible_species": null,
  "has_props": null,
  "theoretical": null,
  "database_IDs": null,
  "fields_not_requested": [
    "builder_meta",
    "nsites",
    "elements",
    "nelements",
    "composition",
    "composition_reduced",
    "chemsys",
    "symmetry",
    "property_name",
    "deprecated",
    "deprecation_reasons",
    "last_updated",
    "origins",
    "warnings",
    "task_ids",
    "uncorrected_energy_per_atom",
    "equilibrium_reaction_energy_per_atom",
    "decomposes_to",
    "xas",
    "grain_boundaries",
    "cbm",
    "vbm",
    "is_gap_direct",
    "is_metal",
    "es_source_calc_id",
    "bandstructure",
    "dos",
    "dos_energy_up",
    "dos_energy_down",
    "is_magnetic",
    "ordering",
    "total_magnetization_normalized_vol",
    "total_magnetization_normalized_formula_units",
    "num_magnetic_sites",
    "num_unique_magnetic_sites",
    "types_of_magnetic_species",
    "bulk_modulus",
    "shear_modulus",
    "universal_anisotropy",
    "homogeneous_poisson",
    "e_total",
    "e_ionic",
    "e_electronic",
    "n",
    "e_ij_max",
    "weighted_surface_energy_EV_PER_ANG2",
    "weighted_surface_energy",
    "weighted_work_function",
    "surface_anisotropy",
    "shape_factor",
    "has_reconstructed",
    "possible_species",
    "has_props",
    "theoretical",
    "database_IDs"
  ]
}
