{"builder_meta": null, "nsites": null, "elements": null, "nelements": null, "composition": null, "composition_reduced": null, "formula_pretty": "BaSi6", "formula_anonymous": "AB6", "chemsys": null, "volume": 283.3138327163368, "density": 3.585135700997907, "density_atomic": 20.236702336881198, "symmetry": null, "property_name": null, "material_id": "mp-1480", "deprecated": null, "deprecation_reasons": null, "last_updated": null, "origins": null, "warnings": null, "structure": {"@module": "pymatgen.core.structure", "@class": "Structure", "charge": 0, "lattice": {"matrix": [[2.252109, -5.238193, 0.0], [2.252109, 5.238193, 0.0], [0.0, 0.0, 12.007895]], "pbc": [true, true, true], "a": 5.701812067503628, "b": 5.701812067503628, "c": 12.007895, "alpha": 90.0, "beta": 90.0, "gamma": 133.47038753200508, "volume": 283.3138327163368}, "properties": {}, "sites": [{"species": [{"element": "Ba", "occu": 1}], "abc": [0.279531, 0.720468999999999, 0.25], "properties": {"magmom": -0.0}, "label": "Ba", "xyz": [2.2521089999999977, 2.3097183450339953, 3.00197375]}, {"species": [{"element": "Ba", "occu": 1}], "abc": [0.720468999999999, 0.279531, 0.75], "properties": {"magmom": 0.001}, "label": "Ba", "xyz": [2.2521089999999977, -2.3097183450339953, 9.00592125]}, {"species": [{"element": "Si", "occu": 1}], "abc": [0.978526999999999, 0.021473, 0.097769], "properties": {"magmom": 0.0}, "label": "Si", "xyz": [2.252108999999998, -5.013233563421995, 1.1739998862549998]}, {"species": [{"element": "Si", "occu": 1}], "abc": [0.021473, 0.978526999999999, 0.902231], "properties": {"magmom": 0.001}, "label": "Si", "xyz": [2.252108999999998, 5.013233563421995, 10.833895113745]}, {"species": [{"element": "Si", "occu": 1}], "abc": [0.7546600000000001, 0.24534000000000003, 0.463036], "properties": {"magmom": 0.0}, "label": "Si", "xyz": [2.2521090000000004, -2.6679164587600006, 5.56008766922]}, {"species": [{"element": "Si", "occu": 1}], "abc": [0.24534000000000003, 0.7546600000000001, 0.536964], "properties": {"magmom": 0.0}, "label": "Si", "xyz": [2.2521090000000004, 2.6679164587600006, 6.44780733078]}, {"species": [{"element": "Si", "occu": 1}], "abc": [0.24534000000000003, 0.7546600000000001, 0.963036], "properties": {"magmom": -0.0}, "label": "Si", "xyz": [2.2521090000000004, 2.6679164587600006, 11.56403516922]}, {"species": [{"element": "Si", "occu": 1}], "abc": [0.7546600000000001, 0.24534000000000003, 0.036964], "properties": {"magmom": -0.0}, "label": "Si", "xyz": [2.2521090000000004, -2.6679164587600006, 0.44385983077999996]}, {"species": [{"element": "Si", "occu": 1}], "abc": [0.437581, 0.562419, 0.646984999999999], "properties": {"magmom": -0.0}, "label": "Si", "xyz": [2.252109, 0.6539255377339996, 7.768927946574988]}, {"species": [{"element": "Si", "occu": 1}], "abc": [0.562419, 0.437581, 0.353014999999999], "properties": {"magmom": -0.001}, "label": "Si", "xyz": [2.252109, -0.6539255377339996, 4.238967053424988]}, {"species": [{"element": "Si", "occu": 1}], "abc": [0.562419, 0.437581, 0.146985], "properties": {"magmom": 0.0}, "label": "Si", "xyz": [2.252109, -0.6539255377339996, 1.764980446575]}, {"species": [{"element": "Si", "occu": 1}], "abc": [0.437581, 0.562419, 0.853015], "properties": {"magmom": 0.001}, "label": "Si", "xyz": [2.252109, 0.6539255377339996, 10.242914553424999]}, {"species": [{"element": "Si", "occu": 1}], "abc": [0.978526999999999, 0.021473, 0.402231], "properties": {"magmom": -0.0}, "label": "Si", "xyz": [2.252108999999998, -5.013233563421995, 4.8299476137449995]}, {"species": [{"element": "Si", "occu": 1}], "abc": [0.021473, 0.978526999999999, 0.597769], "properties": {"magmom": -0.0}, "label": "Si", "xyz": [2.252108999999998, 5.013233563421995, 7.177947386255]}]}, "task_ids": null, "uncorrected_energy_per_atom": null, "energy_per_atom": -4.945266193571428, "formation_energy_per_atom": -0.020854319285714, "energy_above_hull": 0.11635939488095201, "is_stable": false, "equilibrium_reaction_energy_per_atom": null, "decomposes_to": null, "xas": null, "grain_boundaries": null, "band_gap": 0.0, "cbm": null, "vbm": null, "efermi": 6.62109951, "is_gap_direct": null, "is_metal": null, "es_source_calc_id": null, "bandstructure": null, "dos": null, "dos_energy_up": null, "dos_energy_down": null, "is_magnetic": null, "ordering": null, "total_magnetization": 0.0023966, "total_magnetization_normalized_vol": null, "total_magnetization_normalized_formula_units": null, "num_magnetic_sites": null, "num_unique_magnetic_sites": null, "types_of_magnetic_species": null, "bulk_modulus": null, "shear_modulus": null, "universal_anisotropy": null, "homogeneous_poisson": null, "e_total": null, "e_ionic": null, "e_electronic": null, "n": null, "e_ij_max": null, "weighted_surface_energy_EV_PER_ANG2": null, "weighted_surface_energy": null, "weighted_work_function": null, "surface_anisotropy": null, "shape_factor": null, "has_reconstructed": null, "possible_species": null, "has_props": null, "theoretical": null, "database_IDs": null, "fields_not_requested": ["builder_meta", "nsites", "elements", "nelements", "composition", "composition_reduced", "chemsys", "symmetry", "property_name", "deprecated", "deprecation_reasons", "last_updated", "origins", "warnings", "task_ids", "uncorrected_energy_per_atom", "equilibrium_reaction_energy_per_atom", "decomposes_to", "xas", "grain_boundaries", "cbm", "vbm", "is_gap_direct", "is_metal", "es_source_calc_id", "bandstructure", "dos", "dos_energy_up", "dos_energy_down", "is_magnetic", "ordering", "total_magnetization_normalized_vol", "total_magnetization_normalized_formula_units", "num_magnetic_sites", "num_unique_magnetic_sites", "types_of_magnetic_species", "bulk_modulus", "shear_modulus", "universal_anisotropy", "homogeneous_poisson", "e_total", "e_ionic", "e_electronic", "n", "e_ij_max", "weighted_surface_energy_EV_PER_ANG2", "weighted_surface_energy", "weighted_work_function", "surface_anisotropy", "shape_factor", "has_reconstructed", "possible_species", "has_props", "theoretical", "database_IDs"]}