{"builder_meta": null, "nsites": null, "elements": null, "nelements": null, "composition": null, "composition_reduced": null, "formula_pretty": "BaSi", "formula_anonymous": "AB", "chemsys": null, "volume": 127.64995758408938, "density": 4.303548916936084, "density_atomic": 31.912489396022345, "symmetry": null, "property_name": null, "material_id": "mp-2499", "deprecated": null, "deprecation_reasons": null, "last_updated": null, "origins": null, "warnings": null, "structure": {"@module": "pymatgen.core.structure", "@class": "Structure", "charge": 0, "lattice": {"matrix": [[4.1494084, -0.0, -0.0], [0.0, 4.67582816, -1.97083349], [-0.0, 0.01685628, 6.57213854]], "pbc": [true, true, true], "a": 4.1494084, "b": 5.0742047285416625, "c": 6.572160156533678, "alpha": 112.70817851395572, "beta": 90.0, "gamma": 90.0, "volume": 127.64995758408938}, "properties": {}, "sites": [{"species": [{"element": "Ba", "occu": 1}], "abc": [0.25, 0.85989274, 0.71978549], "properties": {"magmom": -0.0}, "label": "Ba", "xyz": [1.0373521, 4.032843594030935, 3.035824549561922]}, {"species": [{"element": "Ba", "occu": 1}], "abc": [0.75, 0.14010726, 0.28021451], "properties": {"magmom": -0.0}, "label": "Ba", "xyz": [3.1120563000000003, 0.6598408459690644, 1.5654805004380783]}, {"species": [{"element": "Si", "occu": 1}], "abc": [0.25, 0.55714273, 0.11428547], "properties": {"magmom": -0.0}, "label": "Si", "xyz": [1.0373521, 2.6070300939555286, -0.34693560904501397]}, {"species": [{"element": "Si", "occu": 1}], "abc": [0.75, 0.44285727, 0.88571453], "properties": {"magmom": -0.0}, "label": "Si", "xyz": [3.1120563000000003, 2.0856543460444716, 4.948240659045014]}]}, "task_ids": null, "uncorrected_energy_per_atom": null, "energy_per_atom": -4.058126252499999, "formation_energy_per_atom": -0.385979767499999, "energy_above_hull": 0.0, "is_stable": true, "equilibrium_reaction_energy_per_atom": null, "decomposes_to": null, "xas": null, "grain_boundaries": null, "band_gap": 0.0, "cbm": null, "vbm": null, "efermi": 3.88676039, "is_gap_direct": null, "is_metal": null, "es_source_calc_id": null, "bandstructure": null, "dos": null, "dos_energy_up": null, "dos_energy_down": null, "is_magnetic": null, "ordering": null, "total_magnetization": 1e-07, "total_magnetization_normalized_vol": null, "total_magnetization_normalized_formula_units": null, "num_magnetic_sites": null, "num_unique_magnetic_sites": null, "types_of_magnetic_species": null, "bulk_modulus": null, "shear_modulus": null, "universal_anisotropy": null, "homogeneous_poisson": null, "e_total": null, "e_ionic": null, "e_electronic": null, "n": null, "e_ij_max": null, "weighted_surface_energy_EV_PER_ANG2": null, "weighted_surface_energy": null, "weighted_work_function": null, "surface_anisotropy": null, "shape_factor": null, "has_reconstructed": null, "possible_species": null, "has_props": null, "theoretical": null, "database_IDs": null, "fields_not_requested": ["builder_meta", "nsites", "elements", "nelements", "composition", "composition_reduced", "chemsys", "symmetry", "property_name", "deprecated", "deprecation_reasons", "last_updated", "origins", "warnings", "task_ids", "uncorrected_energy_per_atom", "equilibrium_reaction_energy_per_atom", "decomposes_to", "xas", "grain_boundaries", "cbm", "vbm", "is_gap_direct", "is_metal", "es_source_calc_id", "bandstructure", "dos", "dos_energy_up", "dos_energy_down", "is_magnetic", "ordering", "total_magnetization_normalized_vol", "total_magnetization_normalized_formula_units", "num_magnetic_sites", "num_unique_magnetic_sites", "types_of_magnetic_species", "bulk_modulus", "shear_modulus", "universal_anisotropy", "homogeneous_poisson", "e_total", "e_ionic", "e_electronic", "n", "e_ij_max", "weighted_surface_energy_EV_PER_ANG2", "weighted_surface_energy", "weighted_work_function", "surface_anisotropy", "shape_factor", "has_reconstructed", "possible_species", "has_props", "theoretical", "database_IDs"]}