{"builder_meta": null, "nsites": null, "elements": null, "nelements": null, "composition": null, "composition_reduced": null, "formula_pretty": "BaSi2", "formula_anonymous": "AB2", "chemsys": null, "volume": 713.4763881255375, "density": 3.602765206042742, "density_atomic": 29.728182838564063, "symmetry": null, "property_name": null, "material_id": "mp-1477", "deprecated": null, "deprecation_reasons": null, "last_updated": null, "origins": null, "warnings": null, "structure": {"@module": "pymatgen.core.structure", "@class": "Structure", "charge": 0, "lattice": {"matrix": [[6.78726579, 0.0, 0.0], [0.0, 9.02691849, 0.0], [0.0, 0.0, 11.64515377]], "pbc": [true, true, true], "a": 6.78726579, "b": 9.02691849, "c": 11.64515377, "alpha": 90.0, "beta": 90.0, "gamma": 90.0, "volume": 713.4763881255375}, "properties": {}, "sites": [{"species": [{"element": "Ba", "occu": 1}], "abc": [0.25, 0.34073544, 0.40497926], "properties": {"magmom": -0.0}, "label": "Ba", "xyz": [1.6968164475, 3.0757910435342857, 4.716045756360811]}, {"species": [{"element": "Ba", "occu": 1}], "abc": [0.75, 0.65926456, 0.59502074], "properties": {"magmom": -0.0}, "label": "Ba", "xyz": [5.0904493425, 5.951127446465715, 6.9291080136391905]}, {"species": [{"element": "Ba", "occu": 1}], "abc": [0.25, 0.84073544, 0.09502074], "properties": {"magmom": -0.0}, "label": "Ba", "xyz": [1.6968164475, 7.589250288534285, 1.10653112863919]}, {"species": [{"element": "Ba", "occu": 1}], "abc": [0.75, 0.15926456, 0.9049792600000001], "properties": {"magmom": -0.0}, "label": "Ba", "xyz": [5.0904493425, 1.4376682014657143, 10.538622641360812]}, {"species": [{"element": "Ba", "occu": 1}], "abc": [0.25, 0.51451081, 0.8072025700000001], "properties": {"magmom": -0.0}, "label": "Ba", "xyz": [1.6968164475, 4.644447144093877, 9.39999805118919]}, {"species": [{"element": "Ba", "occu": 1}], "abc": [0.75, 0.48548919, 0.19279743], "properties": {"magmom": -0.0}, "label": "Ba", "xyz": [5.0904493425, 4.382471345906123, 2.245155718810811]}, {"species": [{"element": "Ba", "occu": 1}], "abc": [0.25, 0.01451081, 0.69279743], "properties": {"magmom": -0.0}, "label": "Ba", "xyz": [1.6968164475, 0.1309878990938769, 8.067732603810812]}, {"species": [{"element": "Ba", "occu": 1}], "abc": [0.75, 0.98548919, 0.30720257], "properties": {"magmom": -0.0}, "label": "Ba", "xyz": [5.0904493425, 8.895930590906124, 3.5774211661891893]}, {"species": [{"element": "Si", "occu": 1}], "abc": [0.92597242, 0.30495896, 0.64400901], "properties": {"magmom": 0.0}, "label": "Si", "xyz": [6.284820928749512, 2.75283967471517, 7.499583950715468]}, {"species": [{"element": "Si", "occu": 1}], "abc": [0.42597242, 0.69504104, 0.35599099], "properties": {"magmom": 0.0}, "label": "Si", "xyz": [2.891188033749512, 6.274078815284829, 4.145569819284533]}, {"species": [{"element": "Si", "occu": 1}], "abc": [0.57402758, 0.80495896, 0.85599099], "properties": {"magmom": 0.0}, "label": "Si", "xyz": [3.896077756250488, 7.266298919715171, 9.968146704284532]}, {"species": [{"element": "Si", "occu": 1}], "abc": [0.07402758, 0.19504104, 0.14400901], "properties": {"magmom": 0.0}, "label": "Si", "xyz": [0.5024448612504882, 1.7606195702848295, 1.6770070657154676]}, {"species": [{"element": "Si", "occu": 1}], "abc": [0.07402758, 0.69504104, 0.35599099], "properties": {"magmom": 0.0}, "label": "Si", "xyz": [0.5024448612504882, 6.274078815284829, 4.145569819284533]}, {"species": [{"element": "Si", "occu": 1}], "abc": [0.57402758, 0.30495896, 0.64400901], "properties": {"magmom": 0.0}, "label": "Si", "xyz": [3.896077756250488, 2.75283967471517, 7.499583950715468]}, {"species": [{"element": "Si", "occu": 1}], "abc": [0.42597242, 0.19504104, 0.14400901], "properties": {"magmom": 0.0}, "label": "Si", "xyz": [2.891188033749512, 1.7606195702848295, 1.6770070657154676]}, {"species": [{"element": "Si", "occu": 1}], "abc": [0.92597242, 0.80495896, 0.85599099], "properties": {"magmom": 0.0}, "label": "Si", "xyz": [6.284820928749512, 7.266298919715171, 9.968146704284532]}, {"species": [{"element": "Si", "occu": 1}], "abc": [0.75, 0.80090233, 0.033143570000000004], "properties": {"magmom": 0.0}, "label": "Si", "xyz": [5.0904493425, 7.229680051361082, 0.38596196913675895]}, {"species": [{"element": "Si", "occu": 1}], "abc": [0.25, 0.19909767, 0.96685643], "properties": {"magmom": 0.0}, "label": "Si", "xyz": [1.6968164475, 1.7972384386389184, 11.259191800863242]}, {"species": [{"element": "Si", "occu": 1}], "abc": [0.75, 0.30090233, 0.46685643], "properties": {"magmom": 0.0}, "label": "Si", "xyz": [5.0904493425, 2.7162208063610818, 5.436614915863241]}, {"species": [{"element": "Si", "occu": 1}], "abc": [0.25, 0.69909767, 0.53314357], "properties": {"magmom": 0.0}, "label": "Si", "xyz": [1.6968164475, 6.310697683638918, 6.208538854136759]}, {"species": [{"element": "Si", "occu": 1}], "abc": [0.75, 0.585670399999999, 0.91041523], "properties": {"magmom": -0.0}, "label": "Si", "xyz": [5.0904493425, 5.286798962805687, 10.601925347899918]}, {"species": [{"element": "Si", "occu": 1}], "abc": [0.25, 0.414329599999999, 0.08958477000000001], "properties": {"magmom": -0.0}, "label": "Si", "xyz": [1.6968164475, 3.7401195271942953, 1.043228422100083]}, {"species": [{"element": "Si", "occu": 1}], "abc": [0.75, 0.0856704, 0.58958477], "properties": {"magmom": -0.0}, "label": "Si", "xyz": [5.0904493425, 0.7733397178056959, 6.865805307100083]}, {"species": [{"element": "Si", "occu": 1}], "abc": [0.25, 0.9143296, 0.41041523], "properties": {"magmom": -0.0}, "label": "Si", "xyz": [1.6968164475, 8.253578772194304, 4.779348462899917]}]}, "task_ids": null, "uncorrected_energy_per_atom": null, "energy_per_atom": -4.569430252083339, "formation_energy_per_atom": -0.312893252083338, "energy_above_hull": 0.0, "is_stable": true, "equilibrium_reaction_energy_per_atom": null, "decomposes_to": null, "xas": null, "grain_boundaries": null, "band_gap": 0.7812999999999991, "cbm": null, "vbm": null, "efermi": 3.44813571, "is_gap_direct": null, "is_metal": null, "es_source_calc_id": null, "bandstructure": null, "dos": null, "dos_energy_up": null, "dos_energy_down": null, "is_magnetic": null, "ordering": null, "total_magnetization": 0.0, "total_magnetization_normalized_vol": null, "total_magnetization_normalized_formula_units": null, "num_magnetic_sites": null, "num_unique_magnetic_sites": null, "types_of_magnetic_species": null, "bulk_modulus": null, "shear_modulus": null, "universal_anisotropy": null, "homogeneous_poisson": null, "e_total": null, "e_ionic": null, "e_electronic": null, "n": null, "e_ij_max": null, "weighted_surface_energy_EV_PER_ANG2": null, "weighted_surface_energy": null, "weighted_work_function": null, "surface_anisotropy": null, "shape_factor": null, "has_reconstructed": null, "possible_species": null, "has_props": null, "theoretical": null, "database_IDs": null, "fields_not_requested": ["builder_meta", "nsites", "elements", "nelements", "composition", "composition_reduced", "chemsys", "symmetry", "property_name", "deprecated", "deprecation_reasons", "last_updated", "origins", "warnings", "task_ids", "uncorrected_energy_per_atom", "equilibrium_reaction_energy_per_atom", "decomposes_to", "xas", "grain_boundaries", "cbm", "vbm", "is_gap_direct", "is_metal", "es_source_calc_id", "bandstructure", "dos", "dos_energy_up", "dos_energy_down", "is_magnetic", "ordering", "total_magnetization_normalized_vol", "total_magnetization_normalized_formula_units", "num_magnetic_sites", "num_unique_magnetic_sites", "types_of_magnetic_species", "bulk_modulus", "shear_modulus", "universal_anisotropy", "homogeneous_poisson", "e_total", "e_ionic", "e_electronic", "n", "e_ij_max", "weighted_surface_energy_EV_PER_ANG2", "weighted_surface_energy", "weighted_work_function", "surface_anisotropy", "shape_factor", "has_reconstructed", "possible_species", "has_props", "theoretical", "database_IDs"]}