{
  "builder_meta": null,
  "nsites": null,
  "elements": null,
  "nelements": null,
  "composition": null,
  "composition_reduced": null,
  "formula_pretty": "BaSn5",
  "formula_anonymous": "AB5",
  "chemsys": null,
  "volume": 183.81433615245118,
  "density": 6.602585177974563,
  "density_atomic": 30.635722692075195,
  "symmetry": null,
  "property_name": null,
  "material_id": "mp-571353",
  "deprecated": null,
  "deprecation_reasons": null,
  "last_updated": null,
  "origins": null,
  "warnings": null,
  "structure": {
    "@module": "pymatgen.core.structure",
    "@class": "Structure",
    "charge": 0,
    "lattice": {
      "matrix": [
        [5.38734558, -1e-8, -0.0],
        [-2.69367381, 4.66557926, 0.0],
        [0.0, 0.0, 7.31305726]
      ],
      "pbc": [true, true, true],
      "a": 5.38734558,
      "b": 5.387347067529812,
      "c": 7.31305726,
      "alpha": 90.0,
      "beta": 90.0,
      "gamma": 120.00000349866544,
      "volume": 183.81433615245118
    },
    "properties": {},
    "sites": [
      {
        "species": [{ "element": "Ba", "occu": 1 }],
        "abc": [-0.0, -0.0, 0.5],
        "properties": { "magmom": -0.0 },
        "label": "Ba",
        "xyz": [0.0, 0.0, 3.65652863]
      },
      {
        "species": [{ "element": "Sn", "occu": 1 }],
        "abc": [0.666667, 0.333333, 0.79599496],
        "properties": { "magmom": 0.0 },
        "label": "Sn",
        "xyz": [2.69367514367313, 1.55519152480691, 5.82115672115141]
      },
      {
        "species": [{ "element": "Sn", "occu": 1 }],
        "abc": [-0.0, -0.0, -0.0],
        "properties": { "magmom": 0.0 },
        "label": "Sn",
        "xyz": [0.0, 0.0, 0.0]
      },
      {
        "species": [{ "element": "Sn", "occu": 1 }],
        "abc": [0.666667, 0.333333, 0.20400504],
        "properties": { "magmom": 0.0 },
        "label": "Sn",
        "xyz": [2.69367514367313, 1.55519152480691, 1.4919005388485904]
      },
      {
        "species": [{ "element": "Sn", "occu": 1 }],
        "abc": [0.333333, 0.666667, 0.20400504],
        "properties": { "magmom": 0.0 },
        "label": "Sn",
        "xyz": [-3.3736731301914347e-6, 3.1103877251930903, 1.4919005388485904]
      },
      {
        "species": [{ "element": "Sn", "occu": 1 }],
        "abc": [0.333333, 0.666667, 0.79599496],
        "properties": { "magmom": 0.0 },
        "label": "Sn",
        "xyz": [-3.3736731301914347e-6, 3.1103877251930903, 5.82115672115141]
      }
    ]
  },
  "task_ids": null,
  "uncorrected_energy_per_atom": null,
  "energy_per_atom": -3.930369183333331,
  "formation_energy_per_atom": -0.269230147499996,
  "energy_above_hull": 0.026217794166670003,
  "is_stable": false,
  "equilibrium_reaction_energy_per_atom": null,
  "decomposes_to": null,
  "xas": null,
  "grain_boundaries": null,
  "band_gap": 0.0,
  "cbm": null,
  "vbm": null,
  "efermi": 6.20707208,
  "is_gap_direct": null,
  "is_metal": null,
  "es_source_calc_id": null,
  "bandstructure": null,
  "dos": null,
  "dos_energy_up": null,
  "dos_energy_down": null,
  "is_magnetic": null,
  "ordering": null,
  "total_magnetization": 0.0,
  "total_magnetization_normalized_vol": null,
  "total_magnetization_normalized_formula_units": null,
  "num_magnetic_sites": null,
  "num_unique_magnetic_sites": null,
  "types_of_magnetic_species": null,
  "bulk_modulus": null,
  "shear_modulus": null,
  "universal_anisotropy": null,
  "homogeneous_poisson": null,
  "e_total": null,
  "e_ionic": null,
  "e_electronic": null,
  "n": null,
  "e_ij_max": null,
  "weighted_surface_energy_EV_PER_ANG2": null,
  "weighted_surface_energy": null,
  "weighted_work_function": null,
  "surface_anisotropy": null,
  "shape_factor": null,
  "has_reconstructed": null,
  "possible_species": null,
  "has_props": null,
  "theoretical": null,
  "database_IDs": null,
  "fields_not_requested": [
    "builder_meta",
    "nsites",
    "elements",
    "nelements",
    "composition",
    "composition_reduced",
    "chemsys",
    "symmetry",
    "property_name",
    "deprecated",
    "deprecation_reasons",
    "last_updated",
    "origins",
    "warnings",
    "task_ids",
    "uncorrected_energy_per_atom",
    "equilibrium_reaction_energy_per_atom",
    "decomposes_to",
    "xas",
    "grain_boundaries",
    "cbm",
    "vbm",
    "is_gap_direct",
    "is_metal",
    "es_source_calc_id",
    "bandstructure",
    "dos",
    "dos_energy_up",
    "dos_energy_down",
    "is_magnetic",
    "ordering",
    "total_magnetization_normalized_vol",
    "total_magnetization_normalized_formula_units",
    "num_magnetic_sites",
    "num_unique_magnetic_sites",
    "types_of_magnetic_species",
    "bulk_modulus",
    "shear_modulus",
    "universal_anisotropy",
    "homogeneous_poisson",
    "e_total",
    "e_ionic",
    "e_electronic",
    "n",
    "e_ij_max",
    "weighted_surface_energy_EV_PER_ANG2",
    "weighted_surface_energy",
    "weighted_work_function",
    "surface_anisotropy",
    "shape_factor",
    "has_reconstructed",
    "possible_species",
    "has_props",
    "theoretical",
    "database_IDs"
  ]
}
