{"builder_meta": null, "nsites": null, "elements": null, "nelements": null, "composition": null, "composition_reduced": null, "formula_pretty": "BaSn3", "formula_anonymous": "AB3", "chemsys": null, "volume": 264.17659145044325, "density": 6.203461265726474, "density_atomic": 33.02207393130541, "symmetry": null, "property_name": null, "material_id": "mp-7759", "deprecated": null, "deprecation_reasons": null, "last_updated": null, "origins": null, "warnings": null, "structure": {"@module": "pymatgen.core.structure", "@class": "Structure", "charge": 0, "lattice": {"matrix": [[7.34786896, -3.5170000000000004e-05, 6.41e-06], [-3.67396434, 6.36352301, -1.2800000000000001e-05], [5.32e-06, -8.53e-06, 5.64984471]], "pbc": [true, true, true], "a": 7.347868960086965, "b": 7.347954754253385, "c": 5.649844710008944, "alpha": 90.00020169804527, "beta": 89.99989606615492, "gamma": 120.00015685832722, "volume": 264.17659145044325}, "properties": {}, "sites": [{"species": [{"element": "Ba", "occu": 1}], "abc": [0.333333, 0.666667, 0.25], "properties": {"magmom": -0.0}, "label": "Ba", "xyz": [-2.2250611100193495e-05, 4.242336938686059, 1.41245478082693]}, {"species": [{"element": "Ba", "occu": 1}], "abc": [0.666667, 0.333333, 0.75], "properties": {"magmom": -0.0}, "label": "Ba", "xyz": [3.6739321906111, 2.12114237131394, 4.23738353917307]}, {"species": [{"element": "Sn", "occu": 1}], "abc": [0.27318433000000003, 0.13659166, 0.25], "properties": {"magmom": 0.0}, "label": "Sn", "xyz": [1.5054911007839924, 0.8691924309912105, 1.4124611802383074]}, {"species": [{"element": "Sn", "occu": 1}], "abc": [0.13659166, 0.27318433000000003, 0.75], "properties": {"magmom": 0.0}, "label": "Sn", "xyz": [-7.877957918854088e-06, 1.7384035684977512, 4.2373809112931164]}, {"species": [{"element": "Sn", "occu": 1}], "abc": [0.13659266, 0.86340734, 0.75], "properties": {"magmom": 0.0}, "label": "Sn", "xyz": [-2.1684588214764218, 5.49430127362904, 4.237373356444999]}, {"species": [{"element": "Sn", "occu": 1}], "abc": [0.86340734, 0.13659266, 0.25], "properties": {"magmom": 0.0}, "label": "Sn", "xyz": [5.842368761476422, 0.8691780363709588, 1.4124649635550015]}, {"species": [{"element": "Sn", "occu": 1}], "abc": [0.86340834, 0.72681567, 0.25], "properties": {"magmom": 0.0}, "label": "Sn", "xyz": [3.6739178179579177, 4.625075741502249, 1.4124574087068833]}, {"species": [{"element": "Sn", "occu": 1}], "abc": [0.72681567, 0.86340834, 0.75], "properties": {"magmom": 0.0}, "label": "Sn", "xyz": [2.1684188392160078, 5.494286879008789, 4.237377139761692]}]}, "task_ids": null, "uncorrected_energy_per_atom": null, "energy_per_atom": -3.930094538750001, "formation_energy_per_atom": -0.44317191250000004, "energy_above_hull": 0.0, "is_stable": true, "equilibrium_reaction_energy_per_atom": null, "decomposes_to": null, "xas": null, "grain_boundaries": null, "band_gap": 0.0, "cbm": null, "vbm": null, "efermi": 5.99876432, "is_gap_direct": null, "is_metal": null, "es_source_calc_id": null, "bandstructure": null, "dos": null, "dos_energy_up": null, "dos_energy_down": null, "is_magnetic": null, "ordering": null, "total_magnetization": 3e-07, "total_magnetization_normalized_vol": null, "total_magnetization_normalized_formula_units": null, "num_magnetic_sites": null, "num_unique_magnetic_sites": null, "types_of_magnetic_species": null, "bulk_modulus": null, "shear_modulus": null, "universal_anisotropy": null, "homogeneous_poisson": null, "e_total": null, "e_ionic": null, "e_electronic": null, "n": null, "e_ij_max": null, "weighted_surface_energy_EV_PER_ANG2": null, "weighted_surface_energy": null, "weighted_work_function": null, "surface_anisotropy": null, "shape_factor": null, "has_reconstructed": null, "possible_species": null, "has_props": null, "theoretical": null, "database_IDs": null, "fields_not_requested": ["builder_meta", "nsites", "elements", "nelements", "composition", "composition_reduced", "chemsys", "symmetry", "property_name", "deprecated", "deprecation_reasons", "last_updated", "origins", "warnings", "task_ids", "uncorrected_energy_per_atom", "equilibrium_reaction_energy_per_atom", "decomposes_to", "xas", "grain_boundaries", "cbm", "vbm", "is_gap_direct", "is_metal", "es_source_calc_id", "bandstructure", "dos", "dos_energy_up", "dos_energy_down", "is_magnetic", "ordering", "total_magnetization_normalized_vol", "total_magnetization_normalized_formula_units", "num_magnetic_sites", "num_unique_magnetic_sites", "types_of_magnetic_species", "bulk_modulus", "shear_modulus", "universal_anisotropy", "homogeneous_poisson", "e_total", "e_ionic", "e_electronic", "n", "e_ij_max", "weighted_surface_energy_EV_PER_ANG2", "weighted_surface_energy", "weighted_work_function", "surface_anisotropy", "shape_factor", "has_reconstructed", "possible_species", "has_props", "theoretical", "database_IDs"]}