{"builder_meta": null, "nsites": null, "elements": null, "nelements": null, "composition": null, "composition_reduced": null, "formula_pretty": "BaTe2", "formula_anonymous": "AB2", "chemsys": null, "volume": 239.7574117339152, "density": 5.437216004973213, "density_atomic": 39.9595686223192, "symmetry": null, "property_name": null, "material_id": "mp-2150", "deprecated": null, "deprecation_reasons": null, "last_updated": null, "origins": null, "warnings": null, "structure": {"@module": "pymatgen.core.structure", "@class": "Structure", "charge": 0, "lattice": {"matrix": [[6.16956027, -0.02519389, -2.992959319999999], [-3.74271791, 5.67933553, -0.87127032], [-0.016601730000000002, 0.02519389, 6.8571848200000005]], "pbc": [true, true, true], "a": 6.857252667681909, "b": 6.857251737151557, "c": 6.857251198925905, "alpha": 97.04752895397405, "beta": 116.01801763977653, "gamma": 116.01801046518706, "volume": 239.75741173391523}, "properties": {}, "sites": [{"species": [{"element": "Ba", "occu": 1}], "abc": [0.0, 0.75, 0.75], "properties": {"magmom": -0.0}, "label": "Ba", "xyz": [-2.8194897300000004, 4.278397065, 4.489435875]}, {"species": [{"element": "Ba", "occu": 1}], "abc": [0.0, 0.25, 0.25], "properties": {"magmom": -0.0}, "label": "Ba", "xyz": [-0.93982991, 1.426132355, 1.4964786250000002]}, {"species": [{"element": "Te", "occu": 1}], "abc": [0.22787098, 0.36393499, 0.8639349900000001], "properties": {"magmom": -0.0}, "label": "Te", "xyz": [0.02941492430376081, 2.082933846018094, 4.925067570349823]}, {"species": [{"element": "Te", "occu": 1}], "abc": [0.5, 0.8639349900000001, 0.63606501], "properties": {"magmom": -0.0}, "label": "Te", "xyz": [-0.15924460470713872, 4.9100046912119835, 2.112414755908653]}, {"species": [{"element": "Te", "occu": 1}], "abc": [0.77212902, 0.63606501, 0.13606501000000001], "properties": {"magmom": -0.0}, "label": "Te", "xyz": [2.3808257056962385, 3.596401683981907, -1.9321123903498205]}, {"species": [{"element": "Te", "occu": 1}], "abc": [0.5, 0.13606501000000001, 0.36393499], "properties": {"magmom": -0.0}, "label": "Te", "xyz": [2.569485234707138, 0.7693308387880166, 0.8805404240913492]}]}, "task_ids": null, "uncorrected_energy_per_atom": null, "energy_per_atom": -4.209713794999999, "formation_energy_per_atom": -1.474518219444442, "energy_above_hull": 0.0, "is_stable": true, "equilibrium_reaction_energy_per_atom": null, "decomposes_to": null, "xas": null, "grain_boundaries": null, "band_gap": 0.12530000000000002, "cbm": null, "vbm": null, "efermi": 4.25340327, "is_gap_direct": null, "is_metal": null, "es_source_calc_id": null, "bandstructure": null, "dos": null, "dos_energy_up": null, "dos_energy_down": null, "is_magnetic": null, "ordering": null, "total_magnetization": 0.0, "total_magnetization_normalized_vol": null, "total_magnetization_normalized_formula_units": null, "num_magnetic_sites": null, "num_unique_magnetic_sites": null, "types_of_magnetic_species": null, "bulk_modulus": null, "shear_modulus": null, "universal_anisotropy": null, "homogeneous_poisson": null, "e_total": null, "e_ionic": null, "e_electronic": null, "n": null, "e_ij_max": null, "weighted_surface_energy_EV_PER_ANG2": null, "weighted_surface_energy": null, "weighted_work_function": null, "surface_anisotropy": null, "shape_factor": null, "has_reconstructed": null, "possible_species": null, "has_props": null, "theoretical": null, "database_IDs": null, "fields_not_requested": ["builder_meta", "nsites", "elements", "nelements", "composition", "composition_reduced", "chemsys", "symmetry", "property_name", "deprecated", "deprecation_reasons", "last_updated", "origins", "warnings", "task_ids", "uncorrected_energy_per_atom", "equilibrium_reaction_energy_per_atom", "decomposes_to", "xas", "grain_boundaries", "cbm", "vbm", "is_gap_direct", "is_metal", "es_source_calc_id", "bandstructure", "dos", "dos_energy_up", "dos_energy_down", "is_magnetic", "ordering", "total_magnetization_normalized_vol", "total_magnetization_normalized_formula_units", "num_magnetic_sites", "num_unique_magnetic_sites", "types_of_magnetic_species", "bulk_modulus", "shear_modulus", "universal_anisotropy", "homogeneous_poisson", "e_total", "e_ionic", "e_electronic", "n", "e_ij_max", "weighted_surface_energy_EV_PER_ANG2", "weighted_surface_energy", "weighted_work_function", "surface_anisotropy", "shape_factor", "has_reconstructed", "possible_species", "has_props", "theoretical", "database_IDs"]}