{"builder_meta": null, "nsites": null, "elements": null, "nelements": null, "composition": null, "composition_reduced": null, "formula_pretty": "BaTe3", "formula_anonymous": "AB3", "chemsys": null, "volume": 292.64589875671544, "density": 5.902636645603349, "density_atomic": 36.58073734458943, "symmetry": null, "property_name": null, "material_id": "mp-8234", "deprecated": null, "deprecation_reasons": null, "last_updated": null, "origins": null, "warnings": null, "structure": {"@module": "pymatgen.core.structure", "@class": "Structure", "charge": 0, "lattice": {"matrix": [[4.48622749, 0.0, -0.0], [-0.0, 8.0766372, -0.0], [-0.0, -0.0, 8.0766372]], "pbc": [true, true, true], "a": 4.48622749, "b": 8.0766372, "c": 8.0766372, "alpha": 90.0, "beta": 90.0, "gamma": 90.0, "volume": 292.64589875671544}, "properties": {}, "sites": [{"species": [{"element": "Ba", "occu": 1}], "abc": [0.0, 0.5, 0.5], "properties": {"magmom": -0.0}, "label": "Ba", "xyz": [0.0, 4.0383186, 4.0383186]}, {"species": [{"element": "Ba", "occu": 1}], "abc": [0.0, -0.0, -0.0], "properties": {"magmom": -0.0}, "label": "Ba", "xyz": [0.0, 0.0, 0.0]}, {"species": [{"element": "Te", "occu": 1}], "abc": [0.49253965, 0.80056401, 0.30056401], "properties": {"magmom": 0.0}, "label": "Te", "xyz": [2.2096449177449786, 6.465865064147172, 2.4275464641471722]}, {"species": [{"element": "Te", "occu": 1}], "abc": [0.50746035, 0.30056401, 0.19943599], "properties": {"magmom": 0.0}, "label": "Te", "xyz": [2.2765825722550215, 2.4275464641471722, 1.6107721358528282]}, {"species": [{"element": "Te", "occu": 1}], "abc": [0.12814062, -0.0, 0.5], "properties": {"magmom": 0.0}, "label": "Te", "xyz": [0.5748679720296439, 0.0, 4.0383186]}, {"species": [{"element": "Te", "occu": 1}], "abc": [0.8718593800000001, 0.5, -0.0], "properties": {"magmom": 0.0}, "label": "Te", "xyz": [3.9113595179703564, 4.0383186, 0.0]}, {"species": [{"element": "Te", "occu": 1}], "abc": [0.49253965, 0.19943599, 0.69943599], "properties": {"magmom": 0.0}, "label": "Te", "xyz": [2.2096449177449786, 1.6107721358528282, 5.649090735852829]}, {"species": [{"element": "Te", "occu": 1}], "abc": [0.50746035, 0.69943599, 0.80056401], "properties": {"magmom": 0.0}, "label": "Te", "xyz": [2.2765825722550215, 5.649090735852829, 6.465865064147172]}]}, "task_ids": null, "uncorrected_energy_per_atom": null, "energy_per_atom": -4.038821412499999, "formation_energy_per_atom": -1.201598257499998, "energy_above_hull": 0.0, "is_stable": true, "equilibrium_reaction_energy_per_atom": null, "decomposes_to": null, "xas": null, "grain_boundaries": null, "band_gap": 0.8198000000000001, "cbm": null, "vbm": null, "efermi": 4.48828638, "is_gap_direct": null, "is_metal": null, "es_source_calc_id": null, "bandstructure": null, "dos": null, "dos_energy_up": null, "dos_energy_down": null, "is_magnetic": null, "ordering": null, "total_magnetization": 0.0, "total_magnetization_normalized_vol": null, "total_magnetization_normalized_formula_units": null, "num_magnetic_sites": null, "num_unique_magnetic_sites": null, "types_of_magnetic_species": null, "bulk_modulus": null, "shear_modulus": null, "universal_anisotropy": null, "homogeneous_poisson": null, "e_total": null, "e_ionic": null, "e_electronic": null, "n": null, "e_ij_max": null, "weighted_surface_energy_EV_PER_ANG2": null, "weighted_surface_energy": null, "weighted_work_function": null, "surface_anisotropy": null, "shape_factor": null, "has_reconstructed": null, "possible_species": null, "has_props": null, "theoretical": null, "database_IDs": null, "fields_not_requested": ["builder_meta", "nsites", "elements", "nelements", "composition", "composition_reduced", "chemsys", "symmetry", "property_name", "deprecated", "deprecation_reasons", "last_updated", "origins", "warnings", "task_ids", "uncorrected_energy_per_atom", "equilibrium_reaction_energy_per_atom", "decomposes_to", "xas", "grain_boundaries", "cbm", "vbm", "is_gap_direct", "is_metal", "es_source_calc_id", "bandstructure", "dos", "dos_energy_up", "dos_energy_down", "is_magnetic", "ordering", "total_magnetization_normalized_vol", "total_magnetization_normalized_formula_units", "num_magnetic_sites", "num_unique_magnetic_sites", "types_of_magnetic_species", "bulk_modulus", "shear_modulus", "universal_anisotropy", "homogeneous_poisson", "e_total", "e_ionic", "e_electronic", "n", "e_ij_max", "weighted_surface_energy_EV_PER_ANG2", "weighted_surface_energy", "weighted_work_function", "surface_anisotropy", "shape_factor", "has_reconstructed", "possible_species", "has_props", "theoretical", "database_IDs"]}