{"builder_meta": null, "nsites": null, "elements": null, "nelements": null, "composition": null, "composition_reduced": null, "formula_pretty": "BaTh", "formula_anonymous": "AB", "chemsys": null, "volume": 80.37353865073548, "density": 7.631182131128431, "density_atomic": 40.18676932536774, "symmetry": null, "property_name": null, "material_id": "mp-1183396", "deprecated": null, "deprecation_reasons": null, "last_updated": null, "origins": null, "warnings": null, "structure": {"@module": "pymatgen.core.structure", "@class": "Structure", "charge": 0, "lattice": {"matrix": [[3.775789, 0.0, 0.0], [-1.887894, 3.269922, 0.0], [0.0, 0.0, 6.509805]], "pbc": [true, true, true], "a": 3.775789, "b": 3.775782520394945, "c": 6.509805, "alpha": 90.0, "beta": 90.0, "gamma": 120.00004800698109, "volume": 80.37353865073548}, "properties": {}, "sites": [{"species": [{"element": "Ba", "occu": 1}], "abc": [0.666666, 0.333331999999999, 0.75], "properties": {"magmom": 0.001}, "label": "Ba", "xyz": [1.887894666666002, 1.0899696401039969, 4.88235375]}, {"species": [{"element": "Th", "occu": 1}], "abc": [0.333333999999999, 0.666667999999999, 0.25], "properties": {"magmom": -0.0}, "label": "Th", "xyz": [3.3333399818147313e-07, 2.179952359895997, 1.62745125]}]}, "task_ids": null, "uncorrected_energy_per_atom": null, "energy_per_atom": -4.22259429, "formation_energy_per_atom": 0.443822305000002, "energy_above_hull": 0.443822305000002, "is_stable": false, "equilibrium_reaction_energy_per_atom": null, "decomposes_to": null, "xas": null, "grain_boundaries": null, "band_gap": 0.0, "cbm": null, "vbm": null, "efermi": 4.6662772, "is_gap_direct": null, "is_metal": null, "es_source_calc_id": null, "bandstructure": null, "dos": null, "dos_energy_up": null, "dos_energy_down": null, "is_magnetic": null, "ordering": null, "total_magnetization": 0.003575999999999, "total_magnetization_normalized_vol": null, "total_magnetization_normalized_formula_units": null, "num_magnetic_sites": null, "num_unique_magnetic_sites": null, "types_of_magnetic_species": null, "bulk_modulus": null, "shear_modulus": null, "universal_anisotropy": null, "homogeneous_poisson": null, "e_total": null, "e_ionic": null, "e_electronic": null, "n": null, "e_ij_max": null, "weighted_surface_energy_EV_PER_ANG2": null, "weighted_surface_energy": null, "weighted_work_function": null, "surface_anisotropy": null, "shape_factor": null, "has_reconstructed": null, "possible_species": null, "has_props": null, "theoretical": null, "database_IDs": null, "fields_not_requested": ["builder_meta", "nsites", "elements", "nelements", "composition", "composition_reduced", "chemsys", "symmetry", "property_name", "deprecated", "deprecation_reasons", "last_updated", "origins", "warnings", "task_ids", "uncorrected_energy_per_atom", "equilibrium_reaction_energy_per_atom", "decomposes_to", "xas", "grain_boundaries", "cbm", "vbm", "is_gap_direct", "is_metal", "es_source_calc_id", "bandstructure", "dos", "dos_energy_up", "dos_energy_down", "is_magnetic", "ordering", "total_magnetization_normalized_vol", "total_magnetization_normalized_formula_units", "num_magnetic_sites", "num_unique_magnetic_sites", "types_of_magnetic_species", "bulk_modulus", "shear_modulus", "universal_anisotropy", "homogeneous_poisson", "e_total", "e_ionic", "e_electronic", "n", "e_ij_max", "weighted_surface_energy_EV_PER_ANG2", "weighted_surface_energy", "weighted_work_function", "surface_anisotropy", "shape_factor", "has_reconstructed", "possible_species", "has_props", "theoretical", "database_IDs"]}