{"builder_meta": null, "nsites": null, "elements": null, "nelements": null, "composition": null, "composition_reduced": null, "formula_pretty": "BaTl2", "formula_anonymous": "AB2", "chemsys": null, "volume": 209.43211850414036, "density": 8.659700940782932, "density_atomic": 34.905353084023396, "symmetry": null, "property_name": null, "material_id": "mp-30434", "deprecated": null, "deprecation_reasons": null, "last_updated": null, "origins": null, "warnings": null, "structure": {"@module": "pymatgen.core.structure", "@class": "Structure", "charge": 0, "lattice": {"matrix": [[5.29410766, -1e-08, 0.0], [-2.64705485, 4.58483068, 0.0], [-0.0, 0.0, 8.62833932]], "pbc": [true, true, true], "a": 5.29410766, "b": 5.294107265930468, "c": 8.62833932, "alpha": 90.0, "beta": 90.0, "gamma": 120.00001531728238, "volume": 209.43211850414036}, "properties": {}, "sites": [{"species": [{"element": "Ba", "occu": 1}], "abc": [0.0, 0.0, 0.25], "properties": {"magmom": 0.0}, "label": "Ba", "xyz": [0.0, 0.0, 2.15708483]}, {"species": [{"element": "Ba", "occu": 1}], "abc": [-0.0, 0.0, 0.75], "properties": {"magmom": 0.0}, "label": "Ba", "xyz": [0.0, 0.0, 6.47125449]}, {"species": [{"element": "Tl", "occu": 1}], "abc": [0.333333, 0.666667, 0.45373435], "properties": {"magmom": -0.0}, "label": "Tl", "xyz": [-3.3270541699437217e-06, 3.0565553116102295, 3.9149739329396422]}, {"species": [{"element": "Tl", "occu": 1}], "abc": [0.666667, 0.333333, 0.9537343500000001], "properties": {"magmom": -0.0}, "label": "Tl", "xyz": [2.6470561370541703, 1.5282753583897697, 8.229143592939643]}, {"species": [{"element": "Tl", "occu": 1}], "abc": [0.666667, 0.333333, 0.54626565], "properties": {"magmom": -0.0}, "label": "Tl", "xyz": [2.6470561370541703, 1.5282753583897697, 4.7133653870603585]}, {"species": [{"element": "Tl", "occu": 1}], "abc": [0.333333, 0.666667, 0.04626565], "properties": {"magmom": -0.0}, "label": "Tl", "xyz": [-3.3270541699437217e-06, 3.0565553116102295, 0.399195727060358]}]}, "task_ids": null, "uncorrected_energy_per_atom": null, "energy_per_atom": -2.605731400000005, "formation_energy_per_atom": -0.385091675555566, "energy_above_hull": 0.0, "is_stable": true, "equilibrium_reaction_energy_per_atom": null, "decomposes_to": null, "xas": null, "grain_boundaries": null, "band_gap": 0.0, "cbm": null, "vbm": null, "efermi": 4.4802478, "is_gap_direct": null, "is_metal": null, "es_source_calc_id": null, "bandstructure": null, "dos": null, "dos_energy_up": null, "dos_energy_down": null, "is_magnetic": null, "ordering": null, "total_magnetization": 0.0, "total_magnetization_normalized_vol": null, "total_magnetization_normalized_formula_units": null, "num_magnetic_sites": null, "num_unique_magnetic_sites": null, "types_of_magnetic_species": null, "bulk_modulus": null, "shear_modulus": null, "universal_anisotropy": null, "homogeneous_poisson": null, "e_total": null, "e_ionic": null, "e_electronic": null, "n": null, "e_ij_max": null, "weighted_surface_energy_EV_PER_ANG2": null, "weighted_surface_energy": null, "weighted_work_function": null, "surface_anisotropy": null, "shape_factor": null, "has_reconstructed": null, "possible_species": null, "has_props": null, "theoretical": null, "database_IDs": null, "fields_not_requested": ["builder_meta", "nsites", "elements", "nelements", "composition", "composition_reduced", "chemsys", "symmetry", "property_name", "deprecated", "deprecation_reasons", "last_updated", "origins", "warnings", "task_ids", "uncorrected_energy_per_atom", "equilibrium_reaction_energy_per_atom", "decomposes_to", "xas", "grain_boundaries", "cbm", "vbm", "is_gap_direct", "is_metal", "es_source_calc_id", "bandstructure", "dos", "dos_energy_up", "dos_energy_down", "is_magnetic", "ordering", "total_magnetization_normalized_vol", "total_magnetization_normalized_formula_units", "num_magnetic_sites", "num_unique_magnetic_sites", "types_of_magnetic_species", "bulk_modulus", "shear_modulus", "universal_anisotropy", "homogeneous_poisson", "e_total", "e_ionic", "e_electronic", "n", "e_ij_max", "weighted_surface_energy_EV_PER_ANG2", "weighted_surface_energy", "weighted_work_function", "surface_anisotropy", "shape_factor", "has_reconstructed", "possible_species", "has_props", "theoretical", "database_IDs"]}