{"builder_meta": null, "nsites": null, "elements": null, "nelements": null, "composition": null, "composition_reduced": null, "formula_pretty": "BaTl3", "formula_anonymous": "AB3", "chemsys": null, "volume": 269.39439370957115, "density": 9.251834782978902, "density_atomic": 33.67429921369639, "symmetry": null, "property_name": null, "material_id": "mp-984725", "deprecated": null, "deprecation_reasons": null, "last_updated": null, "origins": null, "warnings": null, "structure": {"@module": "pymatgen.core.structure", "@class": "Structure", "charge": 0, "lattice": {"matrix": [[7.8222119800000005, -3.23e-06, -0.0], [-3.9111092, 6.77421262, 0.0], [0.0, -0.0, 5.08393808]], "pbc": [true, true, true], "a": 7.8222119800006675, "b": 7.822194819568987, "c": 5.08393808, "alpha": 90.0, "beta": 90.0, "gamma": 120.00012337965943, "volume": 269.39439370957115}, "properties": {}, "sites": [{"species": [{"element": "Ba", "occu": 1}], "abc": [0.333335, 0.666667999999999, 0.75], "properties": {"magmom": 0.0}, "label": "Ba", "xyz": [5.682207703916475e-06, 4.516149702278104, 3.8129535600000004]}, {"species": [{"element": "Ba", "occu": 1}], "abc": [0.666667, 0.333331999999999, 0.25], "properties": {"magmom": 0.0}, "label": "Ba", "xyz": [3.911112742216264, 2.2580596877154235, 1.27098452]}, {"species": [{"element": "Tl", "occu": 1}], "abc": [0.14688014, 0.29375928, 0.250001], "properties": {"magmom": 0.0}, "label": "Tl", "xyz": [2.9681387012647775e-06, 1.9899873473952616, 1.27098960393808]}, {"species": [{"element": "Tl", "occu": 1}], "abc": [0.70624072, 0.8531198600000001, 0.250001], "properties": {"magmom": 0.0}, "label": "Tl", "xyz": [2.1877196875991136, 5.779213040827107, 1.27098960393808]}, {"species": [{"element": "Tl", "occu": 1}], "abc": [0.14687914, 0.85312086, 0.250001], "properties": {"magmom": 0.0}, "label": "Tl", "xyz": [-2.1877290757378147, 5.779221621777632, 1.27098960393808]}, {"species": [{"element": "Tl", "occu": 1}], "abc": [0.85312086, 0.70624072, 0.749999], "properties": {"magmom": 0.0}, "label": "Tl", "xyz": [3.9111076340732787, 4.784222042601509, 3.81294847606192]}, {"species": [{"element": "Tl", "occu": 1}], "abc": [0.29375928, 0.14687914, 0.749999], "properties": {"magmom": 0.0}, "label": "Tl", "xyz": [1.7233870035100867, 0.9949895749602724, 3.81294847606192]}, {"species": [{"element": "Tl", "occu": 1}], "abc": [0.8531198600000001, 0.14687914, 0.749999], "properties": {"magmom": 0.0}, "label": "Tl", "xyz": [6.098824033525835, 0.994987768225599, 3.81294847606192]}]}, "task_ids": null, "uncorrected_energy_per_atom": null, "energy_per_atom": -2.547843112499997, "formation_energy_per_atom": -0.289495290000002, "energy_above_hull": 0.0025864675000050004, "is_stable": false, "equilibrium_reaction_energy_per_atom": null, "decomposes_to": null, "xas": null, "grain_boundaries": null, "band_gap": 0.0, "cbm": null, "vbm": null, "efermi": 4.71754372, "is_gap_direct": null, "is_metal": null, "es_source_calc_id": null, "bandstructure": null, "dos": null, "dos_energy_up": null, "dos_energy_down": null, "is_magnetic": null, "ordering": null, "total_magnetization": 0.0, "total_magnetization_normalized_vol": null, "total_magnetization_normalized_formula_units": null, "num_magnetic_sites": null, "num_unique_magnetic_sites": null, "types_of_magnetic_species": null, "bulk_modulus": null, "shear_modulus": null, "universal_anisotropy": null, "homogeneous_poisson": null, "e_total": null, "e_ionic": null, "e_electronic": null, "n": null, "e_ij_max": null, "weighted_surface_energy_EV_PER_ANG2": null, "weighted_surface_energy": null, "weighted_work_function": null, "surface_anisotropy": null, "shape_factor": null, "has_reconstructed": null, "possible_species": null, "has_props": null, "theoretical": null, "database_IDs": null, "fields_not_requested": ["builder_meta", "nsites", "elements", "nelements", "composition", "composition_reduced", "chemsys", "symmetry", "property_name", "deprecated", "deprecation_reasons", "last_updated", "origins", "warnings", "task_ids", "uncorrected_energy_per_atom", "equilibrium_reaction_energy_per_atom", "decomposes_to", "xas", "grain_boundaries", "cbm", "vbm", "is_gap_direct", "is_metal", "es_source_calc_id", "bandstructure", "dos", "dos_energy_up", "dos_energy_down", "is_magnetic", "ordering", "total_magnetization_normalized_vol", "total_magnetization_normalized_formula_units", "num_magnetic_sites", "num_unique_magnetic_sites", "types_of_magnetic_species", "bulk_modulus", "shear_modulus", "universal_anisotropy", "homogeneous_poisson", "e_total", "e_ionic", "e_electronic", "n", "e_ij_max", "weighted_surface_energy_EV_PER_ANG2", "weighted_surface_energy", "weighted_work_function", "surface_anisotropy", "shape_factor", "has_reconstructed", "possible_species", "has_props", "theoretical", "database_IDs"]}