{"builder_meta": null, "nsites": null, "elements": null, "nelements": null, "composition": null, "composition_reduced": null, "formula_pretty": "BaTl4", "formula_anonymous": "AB4", "chemsys": null, "volume": 325.68906971083857, "density": 9.736787707670024, "density_atomic": 32.568906971083855, "symmetry": null, "property_name": null, "material_id": "mp-1091391", "deprecated": null, "deprecation_reasons": null, "last_updated": null, "origins": null, "warnings": null, "structure": {"@module": "pymatgen.core.structure", "@class": "Structure", "charge": 0, "lattice": {"matrix": [[-1e-08, -5.4106315, 0.0], [5.68874407, -2.70531522, -2.79854053], [5.65818234, -2.70531523, 7.79778932]], "pbc": [true, true, true], "a": 5.4106315, "b": 6.89292163248477, "c": 10.006961385228978, "alpha": 75.14473320158746, "beta": 74.31530226311153, "gamma": 66.89126823717216, "volume": 325.68906971083857}, "properties": {}, "sites": [{"species": [{"element": "Ba", "occu": 1}], "abc": [0.17927571, 0.35178698, 0.28966259], "properties": {"magmom": 0.0}, "label": "Ba", "xyz": [3.6401898458821123, -2.7053180911909465, 1.2742377292492395]}, {"species": [{"element": "Ba", "occu": 1}], "abc": [0.82072429, 0.64821302, 0.7103374100000001], "properties": {"magmom": 0.0}, "label": "Ba", "xyz": [7.706736554117889, -8.115943858809054, 3.7250110607507607]}, {"species": [{"element": "Tl", "occu": 1}], "abc": [0.40465941, 0.74243328, 0.44824891], "properties": {"magmom": 0.0}, "label": "Tl", "xyz": [6.759786981410304, -5.410633605789835, 1.4176209381988025]}, {"species": [{"element": "Tl", "occu": 1}], "abc": [0.5953405900000001, 0.25756672, 0.55175109], "properties": {"magmom": 0.0}, "label": "Tl", "xyz": [4.587139418589695, -5.410628344210164, 3.5816278518011972]}, {"species": [{"element": "Tl", "occu": 1}], "abc": [0.15441199, 0.7307514900000001, 0.9604235400000001], "properties": {"magmom": -0.0}, "label": "Tl", "xyz": [9.591309716785329, -5.410627935018877, 5.444142760765703]}, {"species": [{"element": "Tl", "occu": 1}], "abc": [0.8455880100000001, 0.26924851, 0.03957646], "properties": {"magmom": -0.0}, "label": "Tl", "xyz": [1.7556166832146722, -5.410634014981124, -0.4448939707657031]}, {"species": [{"element": "Tl", "occu": 1}], "abc": [0.12799352, 0.06374333, 0.68026964], "properties": {"magmom": 0.0}, "label": "Tl", "xyz": [4.211709152745775, -2.70531538952898, 5.12621104099008]}, {"species": [{"element": "Tl", "occu": 1}], "abc": [0.87200648, 0.93625667, 0.31973036], "properties": {"magmom": 0.0}, "label": "Tl", "xyz": [7.135217247254224, -8.11594656047102, -0.12696225099008007]}, {"species": [{"element": "Tl", "occu": 1}], "abc": [0.5499912, 0.7859149400000001, 0.11410565], "properties": {"magmom": 0.0}, "label": "Tl", "xyz": [5.116499522673715, -5.410639113024237, -1.30964299380086]}, {"species": [{"element": "Tl", "occu": 1}], "abc": [0.4500088, 0.21408506, 0.88589435], "properties": {"magmom": 0.0}, "label": "Tl", "xyz": [6.230426877326285, -5.410622836975763, 6.308891783800861]}]}, "task_ids": null, "uncorrected_energy_per_atom": null, "energy_per_atom": -2.517248488000001, "formation_energy_per_atom": -0.23627580666667303, "energy_above_hull": 0.0, "is_stable": true, "equilibrium_reaction_energy_per_atom": null, "decomposes_to": null, "xas": null, "grain_boundaries": null, "band_gap": 0.0, "cbm": null, "vbm": null, "efermi": 5.03911732, "is_gap_direct": null, "is_metal": null, "es_source_calc_id": null, "bandstructure": null, "dos": null, "dos_energy_up": null, "dos_energy_down": null, "is_magnetic": null, "ordering": null, "total_magnetization": 1e-07, "total_magnetization_normalized_vol": null, "total_magnetization_normalized_formula_units": null, "num_magnetic_sites": null, "num_unique_magnetic_sites": null, "types_of_magnetic_species": null, "bulk_modulus": null, "shear_modulus": null, "universal_anisotropy": null, "homogeneous_poisson": null, "e_total": null, "e_ionic": null, "e_electronic": null, "n": null, "e_ij_max": null, "weighted_surface_energy_EV_PER_ANG2": null, "weighted_surface_energy": null, "weighted_work_function": null, "surface_anisotropy": null, "shape_factor": null, "has_reconstructed": null, "possible_species": null, "has_props": null, "theoretical": null, "database_IDs": null, "fields_not_requested": ["builder_meta", "nsites", "elements", "nelements", "composition", "composition_reduced", "chemsys", "symmetry", "property_name", "deprecated", "deprecation_reasons", "last_updated", "origins", "warnings", "task_ids", "uncorrected_energy_per_atom", "equilibrium_reaction_energy_per_atom", "decomposes_to", "xas", "grain_boundaries", "cbm", "vbm", "is_gap_direct", "is_metal", "es_source_calc_id", "bandstructure", "dos", "dos_energy_up", "dos_energy_down", "is_magnetic", "ordering", "total_magnetization_normalized_vol", "total_magnetization_normalized_formula_units", "num_magnetic_sites", "num_unique_magnetic_sites", "types_of_magnetic_species", "bulk_modulus", "shear_modulus", "universal_anisotropy", "homogeneous_poisson", "e_total", "e_ionic", "e_electronic", "n", "e_ij_max", "weighted_surface_energy_EV_PER_ANG2", "weighted_surface_energy", "weighted_work_function", "surface_anisotropy", "shape_factor", "has_reconstructed", "possible_species", "has_props", "theoretical", "database_IDs"]}