{
  "builder_meta": null,
  "nsites": null,
  "elements": null,
  "nelements": null,
  "composition": null,
  "composition_reduced": null,
  "formula_pretty": "BAu",
  "formula_anonymous": "AB",
  "chemsys": null,
  "volume": 63.11379222887524,
  "density": 10.933355715229085,
  "density_atomic": 15.77844805721881,
  "symmetry": null,
  "property_name": null,
  "material_id": "mp-1183149",
  "deprecated": null,
  "deprecation_reasons": null,
  "last_updated": null,
  "origins": null,
  "warnings": null,
  "structure": {
    "@module": "pymatgen.core.structure",
    "@class": "Structure",
    "charge": 0,
    "lattice": {
      "matrix": [
        [1.7549000000000001, -3.039576, 0.0],
        [1.7549000000000001, 3.039576, 0.0],
        [0.0, 0.0, 5.91601]
      ],
      "pbc": [true, true, true],
      "a": 3.5098000327334886,
      "b": 3.5098000327334886,
      "c": 5.91601,
      "alpha": 90.0,
      "beta": 90.0,
      "gamma": 120.00000061702382,
      "volume": 63.11379222887525
    },
    "properties": {},
    "sites": [
      {
        "species": [{ "element": "B", "occu": 1 }],
        "abc": [0.666667, 0.333333, 0.872795],
        "properties": { "magmom": -0.0 },
        "label": "B",
        "xyz": [1.7549000000000001, -1.0131940263839998, 5.1634639479499995]
      },
      {
        "species": [{ "element": "B", "occu": 1 }],
        "abc": [0.333333, 0.666667, 0.372795],
        "properties": { "magmom": -0.0 },
        "label": "B",
        "xyz": [1.7549000000000001, 1.0131940263839998, 2.20545894795]
      },
      {
        "species": [{ "element": "Au", "occu": 1 }],
        "abc": [0.666667, 0.333333, 0.502203],
        "properties": { "magmom": -0.0 },
        "label": "Au",
        "xyz": [1.7549000000000001, -1.0131940263839998, 2.97103797003]
      },
      {
        "species": [{ "element": "Au", "occu": 1 }],
        "abc": [0.333333, 0.666667, 0.002203],
        "properties": { "magmom": -0.0 },
        "label": "Au",
        "xyz": [1.7549000000000001, 1.0131940263839998, 0.01303297003]
      }
    ]
  },
  "task_ids": null,
  "uncorrected_energy_per_atom": null,
  "energy_per_atom": -28.125208870833333,
  "formation_energy_per_atom": 0.8404483029166661,
  "energy_above_hull": 0.8404483029166661,
  "is_stable": false,
  "equilibrium_reaction_energy_per_atom": null,
  "decomposes_to": null,
  "xas": null,
  "grain_boundaries": null,
  "band_gap": 0.0,
  "cbm": null,
  "vbm": null,
  "efermi": 4.36360734,
  "is_gap_direct": null,
  "is_metal": null,
  "es_source_calc_id": null,
  "bandstructure": null,
  "dos": null,
  "dos_energy_up": null,
  "dos_energy_down": null,
  "is_magnetic": null,
  "ordering": null,
  "total_magnetization": 0.0008966,
  "total_magnetization_normalized_vol": null,
  "total_magnetization_normalized_formula_units": null,
  "num_magnetic_sites": null,
  "num_unique_magnetic_sites": null,
  "types_of_magnetic_species": null,
  "bulk_modulus": null,
  "shear_modulus": null,
  "universal_anisotropy": null,
  "homogeneous_poisson": null,
  "e_total": null,
  "e_ionic": null,
  "e_electronic": null,
  "n": null,
  "e_ij_max": null,
  "weighted_surface_energy_EV_PER_ANG2": null,
  "weighted_surface_energy": null,
  "weighted_work_function": null,
  "surface_anisotropy": null,
  "shape_factor": null,
  "has_reconstructed": null,
  "possible_species": null,
  "has_props": null,
  "theoretical": null,
  "database_IDs": null,
  "fields_not_requested": [
    "builder_meta",
    "nsites",
    "elements",
    "nelements",
    "composition",
    "composition_reduced",
    "chemsys",
    "symmetry",
    "property_name",
    "deprecated",
    "deprecation_reasons",
    "last_updated",
    "origins",
    "warnings",
    "task_ids",
    "uncorrected_energy_per_atom",
    "equilibrium_reaction_energy_per_atom",
    "decomposes_to",
    "xas",
    "grain_boundaries",
    "cbm",
    "vbm",
    "is_gap_direct",
    "is_metal",
    "es_source_calc_id",
    "bandstructure",
    "dos",
    "dos_energy_up",
    "dos_energy_down",
    "is_magnetic",
    "ordering",
    "total_magnetization_normalized_vol",
    "total_magnetization_normalized_formula_units",
    "num_magnetic_sites",
    "num_unique_magnetic_sites",
    "types_of_magnetic_species",
    "bulk_modulus",
    "shear_modulus",
    "universal_anisotropy",
    "homogeneous_poisson",
    "e_total",
    "e_ionic",
    "e_electronic",
    "n",
    "e_ij_max",
    "weighted_surface_energy_EV_PER_ANG2",
    "weighted_surface_energy",
    "weighted_work_function",
    "surface_anisotropy",
    "shape_factor",
    "has_reconstructed",
    "possible_species",
    "has_props",
    "theoretical",
    "database_IDs"
  ]
}
