{
  "builder_meta": null,
  "nsites": null,
  "elements": null,
  "nelements": null,
  "composition": null,
  "composition_reduced": null,
  "formula_pretty": "BaZn5",
  "formula_anonymous": "AB5",
  "chemsys": null,
  "volume": 237.42994368149056,
  "density": 6.495455758264485,
  "density_atomic": 19.785828640124212,
  "symmetry": null,
  "property_name": null,
  "material_id": "mp-303",
  "deprecated": null,
  "deprecation_reasons": null,
  "last_updated": null,
  "origins": null,
  "warnings": null,
  "structure": {
    "@module": "pymatgen.core.structure",
    "@class": "Structure",
    "charge": 0,
    "lattice": {
      "matrix": [
        [5.30989066, -1.602e-5, -1.92e-6],
        [-1.98e-5, 6.58448105, -1.71264292],
        [-2.019999999999999e-6, -0.04797247, 6.80339379]
      ],
      "pbc": [true, true, true],
      "a": 5.3098906600245135,
      "b": 6.803567922026447,
      "c": 6.803562920976961,
      "alpha": 104.98374145918311,
      "beta": 90.00003650946925,
      "gamma": 90.00032882472141,
      "volume": 237.42994368149056
    },
    "properties": {},
    "sites": [
      {
        "species": [{ "element": "Ba", "occu": 1 }],
        "abc": [0.74999969, 0.33565091, 0.33565086],
        "properties": { "magmom": 0.0 },
        "label": "Ba",
        "xyz": [3.98240902503114, 2.1939730405033977, 1.7087133819296971]
      },
      {
        "species": [{ "element": "Ba", "occu": 1 }],
        "abc": [0.25000031, 0.66434909, 0.66434914],
        "properties": { "magmom": 0.0 },
        "label": "Ba",
        "xyz": [1.3274598149688597, 4.342519519496602, 3.382035568070303]
      },
      {
        "species": [{ "element": "Zn", "occu": 1 }],
        "abc": [0.50000122, 0.20205491, 0.79794464],
        "properties": { "magmom": -0.0 },
        "label": "Zn",
        "xyz": [2.6549461955312146, 1.2921393406308503, 5.082682737474706]
      },
      {
        "species": [{ "element": "Zn", "occu": 1 }],
        "abc": [1.46e-6, 0.7979507, 0.20205042],
        "properties": { "magmom": 0.0 },
        "label": "Zn",
        "xyz": [-8.455125344800002e-6, 5.2443984052489085, 0.008023955828044826]
      },
      {
        "species": [{ "element": "Zn", "occu": 1 }],
        "abc": [0.24999906, 0.07976116, 0.07976111],
        "properties": { "magmom": 0.0 },
        "label": "Zn",
        "xyz": [1.3274659333143692, 0.521355504104435, 0.4060433744943245]
      },
      {
        "species": [{ "element": "Zn", "occu": 1 }],
        "abc": [0.7500009400000001, 0.92023884, 0.92023889],
        "properties": { "magmom": 0.0 },
        "label": "Zn",
        "xyz": [3.982402906685631, 6.015137055895566, 4.684705575505676]
      },
      {
        "species": [{ "element": "Zn", "occu": 1 }],
        "abc": [0.24999916, 0.46651791000000004, 0.07833273],
        "properties": { "magmom": -0.0 },
        "label": "Zn",
        "xyz": [1.327458809405113, 3.0680165183541193, -0.2660506667773376]
      },
      {
        "species": [{ "element": "Zn", "occu": 1 }],
        "abc": [0.75000084, 0.53348209, 0.92166627],
        "properties": { "magmom": -0.0 },
        "label": "Zn",
        "xyz": [3.982410030596907, 3.468476089618351, 5.3567928133835485]
      },
      {
        "species": [{ "element": "Zn", "occu": 1 }],
        "abc": [0.2500016, 0.07833372, 0.46651619],
        "properties": { "magmom": 0.0 },
        "label": "Zn",
        "xyz": [1.327478667454696, 0.49340295596108463, 3.039735179022126]
      },
      {
        "species": [{ "element": "Zn", "occu": 1 }],
        "abc": [0.7499984, 0.9216662800000001, 0.53348381],
        "properties": { "magmom": 0.0 },
        "label": "Zn",
        "xyz": [3.9823901725453035, 6.043089604038915, 2.0510137709778746]
      },
      {
        "species": [{ "element": "Zn", "occu": 1 }],
        "abc": [-1.46e-6, 0.2020493, 0.79794958],
        "properties": { "magmom": 0.0 },
        "label": "Zn",
        "xyz": [-1.3364874655199997e-5, 1.2921101747510915, 5.082726914171956]
      },
      {
        "species": [{ "element": "Zn", "occu": 1 }],
        "abc": [0.49999878000000003, 0.79794509, 0.20205536000000002],
        "properties": { "magmom": -0.0 },
        "label": "Zn",
        "xyz": [2.654922644468786, 5.244353219369149, 0.00806621252529438]
      }
    ]
  },
  "task_ids": null,
  "uncorrected_energy_per_atom": null,
  "energy_per_atom": -1.590722576666665,
  "formation_energy_per_atom": -0.221107078333332,
  "energy_above_hull": 0.0,
  "is_stable": true,
  "equilibrium_reaction_energy_per_atom": null,
  "decomposes_to": null,
  "xas": null,
  "grain_boundaries": null,
  "band_gap": 0.0,
  "cbm": null,
  "vbm": null,
  "efermi": 2.576296799999999,
  "is_gap_direct": null,
  "is_metal": null,
  "es_source_calc_id": null,
  "bandstructure": null,
  "dos": null,
  "dos_energy_up": null,
  "dos_energy_down": null,
  "is_magnetic": null,
  "ordering": null,
  "total_magnetization": 0.0,
  "total_magnetization_normalized_vol": null,
  "total_magnetization_normalized_formula_units": null,
  "num_magnetic_sites": null,
  "num_unique_magnetic_sites": null,
  "types_of_magnetic_species": null,
  "bulk_modulus": null,
  "shear_modulus": null,
  "universal_anisotropy": null,
  "homogeneous_poisson": null,
  "e_total": null,
  "e_ionic": null,
  "e_electronic": null,
  "n": null,
  "e_ij_max": null,
  "weighted_surface_energy_EV_PER_ANG2": null,
  "weighted_surface_energy": null,
  "weighted_work_function": null,
  "surface_anisotropy": null,
  "shape_factor": null,
  "has_reconstructed": null,
  "possible_species": null,
  "has_props": null,
  "theoretical": null,
  "database_IDs": null,
  "fields_not_requested": [
    "builder_meta",
    "nsites",
    "elements",
    "nelements",
    "composition",
    "composition_reduced",
    "chemsys",
    "symmetry",
    "property_name",
    "deprecated",
    "deprecation_reasons",
    "last_updated",
    "origins",
    "warnings",
    "task_ids",
    "uncorrected_energy_per_atom",
    "equilibrium_reaction_energy_per_atom",
    "decomposes_to",
    "xas",
    "grain_boundaries",
    "cbm",
    "vbm",
    "is_gap_direct",
    "is_metal",
    "es_source_calc_id",
    "bandstructure",
    "dos",
    "dos_energy_up",
    "dos_energy_down",
    "is_magnetic",
    "ordering",
    "total_magnetization_normalized_vol",
    "total_magnetization_normalized_formula_units",
    "num_magnetic_sites",
    "num_unique_magnetic_sites",
    "types_of_magnetic_species",
    "bulk_modulus",
    "shear_modulus",
    "universal_anisotropy",
    "homogeneous_poisson",
    "e_total",
    "e_ionic",
    "e_electronic",
    "n",
    "e_ij_max",
    "weighted_surface_energy_EV_PER_ANG2",
    "weighted_surface_energy",
    "weighted_work_function",
    "surface_anisotropy",
    "shape_factor",
    "has_reconstructed",
    "possible_species",
    "has_props",
    "theoretical",
    "database_IDs"
  ]
}
