{
  "builder_meta": null,
  "nsites": null,
  "elements": null,
  "nelements": null,
  "composition": null,
  "composition_reduced": null,
  "formula_pretty": "BaZn2",
  "formula_anonymous": "AB2",
  "chemsys": null,
  "volume": 156.25939530931024,
  "density": 5.6990524906623286,
  "density_atomic": 26.043232551551707,
  "symmetry": null,
  "property_name": null,
  "material_id": "mp-30435",
  "deprecated": null,
  "deprecation_reasons": null,
  "last_updated": null,
  "origins": null,
  "warnings": null,
  "structure": {
    "@module": "pymatgen.core.structure",
    "@class": "Structure",
    "charge": 0,
    "lattice": {
      "matrix": [
        [4.62119854, 0.033320090000000004, 2.09590511],
        [2.22226596, 5.56495997, 1.34063337],
        [0.0855136, 0.10771298, 6.13891531]
      ],
      "pbc": [true, true, true],
      "a": 5.074387096450157,
      "b": 6.140402535456017,
      "c": 6.1404556708112334,
      "alpha": 76.1599166486006,
      "beta": 64.8031082984196,
      "gamma": 64.80399433389668,
      "volume": 156.25939530931026
    },
    "properties": {},
    "sites": [
      {
        "species": [{ "element": "Ba", "occu": 1 }],
        "abc": [0.75000102, 0.68700106, 0.81300043],
        "properties": { "magmom": -0.0 },
        "label": "Ba",
        "xyz": [5.062125282315276, 3.935694198790642, 7.483888303348168]
      },
      {
        "species": [{ "element": "Ba", "occu": 1 }],
        "abc": [0.24999898, 0.31299894, 0.18699957],
        "properties": { "magmom": -0.0 },
        "label": "Ba",
        "xyz": [1.8668528176847237, 1.7702988412093588, 2.0915654866518323]
      },
      {
        "species": [{ "element": "Zn", "occu": 1 }],
        "abc": [0.58142085, 0.26260738, 0.57074337],
        "properties": { "magmom": -0.0 },
        "label": "Zn",
        "xyz": [3.3192509448091756, 1.5422490217743978, 5.074408359585808]
      },
      {
        "species": [{ "element": "Zn", "occu": 1 }],
        "abc": [0.41857915, 0.73739262, 0.42925663000000003],
        "properties": { "magmom": -0.0 },
        "label": "Zn",
        "xyz": [3.609727155190825, 4.163744018225602, 4.501045430414191]
      },
      {
        "species": [{ "element": "Zn", "occu": 1 }],
        "abc": [0.08142147, 0.07075725000000001, 0.7626128400000001],
        "properties": { "magmom": 0.0 },
        "label": "Zn",
        "xyz": [0.5987199757414878, 0.47861753612827806, 4.947126844634726]
      },
      {
        "species": [{ "element": "Zn", "occu": 1 }],
        "abc": [0.91857853, 0.92924275, 0.23738716],
        "properties": { "magmom": 0.0 },
        "label": "Zn",
        "xyz": [6.330258124258512, 5.2273755038717225, 4.628326945365275]
      }
    ]
  },
  "task_ids": null,
  "uncorrected_energy_per_atom": null,
  "energy_per_atom": -1.676830529999999,
  "formation_energy_per_atom": -0.19734314333333203,
  "energy_above_hull": 0.0,
  "is_stable": true,
  "equilibrium_reaction_energy_per_atom": null,
  "decomposes_to": null,
  "xas": null,
  "grain_boundaries": null,
  "band_gap": 0.0,
  "cbm": null,
  "vbm": null,
  "efermi": 2.41506663,
  "is_gap_direct": null,
  "is_metal": null,
  "es_source_calc_id": null,
  "bandstructure": null,
  "dos": null,
  "dos_energy_up": null,
  "dos_energy_down": null,
  "is_magnetic": null,
  "ordering": null,
  "total_magnetization": 0.0,
  "total_magnetization_normalized_vol": null,
  "total_magnetization_normalized_formula_units": null,
  "num_magnetic_sites": null,
  "num_unique_magnetic_sites": null,
  "types_of_magnetic_species": null,
  "bulk_modulus": null,
  "shear_modulus": null,
  "universal_anisotropy": null,
  "homogeneous_poisson": null,
  "e_total": null,
  "e_ionic": null,
  "e_electronic": null,
  "n": null,
  "e_ij_max": null,
  "weighted_surface_energy_EV_PER_ANG2": null,
  "weighted_surface_energy": null,
  "weighted_work_function": null,
  "surface_anisotropy": null,
  "shape_factor": null,
  "has_reconstructed": null,
  "possible_species": null,
  "has_props": null,
  "theoretical": null,
  "database_IDs": null,
  "fields_not_requested": [
    "builder_meta",
    "nsites",
    "elements",
    "nelements",
    "composition",
    "composition_reduced",
    "chemsys",
    "symmetry",
    "property_name",
    "deprecated",
    "deprecation_reasons",
    "last_updated",
    "origins",
    "warnings",
    "task_ids",
    "uncorrected_energy_per_atom",
    "equilibrium_reaction_energy_per_atom",
    "decomposes_to",
    "xas",
    "grain_boundaries",
    "cbm",
    "vbm",
    "is_gap_direct",
    "is_metal",
    "es_source_calc_id",
    "bandstructure",
    "dos",
    "dos_energy_up",
    "dos_energy_down",
    "is_magnetic",
    "ordering",
    "total_magnetization_normalized_vol",
    "total_magnetization_normalized_formula_units",
    "num_magnetic_sites",
    "num_unique_magnetic_sites",
    "types_of_magnetic_species",
    "bulk_modulus",
    "shear_modulus",
    "universal_anisotropy",
    "homogeneous_poisson",
    "e_total",
    "e_ionic",
    "e_electronic",
    "n",
    "e_ij_max",
    "weighted_surface_energy_EV_PER_ANG2",
    "weighted_surface_energy",
    "weighted_work_function",
    "surface_anisotropy",
    "shape_factor",
    "has_reconstructed",
    "possible_species",
    "has_props",
    "theoretical",
    "database_IDs"
  ]
}
