{
  "builder_meta": null,
  "nsites": null,
  "elements": null,
  "nelements": null,
  "composition": null,
  "composition_reduced": null,
  "formula_pretty": "BBr",
  "formula_anonymous": "AB",
  "chemsys": null,
  "volume": 952.4397800450142,
  "density": 2.846840800319148,
  "density_atomic": 26.45666055680595,
  "symmetry": null,
  "property_name": null,
  "material_id": "mp-685043",
  "deprecated": null,
  "deprecation_reasons": null,
  "last_updated": null,
  "origins": null,
  "warnings": null,
  "structure": {
    "@module": "pymatgen.core.structure",
    "@class": "Structure",
    "charge": 0,
    "lattice": {
      "matrix": [
        [9.80261899, 0.0065818, 0.03024066],
        [0.74062911, 9.84209075, 0.07878357],
        [0.62995398, 0.50303679, 9.87841475]
      ],
      "pbc": [true, true, true],
      "a": 9.802667845067335,
      "b": 9.870232452212912,
      "c": 9.911254512019601,
      "alpha": 86.3687891070972,
      "beta": 86.17737310632117,
      "gamma": 85.65680903636569,
      "volume": 952.4397800450143
    },
    "properties": {},
    "sites": [
      {
        "species": [{ "element": "B", "occu": 1 }],
        "abc": [0.8719683500000001, 0.73483328, 0.7413474800000001],
        "properties": { "magmom": 0.0 },
        "label": "B",
        "xyz": [9.558827220142717, 7.61096000577998, 7.407599568863651]
      },
      {
        "species": [{ "element": "B", "occu": 1 }],
        "abc": [0.799787399999999, 0.79126524, 0.58872981],
        "properties": { "magmom": 0.0 },
        "label": "B",
        "xyz": [8.796917912631995, 8.08912109390956, 5.902242038128488]
      },
      {
        "species": [{ "element": "B", "occu": 1 }],
        "abc": [0.79155752, 0.58733767, 0.79915102],
        "properties": { "magmom": 0.0 },
        "label": "B",
        "xyz": [8.697764518700938, 6.187842886144715, 7.964555003716391]
      },
      {
        "species": [{ "element": "B", "occu": 1 }],
        "abc": [0.73883449, 0.8724351300000001, 0.73565169],
        "properties": { "magmom": 0.0 },
        "label": "B",
        "xyz": [8.352090566014825, 8.961508448490006, 7.358148902101604]
      },
      {
        "species": [{ "element": "B", "occu": 1 }],
        "abc": [0.73306944, 0.74030949, 0.87162311],
        "properties": { "magmom": -0.0 },
        "label": "B",
        "xyz": [8.283377619440397, 7.729476591450627, 8.690747314483382]
      },
      {
        "species": [{ "element": "B", "occu": 1 }],
        "abc": [0.7595568500000001, 0.62298093, 0.62856639],
        "properties": { "magmom": -0.0 },
        "label": "B",
        "xyz": [8.303012112602186, 6.452626118982216, 6.281289660489093]
      },
      {
        "species": [{ "element": "B", "occu": 1 }],
        "abc": [0.62130666, 0.62993312, 0.76065385],
        "properties": { "magmom": -0.0 },
        "label": "B",
        "xyz": [7.036156190164419, 6.58658512065057, 7.58247131499992]
      },
      {
        "species": [{ "element": "B", "occu": 1 }],
        "abc": [0.62666065, 0.76200847, 0.62340441],
        "properties": { "magmom": -0.0 },
        "label": "B",
        "xyz": [7.0999973321533565, 7.817476422353067, 6.237231698247914]
      },
      {
        "species": [{ "element": "B", "occu": 1 }],
        "abc": [0.58478182, 0.80184948, 0.79136105],
        "properties": { "magmom": 0.0 },
        "label": "B",
        "xyz": [6.824787483529604, 8.293807989306215, 7.898249421725332]
      },
      {
        "species": [{ "element": "B", "occu": 1 }],
        "abc": [0.40972722, 0.20353951, 0.20808446],
        "properties": { "magmom": 0.0 },
        "label": "B",
        "xyz": [4.298230747386195, 2.1106252100544123, 2.0839705896964005]
      },
      {
        "species": [{ "element": "B", "occu": 1 }],
        "abc": [0.37059831, 0.23982675, 0.37752715000000003],
        "properties": { "magmom": 0.0 },
        "label": "B",
        "xyz": [4.048281434375156, 2.552745887408169, 3.7594713121212444]
      },
      {
        "species": [{ "element": "B", "occu": 1 }],
        "abc": [0.37086763, 0.37421297000000003, 0.24277225],
        "properties": { "magmom": 0.0 },
        "label": "B",
        "xyz": [4.065562436656905, 3.807602360475239, 2.4389020909114256]
      },
      {
        "species": [{ "element": "B", "occu": 1 }],
        "abc": [0.23466737000000001, 0.37620509, 0.37724576],
        "properties": { "magmom": -0.0 },
        "label": "B",
        "xyz": [2.816630726429651, 3.8939576662392947, 3.7633253561505953]
      },
      {
        "species": [{ "element": "B", "occu": 1 }],
        "abc": [0.25807197, 0.12900371, 0.26526958],
        "properties": { "magmom": 0.0 },
        "label": "B",
        "xyz": [2.7924327245266363, 1.4048051570066766, 2.63841057131565]
      },
      {
        "species": [{ "element": "B", "occu": 1 }],
        "abc": [0.2585303, 0.26343207, 0.13179819],
        "properties": { "magmom": 0.0 },
        "label": "B",
        "xyz": [2.8124062821672506, 2.660723272554303, 1.3305294299483903]
      },
      {
        "species": [{ "element": "B", "occu": 1 }],
        "abc": [0.19927797, 0.41423617, 0.2078484],
        "properties": { "magmom": 0.0 },
        "label": "B",
        "xyz": [2.3911763057441906, 4.18281697675801, 2.091874001955887]
      },
      {
        "species": [{ "element": "B", "occu": 1 }],
        "abc": [0.19895863, 0.20636558, 0.414892],
        "properties": { "magmom": 0.0 },
        "label": "B",
        "xyz": [2.3645188671825776, 2.241084211823999, 4.120750109858416]
      },
      {
        "species": [{ "element": "B", "occu": 1 }],
        "abc": [0.12241987, 0.26452019, 0.26499471],
        "properties": { "magmom": 0.0 },
        "label": "B",
        "xyz": [1.5628811675555079, 2.737539546572989, 2.6422695545071653]
      },
      {
        "species": [{ "element": "Br", "occu": 1 }],
        "abc": [0.88571291, 0.86537175, 0.42872975],
        "properties": { "magmom": 0.0 },
        "label": "Br",
        "xyz": [9.593305712632707, 8.738563718434854, 4.3301319049748805]
      },
      {
        "species": [{ "element": "Br", "occu": 1 }],
        "abc": [0.93229162, 0.24358801, 0.24295232],
        "properties": { "magmom": -0.0 },
        "label": "Br",
        "xyz": [9.472356690417067, 2.5257654121922766, 2.4473676283729846]
      },
      {
        "species": [{ "element": "Br", "occu": 1 }],
        "abc": [0.86766895, 0.42543289, 0.8826588200000001],
        "properties": { "magmom": -0.0 },
        "label": "Br",
        "xyz": [9.376550545629891, 4.636869794387866, 8.77902591028472]
      },
      {
        "species": [{ "element": "Br", "occu": 1 }],
        "abc": [0.79417379, 0.48700025, 0.49946098],
        "properties": { "magmom": 0.0 },
        "label": "Br",
        "xyz": [8.46030706914725, 5.049574996933163, 4.996266669731648]
      },
      {
        "species": [{ "element": "Br", "occu": 1 }],
        "abc": [0.76337327, 0.0610562, 0.755077],
        "properties": { "magmom": -0.0 },
        "label": "Br",
        "xyz": [8.003941073382839, 0.985776541721466, 7.486858911103541]
      },
      {
        "species": [{ "element": "Br", "occu": 1 }],
        "abc": [0.75046934, 0.76375763, 0.06027209],
        "properties": { "magmom": -0.0 },
        "label": "Br",
        "xyz": [7.960194780437794, 7.552230423247125, 0.6782589437268309]
      },
      {
        "species": [{ "element": "Br", "occu": 1 }],
        "abc": [0.5726461700000001, 0.12176972, 0.1291912],
        "properties": { "magmom": -0.0 },
        "label": "Br",
        "xyz": [5.785002930562293, 1.2672256039480443, 1.3031149070369725]
      },
      {
        "species": [{ "element": "Br", "occu": 1 }],
        "abc": [0.4972761, 0.79803642, 0.48741736],
        "properties": { "magmom": -0.0 },
        "label": "Br",
        "xyz": [5.772707650478417, 8.10280870344477, 4.892820954053906]
      },
      {
        "species": [{ "element": "Br", "occu": 1 }],
        "abc": [0.48445786, 0.50211828, 0.79621692],
        "properties": { "magmom": 0.0 },
        "label": "Br",
        "xyz": [5.622419250819234, 5.345608687317345, 7.919569962816817]
      },
      {
        "species": [{ "element": "Br", "occu": 1 }],
        "abc": [0.50465272, 0.50501715, 0.20738942],
        "properties": { "magmom": -0.0 },
        "label": "Br",
        "xyz": [5.451594529305281, 5.078070651995621, 2.103726790833765]
      },
      {
        "species": [{ "element": "Br", "occu": 1 }],
        "abc": [0.50316746, 0.20439085, 0.51045309],
        "properties": { "magmom": -0.0 },
        "label": "Br",
        "xyz": [5.405298667522507, 2.2717217255970468, 5.073786090358335]
      },
      {
        "species": [{ "element": "Br", "occu": 1 }],
        "abc": [0.42233488, 0.8885189800000001, 0.865895299999999],
        "properties": { "magmom": -0.0 },
        "label": "Br",
        "xyz": [5.343525126701172, 9.183241350158706, 8.636445286245044]
      },
      {
        "species": [{ "element": "Br", "occu": 1 }],
        "abc": [0.23683197, 0.24268888, 0.9434032800000001],
        "properties": { "magmom": -0.0 },
        "label": "Br",
        "xyz": [3.095616666743461, 2.8646913192826773, 9.34561072779798]
      },
      {
        "species": [{ "element": "Br", "occu": 1 }],
        "abc": [0.23668826, 0.9403366, 0.2426429],
        "properties": { "magmom": -0.0 },
        "label": "Br",
        "xyz": [3.1694593519182255, 9.378494293068409, 2.4781678858890883]
      },
      {
        "species": [{ "element": "Br", "occu": 1 }],
        "abc": [0.19934633000000002, 0.50938522, 0.50922217],
        "properties": { "magmom": -0.0 },
        "label": "Br",
        "xyz": [2.652168174876297, 5.270885105417144, 5.07646734587962]
      },
      {
        "species": [{ "element": "Br", "occu": 1 }],
        "abc": [0.06168204, 0.75389299, 0.76690682],
        "properties": { "magmom": -0.0 },
        "label": "Br",
        "xyz": [1.646116634413022, 7.806071547181623, 7.637083329313515]
      },
      {
        "species": [{ "element": "Br", "occu": 1 }],
        "abc": [0.11806624, 0.12781808, 0.57529039],
        "properties": { "magmom": -0.0 },
        "label": "Br",
        "xyz": [1.6144306279704586, 1.5481664623326403, 5.696597439783516]
      },
      {
        "species": [{ "element": "Br", "occu": 1 }],
        "abc": [0.11932064, 0.57622725, 0.12809787],
        "properties": { "magmom": -0.0 },
        "label": "Br",
        "xyz": [1.6771212099242236, 5.736504173041927, 1.3144094632430872]
      }
    ]
  },
  "task_ids": null,
  "uncorrected_energy_per_atom": null,
  "energy_per_atom": -4.767592593333333,
  "formation_energy_per_atom": -0.6094234404166651,
  "energy_above_hull": 0.00891484361111,
  "is_stable": false,
  "equilibrium_reaction_energy_per_atom": null,
  "decomposes_to": null,
  "xas": null,
  "grain_boundaries": null,
  "band_gap": 1.2319,
  "cbm": null,
  "vbm": null,
  "efermi": -1.49520557,
  "is_gap_direct": null,
  "is_metal": null,
  "es_source_calc_id": null,
  "bandstructure": null,
  "dos": null,
  "dos_energy_up": null,
  "dos_energy_down": null,
  "is_magnetic": null,
  "ordering": null,
  "total_magnetization": 0.0,
  "total_magnetization_normalized_vol": null,
  "total_magnetization_normalized_formula_units": null,
  "num_magnetic_sites": null,
  "num_unique_magnetic_sites": null,
  "types_of_magnetic_species": null,
  "bulk_modulus": null,
  "shear_modulus": null,
  "universal_anisotropy": null,
  "homogeneous_poisson": null,
  "e_total": null,
  "e_ionic": null,
  "e_electronic": null,
  "n": null,
  "e_ij_max": null,
  "weighted_surface_energy_EV_PER_ANG2": null,
  "weighted_surface_energy": null,
  "weighted_work_function": null,
  "surface_anisotropy": null,
  "shape_factor": null,
  "has_reconstructed": null,
  "possible_species": null,
  "has_props": null,
  "theoretical": null,
  "database_IDs": null,
  "fields_not_requested": [
    "builder_meta",
    "nsites",
    "elements",
    "nelements",
    "composition",
    "composition_reduced",
    "chemsys",
    "symmetry",
    "property_name",
    "deprecated",
    "deprecation_reasons",
    "last_updated",
    "origins",
    "warnings",
    "task_ids",
    "uncorrected_energy_per_atom",
    "equilibrium_reaction_energy_per_atom",
    "decomposes_to",
    "xas",
    "grain_boundaries",
    "cbm",
    "vbm",
    "is_gap_direct",
    "is_metal",
    "es_source_calc_id",
    "bandstructure",
    "dos",
    "dos_energy_up",
    "dos_energy_down",
    "is_magnetic",
    "ordering",
    "total_magnetization_normalized_vol",
    "total_magnetization_normalized_formula_units",
    "num_magnetic_sites",
    "num_unique_magnetic_sites",
    "types_of_magnetic_species",
    "bulk_modulus",
    "shear_modulus",
    "universal_anisotropy",
    "homogeneous_poisson",
    "e_total",
    "e_ionic",
    "e_electronic",
    "n",
    "e_ij_max",
    "weighted_surface_energy_EV_PER_ANG2",
    "weighted_surface_energy",
    "weighted_work_function",
    "surface_anisotropy",
    "shape_factor",
    "has_reconstructed",
    "possible_species",
    "has_props",
    "theoretical",
    "database_IDs"
  ]
}
