{"builder_meta": null, "nsites": null, "elements": null, "nelements": null, "composition": null, "composition_reduced": null, "formula_pretty": "BBr3", "formula_anonymous": "AB3", "chemsys": null, "volume": 263.2212339544504, "density": 3.160863752001252, "density_atomic": 32.9026542443063, "symmetry": null, "property_name": null, "material_id": "mp-23225", "deprecated": null, "deprecation_reasons": null, "last_updated": null, "origins": null, "warnings": null, "structure": {"@module": "pymatgen.core.structure", "@class": "Structure", "charge": 0, "lattice": {"matrix": [[6.57294773, 0.00011569, 0.0], [-3.28657549, 5.69228226, -0.0], [-0.0, 0.0, 7.03509395]], "pbc": [true, true, true], "a": 6.572947731018126, "b": 6.572948788708112, "c": 7.03509395, "alpha": 90.0, "beta": 90.0, "gamma": 120.0000091159374, "volume": 263.2212339544504}, "properties": {}, "sites": [{"species": [{"element": "B", "occu": 1}], "abc": [0.333333, 0.666667, 0.25], "properties": {"magmom": -0.0}, "label": "B", "xyz": [-7.103650774009651e-05, 3.7948953007221897, 1.7587734875]}, {"species": [{"element": "B", "occu": 1}], "abc": [0.666667, 0.333333, 0.75], "properties": {"magmom": -0.0}, "label": "B", "xyz": [3.2864432765077405, 1.8975026492778098, 5.2763204625]}, {"species": [{"element": "Br", "occu": 1}], "abc": [0.055205660000000004, 0.36736544, 0.25], "properties": {"magmom": -0.0}, "label": "Br", "xyz": [-0.8445103333969137, 2.0911541637918996, 1.7587734875]}, {"species": [{"element": "Br", "occu": 1}], "abc": [0.68784122, 0.055205660000000004, 0.75], "properties": {"magmom": -0.0}, "label": "Br", "xyz": [4.339706816534157, 0.3143257754203334, 5.2763204625]}, {"species": [{"element": "Br", "occu": 1}], "abc": [0.36736544, 0.31215878, 0.75], "properties": {"magmom": -0.0}, "label": "Br", "xyz": [1.388740439592149, 1.7769383862049963, 5.2763204625]}, {"species": [{"element": "Br", "occu": 1}], "abc": [0.63263556, 0.68784122, 0.25], "properties": {"magmom": -0.0}, "label": "Br", "xyz": [1.8976383733555808, 3.9154595639106935, 1.7587734875]}, {"species": [{"element": "Br", "occu": 1}], "abc": [0.31215878, 0.9447943400000001, 0.25], "properties": {"magmom": -0.0}, "label": "Br", "xyz": [-1.0533345765341577, 5.378072174579668, 1.7587734875]}, {"species": [{"element": "Br", "occu": 1}], "abc": [0.9447943400000001, 0.63263556, 0.75], "properties": {"magmom": -0.0}, "label": "Br", "xyz": [4.130879286821424, 3.60124947849036, 5.2763204625]}]}, "task_ids": null, "uncorrected_energy_per_atom": null, "energy_per_atom": -3.825065269999999, "formation_energy_per_atom": -0.927507426041666, "energy_above_hull": 0.0, "is_stable": true, "equilibrium_reaction_energy_per_atom": null, "decomposes_to": null, "xas": null, "grain_boundaries": null, "band_gap": 3.8273, "cbm": null, "vbm": null, "efermi": -2.83168899, "is_gap_direct": null, "is_metal": null, "es_source_calc_id": null, "bandstructure": null, "dos": null, "dos_energy_up": null, "dos_energy_down": null, "is_magnetic": null, "ordering": null, "total_magnetization": 0.0, "total_magnetization_normalized_vol": null, "total_magnetization_normalized_formula_units": null, "num_magnetic_sites": null, "num_unique_magnetic_sites": null, "types_of_magnetic_species": null, "bulk_modulus": null, "shear_modulus": null, "universal_anisotropy": null, "homogeneous_poisson": null, "e_total": null, "e_ionic": null, "e_electronic": null, "n": null, "e_ij_max": null, "weighted_surface_energy_EV_PER_ANG2": null, "weighted_surface_energy": null, "weighted_work_function": null, "surface_anisotropy": null, "shape_factor": null, "has_reconstructed": null, "possible_species": null, "has_props": null, "theoretical": null, "database_IDs": null, "fields_not_requested": ["builder_meta", "nsites", "elements", "nelements", "composition", "composition_reduced", "chemsys", "symmetry", "property_name", "deprecated", "deprecation_reasons", "last_updated", "origins", "warnings", "task_ids", "uncorrected_energy_per_atom", "equilibrium_reaction_energy_per_atom", "decomposes_to", "xas", "grain_boundaries", "cbm", "vbm", "is_gap_direct", "is_metal", "es_source_calc_id", "bandstructure", "dos", "dos_energy_up", "dos_energy_down", "is_magnetic", "ordering", "total_magnetization_normalized_vol", "total_magnetization_normalized_formula_units", "num_magnetic_sites", "num_unique_magnetic_sites", "types_of_magnetic_species", "bulk_modulus", "shear_modulus", "universal_anisotropy", "homogeneous_poisson", "e_total", "e_ionic", "e_electronic", "n", "e_ij_max", "weighted_surface_energy_EV_PER_ANG2", "weighted_surface_energy", "weighted_work_function", "surface_anisotropy", "shape_factor", "has_reconstructed", "possible_species", "has_props", "theoretical", "database_IDs"]}