{"builder_meta": null, "nsites": null, "elements": null, "nelements": null, "composition": null, "composition_reduced": null, "formula_pretty": "BCl", "formula_anonymous": "AB", "chemsys": null, "volume": 2000.2855081645732, "density": 1.8434931388811342, "density_atomic": 20.836307376714306, "symmetry": null, "property_name": null, "material_id": "mp-1199460", "deprecated": null, "deprecation_reasons": null, "last_updated": null, "origins": null, "warnings": null, "structure": {"@module": "pymatgen.core.structure", "@class": "Structure", "charge": 0, "lattice": {"matrix": [[12.59981, 0.0, 0.0], [0.0, 12.59981, 0.0], [0.0, 0.0, 12.59981]], "pbc": [true, true, true], "a": 12.59981, "b": 12.59981, "c": 12.59981, "alpha": 90.0, "beta": 90.0, "gamma": 90.0, "volume": 2000.2855081645732}, "properties": {}, "sites": [{"species": [{"element": "B", "occu": 1}], "abc": [0.404238999999999, 0.077883, 0.440202], "properties": {"magmom": 0.001}, "label": "B", "xyz": [5.0933345945899875, 0.9813110022299999, 5.546461561619999]}, {"species": [{"element": "B", "occu": 1}], "abc": [0.595761, 0.577882999999999, 0.059798], "properties": {"magmom": 0.001}, "label": "B", "xyz": [7.50647540541, 7.281216002229987, 0.7534434383799999]}, {"species": [{"element": "B", "occu": 1}], "abc": [0.095761, 0.922117, 0.940202], "properties": {"magmom": 0.001}, "label": "B", "xyz": [1.20657040541, 11.618498997769999, 11.84636656162]}, {"species": [{"element": "B", "occu": 1}], "abc": [0.904238999999999, 0.422116999999999, 0.559798], "properties": {"magmom": 0.001}, "label": "B", "xyz": [11.393239594589987, 5.318593997769987, 7.0533484383800005]}, {"species": [{"element": "B", "occu": 1}], "abc": [0.440202, 0.404238999999999, 0.077883], "properties": {"magmom": -0.0}, "label": "B", "xyz": [5.546461561619999, 5.0933345945899875, 0.9813110022299999]}, {"species": [{"element": "B", "occu": 1}], "abc": [0.059798, 0.595761, 0.577882999999999], "properties": {"magmom": -0.0}, "label": "B", "xyz": [0.7534434383799999, 7.50647540541, 7.281216002229987]}, {"species": [{"element": "B", "occu": 1}], "abc": [0.940202, 0.095761, 0.922117], "properties": {"magmom": 0.0}, "label": "B", "xyz": [11.84636656162, 1.20657040541, 11.618498997769999]}, {"species": [{"element": "B", "occu": 1}], "abc": [0.559798, 0.904238999999999, 0.422116999999999], "properties": {"magmom": -0.0}, "label": "B", "xyz": [7.0533484383800005, 11.393239594589987, 5.318593997769987]}, {"species": [{"element": "B", "occu": 1}], "abc": [0.077883, 0.440202, 0.404238999999999], "properties": {"magmom": 0.001}, "label": "B", "xyz": [0.9813110022299999, 5.546461561619999, 5.0933345945899875]}, {"species": [{"element": "B", "occu": 1}], "abc": [0.577882999999999, 0.059798, 0.595761], "properties": {"magmom": 0.001}, "label": "B", "xyz": [7.281216002229987, 0.7534434383799999, 7.50647540541]}, {"species": [{"element": "B", "occu": 1}], "abc": [0.922117, 0.940202, 0.095761], "properties": {"magmom": 0.002}, "label": "B", "xyz": [11.618498997769999, 11.84636656162, 1.20657040541]}, {"species": [{"element": "B", "occu": 1}], "abc": [0.422116999999999, 0.559798, 0.904238999999999], "properties": {"magmom": 0.001}, "label": "B", "xyz": [5.318593997769987, 7.0533484383800005, 11.393239594589987]}, {"species": [{"element": "B", "occu": 1}], "abc": [0.595761, 0.922117, 0.559798], "properties": {"magmom": 0.001}, "label": "B", "xyz": [7.50647540541, 11.618498997769999, 7.0533484383800005]}, {"species": [{"element": "B", "occu": 1}], "abc": [0.404238999999999, 0.422116999999999, 0.940202], "properties": {"magmom": 0.001}, "label": "B", "xyz": [5.0933345945899875, 5.318593997769987, 11.84636656162]}, {"species": [{"element": "B", "occu": 1}], "abc": [0.904238999999999, 0.077883, 0.059798], "properties": {"magmom": 0.001}, "label": "B", "xyz": [11.393239594589987, 0.9813110022299999, 0.7534434383799999]}, {"species": [{"element": "B", "occu": 1}], "abc": [0.095761, 0.577882999999999, 0.440202], "properties": {"magmom": 0.001}, "label": "B", "xyz": [1.20657040541, 7.281216002229987, 5.546461561619999]}, {"species": [{"element": "B", "occu": 1}], "abc": [0.559798, 0.595761, 0.922117], "properties": {"magmom": -0.0}, "label": "B", "xyz": [7.0533484383800005, 7.50647540541, 11.618498997769999]}, {"species": [{"element": "B", "occu": 1}], "abc": [0.940202, 0.404238999999999, 0.422116999999999], "properties": {"magmom": -0.0}, "label": "B", "xyz": [11.84636656162, 5.0933345945899875, 5.318593997769987]}, {"species": [{"element": "B", "occu": 1}], "abc": [0.059798, 0.904238999999999, 0.077883], "properties": {"magmom": 0.0}, "label": "B", "xyz": [0.7534434383799999, 11.393239594589987, 0.9813110022299999]}, {"species": [{"element": "B", "occu": 1}], "abc": [0.440202, 0.095761, 0.577882999999999], "properties": {"magmom": -0.0}, "label": "B", "xyz": [5.546461561619999, 1.20657040541, 7.281216002229987]}, {"species": [{"element": "B", "occu": 1}], "abc": [0.922117, 0.559798, 0.595761], "properties": {"magmom": 0.001}, "label": "B", "xyz": [11.618498997769999, 7.0533484383800005, 7.50647540541]}, {"species": [{"element": "B", "occu": 1}], "abc": [0.422116999999999, 0.940202, 0.404238999999999], "properties": {"magmom": 0.001}, "label": "B", "xyz": [5.318593997769987, 11.84636656162, 5.0933345945899875]}, {"species": [{"element": "B", "occu": 1}], "abc": [0.077883, 0.059798, 0.904238999999999], "properties": {"magmom": 0.002}, "label": "B", "xyz": [0.9813110022299999, 0.7534434383799999, 11.393239594589987]}, {"species": [{"element": "B", "occu": 1}], "abc": [0.577882999999999, 0.440202, 0.095761], "properties": {"magmom": 0.001}, "label": "B", "xyz": [7.281216002229987, 5.546461561619999, 1.20657040541]}, {"species": [{"element": "B", "occu": 1}], "abc": [0.034945, 0.369108, 0.524573], "properties": {"magmom": 0.001}, "label": "B", "xyz": [0.44030036044999993, 4.650690669479999, 6.609520131129999]}, {"species": [{"element": "B", "occu": 1}], "abc": [0.965055, 0.869108, 0.975426999999999], "properties": {"magmom": 0.001}, "label": "B", "xyz": [12.15950963955, 10.95059566948, 12.290194868869987]}, {"species": [{"element": "B", "occu": 1}], "abc": [0.465055, 0.630892, 0.024572999999999002], "properties": {"magmom": 0.001}, "label": "B", "xyz": [5.85960463955, 7.94911933052, 0.3096151311299874]}, {"species": [{"element": "B", "occu": 1}], "abc": [0.534945, 0.130891999999999, 0.475427], "properties": {"magmom": 0.0}, "label": "B", "xyz": [6.74020536045, 1.6492143305199876, 5.99028986887]}, {"species": [{"element": "B", "occu": 1}], "abc": [0.524573, 0.034945, 0.369108], "properties": {"magmom": 0.0}, "label": "B", "xyz": [6.609520131129999, 0.44030036044999993, 4.650690669479999]}, {"species": [{"element": "B", "occu": 1}], "abc": [0.975426999999999, 0.965055, 0.869108], "properties": {"magmom": 0.0}, "label": "B", "xyz": [12.290194868869987, 12.15950963955, 10.95059566948]}, {"species": [{"element": "B", "occu": 1}], "abc": [0.024572999999999002, 0.465055, 0.630892], "properties": {"magmom": -0.0}, "label": "B", "xyz": [0.3096151311299874, 5.85960463955, 7.94911933052]}, {"species": [{"element": "B", "occu": 1}], "abc": [0.475427, 0.534945, 0.130891999999999], "properties": {"magmom": -0.0}, "label": "B", "xyz": [5.99028986887, 6.74020536045, 1.6492143305199876]}, {"species": [{"element": "B", "occu": 1}], "abc": [0.369108, 0.524573, 0.034945], "properties": {"magmom": -0.0}, "label": "B", "xyz": [4.650690669479999, 6.609520131129999, 0.44030036044999993]}, {"species": [{"element": "B", "occu": 1}], "abc": [0.869108, 0.975426999999999, 0.965055], "properties": {"magmom": -0.0}, "label": "B", "xyz": [10.95059566948, 12.290194868869987, 12.15950963955]}, {"species": [{"element": "B", "occu": 1}], "abc": [0.630892, 0.024572999999999002, 0.465055], "properties": {"magmom": -0.0}, "label": "B", "xyz": [7.94911933052, 0.3096151311299874, 5.85960463955]}, {"species": [{"element": "B", "occu": 1}], "abc": [0.130891999999999, 0.475427, 0.534945], "properties": {"magmom": -0.0}, "label": "B", "xyz": [1.6492143305199876, 5.99028986887, 6.74020536045]}, {"species": [{"element": "B", "occu": 1}], "abc": [0.965055, 0.630892, 0.475427], "properties": {"magmom": 0.001}, "label": "B", "xyz": [12.15950963955, 7.94911933052, 5.99028986887]}, {"species": [{"element": "B", "occu": 1}], "abc": [0.034945, 0.130891999999999, 0.024572999999999002], "properties": {"magmom": 0.001}, "label": "B", "xyz": [0.44030036044999993, 1.6492143305199876, 0.3096151311299874]}, {"species": [{"element": "B", "occu": 1}], "abc": [0.534945, 0.369108, 0.975426999999999], "properties": {"magmom": 0.001}, "label": "B", "xyz": [6.74020536045, 4.650690669479999, 12.290194868869987]}, {"species": [{"element": "B", "occu": 1}], "abc": [0.465055, 0.869108, 0.524573], "properties": {"magmom": 0.0}, "label": "B", "xyz": [5.85960463955, 10.95059566948, 6.609520131129999]}, {"species": [{"element": "B", "occu": 1}], "abc": [0.475427, 0.965055, 0.630892], "properties": {"magmom": -0.0}, "label": "B", "xyz": [5.99028986887, 12.15950963955, 7.94911933052]}, {"species": [{"element": "B", "occu": 1}], "abc": [0.024572999999999002, 0.034945, 0.130891999999999], "properties": {"magmom": 0.0}, "label": "B", "xyz": [0.3096151311299874, 0.44030036044999993, 1.6492143305199876]}, {"species": [{"element": "B", "occu": 1}], "abc": [0.975426999999999, 0.534945, 0.369108], "properties": {"magmom": -0.0}, "label": "B", "xyz": [12.290194868869987, 6.74020536045, 4.650690669479999]}, {"species": [{"element": "B", "occu": 1}], "abc": [0.524573, 0.465055, 0.869108], "properties": {"magmom": -0.0}, "label": "B", "xyz": [6.609520131129999, 5.85960463955, 10.95059566948]}, {"species": [{"element": "B", "occu": 1}], "abc": [0.630892, 0.475427, 0.965055], "properties": {"magmom": -0.0}, "label": "B", "xyz": [7.94911933052, 5.99028986887, 12.15950963955]}, {"species": [{"element": "B", "occu": 1}], "abc": [0.130891999999999, 0.024572999999999002, 0.034945], "properties": {"magmom": -0.0}, "label": "B", "xyz": [1.6492143305199876, 0.3096151311299874, 0.44030036044999993]}, {"species": [{"element": "B", "occu": 1}], "abc": [0.369108, 0.975426999999999, 0.534945], "properties": {"magmom": -0.0}, "label": "B", "xyz": [4.650690669479999, 12.290194868869987, 6.74020536045]}, {"species": [{"element": "B", "occu": 1}], "abc": [0.869108, 0.524573, 0.465055], "properties": {"magmom": -0.0}, "label": "B", "xyz": [10.95059566948, 6.609520131129999, 5.85960463955]}, {"species": [{"element": "Cl", "occu": 1}], "abc": [0.30697, 0.156562999999999, 0.379484999999999], "properties": {"magmom": 0.001}, "label": "Cl", "xyz": [3.8677636757, 1.9726640530299875, 4.781438897849988]}, {"species": [{"element": "Cl", "occu": 1}], "abc": [0.69303, 0.656563, 0.120515], "properties": {"magmom": 0.001}, "label": "Cl", "xyz": [8.7320463243, 8.27256905303, 1.5184661021499999]}, {"species": [{"element": "Cl", "occu": 1}], "abc": [0.19303, 0.843437, 0.879485], "properties": {"magmom": 0.001}, "label": "Cl", "xyz": [2.4321413243, 10.62714594697, 11.08134389785]}, {"species": [{"element": "Cl", "occu": 1}], "abc": [0.8069700000000001, 0.343437, 0.620514999999999], "properties": {"magmom": 0.001}, "label": "Cl", "xyz": [10.1676686757, 4.32724094697, 7.818371102149988]}, {"species": [{"element": "Cl", "occu": 1}], "abc": [0.379484999999999, 0.30697, 0.156562999999999], "properties": {"magmom": -0.0}, "label": "Cl", "xyz": [4.781438897849988, 3.8677636757, 1.9726640530299875]}, {"species": [{"element": "Cl", "occu": 1}], "abc": [0.120515, 0.69303, 0.656563], "properties": {"magmom": -0.0}, "label": "Cl", "xyz": [1.5184661021499999, 8.7320463243, 8.27256905303]}, {"species": [{"element": "Cl", "occu": 1}], "abc": [0.879485, 0.19303, 0.843437], "properties": {"magmom": 0.0}, "label": "Cl", "xyz": [11.08134389785, 2.4321413243, 10.62714594697]}, {"species": [{"element": "Cl", "occu": 1}], "abc": [0.620514999999999, 0.8069700000000001, 0.343437], "properties": {"magmom": 0.0}, "label": "Cl", "xyz": [7.818371102149988, 10.1676686757, 4.32724094697]}, {"species": [{"element": "Cl", "occu": 1}], "abc": [0.156562999999999, 0.379484999999999, 0.30697], "properties": {"magmom": 0.001}, "label": "Cl", "xyz": [1.9726640530299875, 4.781438897849988, 3.8677636757]}, {"species": [{"element": "Cl", "occu": 1}], "abc": [0.656563, 0.120515, 0.69303], "properties": {"magmom": 0.002}, "label": "Cl", "xyz": [8.27256905303, 1.5184661021499999, 8.7320463243]}, {"species": [{"element": "Cl", "occu": 1}], "abc": [0.843437, 0.879485, 0.19303], "properties": {"magmom": 0.002}, "label": "Cl", "xyz": [10.62714594697, 11.08134389785, 2.4321413243]}, {"species": [{"element": "Cl", "occu": 1}], "abc": [0.343437, 0.620514999999999, 0.8069700000000001], "properties": {"magmom": 0.001}, "label": "Cl", "xyz": [4.32724094697, 7.818371102149988, 10.1676686757]}, {"species": [{"element": "Cl", "occu": 1}], "abc": [0.69303, 0.843437, 0.620514999999999], "properties": {"magmom": 0.001}, "label": "Cl", "xyz": [8.7320463243, 10.62714594697, 7.818371102149988]}, {"species": [{"element": "Cl", "occu": 1}], "abc": [0.30697, 0.343437, 0.879485], "properties": {"magmom": 0.001}, "label": "Cl", "xyz": [3.8677636757, 4.32724094697, 11.08134389785]}, {"species": [{"element": "Cl", "occu": 1}], "abc": [0.8069700000000001, 0.156562999999999, 0.120515], "properties": {"magmom": 0.002}, "label": "Cl", "xyz": [10.1676686757, 1.9726640530299875, 1.5184661021499999]}, {"species": [{"element": "Cl", "occu": 1}], "abc": [0.19303, 0.656563, 0.379484999999999], "properties": {"magmom": 0.001}, "label": "Cl", "xyz": [2.4321413243, 8.27256905303, 4.781438897849988]}, {"species": [{"element": "Cl", "occu": 1}], "abc": [0.620514999999999, 0.69303, 0.843437], "properties": {"magmom": -0.0}, "label": "Cl", "xyz": [7.818371102149988, 8.7320463243, 10.62714594697]}, {"species": [{"element": "Cl", "occu": 1}], "abc": [0.879485, 0.30697, 0.343437], "properties": {"magmom": -0.0}, "label": "Cl", "xyz": [11.08134389785, 3.8677636757, 4.32724094697]}, {"species": [{"element": "Cl", "occu": 1}], "abc": [0.120515, 0.8069700000000001, 0.156562999999999], "properties": {"magmom": 0.0}, "label": "Cl", "xyz": [1.5184661021499999, 10.1676686757, 1.9726640530299875]}, {"species": [{"element": "Cl", "occu": 1}], "abc": [0.379484999999999, 0.19303, 0.656563], "properties": {"magmom": -0.0}, "label": "Cl", "xyz": [4.781438897849988, 2.4321413243, 8.27256905303]}, {"species": [{"element": "Cl", "occu": 1}], "abc": [0.843437, 0.620514999999999, 0.69303], "properties": {"magmom": 0.002}, "label": "Cl", "xyz": [10.62714594697, 7.818371102149988, 8.7320463243]}, {"species": [{"element": "Cl", "occu": 1}], "abc": [0.343437, 0.879485, 0.30697], "properties": {"magmom": 0.002}, "label": "Cl", "xyz": [4.32724094697, 11.08134389785, 3.8677636757]}, {"species": [{"element": "Cl", "occu": 1}], "abc": [0.156562999999999, 0.120515, 0.8069700000000001], "properties": {"magmom": 0.002}, "label": "Cl", "xyz": [1.9726640530299875, 1.5184661021499999, 10.1676686757]}, {"species": [{"element": "Cl", "occu": 1}], "abc": [0.656563, 0.379484999999999, 0.19303], "properties": {"magmom": 0.002}, "label": "Cl", "xyz": [8.27256905303, 4.781438897849988, 2.4321413243]}, {"species": [{"element": "Cl", "occu": 1}], "abc": [0.069272, 0.23598000000000002, 0.548144], "properties": {"magmom": 0.001}, "label": "Cl", "xyz": [0.8728140383199999, 2.9733031638000003, 6.9065102526399995]}, {"species": [{"element": "Cl", "occu": 1}], "abc": [0.930728, 0.7359800000000001, 0.951855999999999], "properties": {"magmom": 0.001}, "label": "Cl", "xyz": [11.72699596168, 9.273208163800001, 11.993204747359988]}, {"species": [{"element": "Cl", "occu": 1}], "abc": [0.430728, 0.76402, 0.048144], "properties": {"magmom": 0.001}, "label": "Cl", "xyz": [5.42709096168, 9.6265068362, 0.60660525264]}, {"species": [{"element": "Cl", "occu": 1}], "abc": [0.569272, 0.26402000000000003, 0.451856], "properties": {"magmom": 0.001}, "label": "Cl", "xyz": [7.1727190383199995, 3.3266018362000005, 5.693299747359999]}, {"species": [{"element": "Cl", "occu": 1}], "abc": [0.548144, 0.069272, 0.23598000000000002], "properties": {"magmom": 0.0}, "label": "Cl", "xyz": [6.9065102526399995, 0.8728140383199999, 2.9733031638000003]}, {"species": [{"element": "Cl", "occu": 1}], "abc": [0.951855999999999, 0.930728, 0.7359800000000001], "properties": {"magmom": 0.0}, "label": "Cl", "xyz": [11.993204747359988, 11.72699596168, 9.273208163800001]}, {"species": [{"element": "Cl", "occu": 1}], "abc": [0.048144, 0.430728, 0.76402], "properties": {"magmom": 0.0}, "label": "Cl", "xyz": [0.60660525264, 5.42709096168, 9.6265068362]}, {"species": [{"element": "Cl", "occu": 1}], "abc": [0.451856, 0.569272, 0.26402000000000003], "properties": {"magmom": 0.0}, "label": "Cl", "xyz": [5.693299747359999, 7.1727190383199995, 3.3266018362000005]}, {"species": [{"element": "Cl", "occu": 1}], "abc": [0.23598000000000002, 0.548144, 0.069272], "properties": {"magmom": -0.0}, "label": "Cl", "xyz": [2.9733031638000003, 6.9065102526399995, 0.8728140383199999]}, {"species": [{"element": "Cl", "occu": 1}], "abc": [0.7359800000000001, 0.951855999999999, 0.930728], "properties": {"magmom": 0.0}, "label": "Cl", "xyz": [9.273208163800001, 11.993204747359988, 11.72699596168]}, {"species": [{"element": "Cl", "occu": 1}], "abc": [0.76402, 0.048144, 0.430728], "properties": {"magmom": 0.0}, "label": "Cl", "xyz": [9.6265068362, 0.60660525264, 5.42709096168]}, {"species": [{"element": "Cl", "occu": 1}], "abc": [0.26402000000000003, 0.451856, 0.569272], "properties": {"magmom": -0.0}, "label": "Cl", "xyz": [3.3266018362000005, 5.693299747359999, 7.1727190383199995]}, {"species": [{"element": "Cl", "occu": 1}], "abc": [0.930728, 0.76402, 0.451856], "properties": {"magmom": 0.001}, "label": "Cl", "xyz": [11.72699596168, 9.6265068362, 5.693299747359999]}, {"species": [{"element": "Cl", "occu": 1}], "abc": [0.069272, 0.26402000000000003, 0.048144], "properties": {"magmom": 0.001}, "label": "Cl", "xyz": [0.8728140383199999, 3.3266018362000005, 0.60660525264]}, {"species": [{"element": "Cl", "occu": 1}], "abc": [0.569272, 0.23598000000000002, 0.951855999999999], "properties": {"magmom": 0.001}, "label": "Cl", "xyz": [7.1727190383199995, 2.9733031638000003, 11.993204747359988]}, {"species": [{"element": "Cl", "occu": 1}], "abc": [0.430728, 0.7359800000000001, 0.548144], "properties": {"magmom": 0.001}, "label": "Cl", "xyz": [5.42709096168, 9.273208163800001, 6.9065102526399995]}, {"species": [{"element": "Cl", "occu": 1}], "abc": [0.451856, 0.930728, 0.76402], "properties": {"magmom": 0.0}, "label": "Cl", "xyz": [5.693299747359999, 11.72699596168, 9.6265068362]}, {"species": [{"element": "Cl", "occu": 1}], "abc": [0.048144, 0.069272, 0.26402000000000003], "properties": {"magmom": 0.0}, "label": "Cl", "xyz": [0.60660525264, 0.8728140383199999, 3.3266018362000005]}, {"species": [{"element": "Cl", "occu": 1}], "abc": [0.951855999999999, 0.569272, 0.23598000000000002], "properties": {"magmom": 0.0}, "label": "Cl", "xyz": [11.993204747359988, 7.1727190383199995, 2.9733031638000003]}, {"species": [{"element": "Cl", "occu": 1}], "abc": [0.548144, 0.430728, 0.7359800000000001], "properties": {"magmom": 0.0}, "label": "Cl", "xyz": [6.9065102526399995, 5.42709096168, 9.273208163800001]}, {"species": [{"element": "Cl", "occu": 1}], "abc": [0.76402, 0.451856, 0.930728], "properties": {"magmom": -0.0}, "label": "Cl", "xyz": [9.6265068362, 5.693299747359999, 11.72699596168]}, {"species": [{"element": "Cl", "occu": 1}], "abc": [0.26402000000000003, 0.048144, 0.069272], "properties": {"magmom": 0.0}, "label": "Cl", "xyz": [3.3266018362000005, 0.60660525264, 0.8728140383199999]}, {"species": [{"element": "Cl", "occu": 1}], "abc": [0.23598000000000002, 0.951855999999999, 0.569272], "properties": {"magmom": 0.0}, "label": "Cl", "xyz": [2.9733031638000003, 11.993204747359988, 7.1727190383199995]}, {"species": [{"element": "Cl", "occu": 1}], "abc": [0.7359800000000001, 0.548144, 0.430728], "properties": {"magmom": 0.0}, "label": "Cl", "xyz": [9.273208163800001, 6.9065102526399995, 5.42709096168]}]}, "task_ids": null, "uncorrected_energy_per_atom": null, "energy_per_atom": -7.43309130263889, "formation_energy_per_atom": -0.683694755138889, "energy_above_hull": 0.011412763194443001, "is_stable": false, "equilibrium_reaction_energy_per_atom": null, "decomposes_to": null, "xas": null, "grain_boundaries": null, "band_gap": 0.0, "cbm": null, "vbm": null, "efermi": -0.50010046, "is_gap_direct": null, "is_metal": null, "es_source_calc_id": null, "bandstructure": null, "dos": null, "dos_energy_up": null, "dos_energy_down": null, "is_magnetic": null, "ordering": null, "total_magnetization": 0.5917384, "total_magnetization_normalized_vol": null, "total_magnetization_normalized_formula_units": null, "num_magnetic_sites": null, "num_unique_magnetic_sites": null, "types_of_magnetic_species": null, "bulk_modulus": null, "shear_modulus": null, "universal_anisotropy": null, "homogeneous_poisson": null, "e_total": null, "e_ionic": null, "e_electronic": null, "n": null, "e_ij_max": null, "weighted_surface_energy_EV_PER_ANG2": null, "weighted_surface_energy": null, "weighted_work_function": null, "surface_anisotropy": null, "shape_factor": null, "has_reconstructed": null, "possible_species": null, "has_props": null, "theoretical": null, "database_IDs": null, "fields_not_requested": ["builder_meta", "nsites", "elements", "nelements", "composition", "composition_reduced", "chemsys", "symmetry", "property_name", "deprecated", "deprecation_reasons", "last_updated", "origins", "warnings", "task_ids", "uncorrected_energy_per_atom", "equilibrium_reaction_energy_per_atom", "decomposes_to", "xas", "grain_boundaries", "cbm", "vbm", "is_gap_direct", "is_metal", "es_source_calc_id", "bandstructure", "dos", "dos_energy_up", "dos_energy_down", "is_magnetic", "ordering", "total_magnetization_normalized_vol", "total_magnetization_normalized_formula_units", "num_magnetic_sites", "num_unique_magnetic_sites", "types_of_magnetic_species", "bulk_modulus", "shear_modulus", "universal_anisotropy", "homogeneous_poisson", "e_total", "e_ionic", "e_electronic", "n", "e_ij_max", "weighted_surface_energy_EV_PER_ANG2", "weighted_surface_energy", "weighted_work_function", "surface_anisotropy", "shape_factor", "has_reconstructed", "possible_species", "has_props", "theoretical", "database_IDs"]}