{
  "builder_meta": null,
  "nsites": null,
  "elements": null,
  "nelements": null,
  "composition": null,
  "composition_reduced": null,
  "formula_pretty": "BCl2",
  "formula_anonymous": "AB2",
  "chemsys": null,
  "volume": 725.1215186140101,
  "density": 1.4970651668395312,
  "density_atomic": 30.21339660891709,
  "symmetry": null,
  "property_name": null,
  "material_id": "mp-23316",
  "deprecated": null,
  "deprecation_reasons": null,
  "last_updated": null,
  "origins": null,
  "warnings": null,
  "structure": {
    "@module": "pymatgen.core.structure",
    "@class": "Structure",
    "charge": 0,
    "lattice": {
      "matrix": [
        [6.710181, 0.0, 0.0],
        [0.0, 8.455732, 0.0],
        [0.0, 0.0, 12.779838]
      ],
      "pbc": [true, true, true],
      "a": 6.710181,
      "b": 8.455732,
      "c": 12.779838,
      "alpha": 90.0,
      "beta": 90.0,
      "gamma": 90.0,
      "volume": 725.1215186140101
    },
    "properties": {},
    "sites": [
      {
        "species": [{ "element": "B", "occu": 1 }],
        "abc": [0.394158, 0.053273999999999, 0.513902],
        "properties": { "magmom": 0.0 },
        "label": "B",
        "xyz": [2.644871522598, 0.4504706665679915, 6.5675843078759994]
      },
      {
        "species": [{ "element": "B", "occu": 1 }],
        "abc": [0.894158, 0.446725999999999, 0.486098],
        "properties": { "magmom": 0.0 },
        "label": "B",
        "xyz": [5.999962022598001, 3.777395333431991, 6.2122536921239995]
      },
      {
        "species": [{ "element": "B", "occu": 1 }],
        "abc": [0.605842, 0.553273999999999, 0.986097999999999],
        "properties": { "magmom": 0.0 },
        "label": "B",
        "xyz": [4.065309477402, 4.678336666567992, 12.602172692123988]
      },
      {
        "species": [{ "element": "B", "occu": 1 }],
        "abc": [0.105841999999999, 0.946726, 0.013902],
        "properties": { "magmom": 0.0 },
        "label": "B",
        "xyz": [0.7102189774019934, 8.005261333432, 0.177665307876]
      },
      {
        "species": [{ "element": "B", "occu": 1 }],
        "abc": [0.605842, 0.946726, 0.486098],
        "properties": { "magmom": 0.0 },
        "label": "B",
        "xyz": [4.065309477402, 8.005261333432, 6.2122536921239995]
      },
      {
        "species": [{ "element": "B", "occu": 1 }],
        "abc": [0.105841999999999, 0.553273999999999, 0.513902],
        "properties": { "magmom": 0.0 },
        "label": "B",
        "xyz": [0.7102189774019934, 4.678336666567992, 6.5675843078759994]
      },
      {
        "species": [{ "element": "B", "occu": 1 }],
        "abc": [0.394158, 0.446725999999999, 0.013902],
        "properties": { "magmom": 0.0 },
        "label": "B",
        "xyz": [2.644871522598, 3.777395333431991, 0.177665307876]
      },
      {
        "species": [{ "element": "B", "occu": 1 }],
        "abc": [0.894158, 0.053273999999999, 0.986097999999999],
        "properties": { "magmom": 0.0 },
        "label": "B",
        "xyz": [5.999962022598001, 0.4504706665679915, 12.602172692123988]
      },
      {
        "species": [{ "element": "Cl", "occu": 1 }],
        "abc": [0.787490999999999, 0.04947000000000001, 0.861605],
        "properties": { "magmom": 0.0 },
        "label": "Cl",
        "xyz": [5.284207145870994, 0.41830506204, 11.01117231999]
      },
      {
        "species": [{ "element": "Cl", "occu": 1 }],
        "abc": [0.287491, 0.45053000000000004, 0.138395],
        "properties": { "magmom": 0.0 },
        "label": "Cl",
        "xyz": [1.929116645871, 3.80956093796, 1.7686656800099998]
      },
      {
        "species": [{ "element": "Cl", "occu": 1 }],
        "abc": [0.212509, 0.54947, 0.638394999999999],
        "properties": { "magmom": 0.0 },
        "label": "Cl",
        "xyz": [1.4259738541290001, 4.64617106204, 8.158584680009987]
      },
      {
        "species": [{ "element": "Cl", "occu": 1 }],
        "abc": [0.712509, 0.9505300000000001, 0.361605],
        "properties": { "magmom": 0.0 },
        "label": "Cl",
        "xyz": [4.781064354129, 8.03742693796, 4.62125331999]
      },
      {
        "species": [{ "element": "Cl", "occu": 1 }],
        "abc": [0.212509, 0.9505300000000001, 0.138395],
        "properties": { "magmom": 0.0 },
        "label": "Cl",
        "xyz": [1.4259738541290001, 8.03742693796, 1.7686656800099998]
      },
      {
        "species": [{ "element": "Cl", "occu": 1 }],
        "abc": [0.712509, 0.54947, 0.861605],
        "properties": { "magmom": 0.0 },
        "label": "Cl",
        "xyz": [4.781064354129, 4.64617106204, 11.01117231999]
      },
      {
        "species": [{ "element": "Cl", "occu": 1 }],
        "abc": [0.787490999999999, 0.45053000000000004, 0.361605],
        "properties": { "magmom": 0.0 },
        "label": "Cl",
        "xyz": [5.284207145870994, 3.80956093796, 4.62125331999]
      },
      {
        "species": [{ "element": "Cl", "occu": 1 }],
        "abc": [0.287491, 0.04947000000000001, 0.638394999999999],
        "properties": { "magmom": 0.0 },
        "label": "Cl",
        "xyz": [1.929116645871, 0.41830506204, 8.158584680009987]
      },
      {
        "species": [{ "element": "Cl", "occu": 1 }],
        "abc": [0.279518, 0.167726, 0.416599],
        "properties": { "magmom": 0.0 },
        "label": "Cl",
        "xyz": [1.875616372758, 1.4182461054319997, 5.324067730962]
      },
      {
        "species": [{ "element": "Cl", "occu": 1 }],
        "abc": [0.779517999999999, 0.332273999999999, 0.583401],
        "properties": { "magmom": 0.0 },
        "label": "Cl",
        "xyz": [5.2307068727579935, 2.8096198945679913, 7.455770269037999]
      },
      {
        "species": [{ "element": "Cl", "occu": 1 }],
        "abc": [0.720482, 0.667725999999999, 0.083401],
        "properties": { "magmom": 0.0 },
        "label": "Cl",
        "xyz": [4.834564627242, 5.646112105431992, 1.065851269038]
      },
      {
        "species": [{ "element": "Cl", "occu": 1 }],
        "abc": [0.220481999999999, 0.832274, 0.916598999999999],
        "properties": { "magmom": 0.0 },
        "label": "Cl",
        "xyz": [1.4794741272419936, 7.0374858945679994, 11.713986730961988]
      },
      {
        "species": [{ "element": "Cl", "occu": 1 }],
        "abc": [0.720482, 0.832274, 0.583401],
        "properties": { "magmom": 0.0 },
        "label": "Cl",
        "xyz": [4.834564627242, 7.0374858945679994, 7.455770269037999]
      },
      {
        "species": [{ "element": "Cl", "occu": 1 }],
        "abc": [0.220481999999999, 0.667725999999999, 0.416599],
        "properties": { "magmom": 0.0 },
        "label": "Cl",
        "xyz": [1.4794741272419936, 5.646112105431992, 5.324067730962]
      },
      {
        "species": [{ "element": "Cl", "occu": 1 }],
        "abc": [0.279518, 0.332273999999999, 0.916598999999999],
        "properties": { "magmom": 0.0 },
        "label": "Cl",
        "xyz": [1.875616372758, 2.8096198945679913, 11.713986730961988]
      },
      {
        "species": [{ "element": "Cl", "occu": 1 }],
        "abc": [0.779517999999999, 0.167726, 0.083401],
        "properties": { "magmom": 0.0 },
        "label": "Cl",
        "xyz": [5.2307068727579935, 1.4182461054319997, 1.065851269038]
      }
    ]
  },
  "task_ids": null,
  "uncorrected_energy_per_atom": null,
  "energy_per_atom": -7.360925787962965,
  "formation_energy_per_atom": -0.8105151237962981,
  "energy_above_hull": 0.11629490064814701,
  "is_stable": false,
  "equilibrium_reaction_energy_per_atom": null,
  "decomposes_to": null,
  "xas": null,
  "grain_boundaries": null,
  "band_gap": 2.9183,
  "cbm": null,
  "vbm": null,
  "efermi": -2.08217001,
  "is_gap_direct": null,
  "is_metal": null,
  "es_source_calc_id": null,
  "bandstructure": null,
  "dos": null,
  "dos_energy_up": null,
  "dos_energy_down": null,
  "is_magnetic": null,
  "ordering": null,
  "total_magnetization": 0.0006127,
  "total_magnetization_normalized_vol": null,
  "total_magnetization_normalized_formula_units": null,
  "num_magnetic_sites": null,
  "num_unique_magnetic_sites": null,
  "types_of_magnetic_species": null,
  "bulk_modulus": null,
  "shear_modulus": null,
  "universal_anisotropy": null,
  "homogeneous_poisson": null,
  "e_total": null,
  "e_ionic": null,
  "e_electronic": null,
  "n": null,
  "e_ij_max": null,
  "weighted_surface_energy_EV_PER_ANG2": null,
  "weighted_surface_energy": null,
  "weighted_work_function": null,
  "surface_anisotropy": null,
  "shape_factor": null,
  "has_reconstructed": null,
  "possible_species": null,
  "has_props": null,
  "theoretical": null,
  "database_IDs": null,
  "fields_not_requested": [
    "builder_meta",
    "nsites",
    "elements",
    "nelements",
    "composition",
    "composition_reduced",
    "chemsys",
    "symmetry",
    "property_name",
    "deprecated",
    "deprecation_reasons",
    "last_updated",
    "origins",
    "warnings",
    "task_ids",
    "uncorrected_energy_per_atom",
    "equilibrium_reaction_energy_per_atom",
    "decomposes_to",
    "xas",
    "grain_boundaries",
    "cbm",
    "vbm",
    "is_gap_direct",
    "is_metal",
    "es_source_calc_id",
    "bandstructure",
    "dos",
    "dos_energy_up",
    "dos_energy_down",
    "is_magnetic",
    "ordering",
    "total_magnetization_normalized_vol",
    "total_magnetization_normalized_formula_units",
    "num_magnetic_sites",
    "num_unique_magnetic_sites",
    "types_of_magnetic_species",
    "bulk_modulus",
    "shear_modulus",
    "universal_anisotropy",
    "homogeneous_poisson",
    "e_total",
    "e_ionic",
    "e_electronic",
    "n",
    "e_ij_max",
    "weighted_surface_energy_EV_PER_ANG2",
    "weighted_surface_energy",
    "weighted_work_function",
    "surface_anisotropy",
    "shape_factor",
    "has_reconstructed",
    "possible_species",
    "has_props",
    "theoretical",
    "database_IDs"
  ]
}
