{"builder_meta": null, "nsites": null, "elements": null, "nelements": null, "composition": null, "composition_reduced": null, "formula_pretty": "BCl3", "formula_anonymous": "AB3", "chemsys": null, "volume": 219.9937817642077, "density": 1.768826017474073, "density_atomic": 27.499222720525964, "symmetry": null, "property_name": null, "material_id": "mp-23184", "deprecated": null, "deprecation_reasons": null, "last_updated": null, "origins": null, "warnings": null, "structure": {"@module": "pymatgen.core.structure", "@class": "Structure", "charge": 0, "lattice": {"matrix": [[6.18245986, 4.8310000000000024e-05, -0.0], [-3.09127088, 5.3541424, 0.0], [0.0, 0.0, 6.64595235]], "pbc": [true, true, true], "a": 6.182459860188748, "b": 6.182458774065035, "c": 6.64595235, "alpha": 90.0, "beta": 90.0, "gamma": 119.99999631217128, "volume": 219.9937817642077}, "properties": {}, "sites": [{"species": [{"element": "B", "occu": 1}], "abc": [0.333333, 0.666667, 0.25], "properties": {"magmom": -0.0}, "label": "B", "xyz": [-3.0391243580396576e-05, 3.5694461546980296, 1.6614880875]}, {"species": [{"element": "B", "occu": 1}], "abc": [0.666667, 0.333333, 0.75], "properties": {"magmom": -0.0}, "label": "B", "xyz": [3.09121937124358, 1.7847445553019698, 4.9844642624999995]}, {"species": [{"element": "Cl", "occu": 1}], "abc": [0.06140247, 0.37708138, 0.25], "properties": {"magmom": -0.0}, "label": "Cl", "xyz": [-0.7860423833043604, 2.0189503712618375, 1.6614880875]}, {"species": [{"element": "Cl", "occu": 1}], "abc": [0.68432209, 0.06140247, 0.75], "properties": {"magmom": -0.0}, "label": "Cl", "xyz": [4.040982185265234, 0.32879062769189593, 4.9844642624999995]}, {"species": [{"element": "Cl", "occu": 1}], "abc": [0.37708138, 0.31567791, 0.75], "properties": {"magmom": -0.0}, "label": "Cl", "xyz": [1.355444565161146, 1.6902026994758517, 4.9844642624999995]}, {"species": [{"element": "Cl", "occu": 1}], "abc": [0.62291862, 0.68432209, 0.25], "properties": {"magmom": -0.0}, "label": "Cl", "xyz": [1.7357444148388534, 3.663988010524148, 1.6614880875]}, {"species": [{"element": "Cl", "occu": 1}], "abc": [0.31567791, 0.93859753, 0.25], "properties": {"magmom": -0.0}, "label": "Cl", "xyz": [-0.9497932052652338, 5.025400082308104, 1.6614880875]}, {"species": [{"element": "Cl", "occu": 1}], "abc": [0.93859753, 0.62291862, 0.75], "properties": {"magmom": -0.0}, "label": "Cl", "xyz": [3.8772313633043605, 3.335240338738162, 4.9844642624999995]}]}, "task_ids": null, "uncorrected_energy_per_atom": null, "energy_per_atom": -7.493579, "formation_energy_per_atom": -1.0426612775, "energy_above_hull": 0.0, "is_stable": true, "equilibrium_reaction_energy_per_atom": null, "decomposes_to": null, "xas": null, "grain_boundaries": null, "band_gap": 4.7135, "cbm": null, "vbm": null, "efermi": -2.94441258, "is_gap_direct": null, "is_metal": null, "es_source_calc_id": null, "bandstructure": null, "dos": null, "dos_energy_up": null, "dos_energy_down": null, "is_magnetic": null, "ordering": null, "total_magnetization": 0.0, "total_magnetization_normalized_vol": null, "total_magnetization_normalized_formula_units": null, "num_magnetic_sites": null, "num_unique_magnetic_sites": null, "types_of_magnetic_species": null, "bulk_modulus": null, "shear_modulus": null, "universal_anisotropy": null, "homogeneous_poisson": null, "e_total": null, "e_ionic": null, "e_electronic": null, "n": null, "e_ij_max": null, "weighted_surface_energy_EV_PER_ANG2": null, "weighted_surface_energy": null, "weighted_work_function": null, "surface_anisotropy": null, "shape_factor": null, "has_reconstructed": null, "possible_species": null, "has_props": null, "theoretical": null, "database_IDs": null, "fields_not_requested": ["builder_meta", "nsites", "elements", "nelements", "composition", "composition_reduced", "chemsys", "symmetry", "property_name", "deprecated", "deprecation_reasons", "last_updated", "origins", "warnings", "task_ids", "uncorrected_energy_per_atom", "equilibrium_reaction_energy_per_atom", "decomposes_to", "xas", "grain_boundaries", "cbm", "vbm", "is_gap_direct", "is_metal", "es_source_calc_id", "bandstructure", "dos", "dos_energy_up", "dos_energy_down", "is_magnetic", "ordering", "total_magnetization_normalized_vol", "total_magnetization_normalized_formula_units", "num_magnetic_sites", "num_unique_magnetic_sites", "types_of_magnetic_species", "bulk_modulus", "shear_modulus", "universal_anisotropy", "homogeneous_poisson", "e_total", "e_ionic", "e_electronic", "n", "e_ij_max", "weighted_surface_energy_EV_PER_ANG2", "weighted_surface_energy", "weighted_work_function", "surface_anisotropy", "shape_factor", "has_reconstructed", "possible_species", "has_props", "theoretical", "database_IDs"]}