{"builder_meta": null, "nsites": null, "elements": null, "nelements": null, "composition": null, "composition_reduced": null, "formula_pretty": "Be2Ag", "formula_anonymous": "AB2", "chemsys": null, "volume": 65.31910150123308, "density": 6.400869452023749, "density_atomic": 10.88651691687218, "symmetry": null, "property_name": null, "material_id": "mp-603", "deprecated": null, "deprecation_reasons": null, "last_updated": null, "origins": null, "warnings": null, "structure": {"@module": "pymatgen.core.structure", "@class": "Structure", "charge": 0, "lattice": {"matrix": [[3.91485552, -1e-08, 2.26024239], [1.304951159999999, 3.69096096, 2.26024239], [-0.0, -0.0, 4.52048478]], "pbc": [true, true, true], "a": 4.520485527465759, "b": 4.520485150930415, "c": 4.52048478, "alpha": 60.00000271437219, "beta": 60.000005469759266, "gamma": 60.00000962941078, "volume": 65.31910150123308}, "properties": {}, "sites": [{"species": [{"element": "Be", "occu": 1}], "abc": [0.5, 0.0, 0.5], "properties": {"magmom": -0.0}, "label": "Be", "xyz": [1.95742776, -5e-09, 3.3903635850000002]}, {"species": [{"element": "Be", "occu": 1}], "abc": [-0.0, 0.5, 0.5], "properties": {"magmom": -0.0}, "label": "Be", "xyz": [0.6524755799999995, 1.84548048, 3.3903635850000002]}, {"species": [{"element": "Be", "occu": 1}], "abc": [0.5, 0.5, 0.5], "properties": {"magmom": -0.0}, "label": "Be", "xyz": [2.60990334, 1.845480475, 4.52048478]}, {"species": [{"element": "Be", "occu": 1}], "abc": [0.5, 0.5, -0.0], "properties": {"magmom": -0.0}, "label": "Be", "xyz": [2.60990334, 1.845480475, 2.26024239]}, {"species": [{"element": "Ag", "occu": 1}], "abc": [0.125, 0.125, 0.125], "properties": {"magmom": 0.0}, "label": "Ag", "xyz": [0.652475835, 0.46137011875, 1.130121195]}, {"species": [{"element": "Ag", "occu": 1}], "abc": [0.875, 0.875, 0.875], "properties": {"magmom": 0.0}, "label": "Ag", "xyz": [4.567330844999999, 3.2295908312500003, 7.9108483650000005]}]}, "task_ids": null, "uncorrected_energy_per_atom": null, "energy_per_atom": -3.410867198333334, "formation_energy_per_atom": 0.029720604444444004, "energy_above_hull": 0.029720604444444004, "is_stable": false, "equilibrium_reaction_energy_per_atom": null, "decomposes_to": null, "xas": null, "grain_boundaries": null, "band_gap": 0.0, "cbm": null, "vbm": null, "efermi": 4.6955753399999995, "is_gap_direct": null, "is_metal": null, "es_source_calc_id": null, "bandstructure": null, "dos": null, "dos_energy_up": null, "dos_energy_down": null, "is_magnetic": null, "ordering": null, "total_magnetization": 0.0, "total_magnetization_normalized_vol": null, "total_magnetization_normalized_formula_units": null, "num_magnetic_sites": null, "num_unique_magnetic_sites": null, "types_of_magnetic_species": null, "bulk_modulus": null, "shear_modulus": null, "universal_anisotropy": null, "homogeneous_poisson": null, "e_total": null, "e_ionic": null, "e_electronic": null, "n": null, "e_ij_max": null, "weighted_surface_energy_EV_PER_ANG2": null, "weighted_surface_energy": null, "weighted_work_function": null, "surface_anisotropy": null, "shape_factor": null, "has_reconstructed": null, "possible_species": null, "has_props": null, "theoretical": null, "database_IDs": null, "fields_not_requested": ["builder_meta", "nsites", "elements", "nelements", "composition", "composition_reduced", "chemsys", "symmetry", "property_name", "deprecated", "deprecation_reasons", "last_updated", "origins", "warnings", "task_ids", "uncorrected_energy_per_atom", "equilibrium_reaction_energy_per_atom", "decomposes_to", "xas", "grain_boundaries", "cbm", "vbm", "is_gap_direct", "is_metal", "es_source_calc_id", "bandstructure", "dos", "dos_energy_up", "dos_energy_down", "is_magnetic", "ordering", "total_magnetization_normalized_vol", "total_magnetization_normalized_formula_units", "num_magnetic_sites", "num_unique_magnetic_sites", "types_of_magnetic_species", "bulk_modulus", "shear_modulus", "universal_anisotropy", "homogeneous_poisson", "e_total", "e_ionic", "e_electronic", "n", "e_ij_max", "weighted_surface_energy_EV_PER_ANG2", "weighted_surface_energy", "weighted_work_function", "surface_anisotropy", "shape_factor", "has_reconstructed", "possible_species", "has_props", "theoretical", "database_IDs"]}