{
  "builder_meta": null,
  "nsites": null,
  "elements": null,
  "nelements": null,
  "composition": null,
  "composition_reduced": null,
  "formula_pretty": "Be2B",
  "formula_anonymous": "AB2",
  "chemsys": null,
  "volume": 23.919909626370508,
  "density": 2.001773801387754,
  "density_atomic": 7.97330320879017,
  "symmetry": null,
  "property_name": null,
  "material_id": "mp-1432",
  "deprecated": null,
  "deprecation_reasons": null,
  "last_updated": null,
  "origins": null,
  "warnings": null,
  "structure": {
    "@module": "pymatgen.core.structure",
    "@class": "Structure",
    "charge": 0,
    "lattice": {
      "matrix": [
        [2.80084324, 0.0, 1.61706748],
        [0.93361475, 2.640659819999999, 1.61706748],
        [-0.0, -0.0, 3.23413597]
      ],
      "pbc": [true, true, true],
      "a": 3.2341351378579173,
      "b": 3.2341348180392138,
      "c": 3.23413597,
      "alpha": 59.99999854798105,
      "beta": 60.000001819185734,
      "gamma": 59.999991977214535,
      "volume": 23.919909626370494
    },
    "properties": {},
    "sites": [
      {
        "species": [{ "element": "Be", "occu": 1 }],
        "abc": [0.75, 0.75, 0.75],
        "properties": { "magmom": -0.0 },
        "label": "Be",
        "xyz": [2.8008434925000003, 1.9804948649999992, 4.8512031975]
      },
      {
        "species": [{ "element": "Be", "occu": 1 }],
        "abc": [0.25, 0.25, 0.25],
        "properties": { "magmom": -0.0 },
        "label": "Be",
        "xyz": [0.9336144975, 0.6601649549999997, 1.6170677325]
      },
      {
        "species": [{ "element": "B", "occu": 1 }],
        "abc": [0.0, 0.0, -0.0],
        "properties": { "magmom": 0.0 },
        "label": "B",
        "xyz": [0.0, 0.0, 0.0]
      }
    ]
  },
  "task_ids": null,
  "uncorrected_energy_per_atom": null,
  "energy_per_atom": -4.678687386666667,
  "formation_energy_per_atom": 0.040718446944444,
  "energy_above_hull": 0.05464939597222301,
  "is_stable": false,
  "equilibrium_reaction_energy_per_atom": null,
  "decomposes_to": null,
  "xas": null,
  "grain_boundaries": null,
  "band_gap": 0.0,
  "cbm": null,
  "vbm": null,
  "efermi": 4.79997553,
  "is_gap_direct": null,
  "is_metal": null,
  "es_source_calc_id": null,
  "bandstructure": null,
  "dos": null,
  "dos_energy_up": null,
  "dos_energy_down": null,
  "is_magnetic": null,
  "ordering": null,
  "total_magnetization": 0.0,
  "total_magnetization_normalized_vol": null,
  "total_magnetization_normalized_formula_units": null,
  "num_magnetic_sites": null,
  "num_unique_magnetic_sites": null,
  "types_of_magnetic_species": null,
  "bulk_modulus": null,
  "shear_modulus": null,
  "universal_anisotropy": null,
  "homogeneous_poisson": null,
  "e_total": null,
  "e_ionic": null,
  "e_electronic": null,
  "n": null,
  "e_ij_max": null,
  "weighted_surface_energy_EV_PER_ANG2": null,
  "weighted_surface_energy": null,
  "weighted_work_function": null,
  "surface_anisotropy": null,
  "shape_factor": null,
  "has_reconstructed": null,
  "possible_species": null,
  "has_props": null,
  "theoretical": null,
  "database_IDs": null,
  "fields_not_requested": [
    "builder_meta",
    "nsites",
    "elements",
    "nelements",
    "composition",
    "composition_reduced",
    "chemsys",
    "symmetry",
    "property_name",
    "deprecated",
    "deprecation_reasons",
    "last_updated",
    "origins",
    "warnings",
    "task_ids",
    "uncorrected_energy_per_atom",
    "equilibrium_reaction_energy_per_atom",
    "decomposes_to",
    "xas",
    "grain_boundaries",
    "cbm",
    "vbm",
    "is_gap_direct",
    "is_metal",
    "es_source_calc_id",
    "bandstructure",
    "dos",
    "dos_energy_up",
    "dos_energy_down",
    "is_magnetic",
    "ordering",
    "total_magnetization_normalized_vol",
    "total_magnetization_normalized_formula_units",
    "num_magnetic_sites",
    "num_unique_magnetic_sites",
    "types_of_magnetic_species",
    "bulk_modulus",
    "shear_modulus",
    "universal_anisotropy",
    "homogeneous_poisson",
    "e_total",
    "e_ionic",
    "e_electronic",
    "n",
    "e_ij_max",
    "weighted_surface_energy_EV_PER_ANG2",
    "weighted_surface_energy",
    "weighted_work_function",
    "surface_anisotropy",
    "shape_factor",
    "has_reconstructed",
    "possible_species",
    "has_props",
    "theoretical",
    "database_IDs"
  ]
}
