{
  "builder_meta": null,
  "nsites": null,
  "elements": null,
  "nelements": null,
  "composition": null,
  "composition_reduced": null,
  "formula_pretty": "Be2Cr",
  "formula_anonymous": "AB2",
  "chemsys": null,
  "volume": 114.39090100088167,
  "density": 4.065767990849648,
  "density_atomic": 9.532575083406806,
  "symmetry": null,
  "property_name": null,
  "material_id": "mp-30438",
  "deprecated": null,
  "deprecation_reasons": null,
  "last_updated": null,
  "origins": null,
  "warnings": null,
  "structure": {
    "@module": "pymatgen.core.structure",
    "@class": "Structure",
    "charge": 0,
    "lattice": {
      "matrix": [
        [4.31335148, 2.1810000000000003e-5, 1.09e-6],
        [-2.15665821, 3.73548127, -1e-8],
        [1.12e-6, 3.0000000000000004e-8, 7.09951696]
      ],
      "pbc": [true, true, true],
      "a": 4.313351480055277,
      "b": 4.3133507802265765,
      "c": 7.099516960000089,
      "alpha": 90.00000444253368,
      "beta": 89.99997648231927,
      "gamma": 119.99944677664506,
      "volume": 114.39090100088167
    },
    "properties": {},
    "sites": [
      {
        "species": [{ "element": "Be", "occu": 1 }],
        "abc": [0.0, -0.0, -4.599999999999998e-7],
        "properties": { "magmom": -0.0 },
        "label": "Be",
        "xyz": [
          -5.151999999999998e-13, -1.3799999999999995e-14,
          -3.2657778015999983e-6
        ]
      },
      {
        "species": [{ "element": "Be", "occu": 1 }],
        "abc": [0.0, -0.0, 0.50000411],
        "properties": { "magmom": 0.0 },
        "label": "Be",
        "xyz": [5.600046032e-7, 1.5000123300000003e-8, 3.5497876590147057]
      },
      {
        "species": [{ "element": "Be", "occu": 1 }],
        "abc": [0.83164331, 0.66328162, 0.25004963],
        "properties": { "magmom": 0.0 },
        "label": "Be",
        "xyz": [2.1566984307610837, 2.4776942138873377, 1.7752324888851168]
      },
      {
        "species": [{ "element": "Be", "occu": 1 }],
        "abc": [0.16835952, 0.83164148, 0.74993769],
        "properties": { "magmom": -0.0 },
        "label": "Be",
        "xyz": [-1.0673718009242483, 3.106584866314342, 5.324195524293684]
      },
      {
        "species": [{ "element": "Be", "occu": 1 }],
        "abc": [0.6632859600000001, 0.83164448, 0.74993869],
        "properties": { "magmom": -0.0 },
        "label": "Be",
        "xyz": [1.067413421567373, 3.1066068671038383, 5.324203163280434]
      },
      {
        "species": [{ "element": "Be", "occu": 1 }],
        "abc": [0.33671738, 0.16835569, 0.25004863],
        "properties": { "magmom": 0.0 },
        "label": "Be",
        "xyz": [1.089295008380473, 0.628896878000443, 1.775224854848152]
      },
      {
        "species": [{ "element": "Be", "occu": 1 }],
        "abc": [0.83164031, 0.16836069, 0.25004963],
        "properties": { "magmom": 0.0 },
        "label": "Be",
        "xyz": [3.2240607776919794, 0.6289263496759263, 1.775232493831056]
      },
      {
        "species": [{ "element": "Be", "occu": 1 }],
        "abc": [0.16835552, 0.33671404, 0.74993769],
        "properties": { "magmom": -0.0 },
        "label": "Be",
        "xyz": [2.725001141142384e-7, 1.2577926840980527, 5.324195529238598]
      },
      {
        "species": [{ "element": "Cr", "occu": 1 }],
        "abc": [0.333335, 0.666666, 0.06442068000000001],
        "properties": { "magmom": -2.888 },
        "label": "Cr",
        "xyz": [2.0385509101549484e-5, 2.4903256283147903, 0.4573560669032229]
      },
      {
        "species": [{ "element": "Cr", "occu": 1 }],
        "abc": [0.666666, 0.333333999999999, 0.56449818],
        "properties": { "magmom": -2.887 },
        "label": "Cr",
        "xyz": [2.1566779022315035, 1.245177470574582, 4.007665126131733]
      },
      {
        "species": [{ "element": "Cr", "occu": 1 }],
        "abc": [0.666666, 0.333333999999999, 0.93554738],
        "properties": { "magmom": 2.888 },
        "label": "Cr",
        "xyz": [2.1566783178066076, 1.245177481706058, 6.641935214526165]
      },
      {
        "species": [{ "element": "Cr", "occu": 1 }],
        "abc": [0.333333999999999, 0.666666, 0.43556716],
        "properties": { "magmom": 2.887 },
        "label": "Cr",
        "xyz": [1.6487841674940844e-5, 2.490325639427375, 3.0923167963064335]
      }
    ]
  },
  "task_ids": null,
  "uncorrected_energy_per_atom": null,
  "energy_per_atom": -5.931072809166668,
  "formation_energy_per_atom": -0.22044840916666703,
  "energy_above_hull": 0.0,
  "is_stable": true,
  "equilibrium_reaction_energy_per_atom": null,
  "decomposes_to": null,
  "xas": null,
  "grain_boundaries": null,
  "band_gap": 0.0,
  "cbm": null,
  "vbm": null,
  "efermi": 5.14889818,
  "is_gap_direct": null,
  "is_metal": null,
  "es_source_calc_id": null,
  "bandstructure": null,
  "dos": null,
  "dos_energy_up": null,
  "dos_energy_down": null,
  "is_magnetic": null,
  "ordering": null,
  "total_magnetization": 3.5300000000000004e-5,
  "total_magnetization_normalized_vol": null,
  "total_magnetization_normalized_formula_units": null,
  "num_magnetic_sites": null,
  "num_unique_magnetic_sites": null,
  "types_of_magnetic_species": null,
  "bulk_modulus": null,
  "shear_modulus": null,
  "universal_anisotropy": null,
  "homogeneous_poisson": null,
  "e_total": null,
  "e_ionic": null,
  "e_electronic": null,
  "n": null,
  "e_ij_max": null,
  "weighted_surface_energy_EV_PER_ANG2": null,
  "weighted_surface_energy": null,
  "weighted_work_function": null,
  "surface_anisotropy": null,
  "shape_factor": null,
  "has_reconstructed": null,
  "possible_species": null,
  "has_props": null,
  "theoretical": null,
  "database_IDs": null,
  "fields_not_requested": [
    "builder_meta",
    "nsites",
    "elements",
    "nelements",
    "composition",
    "composition_reduced",
    "chemsys",
    "symmetry",
    "property_name",
    "deprecated",
    "deprecation_reasons",
    "last_updated",
    "origins",
    "warnings",
    "task_ids",
    "uncorrected_energy_per_atom",
    "equilibrium_reaction_energy_per_atom",
    "decomposes_to",
    "xas",
    "grain_boundaries",
    "cbm",
    "vbm",
    "is_gap_direct",
    "is_metal",
    "es_source_calc_id",
    "bandstructure",
    "dos",
    "dos_energy_up",
    "dos_energy_down",
    "is_magnetic",
    "ordering",
    "total_magnetization_normalized_vol",
    "total_magnetization_normalized_formula_units",
    "num_magnetic_sites",
    "num_unique_magnetic_sites",
    "types_of_magnetic_species",
    "bulk_modulus",
    "shear_modulus",
    "universal_anisotropy",
    "homogeneous_poisson",
    "e_total",
    "e_ionic",
    "e_electronic",
    "n",
    "e_ij_max",
    "weighted_surface_energy_EV_PER_ANG2",
    "weighted_surface_energy",
    "weighted_work_function",
    "surface_anisotropy",
    "shape_factor",
    "has_reconstructed",
    "possible_species",
    "has_props",
    "theoretical",
    "database_IDs"
  ]
}
