{"builder_meta": null, "nsites": null, "elements": null, "nelements": null, "composition": null, "composition_reduced": null, "formula_pretty": "Be2Fe", "formula_anonymous": "AB2", "chemsys": null, "volume": 103.2960246961987, "density": 4.74995877557366, "density_atomic": 8.608002058016558, "symmetry": null, "property_name": null, "material_id": "mp-2225", "deprecated": null, "deprecation_reasons": null, "last_updated": null, "origins": null, "warnings": null, "structure": {"@module": "pymatgen.core.structure", "@class": "Structure", "charge": 0, "lattice": {"matrix": [[4.18834927, 4.3330000000000014e-05, -2e-08], [-2.09413759, 3.62723775, 2e-08], [-4e-08, 2e-08, 6.79926708]], "pbc": [true, true, true], "a": 4.1883492702241325, "b": 4.18834883228177, "c": 6.79926708, "alpha": 89.99999941191518, "beta": 90.00000061066459, "gamma": 119.99882554753857, "volume": 103.2960246961987}, "properties": {}, "sites": [{"species": [{"element": "Be", "occu": 1}], "abc": [3.0000000000000004e-08, -3.0000000000000004e-08, 0.99999906], "properties": {"magmom": -0.088}, "label": "Be", "xyz": [1.484746434e-07, -8.881585140000001e-08, 6.799260688688944]}, {"species": [{"element": "Be", "occu": 1}], "abc": [3.0000000000000004e-08, -3.0000000000000004e-08, 0.49999998], "properties": {"magmom": -0.088}, "label": "Be", "xyz": [1.684746066e-07, -9.881583300000002e-08, 3.399633404014657]}, {"species": [{"element": "Be", "occu": 1}], "abc": [0.829711699999999, 0.65942203, 0.25000037], "properties": {"magmom": -0.075}, "label": "Be", "xyz": [2.0942019223083324, 2.3919164368056007, 1.6998192823230263]}, {"species": [{"element": "Be", "occu": 1}], "abc": [0.17029563, 0.82970437, 0.7500001], "properties": {"magmom": -0.075}, "label": "Be", "xyz": [-1.024257562209582, 3.009542406113617, 5.099451003114883]}, {"species": [{"element": "Be", "occu": 1}], "abc": [0.6594194, 0.82971092, 0.75000011], "properties": {"magmom": -0.075}, "label": "Be", "xyz": [1.0243499062083505, 3.0095873582538344, 5.099451061325209]}, {"species": [{"element": "Be", "occu": 1}], "abc": [0.34057797, 0.1702883, 0.25000037], "properties": {"magmom": -0.075}, "label": "Be", "xyz": [1.0698523518603702, 0.6176909123867725, 1.6998192823230263]}, {"species": [{"element": "Be", "occu": 1}], "abc": [0.8297054500000001, 0.17029455000000002, 0.25000037], "properties": {"magmom": -0.075}, "label": "Be", "xyz": [3.1184759872953727, 0.6177347765164185, 1.6998192725406016]}, {"species": [{"element": "Be", "occu": 1}], "abc": [0.17028908, 0.3405806, 0.75000011], "properties": {"magmom": -0.075}, "label": "Be", "xyz": [7.47702221323433e-06, 1.2353742028634884, 5.099451061325209]}, {"species": [{"element": "Fe", "occu": 1}], "abc": [0.33333345000000003, 0.66666655, 0.061467970000000004], "properties": {"magmom": 2.37}, "label": "Fe", "xyz": [2.5427164748388023e-05, 2.41817252139001, 0.4179371515620896]}, {"species": [{"element": "Fe", "occu": 1}], "abc": [0.6666664, 0.3333336, 0.56148582], "properties": {"magmom": 2.37}, "label": "Fe", "xyz": [2.094185285544071, 1.2091091151482285, 3.8176920451461496]}, {"species": [{"element": "Fe", "occu": 1}], "abc": [0.66666641, 0.33333359, 0.93852158], "properties": {"magmom": 2.37}, "label": "Fe", "xyz": [2.094185333287509, 1.2091090864169995, 6.381258876096929]}, {"species": [{"element": "Fe", "occu": 1}], "abc": [0.33333346, 0.66666654, 0.43852517], "properties": {"magmom": 2.37}, "label": "Fe", "xyz": [2.547490732880671e-05, 2.4181724926592105, 2.9816497587990654]}]}, "task_ids": null, "uncorrected_energy_per_atom": null, "energy_per_atom": -5.593872814999998, "formation_energy_per_atom": -0.27759050166666505, "energy_above_hull": 0.0, "is_stable": true, "equilibrium_reaction_energy_per_atom": null, "decomposes_to": null, "xas": null, "grain_boundaries": null, "band_gap": 0.0, "cbm": null, "vbm": null, "efermi": 4.8150945499999995, "is_gap_direct": null, "is_metal": null, "es_source_calc_id": null, "bandstructure": null, "dos": null, "dos_energy_up": null, "dos_energy_down": null, "is_magnetic": null, "ordering": null, "total_magnetization": 8.3922514, "total_magnetization_normalized_vol": null, "total_magnetization_normalized_formula_units": null, "num_magnetic_sites": null, "num_unique_magnetic_sites": null, "types_of_magnetic_species": null, "bulk_modulus": null, "shear_modulus": null, "universal_anisotropy": null, "homogeneous_poisson": null, "e_total": null, "e_ionic": null, "e_electronic": null, "n": null, "e_ij_max": null, "weighted_surface_energy_EV_PER_ANG2": null, "weighted_surface_energy": null, "weighted_work_function": null, "surface_anisotropy": null, "shape_factor": null, "has_reconstructed": null, "possible_species": null, "has_props": null, "theoretical": null, "database_IDs": null, "fields_not_requested": ["builder_meta", "nsites", "elements", "nelements", "composition", "composition_reduced", "chemsys", "symmetry", "property_name", "deprecated", "deprecation_reasons", "last_updated", "origins", "warnings", "task_ids", "uncorrected_energy_per_atom", "equilibrium_reaction_energy_per_atom", "decomposes_to", "xas", "grain_boundaries", "cbm", "vbm", "is_gap_direct", "is_metal", "es_source_calc_id", "bandstructure", "dos", "dos_energy_up", "dos_energy_down", "is_magnetic", "ordering", "total_magnetization_normalized_vol", "total_magnetization_normalized_formula_units", "num_magnetic_sites", "num_unique_magnetic_sites", "types_of_magnetic_species", "bulk_modulus", "shear_modulus", "universal_anisotropy", "homogeneous_poisson", "e_total", "e_ionic", "e_electronic", "n", "e_ij_max", "weighted_surface_energy_EV_PER_ANG2", "weighted_surface_energy", "weighted_work_function", "surface_anisotropy", "shape_factor", "has_reconstructed", "possible_species", "has_props", "theoretical", "database_IDs"]}