{
  "builder_meta": null,
  "nsites": null,
  "elements": null,
  "nelements": null,
  "composition": null,
  "composition_reduced": null,
  "formula_pretty": "Be2Mo",
  "formula_anonymous": "AB2",
  "chemsys": null,
  "volume": 124.55101112110948,
  "density": 6.077583053523648,
  "density_atomic": 10.379250926759124,
  "symmetry": null,
  "property_name": null,
  "material_id": "mp-1677",
  "deprecated": null,
  "deprecation_reasons": null,
  "last_updated": null,
  "origins": null,
  "warnings": null,
  "structure": {
    "@module": "pymatgen.core.structure",
    "@class": "Structure",
    "charge": 0,
    "lattice": {
      "matrix": [
        [4.44186247, 1.049e-5, -0.0],
        [-2.22092029, 3.84677255, 0.0],
        [-0.0, 0.0, 7.28928699]
      ],
      "pbc": [true, true, true],
      "a": 4.441862470012387,
      "b": 4.44186289589933,
      "c": 7.28928699,
      "alpha": 90.0,
      "beta": 90.0,
      "gamma": 119.9996984967331,
      "volume": 124.55101112110948
    },
    "properties": {},
    "sites": [
      {
        "species": [{ "element": "Be", "occu": 1 }],
        "abc": [-0.0, 0.0, -0.0],
        "properties": { "magmom": 0.0 },
        "label": "Be",
        "xyz": [0.0, 0.0, 0.0]
      },
      {
        "species": [{ "element": "Be", "occu": 1 }],
        "abc": [-0.0, 0.0, 0.5],
        "properties": { "magmom": 0.0 },
        "label": "Be",
        "xyz": [0.0, 0.0, 3.644643495]
      },
      {
        "species": [{ "element": "Be", "occu": 1 }],
        "abc": [0.8302901500000001, 0.6605829400000001, 0.25],
        "properties": { "magmom": 0.0 },
        "label": "Be",
        "xyz": [2.220932601821818, 2.5411210303339704, 1.8223217475]
      },
      {
        "species": [{ "element": "Be", "occu": 1 }],
        "abc": [0.16970805, 0.83029195, 0.75],
        "properties": { "magmom": -0.0 },
        "label": "Be",
        "xyz": [-1.0901924202267819, 3.193946061983417, 5.4669652425]
      },
      {
        "species": [{ "element": "Be", "occu": 1 }],
        "abc": [0.6605829400000001, 0.8302901500000001, 0.75],
        "properties": { "magmom": 0.0 },
        "label": "Be",
        "xyz": [1.0902103287861187, 3.193944287070423, 5.4669652425]
      },
      {
        "species": [{ "element": "Be", "occu": 1 }],
        "abc": [0.33941706, 0.16970985, 0.25],
        "properties": { "magmom": 0.0 },
        "label": "Be",
        "xyz": [1.130731851213882, 0.6528387529295768, 1.8223217475]
      },
      {
        "species": [{ "element": "Be", "occu": 1 }],
        "abc": [0.83029195, 0.16970805, 0.25],
        "properties": { "magmom": -0.0 },
        "label": "Be",
        "xyz": [3.311134600226782, 0.652836978016583, 1.8223217475]
      },
      {
        "species": [{ "element": "Be", "occu": 1 }],
        "abc": [0.16970985, 0.33941706, 0.75],
        "properties": { "magmom": 0.0 },
        "label": "Be",
        "xyz": [9.578178182034769e-6, 1.3056620096660294, 5.4669652425]
      },
      {
        "species": [{ "element": "Mo", "occu": 1 }],
        "abc": [0.333333799999999, 0.6666662, 0.06302172],
        "properties": { "magmom": 0.0 },
        "label": "Mo",
        "xyz": [1.0405965283677432e-5, 2.564516734844372, 0.45938340368342284]
      },
      {
        "species": [{ "element": "Mo", "occu": 1 }],
        "abc": [0.6666662, 0.333333799999999, 0.56302072],
        "properties": { "magmom": 0.0 },
        "label": "Mo",
        "xyz": [2.220931774034714, 1.282266305155624, 4.104019609396433]
      },
      {
        "species": [{ "element": "Mo", "occu": 1 }],
        "abc": [0.6666662, 0.333333799999999, 0.93697828],
        "properties": { "magmom": 0.0 },
        "label": "Mo",
        "xyz": [2.220931774034714, 1.282266305155624, 6.829903586316577]
      },
      {
        "species": [{ "element": "Mo", "occu": 1 }],
        "abc": [0.333333799999999, 0.6666662, 0.43697928],
        "properties": { "magmom": 0.0 },
        "label": "Mo",
        "xyz": [1.0405965283677432e-5, 2.564516734844372, 3.1852673806035674]
      }
    ]
  },
  "task_ids": null,
  "uncorrected_energy_per_atom": null,
  "energy_per_atom": -6.428075105833332,
  "formation_energy_per_atom": -0.31991649249999904,
  "energy_above_hull": 0.0,
  "is_stable": true,
  "equilibrium_reaction_energy_per_atom": null,
  "decomposes_to": null,
  "xas": null,
  "grain_boundaries": null,
  "band_gap": 0.0,
  "cbm": null,
  "vbm": null,
  "efermi": 5.8764531700000004,
  "is_gap_direct": null,
  "is_metal": null,
  "es_source_calc_id": null,
  "bandstructure": null,
  "dos": null,
  "dos_energy_up": null,
  "dos_energy_down": null,
  "is_magnetic": null,
  "ordering": null,
  "total_magnetization": 0.0,
  "total_magnetization_normalized_vol": null,
  "total_magnetization_normalized_formula_units": null,
  "num_magnetic_sites": null,
  "num_unique_magnetic_sites": null,
  "types_of_magnetic_species": null,
  "bulk_modulus": null,
  "shear_modulus": null,
  "universal_anisotropy": null,
  "homogeneous_poisson": null,
  "e_total": null,
  "e_ionic": null,
  "e_electronic": null,
  "n": null,
  "e_ij_max": null,
  "weighted_surface_energy_EV_PER_ANG2": null,
  "weighted_surface_energy": null,
  "weighted_work_function": null,
  "surface_anisotropy": null,
  "shape_factor": null,
  "has_reconstructed": null,
  "possible_species": null,
  "has_props": null,
  "theoretical": null,
  "database_IDs": null,
  "fields_not_requested": [
    "builder_meta",
    "nsites",
    "elements",
    "nelements",
    "composition",
    "composition_reduced",
    "chemsys",
    "symmetry",
    "property_name",
    "deprecated",
    "deprecation_reasons",
    "last_updated",
    "origins",
    "warnings",
    "task_ids",
    "uncorrected_energy_per_atom",
    "equilibrium_reaction_energy_per_atom",
    "decomposes_to",
    "xas",
    "grain_boundaries",
    "cbm",
    "vbm",
    "is_gap_direct",
    "is_metal",
    "es_source_calc_id",
    "bandstructure",
    "dos",
    "dos_energy_up",
    "dos_energy_down",
    "is_magnetic",
    "ordering",
    "total_magnetization_normalized_vol",
    "total_magnetization_normalized_formula_units",
    "num_magnetic_sites",
    "num_unique_magnetic_sites",
    "types_of_magnetic_species",
    "bulk_modulus",
    "shear_modulus",
    "universal_anisotropy",
    "homogeneous_poisson",
    "e_total",
    "e_ionic",
    "e_electronic",
    "n",
    "e_ij_max",
    "weighted_surface_energy_EV_PER_ANG2",
    "weighted_surface_energy",
    "weighted_work_function",
    "surface_anisotropy",
    "shape_factor",
    "has_reconstructed",
    "possible_species",
    "has_props",
    "theoretical",
    "database_IDs"
  ]
}
