{
  "builder_meta": null,
  "nsites": null,
  "elements": null,
  "nelements": null,
  "composition": null,
  "composition_reduced": null,
  "formula_pretty": "Be2Nb",
  "formula_anonymous": "AB2",
  "chemsys": null,
  "volume": 70.21476548700666,
  "density": 5.246897367565542,
  "density_atomic": 11.70246091450111,
  "symmetry": null,
  "property_name": null,
  "material_id": "mp-2028",
  "deprecated": null,
  "deprecation_reasons": null,
  "last_updated": null,
  "origins": null,
  "warnings": null,
  "structure": {
    "@module": "pymatgen.core.structure",
    "@class": "Structure",
    "charge": 0,
    "lattice": {
      "matrix": [
        [4.01031525, -0.0, 2.3153556],
        [1.33677175, 3.780960529999999, 2.3153556],
        [-0.0, -0.0, 4.63071222]
      ],
      "pbc": [true, true, true],
      "a": 4.630712683684221,
      "b": 4.630711910221505,
      "c": 4.63071222,
      "alpha": 60.00000507350449,
      "beta": 60.00001059877382,
      "gamma": 60.0000015405781,
      "volume": 70.21476548700663
    },
    "properties": {},
    "sites": [
      {
        "species": [{ "element": "Be", "occu": 1 }],
        "abc": [0.5, 0.5, 0.5],
        "properties": { "magmom": -0.0 },
        "label": "Be",
        "xyz": [2.6735435, 1.8904802649999994, 4.63071171]
      },
      {
        "species": [{ "element": "Be", "occu": 1 }],
        "abc": [0.5, 0.5, -0.0],
        "properties": { "magmom": -0.0 },
        "label": "Be",
        "xyz": [2.6735435, 1.8904802649999994, 2.3153556]
      },
      {
        "species": [{ "element": "Be", "occu": 1 }],
        "abc": [0.0, 0.5, 0.5],
        "properties": { "magmom": -0.0 },
        "label": "Be",
        "xyz": [0.668385875, 1.8904802649999994, 3.4730339100000003]
      },
      {
        "species": [{ "element": "Be", "occu": 1 }],
        "abc": [0.5, 0.0, 0.5],
        "properties": { "magmom": -0.0 },
        "label": "Be",
        "xyz": [2.005157625, 0.0, 3.4730339100000003]
      },
      {
        "species": [{ "element": "Nb", "occu": 1 }],
        "abc": [0.875, 0.875, 0.875],
        "properties": { "magmom": -0.0 },
        "label": "Nb",
        "xyz": [4.678701125, 3.308340463749999, 8.1037454925]
      },
      {
        "species": [{ "element": "Nb", "occu": 1 }],
        "abc": [0.125, 0.125, 0.125],
        "properties": { "magmom": -0.0 },
        "label": "Nb",
        "xyz": [0.668385875, 0.47262006624999986, 1.1576779275]
      }
    ]
  },
  "task_ids": null,
  "uncorrected_energy_per_atom": null,
  "energy_per_atom": -6.050024823333334,
  "formation_energy_per_atom": -0.18998123333333303,
  "energy_above_hull": 0.021783169523808002,
  "is_stable": false,
  "equilibrium_reaction_energy_per_atom": null,
  "decomposes_to": null,
  "xas": null,
  "grain_boundaries": null,
  "band_gap": 0.0,
  "cbm": null,
  "vbm": null,
  "efermi": 4.0798316,
  "is_gap_direct": null,
  "is_metal": null,
  "es_source_calc_id": null,
  "bandstructure": null,
  "dos": null,
  "dos_energy_up": null,
  "dos_energy_down": null,
  "is_magnetic": null,
  "ordering": null,
  "total_magnetization": 5e-7,
  "total_magnetization_normalized_vol": null,
  "total_magnetization_normalized_formula_units": null,
  "num_magnetic_sites": null,
  "num_unique_magnetic_sites": null,
  "types_of_magnetic_species": null,
  "bulk_modulus": null,
  "shear_modulus": null,
  "universal_anisotropy": null,
  "homogeneous_poisson": null,
  "e_total": null,
  "e_ionic": null,
  "e_electronic": null,
  "n": null,
  "e_ij_max": null,
  "weighted_surface_energy_EV_PER_ANG2": null,
  "weighted_surface_energy": null,
  "weighted_work_function": null,
  "surface_anisotropy": null,
  "shape_factor": null,
  "has_reconstructed": null,
  "possible_species": null,
  "has_props": null,
  "theoretical": null,
  "database_IDs": null,
  "fields_not_requested": [
    "builder_meta",
    "nsites",
    "elements",
    "nelements",
    "composition",
    "composition_reduced",
    "chemsys",
    "symmetry",
    "property_name",
    "deprecated",
    "deprecation_reasons",
    "last_updated",
    "origins",
    "warnings",
    "task_ids",
    "uncorrected_energy_per_atom",
    "equilibrium_reaction_energy_per_atom",
    "decomposes_to",
    "xas",
    "grain_boundaries",
    "cbm",
    "vbm",
    "is_gap_direct",
    "is_metal",
    "es_source_calc_id",
    "bandstructure",
    "dos",
    "dos_energy_up",
    "dos_energy_down",
    "is_magnetic",
    "ordering",
    "total_magnetization_normalized_vol",
    "total_magnetization_normalized_formula_units",
    "num_magnetic_sites",
    "num_unique_magnetic_sites",
    "types_of_magnetic_species",
    "bulk_modulus",
    "shear_modulus",
    "universal_anisotropy",
    "homogeneous_poisson",
    "e_total",
    "e_ionic",
    "e_electronic",
    "n",
    "e_ij_max",
    "weighted_surface_energy_EV_PER_ANG2",
    "weighted_surface_energy",
    "weighted_work_function",
    "surface_anisotropy",
    "shape_factor",
    "has_reconstructed",
    "possible_species",
    "has_props",
    "theoretical",
    "database_IDs"
  ]
}
