{"builder_meta": null, "nsites": null, "elements": null, "nelements": null, "composition": null, "composition_reduced": null, "formula_pretty": "Be2Nb3", "formula_anonymous": "A2B3", "chemsys": null, "volume": 143.9334137584123, "density": 6.846974142902572, "density_atomic": 14.393341375841231, "symmetry": null, "property_name": null, "material_id": "mp-11272", "deprecated": null, "deprecation_reasons": null, "last_updated": null, "origins": null, "warnings": null, "structure": {"@module": "pymatgen.core.structure", "@class": "Structure", "charge": 0, "lattice": {"matrix": [[3.37386193, 0.0, 0.0], [0.0, 6.5315636, -1.029999999999998e-06], [0.0, -1.029999999999998e-06, 6.5315636]], "pbc": [true, true, true], "a": 3.37386193, "b": 6.531563600000081, "c": 6.531563600000081, "alpha": 90.000018070605, "beta": 90.0, "gamma": 90.0, "volume": 143.9334137584123}, "properties": {}, "sites": [{"species": [{"element": "Be", "occu": 1}], "abc": [-0.0, 0.38687847000000003, 0.88687847], "properties": {"magmom": 0.0}, "label": "Be", "xyz": [0.0, 2.526920418790868, 5.792702733790868]}, {"species": [{"element": "Be", "occu": 1}], "abc": [0.0, 0.11312153, 0.38687847000000003], "properties": {"magmom": 0.0}, "label": "Be", "xyz": [0.0, 0.7388600692394839, 2.5269212157605163]}, {"species": [{"element": "Be", "occu": 1}], "abc": [0.0, 0.88687847, 0.61312153], "properties": {"magmom": 0.0}, "label": "Be", "xyz": [0.0, 5.792702500760516, 4.004641354239484]}, {"species": [{"element": "Be", "occu": 1}], "abc": [-0.0, 0.61312153, 0.11312153], "properties": {"magmom": 0.0}, "label": "Be", "xyz": [0.0, 4.004642151209132, 0.7388598362091321]}, {"species": [{"element": "Nb", "occu": 1}], "abc": [0.0, -0.0, -0.0], "properties": {"magmom": -0.0}, "label": "Nb", "xyz": [0.0, 0.0, 0.0]}, {"species": [{"element": "Nb", "occu": 1}], "abc": [0.0, 0.5, 0.5], "properties": {"magmom": -0.0}, "label": "Nb", "xyz": [0.0, 3.265781285, 3.265781285]}, {"species": [{"element": "Nb", "occu": 1}], "abc": [0.5, 0.17961431, 0.67961431], "properties": {"magmom": -0.0}, "label": "Nb", "xyz": [1.686930965, 1.1731615892323768, 4.438943904232377]}, {"species": [{"element": "Nb", "occu": 1}], "abc": [0.5, 0.32038669000000003, 0.17961331], "properties": {"magmom": -0.0}, "label": "Nb", "xyz": [1.686930965, 2.092625857326775, 1.1731554276732252]}, {"species": [{"element": "Nb", "occu": 1}], "abc": [0.5, 0.67961331, 0.82038669], "properties": {"magmom": -0.0}, "label": "Nb", "xyz": [1.686930965, 4.438936712673225, 5.358407142326775]}, {"species": [{"element": "Nb", "occu": 1}], "abc": [0.5, 0.8203856900000001, 0.32038569], "properties": {"magmom": -0.0}, "label": "Nb", "xyz": [1.686930965, 5.358400980767624, 2.0926186657676236]}]}, "task_ids": null, "uncorrected_energy_per_atom": null, "energy_per_atom": -7.691424098000001, "formation_energy_per_atom": -0.134875928000002, "energy_above_hull": 0.0, "is_stable": true, "equilibrium_reaction_energy_per_atom": null, "decomposes_to": null, "xas": null, "grain_boundaries": null, "band_gap": 0.0, "cbm": null, "vbm": null, "efermi": 4.24763324, "is_gap_direct": null, "is_metal": null, "es_source_calc_id": null, "bandstructure": null, "dos": null, "dos_energy_up": null, "dos_energy_down": null, "is_magnetic": null, "ordering": null, "total_magnetization": 6e-07, "total_magnetization_normalized_vol": null, "total_magnetization_normalized_formula_units": null, "num_magnetic_sites": null, "num_unique_magnetic_sites": null, "types_of_magnetic_species": null, "bulk_modulus": null, "shear_modulus": null, "universal_anisotropy": null, "homogeneous_poisson": null, "e_total": null, "e_ionic": null, "e_electronic": null, "n": null, "e_ij_max": null, "weighted_surface_energy_EV_PER_ANG2": null, "weighted_surface_energy": null, "weighted_work_function": null, "surface_anisotropy": null, "shape_factor": null, "has_reconstructed": null, "possible_species": null, "has_props": null, "theoretical": null, "database_IDs": null, "fields_not_requested": ["builder_meta", "nsites", "elements", "nelements", "composition", "composition_reduced", "chemsys", "symmetry", "property_name", "deprecated", "deprecation_reasons", "last_updated", "origins", "warnings", "task_ids", "uncorrected_energy_per_atom", "equilibrium_reaction_energy_per_atom", "decomposes_to", "xas", "grain_boundaries", "cbm", "vbm", "is_gap_direct", "is_metal", "es_source_calc_id", "bandstructure", "dos", "dos_energy_up", "dos_energy_down", "is_magnetic", "ordering", "total_magnetization_normalized_vol", "total_magnetization_normalized_formula_units", "num_magnetic_sites", "num_unique_magnetic_sites", "types_of_magnetic_species", "bulk_modulus", "shear_modulus", "universal_anisotropy", "homogeneous_poisson", "e_total", "e_ionic", "e_electronic", "n", "e_ij_max", "weighted_surface_energy_EV_PER_ANG2", "weighted_surface_energy", "weighted_work_function", "surface_anisotropy", "shape_factor", "has_reconstructed", "possible_species", "has_props", "theoretical", "database_IDs"]}