{"builder_meta": null, "nsites": null, "elements": null, "nelements": null, "composition": null, "composition_reduced": null, "formula_pretty": "Be2Re", "formula_anonymous": "AB2", "chemsys": null, "volume": 117.35031432799649, "density": 11.55971879543903, "density_atomic": 9.779192860666374, "symmetry": null, "property_name": null, "material_id": "mp-11275", "deprecated": null, "deprecation_reasons": null, "last_updated": null, "origins": null, "warnings": null, "structure": {"@module": "pymatgen.core.structure", "@class": "Structure", "charge": 0, "lattice": {"matrix": [[4.36168394, 1e-08, 0.0], [-2.18083996, 3.77732733, -0.0], [0.0, 0.0, 7.12271297]], "pbc": [true, true, true], "a": 4.36168394, "b": 4.36168140618933, "c": 7.12271297, "alpha": 90.0, "beta": 90.0, "gamma": 119.99998859712636, "volume": 117.35031432799649}, "properties": {}, "sites": [{"species": [{"element": "Be", "occu": 1}], "abc": [0.0, 0.0, -0.0], "properties": {"magmom": -0.0}, "label": "Be", "xyz": [0.0, 0.0, 0.0]}, {"species": [{"element": "Be", "occu": 1}], "abc": [0.0, 0.0, 0.5], "properties": {"magmom": -0.0}, "label": "Be", "xyz": [0.0, 0.0, 3.561356485]}, {"species": [{"element": "Be", "occu": 1}], "abc": [0.83103591, 0.66207083, 0.25], "properties": {"magmom": -0.0}, "label": "Be", "xyz": [2.1808454597959184, 2.5008582488651427, 1.7806782425]}, {"species": [{"element": "Be", "occu": 1}], "abc": [0.16896409, 0.83103591, 0.75], "properties": {"magmom": -0.0}, "label": "Be", "xyz": [-1.075388362933249, 3.139094656744061, 5.3420347275]}, {"species": [{"element": "Be", "occu": 1}], "abc": [0.66207083, 0.83103591, 0.75], "properties": {"magmom": -0.0}, "label": "Be", "xyz": [1.0753873856305063, 3.1390946616751285, 5.3420347275]}, {"species": [{"element": "Be", "occu": 1}], "abc": [0.33792917, 0.16896409, 0.25], "properties": {"magmom": -0.0}, "label": "Be", "xyz": [1.1054565943694934, 0.6382326783248714, 1.7806782425]}, {"species": [{"element": "Be", "occu": 1}], "abc": [0.83103591, 0.16896409, 0.25], "properties": {"magmom": -0.0}, "label": "Be", "xyz": [3.2562323429332487, 0.6382326832559387, 1.7806782425]}, {"species": [{"element": "Be", "occu": 1}], "abc": [0.16896409, 0.33792917, 0.75], "properties": {"magmom": -0.0}, "label": "Be", "xyz": [-1.4797959186907406e-06, 1.2764690911348568, 5.3420347275]}, {"species": [{"element": "Re", "occu": 1}], "abc": [0.333333, 0.666667, 0.06117514], "properties": {"magmom": 0.0}, "label": "Re", "xyz": [-8.40841300142614e-07, 2.51821948244244, 0.43573296311956583]}, {"species": [{"element": "Re", "occu": 1}], "abc": [0.666667, 0.333333, 0.56117514], "properties": {"magmom": 0.0}, "label": "Re", "xyz": [2.1808448208413, 1.25910785755756, 3.9970894481195662]}, {"species": [{"element": "Re", "occu": 1}], "abc": [0.666667, 0.333333, 0.93882486], "properties": {"magmom": 0.0}, "label": "Re", "xyz": [2.1808448208413, 1.25910785755756, 6.686980006880434]}, {"species": [{"element": "Re", "occu": 1}], "abc": [0.333333, 0.666667, 0.43882486], "properties": {"magmom": 0.0}, "label": "Re", "xyz": [-8.40841300142614e-07, 2.51821948244244, 3.125623521880434]}]}, "task_ids": null, "uncorrected_energy_per_atom": null, "energy_per_atom": -7.021866216666666, "formation_energy_per_atom": -0.37955290416666604, "energy_above_hull": 0.0, "is_stable": true, "equilibrium_reaction_energy_per_atom": null, "decomposes_to": null, "xas": null, "grain_boundaries": null, "band_gap": 0.0, "cbm": null, "vbm": null, "efermi": 6.56537717, "is_gap_direct": null, "is_metal": null, "es_source_calc_id": null, "bandstructure": null, "dos": null, "dos_energy_up": null, "dos_energy_down": null, "is_magnetic": null, "ordering": null, "total_magnetization": 6e-07, "total_magnetization_normalized_vol": null, "total_magnetization_normalized_formula_units": null, "num_magnetic_sites": null, "num_unique_magnetic_sites": null, "types_of_magnetic_species": null, "bulk_modulus": null, "shear_modulus": null, "universal_anisotropy": null, "homogeneous_poisson": null, "e_total": null, "e_ionic": null, "e_electronic": null, "n": null, "e_ij_max": null, "weighted_surface_energy_EV_PER_ANG2": null, "weighted_surface_energy": null, "weighted_work_function": null, "surface_anisotropy": null, "shape_factor": null, "has_reconstructed": null, "possible_species": null, "has_props": null, "theoretical": null, "database_IDs": null, "fields_not_requested": ["builder_meta", "nsites", "elements", "nelements", "composition", "composition_reduced", "chemsys", "symmetry", "property_name", "deprecated", "deprecation_reasons", "last_updated", "origins", "warnings", "task_ids", "uncorrected_energy_per_atom", "equilibrium_reaction_energy_per_atom", "decomposes_to", "xas", "grain_boundaries", "cbm", "vbm", "is_gap_direct", "is_metal", "es_source_calc_id", "bandstructure", "dos", "dos_energy_up", "dos_energy_down", "is_magnetic", "ordering", "total_magnetization_normalized_vol", "total_magnetization_normalized_formula_units", "num_magnetic_sites", "num_unique_magnetic_sites", "types_of_magnetic_species", "bulk_modulus", "shear_modulus", "universal_anisotropy", "homogeneous_poisson", "e_total", "e_ionic", "e_electronic", "n", "e_ij_max", "weighted_surface_energy_EV_PER_ANG2", "weighted_surface_energy", "weighted_work_function", "surface_anisotropy", "shape_factor", "has_reconstructed", "possible_species", "has_props", "theoretical", "database_IDs"]}