{"builder_meta": null, "nsites": null, "elements": null, "nelements": null, "composition": null, "composition_reduced": null, "formula_pretty": "Be2Ru", "formula_anonymous": "AB2", "chemsys": null, "volume": 114.09763940678378, "density": 6.9330389326923285, "density_atomic": 9.508136617231981, "symmetry": null, "property_name": null, "material_id": "mp-1103315", "deprecated": null, "deprecation_reasons": null, "last_updated": null, "origins": null, "warnings": null, "structure": {"@module": "pymatgen.core.structure", "@class": "Structure", "charge": 0, "lattice": {"matrix": [[-2.16504332, -3.7499147600000002, 2.4e-07], [-2.16504332, 3.7499147600000002, -2.4e-07], [-1.009999999999998e-06, 7e-07, -7.02681755]], "pbc": [true, true, true], "a": 4.330043104259187, "b": 4.330043104259187, "c": 7.026817550000107, "alpha": 89.99998776353026, "beta": 90.00000400097497, "gamma": 119.99933480887269, "volume": 114.09763940678378}, "properties": {}, "sites": [{"species": [{"element": "Be", "occu": 1}], "abc": [0.0, 0.0, 0.5], "properties": {"magmom": -0.0}, "label": "Be", "xyz": [-5.04999999999999e-07, 3.5e-07, -3.513408775]}, {"species": [{"element": "Be", "occu": 1}], "abc": [0.0, 0.0, -0.0], "properties": {"magmom": -0.0}, "label": "Be", "xyz": [0.0, 0.0, 0.0]}, {"species": [{"element": "Be", "occu": 1}], "abc": [0.16925467, 0.33850487, 0.74997828], "properties": {"magmom": -0.0}, "label": "Be", "xyz": [-1.0993221577213357, 0.6346743480977481, -5.269960580642861]}, {"species": [{"element": "Be", "occu": 1}], "abc": [0.16925904, 0.83074096, 0.74997875], "properties": {"magmom": -0.0}, "label": "Be", "xyz": [-2.1650440774785378, 2.4805013402662643, -5.269964001382723]}, {"species": [{"element": "Be", "occu": 1}], "abc": [0.66149513, 0.8307453300000001, 0.74997928], "properties": {"magmom": -0.0}, "label": "Be", "xyz": [-3.2307659972358005, 0.6346743480984478, -5.269967607460412]}, {"species": [{"element": "Be", "occu": 1}], "abc": [0.8307453300000001, 0.66149513, 0.25002172], "properties": {"magmom": -0.0}, "label": "Be", "xyz": [-3.230765492278665, -0.6346736480977478, -1.7568569693571379]}, {"species": [{"element": "Be", "occu": 1}], "abc": [0.83074096, 0.16925904, 0.25002125000000003], "properties": {"magmom": -0.0}, "label": "Be", "xyz": [-2.1650435725214625, -2.480500640266264, -1.7568535486172767]}, {"species": [{"element": "Be", "occu": 1}], "abc": [0.33850487, 0.16925467, 0.25002072000000003], "properties": {"magmom": -0.0}, "label": "Be", "xyz": [-1.0993216527642002, -0.6346736480984482, -1.756849942539588]}, {"species": [{"element": "Ru", "occu": 1}], "abc": [0.66666724, 0.33333276, 0.56174119], "properties": {"magmom": 0.0}, "label": "Ru", "xyz": [-2.165043887358602, -1.249975493350092, -3.947252772449609]}, {"species": [{"element": "Ru", "occu": 1}], "abc": [0.33333276, 0.66666724, 0.43825881], "properties": {"magmom": 0.0}, "label": "Ru", "xyz": [-2.1650437626413983, 1.249976193350092, -3.0795647775503907]}, {"species": [{"element": "Ru", "occu": 1}], "abc": [0.33333282000000003, 0.66666718, 0.061774960000000004], "properties": {"magmom": 0.0}, "label": "Ru", "xyz": [-2.1650433823927098, 1.2499754798216258, -0.4340814530787944]}, {"species": [{"element": "Ru", "occu": 1}], "abc": [0.66666718, 0.33333282000000003, 0.9382250400000001], "properties": {"magmom": 0.0}, "label": "Ru", "xyz": [-2.1650442676072905, -1.2499747798216259, -6.592736096921206]}]}, "task_ids": null, "uncorrected_energy_per_atom": null, "energy_per_atom": -5.916496969999998, "formation_energy_per_atom": -0.332087546666664, "energy_above_hull": 0.0, "is_stable": true, "equilibrium_reaction_energy_per_atom": null, "decomposes_to": null, "xas": null, "grain_boundaries": null, "band_gap": 0.0, "cbm": null, "vbm": null, "efermi": 6.29643391, "is_gap_direct": null, "is_metal": null, "es_source_calc_id": null, "bandstructure": null, "dos": null, "dos_energy_up": null, "dos_energy_down": null, "is_magnetic": null, "ordering": null, "total_magnetization": 0.00022659999999900002, "total_magnetization_normalized_vol": null, "total_magnetization_normalized_formula_units": null, "num_magnetic_sites": null, "num_unique_magnetic_sites": null, "types_of_magnetic_species": null, "bulk_modulus": null, "shear_modulus": null, "universal_anisotropy": null, "homogeneous_poisson": null, "e_total": null, "e_ionic": null, "e_electronic": null, "n": null, "e_ij_max": null, "weighted_surface_energy_EV_PER_ANG2": null, "weighted_surface_energy": null, "weighted_work_function": null, "surface_anisotropy": null, "shape_factor": null, "has_reconstructed": null, "possible_species": null, "has_props": null, "theoretical": null, "database_IDs": null, "fields_not_requested": ["builder_meta", "nsites", "elements", "nelements", "composition", "composition_reduced", "chemsys", "symmetry", "property_name", "deprecated", "deprecation_reasons", "last_updated", "origins", "warnings", "task_ids", "uncorrected_energy_per_atom", "equilibrium_reaction_energy_per_atom", "decomposes_to", "xas", "grain_boundaries", "cbm", "vbm", "is_gap_direct", "is_metal", "es_source_calc_id", "bandstructure", "dos", "dos_energy_up", "dos_energy_down", "is_magnetic", "ordering", "total_magnetization_normalized_vol", "total_magnetization_normalized_formula_units", "num_magnetic_sites", "num_unique_magnetic_sites", "types_of_magnetic_species", "bulk_modulus", "shear_modulus", "universal_anisotropy", "homogeneous_poisson", "e_total", "e_ionic", "e_electronic", "n", "e_ij_max", "weighted_surface_energy_EV_PER_ANG2", "weighted_surface_energy", "weighted_work_function", "surface_anisotropy", "shape_factor", "has_reconstructed", "possible_species", "has_props", "theoretical", "database_IDs"]}