{
  "builder_meta": null,
  "nsites": null,
  "elements": null,
  "nelements": null,
  "composition": null,
  "composition_reduced": null,
  "formula_pretty": "Be2V",
  "formula_anonymous": "AB2",
  "chemsys": null,
  "volume": 115.86782460891379,
  "density": 3.953487927139779,
  "density_atomic": 9.655652050742816,
  "symmetry": null,
  "property_name": null,
  "material_id": "mp-11281",
  "deprecated": null,
  "deprecation_reasons": null,
  "last_updated": null,
  "origins": null,
  "warnings": null,
  "structure": {
    "@module": "pymatgen.core.structure",
    "@class": "Structure",
    "charge": 0,
    "lattice": {
      "matrix": [
        [4.36153826, 6.11e-6, -0.0],
        [-2.18076353, 3.77719379, -0.0],
        [0.0, 0.0, 7.03320941]
      ],
      "pbc": [true, true, true],
      "a": 4.361538260004279,
      "b": 4.361527542156833,
      "c": 7.03320941,
      "alpha": 90.0,
      "beta": 90.0,
      "gamma": 119.99991607849122,
      "volume": 115.86782460891379
    },
    "properties": {},
    "sites": [
      {
        "species": [{ "element": "Be", "occu": 1 }],
        "abc": [-0.0, 0.0, -0.0],
        "properties": { "magmom": 0.0 },
        "label": "Be",
        "xyz": [0.0, 0.0, 0.0]
      },
      {
        "species": [{ "element": "Be", "occu": 1 }],
        "abc": [-0.0, 0.0, 0.5],
        "properties": { "magmom": 0.0 },
        "label": "Be",
        "xyz": [0.0, 0.0, 3.516604705]
      },
      {
        "species": [{ "element": "Be", "occu": 1 }],
        "abc": [0.82860543, 0.6572108600000001, 0.24999645],
        "properties": { "magmom": 0.0 },
        "label": "Be",
        "xyz": [2.180772810380815, 2.482417841891737, 1.7582773846065947]
      },
      {
        "species": [{ "element": "Be", "occu": 1 }],
        "abc": [0.17139457, 0.82860643, 0.75000355],
        "properties": { "magmom": 0.0 },
        "label": "Be",
        "xyz": [-1.0594507086562497, 3.1298081089708925, 5.274932025393405]
      },
      {
        "species": [{ "element": "Be", "occu": 1 }],
        "abc": [0.65720986, 0.82860643, 0.75000355],
        "properties": { "magmom": 0.0 },
        "label": "Be",
        "xyz": [1.0594512659717454, 3.1298110773023144, 5.274932025393405]
      },
      {
        "species": [{ "element": "Be", "occu": 1 }],
        "abc": [0.34279014, 0.17139357, 0.24999645],
        "properties": { "magmom": 0.0 },
        "label": "Be",
        "xyz": [1.1213234640282543, 0.6473888226976857, 1.7582773846065947]
      },
      {
        "species": [{ "element": "Be", "occu": 1 }],
        "abc": [0.82860543, 0.17139357, 0.24999645],
        "properties": { "magmom": 0.0 },
        "label": "Be",
        "xyz": [3.2402254386562492, 0.6473917910291076, 1.7582773846065947]
      },
      {
        "species": [{ "element": "Be", "occu": 1 }],
        "abc": [0.17139457, 0.34278914, 0.75000355],
        "properties": { "magmom": 0.0 },
        "label": "Be",
        "xyz": [1.9196191838322108e-6, 1.2947820581082634, 5.274932025393405]
      },
      {
        "species": [{ "element": "V", "occu": 1 }],
        "abc": [0.333333, 0.666667, 0.06711126],
        "properties": { "magmom": -0.002 },
        "label": "V",
        "xyz": [1.5525660697068844e-6, 2.51813248906256, 0.47200754534895667]
      },
      {
        "species": [{ "element": "V", "occu": 1 }],
        "abc": [0.666667, 0.333333, 0.56716174],
        "properties": { "magmom": -0.003 },
        "label": "V",
        "xyz": [2.18077317743393, 1.2590674109374398, 3.9889672867599733]
      },
      {
        "species": [{ "element": "V", "occu": 1 }],
        "abc": [0.666667, 0.333333, 0.93288874],
        "properties": { "magmom": -0.002 },
        "label": "V",
        "xyz": [2.18077317743393, 1.2590674109374398, 6.561201864651044]
      },
      {
        "species": [{ "element": "V", "occu": 1 }],
        "abc": [0.333333, 0.666667, 0.43283826000000003],
        "properties": { "magmom": -0.003 },
        "label": "V",
        "xyz": [1.5525660697068844e-6, 2.51813248906256, 3.044242123240027]
      }
    ]
  },
  "task_ids": null,
  "uncorrected_energy_per_atom": null,
  "energy_per_atom": -5.739090724166665,
  "formation_energy_per_atom": -0.21818012416666502,
  "energy_above_hull": 0.0,
  "is_stable": true,
  "equilibrium_reaction_energy_per_atom": null,
  "decomposes_to": null,
  "xas": null,
  "grain_boundaries": null,
  "band_gap": 0.0,
  "cbm": null,
  "vbm": null,
  "efermi": 4.45104662,
  "is_gap_direct": null,
  "is_metal": null,
  "es_source_calc_id": null,
  "bandstructure": null,
  "dos": null,
  "dos_energy_up": null,
  "dos_energy_down": null,
  "is_magnetic": null,
  "ordering": null,
  "total_magnetization": 0.0089126,
  "total_magnetization_normalized_vol": null,
  "total_magnetization_normalized_formula_units": null,
  "num_magnetic_sites": null,
  "num_unique_magnetic_sites": null,
  "types_of_magnetic_species": null,
  "bulk_modulus": null,
  "shear_modulus": null,
  "universal_anisotropy": null,
  "homogeneous_poisson": null,
  "e_total": null,
  "e_ionic": null,
  "e_electronic": null,
  "n": null,
  "e_ij_max": null,
  "weighted_surface_energy_EV_PER_ANG2": null,
  "weighted_surface_energy": null,
  "weighted_work_function": null,
  "surface_anisotropy": null,
  "shape_factor": null,
  "has_reconstructed": null,
  "possible_species": null,
  "has_props": null,
  "theoretical": null,
  "database_IDs": null,
  "fields_not_requested": [
    "builder_meta",
    "nsites",
    "elements",
    "nelements",
    "composition",
    "composition_reduced",
    "chemsys",
    "symmetry",
    "property_name",
    "deprecated",
    "deprecation_reasons",
    "last_updated",
    "origins",
    "warnings",
    "task_ids",
    "uncorrected_energy_per_atom",
    "equilibrium_reaction_energy_per_atom",
    "decomposes_to",
    "xas",
    "grain_boundaries",
    "cbm",
    "vbm",
    "is_gap_direct",
    "is_metal",
    "es_source_calc_id",
    "bandstructure",
    "dos",
    "dos_energy_up",
    "dos_energy_down",
    "is_magnetic",
    "ordering",
    "total_magnetization_normalized_vol",
    "total_magnetization_normalized_formula_units",
    "num_magnetic_sites",
    "num_unique_magnetic_sites",
    "types_of_magnetic_species",
    "bulk_modulus",
    "shear_modulus",
    "universal_anisotropy",
    "homogeneous_poisson",
    "e_total",
    "e_ionic",
    "e_electronic",
    "n",
    "e_ij_max",
    "weighted_surface_energy_EV_PER_ANG2",
    "weighted_surface_energy",
    "weighted_work_function",
    "surface_anisotropy",
    "shape_factor",
    "has_reconstructed",
    "possible_species",
    "has_props",
    "theoretical",
    "database_IDs"
  ]
}
