{"builder_meta": null, "nsites": null, "elements": null, "nelements": null, "composition": null, "composition_reduced": null, "formula_pretty": "Be2W", "formula_anonymous": "AB2", "chemsys": null, "volume": 124.98275672720283, "density": 10.727997088686543, "density_atomic": 10.415229727266903, "symmetry": null, "property_name": null, "material_id": "mp-11282", "deprecated": null, "deprecation_reasons": null, "last_updated": null, "origins": null, "warnings": null, "structure": {"@module": "pymatgen.core.structure", "@class": "Structure", "charge": 0, "lattice": {"matrix": [[4.44408975, 6.81e-06, 2.6e-07], [-2.22203978, 3.84870807, -3.03e-06], [4.299999999999998e-07, -5.82e-06, 7.30721564]], "pbc": [true, true, true], "a": 4.444089750005225, "b": 4.444098850385166, "c": 7.3072156400023305, "alpha": 90.00008027096965, "beta": 89.99999327637511, "gamma": 119.99976861329513, "volume": 124.98275672720283}, "properties": {}, "sites": [{"species": [{"element": "Be", "occu": 1}], "abc": [1.029999999999998e-06, 1e-08, 2.8410000000000004e-05], "properties": {"magmom": -0.0}, "label": "Be", "xyz": [4.55520426099999e-06, 3.832874879999999e-08, 0.00020759799656990002]}, {"species": [{"element": "Be", "occu": 1}], "abc": [-1e-08, -1e-08, 0.50002879], "properties": {"magmom": -0.0}, "label": "Be", "xyz": [1.927918799999999e-07, -2.9486547066e-06, 3.653818194738303]}, {"species": [{"element": "Be", "occu": 1}], "abc": [0.82991336, 0.65983136, 0.25000404], "properties": {"magmom": -0.0}, "label": "Be", "xyz": [2.2220380340542967, 2.539502476757544, 1.8268316476396382]}, {"species": [{"element": "Be", "occu": 1}], "abc": [0.17008834, 0.82991479, 0.7499825], "properties": {"magmom": -0.0}, "label": "Be", "xyz": [-1.0882155065093562, 3.1940965430888006, 5.480281383307455]}, {"species": [{"element": "Be", "occu": 1}], "abc": [0.65982876, 0.82991638, 0.74998076], "properties": {"magmom": -0.0}, "label": "Be", "xyz": [1.0882313411293407, 3.194105997677019, 5.480268796079932]}, {"species": [{"element": "Be", "occu": 1}], "abc": [0.34017346, 0.17008623, 0.25000484], "properties": {"magmom": -0.0}, "label": "Be", "xyz": [1.1338231252198867, 0.6546131075499698, 1.8268388500075203]}, {"species": [{"element": "Be", "occu": 1}], "abc": [0.8299103600000001, 0.170080999999999, 0.25000304], "properties": {"magmom": -0.0}, "label": "Be", "xyz": [3.3102694839739395, 0.654596313925525, 1.8268258243668092]}, {"species": [{"element": "Be", "occu": 1}], "abc": [0.17008534, 0.34017055, 0.7499815], "properties": {"magmom": -0.0}, "label": "Be", "xyz": [2.344526830942317e-06, 1.3092139343501739, 5.480275560016081]}, {"species": [{"element": "W", "occu": 1}], "abc": [0.33333352, 0.66666576, 0.06326572], "properties": {"magmom": 0.0}, "label": "W", "xyz": [6.268083747018027e-06, 2.565803792299464, 0.4622943253293232]}, {"species": [{"element": "W", "occu": 1}], "abc": [0.6666672, 0.3333326, 0.56325391], "properties": {"magmom": 0.0}, "label": "W", "xyz": [2.222050815209553, 1.2829011294799577, 4.115816943778847]}, {"species": [{"element": "W", "occu": 1}], "abc": [0.66666623, 0.33333412, 0.93672644], "properties": {"magmom": -0.0}, "label": "W", "xyz": [2.2220432875352185, 1.282904805899494, 6.844861256100358]}, {"species": [{"element": "W", "occu": 1}], "abc": [0.33333242, 0.6666672100000001, 0.43674105], "properties": {"magmom": -0.0}, "label": "W", "xyz": [-1.6817782673337153e-06, 2.565807199292254, 3.191359097854805]}]}, "task_ids": null, "uncorrected_energy_per_atom": null, "energy_per_atom": -7.115910645, "formation_energy_per_atom": -0.303591991666665, "energy_above_hull": 0.0, "is_stable": true, "equilibrium_reaction_energy_per_atom": null, "decomposes_to": null, "xas": null, "grain_boundaries": null, "band_gap": 0.0, "cbm": null, "vbm": null, "efermi": 5.32593274, "is_gap_direct": null, "is_metal": null, "es_source_calc_id": null, "bandstructure": null, "dos": null, "dos_energy_up": null, "dos_energy_down": null, "is_magnetic": null, "ordering": null, "total_magnetization": 0.0, "total_magnetization_normalized_vol": null, "total_magnetization_normalized_formula_units": null, "num_magnetic_sites": null, "num_unique_magnetic_sites": null, "types_of_magnetic_species": null, "bulk_modulus": null, "shear_modulus": null, "universal_anisotropy": null, "homogeneous_poisson": null, "e_total": null, "e_ionic": null, "e_electronic": null, "n": null, "e_ij_max": null, "weighted_surface_energy_EV_PER_ANG2": null, "weighted_surface_energy": null, "weighted_work_function": null, "surface_anisotropy": null, "shape_factor": null, "has_reconstructed": null, "possible_species": null, "has_props": null, "theoretical": null, "database_IDs": null, "fields_not_requested": ["builder_meta", "nsites", "elements", "nelements", "composition", "composition_reduced", "chemsys", "symmetry", "property_name", "deprecated", "deprecation_reasons", "last_updated", "origins", "warnings", "task_ids", "uncorrected_energy_per_atom", "equilibrium_reaction_energy_per_atom", "decomposes_to", "xas", "grain_boundaries", "cbm", "vbm", "is_gap_direct", "is_metal", "es_source_calc_id", "bandstructure", "dos", "dos_energy_up", "dos_energy_down", "is_magnetic", "ordering", "total_magnetization_normalized_vol", "total_magnetization_normalized_formula_units", "num_magnetic_sites", "num_unique_magnetic_sites", "types_of_magnetic_species", "bulk_modulus", "shear_modulus", "universal_anisotropy", "homogeneous_poisson", "e_total", "e_ionic", "e_electronic", "n", "e_ij_max", "weighted_surface_energy_EV_PER_ANG2", "weighted_surface_energy", "weighted_work_function", "surface_anisotropy", "shape_factor", "has_reconstructed", "possible_species", "has_props", "theoretical", "database_IDs"]}