{
  "builder_meta": null,
  "nsites": null,
  "elements": null,
  "nelements": null,
  "composition": null,
  "composition_reduced": null,
  "formula_pretty": "Be3Cu",
  "formula_anonymous": "AB3",
  "chemsys": null,
  "volume": 103.79788825724312,
  "density": 4.347367530608563,
  "density_atomic": 8.649824021436926,
  "symmetry": null,
  "property_name": null,
  "material_id": "mp-1227357",
  "deprecated": null,
  "deprecation_reasons": null,
  "last_updated": null,
  "origins": null,
  "warnings": null,
  "structure": {
    "@module": "pymatgen.core.structure",
    "@class": "Structure",
    "charge": 0,
    "lattice": {
      "matrix": [
        [-2.96051047, -2.96108364, 2.31e-6],
        [2.31e-6, 2.96108364, -2.96051046],
        [2.960012899999999, -2.960579779999999, -5.92052005]
      ],
      "pbc": [true, true, true],
      "a": 4.187199370230728,
      "b": 4.187199363160345,
      "c": 7.251156229482526,
      "alpha": 73.22828491587696,
      "beta": 89.99365657252011,
      "gamma": 120.00645566418176,
      "volume": 103.79788825724309
    },
    "properties": {},
    "sites": [
      {
        "species": [{ "element": "Be", "occu": 1 }],
        "abc": [0.4365822, 0.37496537, 0.18845143],
        "properties": { "magmom": -0.0 },
        "label": "Be",
        "xyz": [-0.7346866441221824, -0.7403780804317464, -2.22581836128406]
      },
      {
        "species": [{ "element": "Be", "occu": 1 }],
        "abc": [0.9386519400000001, 0.37561215000000003, 0.68573691],
        "properties": { "magmom": -0.0 },
        "label": "Be",
        "xyz": [-0.7490979287856074, -3.697386740983715, -5.171920655372153]
      },
      {
        "species": [{ "element": "Be", "occu": 1 }],
        "abc": [0.43601595, 0.87493298, 0.189072599999999],
        "properties": { "magmom": -0.0 },
        "label": "Be",
        "xyz": [-0.7311704289302758, 0.7399055203383642, -3.7096553510977506]
      },
      {
        "species": [{ "element": "Be", "occu": 1 }],
        "abc": [0.93897993, 0.8756717700000001, 0.6853499],
        "properties": { "magmom": 0.0 },
        "label": "Be",
        "xyz": [-0.7512133460693691, -2.2164938130195235, -6.650061089783572]
      },
      {
        "species": [{ "element": "Be", "occu": 1 }],
        "abc": [0.18776654, 0.37498834000000003, 0.43724612],
        "properties": { "magmom": 0.0 },
        "label": "Be",
        "xyz": [0.7383702143123392, -0.7401226127241013, -3.6988808894520355]
      },
      {
        "species": [{ "element": "Be", "occu": 1 }],
        "abc": [0.68769331, 0.37466759, 0.9376391],
        "properties": { "magmom": -0.0 },
        "label": "Be",
        "xyz": [0.7395014526225663, -3.702850698788618, -6.6605168218604]
      },
      {
        "species": [{ "element": "Be", "occu": 1 }],
        "abc": [0.93599541, 0.37491045, 0.189072599999999],
        "properties": { "magmom": -0.0 },
        "label": "Be",
        "xyz": [-2.2113660100972665, -2.221184012218079, -2.2293322658445343]
      },
      {
        "species": [{ "element": "Be", "occu": 1 }],
        "abc": [0.43897833, 0.37567117, 0.6853499],
        "properties": { "magmom": 0.0 },
        "label": "Be",
        "xyz": [0.7290454707459966, -2.216490851935884, -5.169805238480991]
      },
      {
        "species": [{ "element": "Be", "occu": 1 }],
        "abc": [0.87489212, 0.74943273, 0.37567616],
        "properties": { "magmom": -0.0 },
        "label": "Be",
        "xyz": [-1.4781192703684267, -1.4837149903374243, -4.442899652817567]
      },
      {
        "species": [{ "element": "Cu", "occu": 1 }],
        "abc": [0.3754459, 0.7504913, 0.87406281],
        "properties": { "magmom": -0.0 },
        "label": "Cu",
        "xyz": [1.4757274087765777, -1.477191883538725, -7.39674286807331]
      },
      {
        "species": [{ "element": "Cu", "occu": 1 }],
        "abc": [0.99687417, 0.99436807, 0.00875776],
        "properties": { "magmom": -0.0 },
        "label": "Cu",
        "xyz": [-2.9253310379922146, -0.033348818884296735, -2.995685263218768]
      },
      {
        "species": [{ "element": "Cu", "occu": 1 }],
        "abc": [0.5021272, 0.00428608, 0.49358671],
        "properties": { "magmom": -0.0 },
        "label": "Cu",
        "xyz": [-0.025529794102380876, -2.935452029054, -2.9349778377271]
      }
    ]
  },
  "task_ids": null,
  "uncorrected_energy_per_atom": null,
  "energy_per_atom": -3.9342290141666663,
  "formation_energy_per_atom": -0.104867697916667,
  "energy_above_hull": 0.000412952083333,
  "is_stable": false,
  "equilibrium_reaction_energy_per_atom": null,
  "decomposes_to": null,
  "xas": null,
  "grain_boundaries": null,
  "band_gap": 0.0,
  "cbm": null,
  "vbm": null,
  "efermi": 6.07643538,
  "is_gap_direct": null,
  "is_metal": null,
  "es_source_calc_id": null,
  "bandstructure": null,
  "dos": null,
  "dos_energy_up": null,
  "dos_energy_down": null,
  "is_magnetic": null,
  "ordering": null,
  "total_magnetization": 0.0,
  "total_magnetization_normalized_vol": null,
  "total_magnetization_normalized_formula_units": null,
  "num_magnetic_sites": null,
  "num_unique_magnetic_sites": null,
  "types_of_magnetic_species": null,
  "bulk_modulus": null,
  "shear_modulus": null,
  "universal_anisotropy": null,
  "homogeneous_poisson": null,
  "e_total": null,
  "e_ionic": null,
  "e_electronic": null,
  "n": null,
  "e_ij_max": null,
  "weighted_surface_energy_EV_PER_ANG2": null,
  "weighted_surface_energy": null,
  "weighted_work_function": null,
  "surface_anisotropy": null,
  "shape_factor": null,
  "has_reconstructed": null,
  "possible_species": null,
  "has_props": null,
  "theoretical": null,
  "database_IDs": null,
  "fields_not_requested": [
    "builder_meta",
    "nsites",
    "elements",
    "nelements",
    "composition",
    "composition_reduced",
    "chemsys",
    "symmetry",
    "property_name",
    "deprecated",
    "deprecation_reasons",
    "last_updated",
    "origins",
    "warnings",
    "task_ids",
    "uncorrected_energy_per_atom",
    "equilibrium_reaction_energy_per_atom",
    "decomposes_to",
    "xas",
    "grain_boundaries",
    "cbm",
    "vbm",
    "is_gap_direct",
    "is_metal",
    "es_source_calc_id",
    "bandstructure",
    "dos",
    "dos_energy_up",
    "dos_energy_down",
    "is_magnetic",
    "ordering",
    "total_magnetization_normalized_vol",
    "total_magnetization_normalized_formula_units",
    "num_magnetic_sites",
    "num_unique_magnetic_sites",
    "types_of_magnetic_species",
    "bulk_modulus",
    "shear_modulus",
    "universal_anisotropy",
    "homogeneous_poisson",
    "e_total",
    "e_ionic",
    "e_electronic",
    "n",
    "e_ij_max",
    "weighted_surface_energy_EV_PER_ANG2",
    "weighted_surface_energy",
    "weighted_work_function",
    "surface_anisotropy",
    "shape_factor",
    "has_reconstructed",
    "possible_species",
    "has_props",
    "theoretical",
    "database_IDs"
  ]
}
