{"builder_meta": null, "nsites": null, "elements": null, "nelements": null, "composition": null, "composition_reduced": null, "formula_pretty": "Be3Fe", "formula_anonymous": "AB3", "chemsys": null, "volume": 33.9807757494717, "density": 4.050173723163006, "density_atomic": 8.495193937367924, "symmetry": null, "property_name": null, "material_id": "mp-983590", "deprecated": null, "deprecation_reasons": null, "last_updated": null, "origins": null, "warnings": null, "structure": {"@module": "pymatgen.core.structure", "@class": "Structure", "charge": 0, "lattice": {"matrix": [[3.23900485, -1.02e-06, 0.0], [-1.02e-06, 3.23900179, -1.02e-06], [0.0, -1.02e-06, 3.23899668]], "pbc": [true, true, true], "a": 3.239004850000161, "b": 3.2390017900003216, "c": 3.238996680000161, "alpha": 90.0000360862667, "beta": 89.99999999999432, "gamma": 90.00003608622117, "volume": 33.9807757494717}, "properties": {}, "sites": [{"species": [{"element": "Be", "occu": 1}], "abc": [-0.0, 0.5, 0.499998999999999], "properties": {"magmom": -0.04}, "label": "Be", "xyz": [-5.1e-07, 1.6195003850010201, 1.619494591003317]}, {"species": [{"element": "Be", "occu": 1}], "abc": [0.5, 0.999999, 0.499998], "properties": {"magmom": -0.04}, "label": "Be", "xyz": [1.6195014050010201, 3.2389975310002503, 1.6194908420076601]}, {"species": [{"element": "Be", "occu": 1}], "abc": [0.499998, 0.499998999999999, 0.0], "properties": {"magmom": -0.04}, "label": "Be", "xyz": [1.6194954369913201, 1.6194971460002467, -5.09998979999999e-07]}, {"species": [{"element": "Fe", "occu": 1}], "abc": [0.0, 0.999999, -0.0], "properties": {"magmom": 1.899}, "label": "Fe", "xyz": [-1.0199989799999999e-06, 3.23899855099821, -1.0199989799999999e-06]}]}, "task_ids": null, "uncorrected_energy_per_atom": null, "energy_per_atom": -5.1310522125, "formation_energy_per_atom": -0.20898726124999903, "energy_above_hull": 0.0, "is_stable": true, "equilibrium_reaction_energy_per_atom": null, "decomposes_to": null, "xas": null, "grain_boundaries": null, "band_gap": 0.0, "cbm": null, "vbm": null, "efermi": 4.73777067, "is_gap_direct": null, "is_metal": null, "es_source_calc_id": null, "bandstructure": null, "dos": null, "dos_energy_up": null, "dos_energy_down": null, "is_magnetic": null, "ordering": null, "total_magnetization": 1.7311809, "total_magnetization_normalized_vol": null, "total_magnetization_normalized_formula_units": null, "num_magnetic_sites": null, "num_unique_magnetic_sites": null, "types_of_magnetic_species": null, "bulk_modulus": null, "shear_modulus": null, "universal_anisotropy": null, "homogeneous_poisson": null, "e_total": null, "e_ionic": null, "e_electronic": null, "n": null, "e_ij_max": null, "weighted_surface_energy_EV_PER_ANG2": null, "weighted_surface_energy": null, "weighted_work_function": null, "surface_anisotropy": null, "shape_factor": null, "has_reconstructed": null, "possible_species": null, "has_props": null, "theoretical": null, "database_IDs": null, "fields_not_requested": ["builder_meta", "nsites", "elements", "nelements", "composition", "composition_reduced", "chemsys", "symmetry", "property_name", "deprecated", "deprecation_reasons", "last_updated", "origins", "warnings", "task_ids", "uncorrected_energy_per_atom", "equilibrium_reaction_energy_per_atom", "decomposes_to", "xas", "grain_boundaries", "cbm", "vbm", "is_gap_direct", "is_metal", "es_source_calc_id", "bandstructure", "dos", "dos_energy_up", "dos_energy_down", "is_magnetic", "ordering", "total_magnetization_normalized_vol", "total_magnetization_normalized_formula_units", "num_magnetic_sites", "num_unique_magnetic_sites", "types_of_magnetic_species", "bulk_modulus", "shear_modulus", "universal_anisotropy", "homogeneous_poisson", "e_total", "e_ionic", "e_electronic", "n", "e_ij_max", "weighted_surface_energy_EV_PER_ANG2", "weighted_surface_energy", "weighted_work_function", "surface_anisotropy", "shape_factor", "has_reconstructed", "possible_species", "has_props", "theoretical", "database_IDs"]}