{"builder_meta": null, "nsites": null, "elements": null, "nelements": null, "composition": null, "composition_reduced": null, "formula_pretty": "Be3Nb", "formula_anonymous": "AB3", "chemsys": null, "volume": 127.14756365961723, "density": 4.699340875736425, "density_atomic": 10.595630304968102, "symmetry": null, "property_name": null, "material_id": "mp-11273", "deprecated": null, "deprecation_reasons": null, "last_updated": null, "origins": null, "warnings": null, "structure": {"@module": "pymatgen.core.structure", "@class": "Structure", "charge": 0, "lattice": {"matrix": [[4.35244588, -0.0013903400000000001, 6.11357737], [1.9529050300000002, 3.88973526, 6.11358149], [-0.00228438, -0.00139035, 7.50463571]], "pbc": [true, true, true], "a": 7.504639586972209, "b": 7.504649031364304, "c": 7.5046361864698214, "alpha": 35.46560815603186, "beta": 35.46568640769859, "gamma": 35.46559875053081, "volume": 127.14756365961723}, "properties": {}, "sites": [{"species": [{"element": "Be", "occu": 1}], "abc": [0.5, 0.5, 0.5], "properties": {"magmom": -0.0}, "label": "Be", "xyz": [3.1515332650000003, 1.9434772850000002, 9.865897284999999]}, {"species": [{"element": "Be", "occu": 1}], "abc": [0.33419633, 0.33419533, 0.33419633], "properties": {"magmom": 0.0}, "label": "Be", "xyz": [2.106459749166805, 1.2990020624354681, 6.594287216026437]}, {"species": [{"element": "Be", "occu": 1}], "abc": [0.66580267, 0.66580367, 0.66580267], "properties": {"magmom": 0.0}, "label": "Be", "xyz": [4.1966004777666654, 2.587948620609962, 13.137487622178991]}, {"species": [{"element": "Be", "occu": 1}], "abc": [0.58365177, 0.07573599, 0.58365177], "properties": {"magmom": -0.0}, "label": "Be", "xyz": [2.6868846550838845, 0.2929699961136861, 8.411312314969976]}, {"species": [{"element": "Be", "occu": 1}], "abc": [0.58365077, 0.58365277, 0.07573599], "properties": {"magmom": -0.0}, "label": "Be", "xyz": [3.679953809770925, 2.269337986520412, 7.704773925800506]}, {"species": [{"element": "Be", "occu": 1}], "abc": [0.07573599, 0.58365277, 0.58365077], "properties": {"magmom": -0.0}, "label": "Be", "xyz": [1.468121947803682, 2.2693379814412644, 8.41131301652877]}, {"species": [{"element": "Be", "occu": 1}], "abc": [0.92426401, 0.41634723, 0.41634923], "properties": {"magmom": -0.0}, "label": "Be", "xyz": [4.834944582196319, 1.617616588558736, 11.320481553471229]}, {"species": [{"element": "Be", "occu": 1}], "abc": [0.41634823, 0.92426401, 0.41634823], "properties": {"magmom": -0.0}, "label": "Be", "xyz": [3.616181874916115, 3.5939845738863143, 11.320482255030022]}, {"species": [{"element": "Be", "occu": 1}], "abc": [0.41634923, 0.41634723, 0.92426401], "properties": {"magmom": -0.0}, "label": "Be", "xyz": [2.6231127202290754, 1.6176165834795881, 12.027020644199496]}, {"species": [{"element": "Nb", "occu": 1}], "abc": [0.0, -0.0, -0.0], "properties": {"magmom": 0.0}, "label": "Nb", "xyz": [0.0, 0.0, 0.0]}, {"species": [{"element": "Nb", "occu": 1}], "abc": [0.13991463, 0.13991463, 0.13991463], "properties": {"magmom": -0.0}, "label": "Nb", "xyz": [0.881891221410334, 0.5438418104883592, 2.760766736497559]}, {"species": [{"element": "Nb", "occu": 1}], "abc": [0.8600853700000001, 0.8600853700000001, 0.8600853700000001], "properties": {"magmom": -0.0}, "label": "Nb", "xyz": [5.4211753085896675, 3.343112759511641, 16.97102783350244]}]}, "task_ids": null, "uncorrected_energy_per_atom": null, "energy_per_atom": -5.565677959999999, "formation_energy_per_atom": -0.23579205124999802, "energy_above_hull": 0.0, "is_stable": true, "equilibrium_reaction_energy_per_atom": null, "decomposes_to": null, "xas": null, "grain_boundaries": null, "band_gap": 0.0, "cbm": null, "vbm": null, "efermi": 4.01611209, "is_gap_direct": null, "is_metal": null, "es_source_calc_id": null, "bandstructure": null, "dos": null, "dos_energy_up": null, "dos_energy_down": null, "is_magnetic": null, "ordering": null, "total_magnetization": 0.0, "total_magnetization_normalized_vol": null, "total_magnetization_normalized_formula_units": null, "num_magnetic_sites": null, "num_unique_magnetic_sites": null, "types_of_magnetic_species": null, "bulk_modulus": null, "shear_modulus": null, "universal_anisotropy": null, "homogeneous_poisson": null, "e_total": null, "e_ionic": null, "e_electronic": null, "n": null, "e_ij_max": null, "weighted_surface_energy_EV_PER_ANG2": null, "weighted_surface_energy": null, "weighted_work_function": null, "surface_anisotropy": null, "shape_factor": null, "has_reconstructed": null, "possible_species": null, "has_props": null, "theoretical": null, "database_IDs": null, "fields_not_requested": ["builder_meta", "nsites", "elements", "nelements", "composition", "composition_reduced", "chemsys", "symmetry", "property_name", "deprecated", "deprecation_reasons", "last_updated", "origins", "warnings", "task_ids", "uncorrected_energy_per_atom", "equilibrium_reaction_energy_per_atom", "decomposes_to", "xas", "grain_boundaries", "cbm", "vbm", "is_gap_direct", "is_metal", "es_source_calc_id", "bandstructure", "dos", "dos_energy_up", "dos_energy_down", "is_magnetic", "ordering", "total_magnetization_normalized_vol", "total_magnetization_normalized_formula_units", "num_magnetic_sites", "num_unique_magnetic_sites", "types_of_magnetic_species", "bulk_modulus", "shear_modulus", "universal_anisotropy", "homogeneous_poisson", "e_total", "e_ionic", "e_electronic", "n", "e_ij_max", "weighted_surface_energy_EV_PER_ANG2", "weighted_surface_energy", "weighted_work_function", "surface_anisotropy", "shape_factor", "has_reconstructed", "possible_species", "has_props", "theoretical", "database_IDs"]}