{
  "builder_meta": null,
  "nsites": null,
  "elements": null,
  "nelements": null,
  "composition": null,
  "composition_reduced": null,
  "formula_pretty": "Be3N2",
  "formula_anonymous": "A2B3",
  "chemsys": null,
  "volume": 268.4366404588809,
  "density": 2.724295335866355,
  "density_atomic": 6.7109160114720225,
  "symmetry": null,
  "property_name": null,
  "material_id": "mp-18337",
  "deprecated": null,
  "deprecation_reasons": null,
  "last_updated": null,
  "origins": null,
  "warnings": null,
  "structure": {
    "@module": "pymatgen.core.structure",
    "@class": "Structure",
    "charge": 0,
    "lattice": {
      "matrix": [
        [6.63608066, 0.0, -2.34620965],
        [-3.31803933, 5.74701314, -2.34620965],
        [-0.0, -0.0, 7.03862696]
      ],
      "pbc": [true, true, true],
      "a": 7.038626730249244,
      "b": 7.038625203014622,
      "c": 7.03862696,
      "alpha": 109.47123141829036,
      "beta": 109.47122702291753,
      "gamma": 109.47121050123874,
      "volume": 268.4366404588809
    },
    "properties": {},
    "sites": [
      {
        "species": [{ "element": "Be", "occu": 1 }],
        "abc": [0.52653725, 0.76621634, 0.5309326600000001],
        "properties": { "magmom": 0.0 },
        "label": "Be",
        "xyz": [0.9518077100859323, 4.403455374062708, 0.7039659866903705]
      },
      {
        "species": [{ "element": "Be", "occu": 1 }],
        "abc": [0.99560459, 0.96906734, 0.73528368],
        "properties": { "magmom": 0.0 },
        "label": "Be",
        "xyz": [3.3915088171677477, 5.569242736524848, 0.5658552920458888]
      },
      {
        "species": [{ "element": "Be", "occu": 1 }],
        "abc": [0.26032191, 0.76471632, 0.7337836600000001],
        "properties": { "magmom": 0.0 },
        "label": "Be",
        "xyz": [-0.8098416337276049, 4.3948347394124445, 2.7598748652385545]
      },
      {
        "species": [{ "element": "Be", "occu": 1 }],
        "abc": [0.50439541, 0.23967809, 0.97346275],
        "properties": { "magmom": 0.0 },
        "label": "Be",
        "xyz": [2.551947296134491, 1.3774331326001026, 5.106088730696465]
      },
      {
        "species": [{ "element": "Be", "occu": 1 }],
        "abc": [0.96906734, 0.73528368, 0.99560459],
        "properties": { "magmom": 0.0 },
        "label": "Be",
        "xyz": [3.9911088642645107, 4.225684970587555, 3.008924498562404]
      },
      {
        "species": [{ "element": "Be", "occu": 1 }],
        "abc": [0.7337836600000001, 0.26032191, 0.76471632],
        "properties": { "magmom": 0.0 },
        "label": "Be",
        "xyz": [4.005689218909295, 1.4960734373998974, 3.050172825251236]
      },
      {
        "species": [{ "element": "Be", "occu": 1 }],
        "abc": [0.23967809, 0.97346275, 0.50439541],
        "properties": { "magmom": 0.0 },
        "label": "Be",
        "xyz": [-1.639464553115218, 5.594503215550535, 0.7039683857091474]
      },
      {
        "species": [{ "element": "Be", "occu": 1 }],
        "abc": [0.5309326600000001, 0.52653725, 0.76621634],
        "properties": { "magmom": 0.0 },
        "label": "Be",
        "xyz": [1.7762406525783139, 3.0260164944494647, 2.9120648804898956]
      },
      {
        "species": [{ "element": "Be", "occu": 1 }],
        "abc": [0.76621634, 0.5309326600000001, 0.52653725],
        "properties": { "magmom": 0.0 },
        "label": "Be",
        "xyz": [3.323017987788467, 3.0512769734751526, 0.6627157820064093]
      },
      {
        "species": [{ "element": "Be", "occu": 1 }],
        "abc": [0.73528368, 0.99560459, 0.96906734],
        "properties": { "magmom": 0.0 },
        "label": "Be",
        "xyz": [1.5759466217131042, 5.721752660974313, 2.759876743233682]
      },
      {
        "species": [{ "element": "Be", "occu": 1 }],
        "abc": [0.76471632, 0.7337836600000001, 0.26032191],
        "properties": { "magmom": 0.0 },
        "label": "Be",
        "xyz": [2.639996137947023, 4.217064335937293, -1.6834862995961137]
      },
      {
        "species": [{ "element": "Be", "occu": 1 }],
        "abc": [0.97346275, 0.50439541, 0.23967809],
        "properties": { "magmom": 0.0 },
        "label": "Be",
        "xyz": [4.78637352025394, 2.8987670490256874, -1.7803604103279376]
      },
      {
        "species": [{ "element": "Be", "occu": 1 }],
        "abc": [0.47346275, 0.23378366, 0.46906734],
        "properties": { "magmom": 0.0 },
        "label": "Be",
        "xyz": [2.366233619914067, 1.3435577659372924, 1.6422416733096301]
      },
      {
        "species": [{ "element": "Be", "occu": 1 }],
        "abc": [0.00439541, 0.03093266, 0.26471632],
        "properties": { "magmom": 0.0 },
        "label": "Be",
        "xyz": [-0.0734674871677472, 0.1777704034751524, 1.7803523679541118]
      },
      {
        "species": [{ "element": "Be", "occu": 1 }],
        "abc": [0.7396780900000001, 0.23528368, 0.26621634],
        "properties": { "magmom": 0.0 },
        "label": "Be",
        "xyz": [4.127882963727606, 1.3521784005875552, -0.4136672052385544]
      },
      {
        "species": [{ "element": "Be", "occu": 1 }],
        "abc": [0.49560459, 0.76032191, 0.026537250000000002],
        "properties": { "magmom": 0.0 },
        "label": "Be",
        "xyz": [0.7660940338655089, 4.369580007399898, -2.759881070696465]
      },
      {
        "species": [{ "element": "Be", "occu": 1 }],
        "abc": [0.03093266, 0.26471632, 0.00439541],
        "properties": { "magmom": 0.0 },
        "label": "Be",
        "xyz": [-0.6730675342645099, 1.5213281694124448, -0.6627168385624035]
      },
      {
        "species": [{ "element": "Be", "occu": 1 }],
        "abc": [0.26621634, 0.7396780900000001, 0.23528368],
        "properties": { "magmom": 0.0 },
        "label": "Be",
        "xyz": [-0.6876478889092956, 4.250939702600103, -0.7039651652512369]
      },
      {
        "species": [{ "element": "Be", "occu": 1 }],
        "abc": [0.76032191, 0.026537250000000002, 0.49560459],
        "properties": { "magmom": 0.0 },
        "label": "Be",
        "xyz": [4.957505883115219, 0.152509924449465, 1.6422392742908525]
      },
      {
        "species": [{ "element": "Be", "occu": 1 }],
        "abc": [0.46906734, 0.47346275, 0.23378366],
        "properties": { "magmom": 0.0 },
        "label": "Be",
        "xyz": [1.541800677421687, 2.7209966455505348, -0.5658572204898951]
      },
      {
        "species": [{ "element": "Be", "occu": 1 }],
        "abc": [0.23378366, 0.46906734, 0.47346275],
        "properties": { "magmom": 0.0 },
        "label": "Be",
        "xyz": [-0.004976657788466454, 2.6957361665248474, 1.68349187799359]
      },
      {
        "species": [{ "element": "Be", "occu": 1 }],
        "abc": [0.26471632, 0.00439541, 0.03093266],
        "properties": { "magmom": 0.0 },
        "label": "Be",
        "xyz": [1.742094708286896, 0.0252604790256874, -0.41366908323368096]
      },
      {
        "species": [{ "element": "Be", "occu": 1 }],
        "abc": [0.23528368, 0.26621634, 0.7396780900000001],
        "properties": { "magmom": 0.0 },
        "label": "Be",
        "xyz": [0.6780451920529766, 1.5299488040627076, 4.0296939595961145]
      },
      {
        "species": [{ "element": "Be", "occu": 1 }],
        "abc": [0.026537250000000002, 0.49560459, 0.76032191],
        "properties": { "magmom": 0.0 },
        "label": "Be",
        "xyz": [-1.4683321902539397, 2.8482460909743126, 4.126568070327938]
      },
      {
        "species": [{ "element": "N", "occu": 1 }],
        "abc": [0.25, 0.22875652, 0.97875652],
        "properties": { "magmom": -0.0 },
        "label": "N",
        "xyz": [0.8999970346460685, 1.3146667263006728, 5.765838861723362]
      },
      {
        "species": [{ "element": "N", "occu": 1 }],
        "abc": [0.27124348, 0.52124348, 0.75],
        "properties": { "magmom": -0.0 },
        "label": "N",
        "xyz": [0.07048724463302825, 2.995593128699327, 3.4196296669488357]
      },
      {
        "species": [{ "element": "N", "occu": 1 }],
        "abc": [0.52124348, 0.75, 0.27124348],
        "properties": { "magmom": -0.0 },
        "label": "N",
        "xyz": [0.9704842792790966, 4.310259855, -1.0734220492233613]
      },
      {
        "species": [{ "element": "N", "occu": 1 }],
        "abc": [0.22875652, 0.97875652, 0.25],
        "properties": { "magmom": -0.0 },
        "label": "N",
        "xyz": [-1.7295059096330285, 5.624926581300673, -1.073422006948836]
      },
      {
        "species": [{ "element": "N", "occu": 1 }],
        "abc": [0.97875652, 0.25, 0.22875652],
        "properties": { "magmom": -0.0 },
        "label": "N",
        "xyz": [5.665597380720903, 1.436753285, -1.2727885957766392]
      },
      {
        "species": [{ "element": "N", "occu": 1 }],
        "abc": [0.75, 0.27124348, 0.52124348],
        "properties": { "magmom": -0.0 },
        "label": "N",
        "xyz": [4.077063960353931, 1.5588398436993272, 1.272787103276639]
      },
      {
        "species": [{ "element": "N", "occu": 1 }],
        "abc": [0.75, 0.77124348, 0.021243480000000002],
        "properties": { "magmom": -0.0 },
        "label": "N",
        "xyz": [2.4180442953539316, 4.432346413699327, -3.4196312017233614]
      },
      {
        "species": [{ "element": "N", "occu": 1 }],
        "abc": [0.72875652, 0.47875652, 0.25],
        "properties": { "magmom": -0.0 },
        "label": "N",
        "xyz": [3.247554085366972, 2.751420011300673, -1.073422006948836]
      },
      {
        "species": [{ "element": "N", "occu": 1 }],
        "abc": [0.47875652, 0.25, 0.72875652],
        "properties": { "magmom": -0.0 },
        "label": "N",
        "xyz": [2.3475570507209036, 1.436753285, 3.419629709223361]
      },
      {
        "species": [{ "element": "N", "occu": 1 }],
        "abc": [0.77124348, 0.021243480000000002, 0.75],
        "properties": { "magmom": -0.0 },
        "label": "N",
        "xyz": [5.047547239633029, 0.1220865586993272, 3.4196296669488357]
      },
      {
        "species": [{ "element": "N", "occu": 1 }],
        "abc": [0.021243480000000002, 0.75, 0.77124348],
        "properties": { "magmom": -0.0 },
        "label": "N",
        "xyz": [-2.3475560507209035, 4.310259855, 3.618996255776639]
      },
      {
        "species": [{ "element": "N", "occu": 1 }],
        "abc": [0.25, 0.72875652, 0.47875652],
        "properties": { "magmom": -0.0 },
        "label": "N",
        "xyz": [-0.7590226303539314, 4.188173296300673, 1.0734205567233612]
      },
      {
        "species": [{ "element": "N", "occu": 1 }],
        "abc": [0.5, 0.5, 0.5],
        "properties": { "magmom": -0.0 },
        "label": "N",
        "xyz": [1.6590206650000001, 2.87350657, 1.17310383]
      },
      {
        "species": [{ "element": "N", "occu": 1 }],
        "abc": [0.0, 0.0, 0.5],
        "properties": { "magmom": -0.0 },
        "label": "N",
        "xyz": [0.0, 0.0, 3.51931348]
      },
      {
        "species": [{ "element": "N", "occu": 1 }],
        "abc": [0.5, 0.0, 0.0],
        "properties": { "magmom": -0.0 },
        "label": "N",
        "xyz": [3.31804033, 0.0, -1.173104825]
      },
      {
        "species": [{ "element": "N", "occu": 1 }],
        "abc": [0.0, 0.5, 0.0],
        "properties": { "magmom": -0.0 },
        "label": "N",
        "xyz": [-1.659019665, 2.87350657, -1.173104825]
      }
    ]
  },
  "task_ids": null,
  "uncorrected_energy_per_atom": null,
  "energy_per_atom": -6.7963116155000005,
  "formation_energy_per_atom": -1.217352798500001,
  "energy_above_hull": 0.0,
  "is_stable": true,
  "equilibrium_reaction_energy_per_atom": null,
  "decomposes_to": null,
  "xas": null,
  "grain_boundaries": null,
  "band_gap": 3.3145,
  "cbm": null,
  "vbm": null,
  "efermi": 4.57372736,
  "is_gap_direct": null,
  "is_metal": null,
  "es_source_calc_id": null,
  "bandstructure": null,
  "dos": null,
  "dos_energy_up": null,
  "dos_energy_down": null,
  "is_magnetic": null,
  "ordering": null,
  "total_magnetization": 0.0,
  "total_magnetization_normalized_vol": null,
  "total_magnetization_normalized_formula_units": null,
  "num_magnetic_sites": null,
  "num_unique_magnetic_sites": null,
  "types_of_magnetic_species": null,
  "bulk_modulus": null,
  "shear_modulus": null,
  "universal_anisotropy": null,
  "homogeneous_poisson": null,
  "e_total": null,
  "e_ionic": null,
  "e_electronic": null,
  "n": null,
  "e_ij_max": null,
  "weighted_surface_energy_EV_PER_ANG2": null,
  "weighted_surface_energy": null,
  "weighted_work_function": null,
  "surface_anisotropy": null,
  "shape_factor": null,
  "has_reconstructed": null,
  "possible_species": null,
  "has_props": null,
  "theoretical": null,
  "database_IDs": null,
  "fields_not_requested": [
    "builder_meta",
    "nsites",
    "elements",
    "nelements",
    "composition",
    "composition_reduced",
    "chemsys",
    "symmetry",
    "property_name",
    "deprecated",
    "deprecation_reasons",
    "last_updated",
    "origins",
    "warnings",
    "task_ids",
    "uncorrected_energy_per_atom",
    "equilibrium_reaction_energy_per_atom",
    "decomposes_to",
    "xas",
    "grain_boundaries",
    "cbm",
    "vbm",
    "is_gap_direct",
    "is_metal",
    "es_source_calc_id",
    "bandstructure",
    "dos",
    "dos_energy_up",
    "dos_energy_down",
    "is_magnetic",
    "ordering",
    "total_magnetization_normalized_vol",
    "total_magnetization_normalized_formula_units",
    "num_magnetic_sites",
    "num_unique_magnetic_sites",
    "types_of_magnetic_species",
    "bulk_modulus",
    "shear_modulus",
    "universal_anisotropy",
    "homogeneous_poisson",
    "e_total",
    "e_ionic",
    "e_electronic",
    "n",
    "e_ij_max",
    "weighted_surface_energy_EV_PER_ANG2",
    "weighted_surface_energy",
    "weighted_work_function",
    "surface_anisotropy",
    "shape_factor",
    "has_reconstructed",
    "possible_species",
    "has_props",
    "theoretical",
    "database_IDs"
  ]
}
