{
  "builder_meta": null,
  "nsites": null,
  "elements": null,
  "nelements": null,
  "composition": null,
  "composition_reduced": null,
  "formula_pretty": "Be3Ru2",
  "formula_anonymous": "A2B3",
  "chemsys": null,
  "volume": 445.8988785406881,
  "density": 6.827675530863239,
  "density_atomic": 11.147471963517201,
  "symmetry": null,
  "property_name": null,
  "material_id": "mp-1196493",
  "deprecated": null,
  "deprecation_reasons": null,
  "last_updated": null,
  "origins": null,
  "warnings": null,
  "structure": {
    "@module": "pymatgen.core.structure",
    "@class": "Structure",
    "charge": 0,
    "lattice": {
      "matrix": [
        [-4.812737, -4.812737, 4.812737],
        [-4.812737, 4.812737, -4.812737],
        [4.812737, -4.812737, -4.812737]
      ],
      "pbc": [true, true, true],
      "a": 8.335905007466616,
      "b": 8.335905007466616,
      "c": 8.335905007466616,
      "alpha": 109.47122063449069,
      "beta": 109.47122063449069,
      "gamma": 109.47122063449069,
      "volume": 445.8988785406881
    },
    "properties": {},
    "sites": [
      {
        "species": [{ "element": "Be", "occu": 1 }],
        "abc": [0.610047, 0.746316, 0.558322],
        "properties": { "magmom": -0.0 },
        "label": "Be",
        "xyz": [-3.8407614482169996, -2.031230089061, -3.3428838055670003]
      },
      {
        "species": [{ "element": "Be", "occu": 1 }],
        "abc": [0.389953, 0.253683999999999, 0.441677999999999],
        "properties": { "magmom": -0.0 },
        "label": "Be",
        "xyz": [-0.9719755517829998, -2.781506910939, -1.469853194432991]
      },
      {
        "species": [{ "element": "Be", "occu": 1 }],
        "abc": [0.889953, 0.948275, 0.636269],
        "properties": { "magmom": -0.0 },
        "label": "Be",
        "xyz": [-5.7847125517830005, -2.7815069109389996, -3.3428838055670007]
      },
      {
        "species": [{ "element": "Be", "occu": 1 }],
        "abc": [0.312006, 0.753684, 0.863730999999999],
        "properties": { "magmom": -0.0 },
        "label": "Be",
        "xyz": [-0.9719755517830047, -2.0312300890609953, -6.282590194432995]
      },
      {
        "species": [{ "element": "Be", "occu": 1 }],
        "abc": [0.746316, 0.558322, 0.610047],
        "properties": { "magmom": -0.0 },
        "label": "Be",
        "xyz": [-3.342883805567, -3.840761448217, -2.031230089061]
      },
      {
        "species": [{ "element": "Be", "occu": 1 }],
        "abc": [0.110046999999999, 0.051725, 0.363730999999999],
        "properties": { "magmom": -0.0 },
        "label": "Be",
        "xyz": [0.9719755517830002, -2.0312300890609905, -1.4698531944330002]
      },
      {
        "species": [{ "element": "Be", "occu": 1 }],
        "abc": [0.687994, 0.246315999999999, 0.136269],
        "properties": { "magmom": -0.0 },
        "label": "Be",
        "xyz": [-3.840761448216995, -2.781506910939005, 1.4698531944330049]
      },
      {
        "species": [{ "element": "Be", "occu": 1 }],
        "abc": [0.253683999999999, 0.441677999999999, 0.389953],
        "properties": { "magmom": -0.0 },
        "label": "Be",
        "xyz": [-1.4698531944329907, -0.971975551783, -2.781506910939]
      },
      {
        "species": [{ "element": "Be", "occu": 1 }],
        "abc": [0.187994, 0.551725, 0.9416779999999991],
        "properties": { "magmom": -0.0 },
        "label": "Be",
        "xyz": [0.9719755517829962, -2.781506910938996, -6.282590194432997]
      },
      {
        "species": [{ "element": "Be", "occu": 1 }],
        "abc": [0.948275, 0.636269, 0.889953],
        "properties": { "magmom": -0.0 },
        "label": "Be",
        "xyz": [-3.3428838055670003, -5.7847125517830005, -2.7815069109389996]
      },
      {
        "species": [{ "element": "Be", "occu": 1 }],
        "abc": [0.812006, 0.448275, 0.058322],
        "properties": { "magmom": -0.0 },
        "label": "Be",
        "xyz": [-5.784712551783001, -2.031230089061, 1.469853194433]
      },
      {
        "species": [{ "element": "Be", "occu": 1 }],
        "abc": [0.051725, 0.363730999999999, 0.110046999999999],
        "properties": { "magmom": -0.0 },
        "label": "Be",
        "xyz": [-1.4698531944330004, 0.9719755517830001, -2.0312300890609905]
      },
      {
        "species": [{ "element": "Be", "occu": 1 }],
        "abc": [0.753684, 0.863730999999999, 0.312006],
        "properties": { "magmom": -0.0 },
        "label": "Be",
        "xyz": [-6.282590194432995, -0.9719755517830051, -2.0312300890609953]
      },
      {
        "species": [{ "element": "Be", "occu": 1 }],
        "abc": [0.246315999999999, 0.136269, 0.687994],
        "properties": { "magmom": -0.0 },
        "label": "Be",
        "xyz": [1.4698531944330047, -3.8407614482169956, -2.7815069109390045]
      },
      {
        "species": [{ "element": "Be", "occu": 1 }],
        "abc": [0.551725, 0.9416779999999991, 0.187994],
        "properties": { "magmom": -0.0 },
        "label": "Be",
        "xyz": [-6.282590194432996, 0.9719755517829961, -2.781506910938996]
      },
      {
        "species": [{ "element": "Be", "occu": 1 }],
        "abc": [0.448275, 0.058322, 0.812006],
        "properties": { "magmom": -0.0 },
        "label": "Be",
        "xyz": [1.469853194433, -5.7847125517830005, -2.031230089061]
      },
      {
        "species": [{ "element": "Be", "occu": 1 }],
        "abc": [0.558322, 0.610047, 0.746316],
        "properties": { "magmom": -0.0 },
        "label": "Be",
        "xyz": [-2.031230089061, -3.3428838055670003, -3.840761448217]
      },
      {
        "species": [{ "element": "Be", "occu": 1 }],
        "abc": [0.441677999999999, 0.389953, 0.253683999999999],
        "properties": { "magmom": -0.0 },
        "label": "Be",
        "xyz": [-2.781506910939, -1.469853194432991, -0.971975551783]
      },
      {
        "species": [{ "element": "Be", "occu": 1 }],
        "abc": [0.863730999999999, 0.312006, 0.753684],
        "properties": { "magmom": -0.0 },
        "label": "Be",
        "xyz": [-2.031230089060995, -6.282590194432995, -0.9719755517830051]
      },
      {
        "species": [{ "element": "Be", "occu": 1 }],
        "abc": [0.136269, 0.687994, 0.246315999999999],
        "properties": { "magmom": -0.0 },
        "label": "Be",
        "xyz": [-2.7815069109390045, 1.4698531944330047, -3.8407614482169956]
      },
      {
        "species": [{ "element": "Be", "occu": 1 }],
        "abc": [0.9416779999999991, 0.187994, 0.551725],
        "properties": { "magmom": -0.0 },
        "label": "Be",
        "xyz": [-2.7815069109389965, -6.282590194432997, 0.9719755517829962]
      },
      {
        "species": [{ "element": "Be", "occu": 1 }],
        "abc": [0.058322, 0.812006, 0.448275],
        "properties": { "magmom": -0.0 },
        "label": "Be",
        "xyz": [-2.031230089061, 1.469853194433, -5.7847125517830005]
      },
      {
        "species": [{ "element": "Be", "occu": 1 }],
        "abc": [0.636269, 0.889953, 0.948275],
        "properties": { "magmom": -0.0 },
        "label": "Be",
        "xyz": [-2.781506910938999, -3.3428838055670007, -5.7847125517830005]
      },
      {
        "species": [{ "element": "Be", "occu": 1 }],
        "abc": [0.363730999999999, 0.110046999999999, 0.051725],
        "properties": { "magmom": -0.0 },
        "label": "Be",
        "xyz": [-2.031230089060991, -1.469853194433, 0.9719755517830001]
      },
      {
        "species": [{ "element": "Ru", "occu": 1 }],
        "abc": [0.618159, 0.368158999999999, 0.75],
        "properties": { "magmom": 0.002 },
        "label": "Ru",
        "xyz": [-1.1373363823659957, -4.812737000000006, -2.4063684999999952]
      },
      {
        "species": [{ "element": "Ru", "occu": 1 }],
        "abc": [0.381841, 0.631841, 0.25],
        "properties": { "magmom": 0.002 },
        "label": "Ru",
        "xyz": [-3.675400617634, -2.220446049250313e-16, -2.4063685]
      },
      {
        "species": [{ "element": "Ru", "occu": 1 }],
        "abc": [0.881841, 0.13184099999999901, 0.25],
        "properties": { "magmom": 0.002 },
        "label": "Ru",
        "xyz": [-3.6754006176339957, -4.812737000000006, 2.406368500000005]
      },
      {
        "species": [{ "element": "Ru", "occu": 1 }],
        "abc": [0.368158999999999, 0.75, 0.618159],
        "properties": { "magmom": 0.002 },
        "label": "Ru",
        "xyz": [-2.4063684999999952, -1.1373363823659957, -4.812737000000006]
      },
      {
        "species": [{ "element": "Ru", "occu": 1 }],
        "abc": [0.118159, 0.868159, 0.75],
        "properties": { "magmom": 0.002 },
        "label": "Ru",
        "xyz": [-1.137336382366, 4.440892098500626e-16, -7.219105500000001]
      },
      {
        "species": [{ "element": "Ru", "occu": 1 }],
        "abc": [0.631841, 0.25, 0.381841],
        "properties": { "magmom": 0.002 },
        "label": "Ru",
        "xyz": [
          -2.4063684999999992, -3.6754006176339997, -2.220446049250313e-16
        ]
      },
      {
        "species": [{ "element": "Ru", "occu": 1 }],
        "abc": [0.13184099999999901, 0.25, 0.881841],
        "properties": { "magmom": 0.002 },
        "label": "Ru",
        "xyz": [2.406368500000005, -3.6754006176339957, -4.812737000000006]
      },
      {
        "species": [{ "element": "Ru", "occu": 1 }],
        "abc": [0.868159, 0.75, 0.118159],
        "properties": { "magmom": 0.002 },
        "label": "Ru",
        "xyz": [-7.2191055, -1.1373363823660003, 2.220446049250313e-16]
      },
      {
        "species": [{ "element": "Ru", "occu": 1 }],
        "abc": [0.75, 0.618159, 0.368158999999999],
        "properties": { "magmom": 0.002 },
        "label": "Ru",
        "xyz": [-4.812737000000006, -2.4063684999999952, -1.1373363823659957]
      },
      {
        "species": [{ "element": "Ru", "occu": 1 }],
        "abc": [0.25, 0.381841, 0.631841],
        "properties": { "magmom": 0.002 },
        "label": "Ru",
        "xyz": [0.0, -2.4063685, -3.6754006176339997]
      },
      {
        "species": [{ "element": "Ru", "occu": 1 }],
        "abc": [0.25, 0.881841, 0.13184099999999901],
        "properties": { "magmom": 0.002 },
        "label": "Ru",
        "xyz": [-4.812737000000006, 2.406368500000005, -3.6754006176339957]
      },
      {
        "species": [{ "element": "Ru", "occu": 1 }],
        "abc": [0.75, 0.118159, 0.868159],
        "properties": { "magmom": 0.002 },
        "label": "Ru",
        "xyz": [0.0, -7.2191055, -1.1373363823660005]
      },
      {
        "species": [{ "element": "Ru", "occu": 1 }],
        "abc": [0.0, 0.0, 0.0],
        "properties": { "magmom": 0.008 },
        "label": "Ru",
        "xyz": [0.0, 0.0, 0.0]
      },
      {
        "species": [{ "element": "Ru", "occu": 1 }],
        "abc": [0.5, 0.0, 0.5],
        "properties": { "magmom": 0.008 },
        "label": "Ru",
        "xyz": [0.0, -4.812737, 0.0]
      },
      {
        "species": [{ "element": "Ru", "occu": 1 }],
        "abc": [0.5, 0.5, 0.0],
        "properties": { "magmom": 0.008 },
        "label": "Ru",
        "xyz": [-4.812737, 0.0, 0.0]
      },
      {
        "species": [{ "element": "Ru", "occu": 1 }],
        "abc": [0.0, 0.5, 0.5],
        "properties": { "magmom": 0.008 },
        "label": "Ru",
        "xyz": [0.0, 0.0, -4.812737]
      }
    ]
  },
  "task_ids": null,
  "uncorrected_energy_per_atom": null,
  "energy_per_atom": -5.870426773749999,
  "formation_energy_per_atom": 0.08298196125,
  "energy_above_hull": 0.381860753249999,
  "is_stable": false,
  "equilibrium_reaction_energy_per_atom": null,
  "decomposes_to": null,
  "xas": null,
  "grain_boundaries": null,
  "band_gap": 0.0,
  "cbm": null,
  "vbm": null,
  "efermi": 5.48896355,
  "is_gap_direct": null,
  "is_metal": null,
  "es_source_calc_id": null,
  "bandstructure": null,
  "dos": null,
  "dos_energy_up": null,
  "dos_energy_down": null,
  "is_magnetic": null,
  "ordering": null,
  "total_magnetization": 0.0573495,
  "total_magnetization_normalized_vol": null,
  "total_magnetization_normalized_formula_units": null,
  "num_magnetic_sites": null,
  "num_unique_magnetic_sites": null,
  "types_of_magnetic_species": null,
  "bulk_modulus": null,
  "shear_modulus": null,
  "universal_anisotropy": null,
  "homogeneous_poisson": null,
  "e_total": null,
  "e_ionic": null,
  "e_electronic": null,
  "n": null,
  "e_ij_max": null,
  "weighted_surface_energy_EV_PER_ANG2": null,
  "weighted_surface_energy": null,
  "weighted_work_function": null,
  "surface_anisotropy": null,
  "shape_factor": null,
  "has_reconstructed": null,
  "possible_species": null,
  "has_props": null,
  "theoretical": null,
  "database_IDs": null,
  "fields_not_requested": [
    "builder_meta",
    "nsites",
    "elements",
    "nelements",
    "composition",
    "composition_reduced",
    "chemsys",
    "symmetry",
    "property_name",
    "deprecated",
    "deprecation_reasons",
    "last_updated",
    "origins",
    "warnings",
    "task_ids",
    "uncorrected_energy_per_atom",
    "equilibrium_reaction_energy_per_atom",
    "decomposes_to",
    "xas",
    "grain_boundaries",
    "cbm",
    "vbm",
    "is_gap_direct",
    "is_metal",
    "es_source_calc_id",
    "bandstructure",
    "dos",
    "dos_energy_up",
    "dos_energy_down",
    "is_magnetic",
    "ordering",
    "total_magnetization_normalized_vol",
    "total_magnetization_normalized_formula_units",
    "num_magnetic_sites",
    "num_unique_magnetic_sites",
    "types_of_magnetic_species",
    "bulk_modulus",
    "shear_modulus",
    "universal_anisotropy",
    "homogeneous_poisson",
    "e_total",
    "e_ionic",
    "e_electronic",
    "n",
    "e_ij_max",
    "weighted_surface_energy_EV_PER_ANG2",
    "weighted_surface_energy",
    "weighted_work_function",
    "surface_anisotropy",
    "shape_factor",
    "has_reconstructed",
    "possible_species",
    "has_props",
    "theoretical",
    "database_IDs"
  ]
}
