{"builder_meta": null, "nsites": null, "elements": null, "nelements": null, "composition": null, "composition_reduced": null, "formula_pretty": "Be3Rh", "formula_anonymous": "AB3", "chemsys": null, "volume": 74.96899515530822, "density": 5.756348830071154, "density_atomic": 9.371124394413528, "symmetry": null, "property_name": null, "material_id": "mp-864894", "deprecated": null, "deprecation_reasons": null, "last_updated": null, "origins": null, "warnings": null, "structure": {"@module": "pymatgen.core.structure", "@class": "Structure", "charge": 0, "lattice": {"matrix": [[4.80888274, 8.109999999999999e-06, -0.0], [-2.40443478, 4.16461471, 0.0], [-0.0, 0.0, 3.74336565]], "pbc": [true, true, true], "a": 4.808882740006838, "b": 4.808879525837805, "c": 3.74336565, "alpha": 90.0, "beta": 90.0, "gamma": 119.99983481898349, "volume": 74.96899515530822}, "properties": {}, "sites": [{"species": [{"element": "Be", "occu": 1}], "abc": [0.16016136, 0.32032372000000003, 0.249999], "properties": {"magmom": -0.0}, "label": "Be", "xyz": [-2.935080553045921e-07, 1.334026175182551, 0.93583766913435]}, {"species": [{"element": "Be", "occu": 1}], "abc": [0.67967628, 0.83983864, 0.25], "properties": {"magmom": -0.0}, "label": "Be", "xyz": [1.2491462960755078, 3.4976098663450257, 0.9358414125]}, {"species": [{"element": "Be", "occu": 1}], "abc": [0.16016336, 0.83983764, 0.249999], "properties": {"magmom": -0.0}, "label": "Be", "xyz": [-1.2491280136847127, 3.497601488480534, 0.93583766913435]}, {"species": [{"element": "Be", "occu": 1}], "abc": [0.83983864, 0.67967728, 0.75], "properties": {"magmom": -0.0}, "label": "Be", "xyz": [2.4044458490732747, 2.8306008094321595, 2.8075242375]}, {"species": [{"element": "Be", "occu": 1}], "abc": [0.32032372000000003, 0.16016236, 0.749999], "properties": {"magmom": -0.0}, "label": "Be", "xyz": [1.155299259489712, 0.6670171182696848, 2.8075204941343497]}, {"species": [{"element": "Be", "occu": 1}], "abc": [0.83983664, 0.16016336, 0.75], "properties": {"magmom": -0.0}, "label": "Be", "xyz": [3.6535735692499323, 0.6670254961341762, 2.8075242375]}, {"species": [{"element": "Rh", "occu": 1}], "abc": [0.333333999999999, 0.666667, 0.75], "properties": {"magmom": 0.0}, "label": "Rh", "xyz": [6.797776895162144e-06, 2.7764138982103104, 2.8075242375]}, {"species": [{"element": "Rh", "occu": 1}], "abc": [0.666666, 0.333333, 0.249999], "properties": {"magmom": 0.0}, "label": "Rh", "xyz": [2.4044411622230997, 1.38820892178969, 0.93583766913435]}]}, "task_ids": null, "uncorrected_energy_per_atom": null, "energy_per_atom": -5.08777478125, "formation_energy_per_atom": -0.442138165, "energy_above_hull": 0.0, "is_stable": true, "equilibrium_reaction_energy_per_atom": null, "decomposes_to": null, "xas": null, "grain_boundaries": null, "band_gap": 0.0, "cbm": null, "vbm": null, "efermi": 5.43034028, "is_gap_direct": null, "is_metal": null, "es_source_calc_id": null, "bandstructure": null, "dos": null, "dos_energy_up": null, "dos_energy_down": null, "is_magnetic": null, "ordering": null, "total_magnetization": 0.0, "total_magnetization_normalized_vol": null, "total_magnetization_normalized_formula_units": null, "num_magnetic_sites": null, "num_unique_magnetic_sites": null, "types_of_magnetic_species": null, "bulk_modulus": null, "shear_modulus": null, "universal_anisotropy": null, "homogeneous_poisson": null, "e_total": null, "e_ionic": null, "e_electronic": null, "n": null, "e_ij_max": null, "weighted_surface_energy_EV_PER_ANG2": null, "weighted_surface_energy": null, "weighted_work_function": null, "surface_anisotropy": null, "shape_factor": null, "has_reconstructed": null, "possible_species": null, "has_props": null, "theoretical": null, "database_IDs": null, "fields_not_requested": ["builder_meta", "nsites", "elements", "nelements", "composition", "composition_reduced", "chemsys", "symmetry", "property_name", "deprecated", "deprecation_reasons", "last_updated", "origins", "warnings", "task_ids", "uncorrected_energy_per_atom", "equilibrium_reaction_energy_per_atom", "decomposes_to", "xas", "grain_boundaries", "cbm", "vbm", "is_gap_direct", "is_metal", "es_source_calc_id", "bandstructure", "dos", "dos_energy_up", "dos_energy_down", "is_magnetic", "ordering", "total_magnetization_normalized_vol", "total_magnetization_normalized_formula_units", "num_magnetic_sites", "num_unique_magnetic_sites", "types_of_magnetic_species", "bulk_modulus", "shear_modulus", "universal_anisotropy", "homogeneous_poisson", "e_total", "e_ionic", "e_electronic", "n", "e_ij_max", "weighted_surface_energy_EV_PER_ANG2", "weighted_surface_energy", "weighted_work_function", "surface_anisotropy", "shape_factor", "has_reconstructed", "possible_species", "has_props", "theoretical", "database_IDs"]}