{"builder_meta": null, "nsites": null, "elements": null, "nelements": null, "composition": null, "composition_reduced": null, "formula_pretty": "Be3S", "formula_anonymous": "AB3", "chemsys": null, "volume": 99.3275361053147, "density": 1.976097059840504, "density_atomic": 12.415942013164338, "symmetry": null, "property_name": null, "material_id": "mp-1183434", "deprecated": null, "deprecation_reasons": null, "last_updated": null, "origins": null, "warnings": null, "structure": {"@module": "pymatgen.core.structure", "@class": "Structure", "charge": 0, "lattice": {"matrix": [[2.223822, -3.851773, 0.0], [2.223822, 3.851773, 0.0], [0.0, 0.0, 5.79801]], "pbc": [true, true, true], "a": 4.447644267611001, "b": 4.447644267611001, "c": 5.79801, "alpha": 90.0, "beta": 90.0, "gamma": 120.00000398075927, "volume": 99.3275361053147}, "properties": {}, "sites": [{"species": [{"element": "Be", "occu": 1}], "abc": [0.166093, 0.332186, 0.25], "properties": {"magmom": 0.0}, "label": "Be", "xyz": [1.108083802338, 0.639752532889, 1.4495025]}, {"species": [{"element": "Be", "occu": 1}], "abc": [0.667814, 0.833907, 0.25], "properties": {"magmom": 0.0}, "label": "Be", "xyz": [3.339560197662, 0.6397525328889997, 1.4495025]}, {"species": [{"element": "Be", "occu": 1}], "abc": [0.166093, 0.833907, 0.25], "properties": {"magmom": 0.0}, "label": "Be", "xyz": [2.223822, 2.572267934222, 1.4495025]}, {"species": [{"element": "Be", "occu": 1}], "abc": [0.833907, 0.667814, 0.75], "properties": {"magmom": 0.0}, "label": "Be", "xyz": [3.339560197662, -0.6397525328889997, 4.3485075]}, {"species": [{"element": "Be", "occu": 1}], "abc": [0.332186, 0.166093, 0.75], "properties": {"magmom": 0.0}, "label": "Be", "xyz": [1.108083802338, -0.639752532889, 4.3485075]}, {"species": [{"element": "Be", "occu": 1}], "abc": [0.833907, 0.166093, 0.75], "properties": {"magmom": 0.0}, "label": "Be", "xyz": [2.223822, -2.572267934222, 4.3485075]}, {"species": [{"element": "S", "occu": 1}], "abc": [0.333333, 0.666667, 0.75], "properties": {"magmom": -0.0}, "label": "S", "xyz": [2.223822, 1.283926901182, 4.3485075]}, {"species": [{"element": "S", "occu": 1}], "abc": [0.666667, 0.333333, 0.25], "properties": {"magmom": -0.0}, "label": "S", "xyz": [2.223822, -1.283926901182, 1.4495025]}]}, "task_ids": null, "uncorrected_energy_per_atom": null, "energy_per_atom": -3.54064748375, "formation_energy_per_atom": 0.29850205687499903, "energy_above_hull": 0.9521277437500001, "is_stable": false, "equilibrium_reaction_energy_per_atom": null, "decomposes_to": null, "xas": null, "grain_boundaries": null, "band_gap": 0.0, "cbm": null, "vbm": null, "efermi": 4.85073583, "is_gap_direct": null, "is_metal": null, "es_source_calc_id": null, "bandstructure": null, "dos": null, "dos_energy_up": null, "dos_energy_down": null, "is_magnetic": null, "ordering": null, "total_magnetization": 0.0010896, "total_magnetization_normalized_vol": null, "total_magnetization_normalized_formula_units": null, "num_magnetic_sites": null, "num_unique_magnetic_sites": null, "types_of_magnetic_species": null, "bulk_modulus": null, "shear_modulus": null, "universal_anisotropy": null, "homogeneous_poisson": null, "e_total": null, "e_ionic": null, "e_electronic": null, "n": null, "e_ij_max": null, "weighted_surface_energy_EV_PER_ANG2": null, "weighted_surface_energy": null, "weighted_work_function": null, "surface_anisotropy": null, "shape_factor": null, "has_reconstructed": null, "possible_species": null, "has_props": null, "theoretical": null, "database_IDs": null, "fields_not_requested": ["builder_meta", "nsites", "elements", "nelements", "composition", "composition_reduced", "chemsys", "symmetry", "property_name", "deprecated", "deprecation_reasons", "last_updated", "origins", "warnings", "task_ids", "uncorrected_energy_per_atom", "equilibrium_reaction_energy_per_atom", "decomposes_to", "xas", "grain_boundaries", "cbm", "vbm", "is_gap_direct", "is_metal", "es_source_calc_id", "bandstructure", "dos", "dos_energy_up", "dos_energy_down", "is_magnetic", "ordering", "total_magnetization_normalized_vol", "total_magnetization_normalized_formula_units", "num_magnetic_sites", "num_unique_magnetic_sites", "types_of_magnetic_species", "bulk_modulus", "shear_modulus", "universal_anisotropy", "homogeneous_poisson", "e_total", "e_ionic", "e_electronic", "n", "e_ij_max", "weighted_surface_energy_EV_PER_ANG2", "weighted_surface_energy", "weighted_work_function", "surface_anisotropy", "shape_factor", "has_reconstructed", "possible_species", "has_props", "theoretical", "database_IDs"]}