{"builder_meta": null, "nsites": null, "elements": null, "nelements": null, "composition": null, "composition_reduced": null, "formula_pretty": "Be5Au", "formula_anonymous": "AB5", "chemsys": null, "volume": 56.68329337513013, "density": 7.090203482187636, "density_atomic": 9.447215562521688, "symmetry": null, "property_name": null, "material_id": "mp-1220", "deprecated": null, "deprecation_reasons": null, "last_updated": null, "origins": null, "warnings": null, "structure": {"@module": "pymatgen.core.structure", "@class": "Structure", "charge": 0, "lattice": {"matrix": [[3.73411154, -0.0, 2.15588935], [1.24470418, 3.52055408, 2.15588935], [-1e-08, -1e-08, 4.31178173]], "pbc": [true, true, true], "a": 4.311780129204711, "b": 4.31178019098348, "c": 4.31178173, "alpha": 60.00001160831652, "beta": 60.00001109765916, "gamma": 60.00000335441466, "volume": 56.68329337513013}, "properties": {}, "sites": [{"species": [{"element": "Be", "occu": 1}], "abc": [0.624752699999999, 0.12574389, 0.624752699999999], "properties": {"magmom": -0.0}, "label": "Be", "xyz": [2.4894102059610876, 0.4426881587270442, 4.311784883220481]}, {"species": [{"element": "Be", "occu": 1}], "abc": [0.25, 0.25, 0.25], "properties": {"magmom": -0.0}, "label": "Be", "xyz": [1.2447039275, 0.8801385175, 2.1558901075]}, {"species": [{"element": "Be", "occu": 1}], "abc": [0.624752699999999, 0.624752699999999, 0.624752699999999], "properties": {"magmom": -0.0}, "label": "Be", "xyz": [3.1105285576249124, 2.1994756607284858, 5.387592662255653]}, {"species": [{"element": "Be", "occu": 1}], "abc": [0.624752699999999, 0.624752699999999, 0.12574389], "properties": {"magmom": -0.0}, "label": "Be", "xyz": [3.1105285626150003, 2.1994756657185737, 3.2359755921886153]}, {"species": [{"element": "Be", "occu": 1}], "abc": [0.12574389, 0.624752699999999, 0.624752699999999], "properties": {"magmom": -0.0}, "label": "Be", "xyz": [1.2471740016422486, 2.1994756607284858, 4.311784883220481]}, {"species": [{"element": "Au", "occu": 1}], "abc": [-0.0, -0.0, 0.0], "properties": {"magmom": -0.0}, "label": "Au", "xyz": [0.0, 0.0, 0.0]}]}, "task_ids": null, "uncorrected_energy_per_atom": null, "energy_per_atom": -3.747176543333334, "formation_energy_per_atom": -0.08535215583333401, "energy_above_hull": 0.0, "is_stable": true, "equilibrium_reaction_energy_per_atom": null, "decomposes_to": null, "xas": null, "grain_boundaries": null, "band_gap": 0.0, "cbm": null, "vbm": null, "efermi": 6.20629486, "is_gap_direct": null, "is_metal": null, "es_source_calc_id": null, "bandstructure": null, "dos": null, "dos_energy_up": null, "dos_energy_down": null, "is_magnetic": null, "ordering": null, "total_magnetization": 3e-07, "total_magnetization_normalized_vol": null, "total_magnetization_normalized_formula_units": null, "num_magnetic_sites": null, "num_unique_magnetic_sites": null, "types_of_magnetic_species": null, "bulk_modulus": null, "shear_modulus": null, "universal_anisotropy": null, "homogeneous_poisson": null, "e_total": null, "e_ionic": null, "e_electronic": null, "n": null, "e_ij_max": null, "weighted_surface_energy_EV_PER_ANG2": null, "weighted_surface_energy": null, "weighted_work_function": null, "surface_anisotropy": null, "shape_factor": null, "has_reconstructed": null, "possible_species": null, "has_props": null, "theoretical": null, "database_IDs": null, "fields_not_requested": ["builder_meta", "nsites", "elements", "nelements", "composition", "composition_reduced", "chemsys", "symmetry", "property_name", "deprecated", "deprecation_reasons", "last_updated", "origins", "warnings", "task_ids", "uncorrected_energy_per_atom", "equilibrium_reaction_energy_per_atom", "decomposes_to", "xas", "grain_boundaries", "cbm", "vbm", "is_gap_direct", "is_metal", "es_source_calc_id", "bandstructure", "dos", "dos_energy_up", "dos_energy_down", "is_magnetic", "ordering", "total_magnetization_normalized_vol", "total_magnetization_normalized_formula_units", "num_magnetic_sites", "num_unique_magnetic_sites", "types_of_magnetic_species", "bulk_modulus", "shear_modulus", "universal_anisotropy", "homogeneous_poisson", "e_total", "e_ionic", "e_electronic", "n", "e_ij_max", "weighted_surface_energy_EV_PER_ANG2", "weighted_surface_energy", "weighted_work_function", "surface_anisotropy", "shape_factor", "has_reconstructed", "possible_species", "has_props", "theoretical", "database_IDs"]}