{
  "builder_meta": null,
  "nsites": null,
  "elements": null,
  "nelements": null,
  "composition": null,
  "composition_reduced": null,
  "formula_pretty": "Be5Co",
  "formula_anonymous": "AB5",
  "chemsys": null,
  "volume": 47.97136989827345,
  "density": 3.599777834462416,
  "density_atomic": 7.995228316378909,
  "symmetry": null,
  "property_name": null,
  "material_id": "mp-1071690",
  "deprecated": null,
  "deprecation_reasons": null,
  "last_updated": null,
  "origins": null,
  "warnings": null,
  "structure": {
    "@module": "pymatgen.core.structure",
    "@class": "Structure",
    "charge": 0,
    "lattice": {
      "matrix": [
        [-2.88392553, -2.88392553, -0.0],
        [-2.88392553, -0.0, -2.88392553],
        [-0.0, -2.88392553, -2.88392553]
      ],
      "pbc": [true, true, true],
      "a": 4.078486597400016,
      "b": 4.078486597400016,
      "c": 4.078486597400016,
      "alpha": 59.99999999999999,
      "beta": 59.99999999999999,
      "gamma": 59.99999999999999,
      "volume": 47.97136989827345
    },
    "properties": {},
    "sites": [
      {
        "species": [{ "element": "Be", "occu": 1 }],
        "abc": [0.75, 0.75, 0.75],
        "properties": { "magmom": 0.0 },
        "label": "Be",
        "xyz": [-4.325888295, -4.325888295, -4.325888295]
      },
      {
        "species": [{ "element": "Be", "occu": 1 }],
        "abc": [0.87671842, 0.37442786, 0.37442786],
        "properties": { "magmom": 0.0 },
        "label": "Be",
        "xyz": [-3.608212698656528, -3.608212698656528, -2.1596441291945316]
      },
      {
        "species": [{ "element": "Be", "occu": 1 }],
        "abc": [0.37442786, 0.87671842, 0.37442786],
        "properties": { "magmom": 0.0 },
        "label": "Be",
        "xyz": [-3.608212698656528, -2.1596441291945316, -3.608212698656528]
      },
      {
        "species": [{ "element": "Be", "occu": 1 }],
        "abc": [0.37442786, 0.37442786, 0.87671842],
        "properties": { "magmom": 0.0 },
        "label": "Be",
        "xyz": [-2.1596441291945316, -3.608212698656528, -3.608212698656528]
      },
      {
        "species": [{ "element": "Be", "occu": 1 }],
        "abc": [0.37442786, 0.37442786, 0.37442786],
        "properties": { "magmom": 0.0 },
        "label": "Be",
        "xyz": [-2.1596441291945316, -2.1596441291945316, -2.1596441291945316]
      },
      {
        "species": [{ "element": "Co", "occu": 1 }],
        "abc": [-0.0, -0.0, -0.0],
        "properties": { "magmom": 0.002 },
        "label": "Co",
        "xyz": [0.0, 0.0, 0.0]
      }
    ]
  },
  "task_ids": null,
  "uncorrected_energy_per_atom": null,
  "energy_per_atom": -4.4927534,
  "formation_energy_per_atom": -0.187673225833333,
  "energy_above_hull": 0.0024526833333330003,
  "is_stable": false,
  "equilibrium_reaction_energy_per_atom": null,
  "decomposes_to": null,
  "xas": null,
  "grain_boundaries": null,
  "band_gap": 0.0,
  "cbm": null,
  "vbm": null,
  "efermi": 4.70481818,
  "is_gap_direct": null,
  "is_metal": null,
  "es_source_calc_id": null,
  "bandstructure": null,
  "dos": null,
  "dos_energy_up": null,
  "dos_energy_down": null,
  "is_magnetic": null,
  "ordering": null,
  "total_magnetization": 0.0019839,
  "total_magnetization_normalized_vol": null,
  "total_magnetization_normalized_formula_units": null,
  "num_magnetic_sites": null,
  "num_unique_magnetic_sites": null,
  "types_of_magnetic_species": null,
  "bulk_modulus": null,
  "shear_modulus": null,
  "universal_anisotropy": null,
  "homogeneous_poisson": null,
  "e_total": null,
  "e_ionic": null,
  "e_electronic": null,
  "n": null,
  "e_ij_max": null,
  "weighted_surface_energy_EV_PER_ANG2": null,
  "weighted_surface_energy": null,
  "weighted_work_function": null,
  "surface_anisotropy": null,
  "shape_factor": null,
  "has_reconstructed": null,
  "possible_species": null,
  "has_props": null,
  "theoretical": null,
  "database_IDs": null,
  "fields_not_requested": [
    "builder_meta",
    "nsites",
    "elements",
    "nelements",
    "composition",
    "composition_reduced",
    "chemsys",
    "symmetry",
    "property_name",
    "deprecated",
    "deprecation_reasons",
    "last_updated",
    "origins",
    "warnings",
    "task_ids",
    "uncorrected_energy_per_atom",
    "equilibrium_reaction_energy_per_atom",
    "decomposes_to",
    "xas",
    "grain_boundaries",
    "cbm",
    "vbm",
    "is_gap_direct",
    "is_metal",
    "es_source_calc_id",
    "bandstructure",
    "dos",
    "dos_energy_up",
    "dos_energy_down",
    "is_magnetic",
    "ordering",
    "total_magnetization_normalized_vol",
    "total_magnetization_normalized_formula_units",
    "num_magnetic_sites",
    "num_unique_magnetic_sites",
    "types_of_magnetic_species",
    "bulk_modulus",
    "shear_modulus",
    "universal_anisotropy",
    "homogeneous_poisson",
    "e_total",
    "e_ionic",
    "e_electronic",
    "n",
    "e_ij_max",
    "weighted_surface_energy_EV_PER_ANG2",
    "weighted_surface_energy",
    "weighted_work_function",
    "surface_anisotropy",
    "shape_factor",
    "has_reconstructed",
    "possible_species",
    "has_props",
    "theoretical",
    "database_IDs"
  ]
}
