{"builder_meta": null, "nsites": null, "elements": null, "nelements": null, "composition": null, "composition_reduced": null, "formula_pretty": "Be5Fe", "formula_anonymous": "AB5", "chemsys": null, "volume": 49.75865134873596, "density": 3.3674185506251693, "density_atomic": 8.29310855812266, "symmetry": null, "property_name": null, "material_id": "mp-1025010", "deprecated": null, "deprecation_reasons": null, "last_updated": null, "origins": null, "warnings": null, "structure": {"@module": "pymatgen.core.structure", "@class": "Structure", "charge": 0, "lattice": {"matrix": [[-5.414e-05, 2.91927836, 2.91927836], [2.91927836, -5.414e-05, 2.91927836], [2.91927836, 2.91927836, -5.414e-05]], "pbc": [true, true, true], "a": 4.128483049409277, "b": 4.128483049409277, "c": 4.128483049409276, "alpha": 60.00122697036395, "beta": 60.00122697036395, "gamma": 60.00122697036395, "volume": 49.75865134873596}, "properties": {}, "sites": [{"species": [{"element": "Be", "occu": 1}], "abc": [0.62575505, 0.62575505, 0.62575605], "properties": {"magmom": -0.027}, "label": "Be", "xyz": [3.653475393151389, 3.653475393151389, 3.653472473818889]}, {"species": [{"element": "Be", "occu": 1}], "abc": [0.62576373, 0.62576373, 0.12271862], "properties": {"magmom": -0.027}, "label": "Be", "xyz": [2.1849944483486032, 2.1849944483486032, 3.6535503869376784]}, {"species": [{"element": "Be", "occu": 1}], "abc": [0.62576373, 0.12271962, 0.62576373], "properties": {"magmom": -0.027}, "label": "Be", "xyz": [2.1849973676269636, 3.653550386883538, 2.1849973676269636]}, {"species": [{"element": "Be", "occu": 1}], "abc": [0.12272062, 0.62576373, 0.62576373], "properties": {"magmom": -0.027}, "label": "Be", "xyz": [3.653550386829398, 2.1850002869053236, 2.1850002869053236]}, {"species": [{"element": "Be", "occu": 1}], "abc": [0.24999918000000002, 0.24999918000000002, 0.24999918000000002], "properties": {"magmom": -0.008}, "label": "Be", "xyz": [1.4596208574278844, 1.4596208574278844, 1.4596208574278844]}, {"species": [{"element": "Fe", "occu": 1}], "abc": [-3.299999999999998e-07, -3.299999999999998e-07, -3.299999999999998e-07], "properties": {"magmom": 1.905}, "label": "Fe", "xyz": [-1.926705851399999e-06, -1.926705851399999e-06, -1.926705851399999e-06]}]}, "task_ids": null, "uncorrected_energy_per_atom": null, "energy_per_atom": -4.617923345, "formation_energy_per_atom": -0.09007575583333301, "energy_above_hull": 0.049249084999999006, "is_stable": false, "equilibrium_reaction_energy_per_atom": null, "decomposes_to": null, "xas": null, "grain_boundaries": null, "band_gap": 0.0, "cbm": null, "vbm": null, "efermi": 4.40833721, "is_gap_direct": null, "is_metal": null, "es_source_calc_id": null, "bandstructure": null, "dos": null, "dos_energy_up": null, "dos_energy_down": null, "is_magnetic": null, "ordering": null, "total_magnetization": 1.7828741, "total_magnetization_normalized_vol": null, "total_magnetization_normalized_formula_units": null, "num_magnetic_sites": null, "num_unique_magnetic_sites": null, "types_of_magnetic_species": null, "bulk_modulus": null, "shear_modulus": null, "universal_anisotropy": null, "homogeneous_poisson": null, "e_total": null, "e_ionic": null, "e_electronic": null, "n": null, "e_ij_max": null, "weighted_surface_energy_EV_PER_ANG2": null, "weighted_surface_energy": null, "weighted_work_function": null, "surface_anisotropy": null, "shape_factor": null, "has_reconstructed": null, "possible_species": null, "has_props": null, "theoretical": null, "database_IDs": null, "fields_not_requested": ["builder_meta", "nsites", "elements", "nelements", "composition", "composition_reduced", "chemsys", "symmetry", "property_name", "deprecated", "deprecation_reasons", "last_updated", "origins", "warnings", "task_ids", "uncorrected_energy_per_atom", "equilibrium_reaction_energy_per_atom", "decomposes_to", "xas", "grain_boundaries", "cbm", "vbm", "is_gap_direct", "is_metal", "es_source_calc_id", "bandstructure", "dos", "dos_energy_up", "dos_energy_down", "is_magnetic", "ordering", "total_magnetization_normalized_vol", "total_magnetization_normalized_formula_units", "num_magnetic_sites", "num_unique_magnetic_sites", "types_of_magnetic_species", "bulk_modulus", "shear_modulus", "universal_anisotropy", "homogeneous_poisson", "e_total", "e_ionic", "e_electronic", "n", "e_ij_max", "weighted_surface_energy_EV_PER_ANG2", "weighted_surface_energy", "weighted_work_function", "surface_anisotropy", "shape_factor", "has_reconstructed", "possible_species", "has_props", "theoretical", "database_IDs"]}