{"builder_meta": null, "nsites": null, "elements": null, "nelements": null, "composition": null, "composition_reduced": null, "formula_pretty": "Be8Ru", "formula_anonymous": "AB8", "chemsys": null, "volume": 164.73483583446827, "density": 3.491080976226289, "density_atomic": 9.151935324137126, "symmetry": null, "property_name": null, "material_id": "mp-1227382", "deprecated": null, "deprecation_reasons": null, "last_updated": null, "origins": null, "warnings": null, "structure": {"@module": "pymatgen.core.structure", "@class": "Structure", "charge": 0, "lattice": {"matrix": [[2.081236, -3.604807, 0.0], [2.081236, 3.604807, 0.0], [0.0, 0.0, 10.97873]], "pbc": [true, true, true], "a": 4.162472437739979, "b": 4.162472437739979, "c": 10.97873, "alpha": 90.0, "beta": 90.0, "gamma": 120.00000695755799, "volume": 164.73483583446827}, "properties": {}, "sites": [{"species": [{"element": "Be", "occu": 1}], "abc": [0.666667, 0.333333, 0.656123], "properties": {"magmom": -0.0}, "label": "Be", "xyz": [2.081236, -1.201604736538, 7.20339726379]}, {"species": [{"element": "Be", "occu": 1}], "abc": [0.666667, 0.333333, 0.343877], "properties": {"magmom": -0.0}, "label": "Be", "xyz": [2.081236, -1.201604736538, 3.77533273621]}, {"species": [{"element": "Be", "occu": 1}], "abc": [0.833565, 0.166435, 0.816788], "properties": {"magmom": 0.0}, "label": "Be", "xyz": [2.081236, -2.4048748939099998, 8.96729491924]}, {"species": [{"element": "Be", "occu": 1}], "abc": [0.833565, 0.667130999999999, 0.816788], "properties": {"magmom": 0.0}, "label": "Be", "xyz": [3.123302540255998, -0.5999624482380033, 8.96729491924]}, {"species": [{"element": "Be", "occu": 1}], "abc": [0.332868999999999, 0.166435, 0.816788], "properties": {"magmom": 0.0}, "label": "Be", "xyz": [1.039169459743998, -0.5999624482379965, 8.96729491924]}, {"species": [{"element": "Be", "occu": 1}], "abc": [0.833565, 0.166435, 0.18321199999999901], "properties": {"magmom": 0.0}, "label": "Be", "xyz": [2.081236, -2.4048748939099998, 2.0114350807599894]}, {"species": [{"element": "Be", "occu": 1}], "abc": [0.833565, 0.667130999999999, 0.18321199999999901], "properties": {"magmom": 0.0}, "label": "Be", "xyz": [3.123302540255998, -0.5999624482380033, 2.0114350807599894]}, {"species": [{"element": "Be", "occu": 1}], "abc": [0.332868999999999, 0.166435, 0.18321199999999901], "properties": {"magmom": 0.0}, "label": "Be", "xyz": [1.039169459743998, -0.5999624482379965, 2.0114350807599894]}, {"species": [{"element": "Be", "occu": 1}], "abc": [0.333333, 0.666667, 0.902968999999999], "properties": {"magmom": -0.0}, "label": "Be", "xyz": [2.081236, 1.201604736538, 9.913452849369989]}, {"species": [{"element": "Be", "occu": 1}], "abc": [0.333333, 0.666667, 0.097030999999999], "properties": {"magmom": -0.0}, "label": "Be", "xyz": [2.081236, 1.201604736538, 1.0652771506299892]}, {"species": [{"element": "Be", "occu": 1}], "abc": [0.495552, 0.504448, 0.5], "properties": {"magmom": 0.0}, "label": "Be", "xyz": [2.081236, 0.03206836307200023, 5.489365]}, {"species": [{"element": "Be", "occu": 1}], "abc": [0.495552, 0.9911049999999991, 0.5], "properties": {"magmom": 0.0}, "label": "Be", "xyz": [3.0940840680519983, 1.7863729232709968, 5.489365]}, {"species": [{"element": "Be", "occu": 1}], "abc": [0.008895, 0.504448, 0.5], "properties": {"magmom": 0.0}, "label": "Be", "xyz": [1.068387931948, 1.7863729232710002, 5.489365]}, {"species": [{"element": "Be", "occu": 1}], "abc": [0.666667, 0.333333, 0.0], "properties": {"magmom": 0.0}, "label": "Be", "xyz": [2.081236, -1.201604736538, 0.0]}, {"species": [{"element": "Be", "occu": 1}], "abc": [0.0, 0.0, 0.6264000000000001], "properties": {"magmom": -0.0}, "label": "Be", "xyz": [0.0, 0.0, 6.8770764720000015]}, {"species": [{"element": "Be", "occu": 1}], "abc": [0.0, 0.0, 0.37360000000000004], "properties": {"magmom": -0.0}, "label": "Be", "xyz": [0.0, 0.0, 4.101653528000001]}, {"species": [{"element": "Ru", "occu": 1}], "abc": [0.333333, 0.666667, 0.692927], "properties": {"magmom": 0.0}, "label": "Ru", "xyz": [2.081236, 1.201604736538, 7.60745844271]}, {"species": [{"element": "Ru", "occu": 1}], "abc": [0.333333, 0.666667, 0.307073], "properties": {"magmom": 0.0}, "label": "Ru", "xyz": [2.081236, 1.201604736538, 3.37127155729]}]}, "task_ids": null, "uncorrected_energy_per_atom": null, "energy_per_atom": -4.467335782777777, "formation_energy_per_atom": -0.112924064999999, "energy_above_hull": 0.09296127194444401, "is_stable": false, "equilibrium_reaction_energy_per_atom": null, "decomposes_to": null, "xas": null, "grain_boundaries": null, "band_gap": 0.0, "cbm": null, "vbm": null, "efermi": 4.10106851, "is_gap_direct": null, "is_metal": null, "es_source_calc_id": null, "bandstructure": null, "dos": null, "dos_energy_up": null, "dos_energy_down": null, "is_magnetic": null, "ordering": null, "total_magnetization": 0.0028778, "total_magnetization_normalized_vol": null, "total_magnetization_normalized_formula_units": null, "num_magnetic_sites": null, "num_unique_magnetic_sites": null, "types_of_magnetic_species": null, "bulk_modulus": null, "shear_modulus": null, "universal_anisotropy": null, "homogeneous_poisson": null, "e_total": null, "e_ionic": null, "e_electronic": null, "n": null, "e_ij_max": null, "weighted_surface_energy_EV_PER_ANG2": null, "weighted_surface_energy": null, "weighted_work_function": null, "surface_anisotropy": null, "shape_factor": null, "has_reconstructed": null, "possible_species": null, "has_props": null, "theoretical": null, "database_IDs": null, "fields_not_requested": ["builder_meta", "nsites", "elements", "nelements", "composition", "composition_reduced", "chemsys", "symmetry", "property_name", "deprecated", "deprecation_reasons", "last_updated", "origins", "warnings", "task_ids", "uncorrected_energy_per_atom", "equilibrium_reaction_energy_per_atom", "decomposes_to", "xas", "grain_boundaries", "cbm", "vbm", "is_gap_direct", "is_metal", "es_source_calc_id", "bandstructure", "dos", "dos_energy_up", "dos_energy_down", "is_magnetic", "ordering", "total_magnetization_normalized_vol", "total_magnetization_normalized_formula_units", "num_magnetic_sites", "num_unique_magnetic_sites", "types_of_magnetic_species", "bulk_modulus", "shear_modulus", "universal_anisotropy", "homogeneous_poisson", "e_total", "e_ionic", "e_electronic", "n", "e_ij_max", "weighted_surface_energy_EV_PER_ANG2", "weighted_surface_energy", "weighted_work_function", "surface_anisotropy", "shape_factor", "has_reconstructed", "possible_species", "has_props", "theoretical", "database_IDs"]}