{"builder_meta": null, "nsites": null, "elements": null, "nelements": null, "composition": null, "composition_reduced": null, "formula_pretty": "BeAg4", "formula_anonymous": "AB4", "chemsys": null, "volume": 185.33708726856307, "density": 7.893104738413197, "density_atomic": 18.533708726856307, "symmetry": null, "property_name": null, "material_id": "mp-1214184", "deprecated": null, "deprecation_reasons": null, "last_updated": null, "origins": null, "warnings": null, "structure": {"@module": "pymatgen.core.structure", "@class": "Structure", "charge": 0, "lattice": {"matrix": [[-4.525266, -4.525266, 0.0], [-4.525266, 0.0, -4.525266], [0.0, -4.525266, -4.525266]], "pbc": [true, true, true], "a": 6.399692550545846, "b": 6.399692550545846, "c": 6.399692550545846, "alpha": 59.99999999999999, "beta": 59.99999999999999, "gamma": 59.99999999999999, "volume": 185.33708726856307}, "properties": {}, "sites": [{"species": [{"element": "Be", "occu": 1}], "abc": [0.0, 0.0, 0.0], "properties": {"magmom": -0.0}, "label": "Be", "xyz": [0.0, 0.0, 0.0]}, {"species": [{"element": "Be", "occu": 1}], "abc": [0.75, 0.75, 0.75], "properties": {"magmom": -0.0}, "label": "Be", "xyz": [-6.787899, -6.787899, -6.787899]}, {"species": [{"element": "Ag", "occu": 1}], "abc": [0.610296, 0.610296, 0.610296], "properties": {"magmom": -0.0}, "label": "Ag", "xyz": [-5.5235034774719995, -5.5235034774719995, -5.5235034774719995]}, {"species": [{"element": "Ag", "occu": 1}], "abc": [0.169111999999999, 0.610296, 0.610296], "properties": {"magmom": -0.0}, "label": "Ag", "xyz": [-3.5270285225279956, -3.5270285225279956, -5.5235034774719995]}, {"species": [{"element": "Ag", "occu": 1}], "abc": [0.610296, 0.169111999999999, 0.610296], "properties": {"magmom": -0.0}, "label": "Ag", "xyz": [-3.5270285225279956, -5.5235034774719995, -3.5270285225279956]}, {"species": [{"element": "Ag", "occu": 1}], "abc": [0.580888, 0.139704, 0.139704], "properties": {"magmom": -0.0}, "label": "Ag", "xyz": [-3.260870477472, -3.260870477472, -1.264395522528]}, {"species": [{"element": "Ag", "occu": 1}], "abc": [0.139704, 0.139704, 0.139704], "properties": {"magmom": -0.0}, "label": "Ag", "xyz": [-1.264395522528, -1.264395522528, -1.264395522528]}, {"species": [{"element": "Ag", "occu": 1}], "abc": [0.610296, 0.610296, 0.169111999999999], "properties": {"magmom": -0.0}, "label": "Ag", "xyz": [-5.5235034774719995, -3.5270285225279956, -3.5270285225279956]}, {"species": [{"element": "Ag", "occu": 1}], "abc": [0.139704, 0.580888, 0.139704], "properties": {"magmom": -0.0}, "label": "Ag", "xyz": [-3.260870477472, -1.264395522528, -3.260870477472]}, {"species": [{"element": "Ag", "occu": 1}], "abc": [0.139704, 0.139704, 0.580888], "properties": {"magmom": -0.0}, "label": "Ag", "xyz": [-1.264395522528, -3.260870477472, -3.260870477472]}]}, "task_ids": null, "uncorrected_energy_per_atom": null, "energy_per_atom": -2.516762988, "formation_energy_per_atom": 0.5054697276666681, "energy_above_hull": 0.5054697276666681, "is_stable": false, "equilibrium_reaction_energy_per_atom": null, "decomposes_to": null, "xas": null, "grain_boundaries": null, "band_gap": 0.0, "cbm": null, "vbm": null, "efermi": 2.41089795, "is_gap_direct": null, "is_metal": null, "es_source_calc_id": null, "bandstructure": null, "dos": null, "dos_energy_up": null, "dos_energy_down": null, "is_magnetic": null, "ordering": null, "total_magnetization": 0.0063398, "total_magnetization_normalized_vol": null, "total_magnetization_normalized_formula_units": null, "num_magnetic_sites": null, "num_unique_magnetic_sites": null, "types_of_magnetic_species": null, "bulk_modulus": null, "shear_modulus": null, "universal_anisotropy": null, "homogeneous_poisson": null, "e_total": null, "e_ionic": null, "e_electronic": null, "n": null, "e_ij_max": null, "weighted_surface_energy_EV_PER_ANG2": null, "weighted_surface_energy": null, "weighted_work_function": null, "surface_anisotropy": null, "shape_factor": null, "has_reconstructed": null, "possible_species": null, "has_props": null, "theoretical": null, "database_IDs": null, "fields_not_requested": ["builder_meta", "nsites", "elements", "nelements", "composition", "composition_reduced", "chemsys", "symmetry", "property_name", "deprecated", "deprecation_reasons", "last_updated", "origins", "warnings", "task_ids", "uncorrected_energy_per_atom", "equilibrium_reaction_energy_per_atom", "decomposes_to", "xas", "grain_boundaries", "cbm", "vbm", "is_gap_direct", "is_metal", "es_source_calc_id", "bandstructure", "dos", "dos_energy_up", "dos_energy_down", "is_magnetic", "ordering", "total_magnetization_normalized_vol", "total_magnetization_normalized_formula_units", "num_magnetic_sites", "num_unique_magnetic_sites", "types_of_magnetic_species", "bulk_modulus", "shear_modulus", "universal_anisotropy", "homogeneous_poisson", "e_total", "e_ionic", "e_electronic", "n", "e_ij_max", "weighted_surface_energy_EV_PER_ANG2", "weighted_surface_energy", "weighted_work_function", "surface_anisotropy", "shape_factor", "has_reconstructed", "possible_species", "has_props", "theoretical", "database_IDs"]}