{
  "builder_meta": null,
  "nsites": null,
  "elements": null,
  "nelements": null,
  "composition": null,
  "composition_reduced": null,
  "formula_pretty": "BeAu",
  "formula_anonymous": "AB",
  "chemsys": null,
  "volume": 102.96324988944377,
  "density": 13.287683257559674,
  "density_atomic": 12.870406236180472,
  "symmetry": null,
  "property_name": null,
  "material_id": "mp-30365",
  "deprecated": null,
  "deprecation_reasons": null,
  "last_updated": null,
  "origins": null,
  "warnings": null,
  "structure": {
    "@module": "pymatgen.core.structure",
    "@class": "Structure",
    "charge": 0,
    "lattice": {
      "matrix": [
        [4.68699058, 0.0, 0.0],
        [0.0, 4.68699058, 0.0],
        [-0.0, 0.0, 4.68699058]
      ],
      "pbc": [true, true, true],
      "a": 4.68699058,
      "b": 4.68699058,
      "c": 4.68699058,
      "alpha": 90.0,
      "beta": 90.0,
      "gamma": 90.0,
      "volume": 102.96324988944377
    },
    "properties": {},
    "sites": [
      {
        "species": [{ "element": "Be", "occu": 1 }],
        "abc": [0.15394789, 0.34605211, 0.65394789],
        "properties": { "magmom": -0.0 },
        "label": "Be",
        "xyz": [0.7215523102408762, 1.6219429797591238, 3.065047600240876]
      },
      {
        "species": [{ "element": "Be", "occu": 1 }],
        "abc": [0.34605211, 0.65394789, 0.15394789],
        "properties": { "magmom": -0.0 },
        "label": "Be",
        "xyz": [1.6219429797591238, 3.065047600240876, 0.7215523102408762]
      },
      {
        "species": [{ "element": "Be", "occu": 1 }],
        "abc": [0.65394789, 0.15394789, 0.34605211],
        "properties": { "magmom": -0.0 },
        "label": "Be",
        "xyz": [3.065047600240876, 0.7215523102408762, 1.6219429797591238]
      },
      {
        "species": [{ "element": "Be", "occu": 1 }],
        "abc": [0.84605211, 0.84605211, 0.84605211],
        "properties": { "magmom": -0.0 },
        "label": "Be",
        "xyz": [3.9654382697591237, 3.9654382697591237, 3.9654382697591237]
      },
      {
        "species": [{ "element": "Au", "occu": 1 }],
        "abc": [0.84706583, 0.65293417, 0.34706583],
        "properties": { "magmom": -0.0 },
        "label": "Au",
        "xyz": [3.970189565849881, 3.0602963041501186, 1.6266942758498815]
      },
      {
        "species": [{ "element": "Au", "occu": 1 }],
        "abc": [0.65293417, 0.34706583, 0.84706583],
        "properties": { "magmom": -0.0 },
        "label": "Au",
        "xyz": [3.0602963041501186, 1.6266942758498815, 3.970189565849881]
      },
      {
        "species": [{ "element": "Au", "occu": 1 }],
        "abc": [0.34706583, 0.84706583, 0.65293417],
        "properties": { "magmom": -0.0 },
        "label": "Au",
        "xyz": [1.6266942758498815, 3.970189565849881, 3.0602963041501186]
      },
      {
        "species": [{ "element": "Au", "occu": 1 }],
        "abc": [0.15293417, 0.15293417, 0.15293417],
        "properties": { "magmom": -0.0 },
        "label": "Au",
        "xyz": [0.7168010141501187, 0.7168010141501187, 0.7168010141501187]
      }
    ]
  },
  "task_ids": null,
  "uncorrected_energy_per_atom": null,
  "energy_per_atom": -3.642840096250001,
  "formation_energy_per_atom": -0.136192663750001,
  "energy_above_hull": 0.0,
  "is_stable": true,
  "equilibrium_reaction_energy_per_atom": null,
  "decomposes_to": null,
  "xas": null,
  "grain_boundaries": null,
  "band_gap": 0.0,
  "cbm": null,
  "vbm": null,
  "efermi": 5.39232287,
  "is_gap_direct": null,
  "is_metal": null,
  "es_source_calc_id": null,
  "bandstructure": null,
  "dos": null,
  "dos_energy_up": null,
  "dos_energy_down": null,
  "is_magnetic": null,
  "ordering": null,
  "total_magnetization": 0.0,
  "total_magnetization_normalized_vol": null,
  "total_magnetization_normalized_formula_units": null,
  "num_magnetic_sites": null,
  "num_unique_magnetic_sites": null,
  "types_of_magnetic_species": null,
  "bulk_modulus": null,
  "shear_modulus": null,
  "universal_anisotropy": null,
  "homogeneous_poisson": null,
  "e_total": null,
  "e_ionic": null,
  "e_electronic": null,
  "n": null,
  "e_ij_max": null,
  "weighted_surface_energy_EV_PER_ANG2": null,
  "weighted_surface_energy": null,
  "weighted_work_function": null,
  "surface_anisotropy": null,
  "shape_factor": null,
  "has_reconstructed": null,
  "possible_species": null,
  "has_props": null,
  "theoretical": null,
  "database_IDs": null,
  "fields_not_requested": [
    "builder_meta",
    "nsites",
    "elements",
    "nelements",
    "composition",
    "composition_reduced",
    "chemsys",
    "symmetry",
    "property_name",
    "deprecated",
    "deprecation_reasons",
    "last_updated",
    "origins",
    "warnings",
    "task_ids",
    "uncorrected_energy_per_atom",
    "equilibrium_reaction_energy_per_atom",
    "decomposes_to",
    "xas",
    "grain_boundaries",
    "cbm",
    "vbm",
    "is_gap_direct",
    "is_metal",
    "es_source_calc_id",
    "bandstructure",
    "dos",
    "dos_energy_up",
    "dos_energy_down",
    "is_magnetic",
    "ordering",
    "total_magnetization_normalized_vol",
    "total_magnetization_normalized_formula_units",
    "num_magnetic_sites",
    "num_unique_magnetic_sites",
    "types_of_magnetic_species",
    "bulk_modulus",
    "shear_modulus",
    "universal_anisotropy",
    "homogeneous_poisson",
    "e_total",
    "e_ionic",
    "e_electronic",
    "n",
    "e_ij_max",
    "weighted_surface_energy_EV_PER_ANG2",
    "weighted_surface_energy",
    "weighted_work_function",
    "surface_anisotropy",
    "shape_factor",
    "has_reconstructed",
    "possible_species",
    "has_props",
    "theoretical",
    "database_IDs"
  ]
}
