{
  "builder_meta": null,
  "nsites": null,
  "elements": null,
  "nelements": null,
  "composition": null,
  "composition_reduced": null,
  "formula_pretty": "BeBr2",
  "formula_anonymous": "AB2",
  "chemsys": null,
  "volume": 168.54893398006192,
  "density": 3.326422787992041,
  "density_atomic": 28.091488996676986,
  "symmetry": null,
  "property_name": null,
  "material_id": "mp-30139",
  "deprecated": null,
  "deprecation_reasons": null,
  "last_updated": null,
  "origins": null,
  "warnings": null,
  "structure": {
    "@module": "pymatgen.core.structure",
    "@class": "Structure",
    "charge": 0,
    "lattice": {
      "matrix": [
        [5.03021321, 0.0, -2.36260075],
        [-1.15012645, 5.05467541, -2.44873379],
        [0.04275689, -0.031037699999999002, 6.62724549]
      ],
      "pbc": [true, true, true],
      "a": 5.557420916392699,
      "b": 5.733134528836388,
      "c": 6.627456093795651,
      "alpha": 115.6281764279533,
      "beta": 114.78866134435032,
      "gamma": 90.00000175000666,
      "volume": 168.54893398006195
    },
    "properties": {},
    "sites": [
      {
        "species": [{ "element": "Be", "occu": 1 }],
        "abc": [0.25, -0.0, -0.0],
        "properties": { "magmom": -0.0 },
        "label": "Be",
        "xyz": [1.2575533025, 0.0, -0.5906501875]
      },
      {
        "species": [{ "element": "Be", "occu": 1 }],
        "abc": [0.75, -0.0, -0.0],
        "properties": { "magmom": -0.0 },
        "label": "Be",
        "xyz": [3.7726599075000005, 0.0, -1.7719505624999998]
      },
      {
        "species": [{ "element": "Br", "occu": 1 }],
        "abc": [0.11339244, 0.32291007, 0.22678487],
        "properties": { "magmom": 0.0 },
        "label": "Br",
        "xyz": [0.20869735286403532, 1.6251667097107798, 0.444337143579141]
      },
      {
        "species": [{ "element": "Br", "occu": 1 }],
        "abc": [0.8866075600000001, 0.6770899300000001, 0.77321513],
        "properties": { "magmom": 0.0 },
        "label": "Br",
        "xyz": [3.7141462971359656, 3.3984710002892213, 1.3715738064208587]
      },
      {
        "species": [{ "element": "Br", "occu": 1 }],
        "abc": [0.38660756, 0.0961252, 0.77321513],
        "properties": { "magmom": 0.0 },
        "label": "Br",
        "xyz": [1.8672225946260734, 0.4618828654809317, 3.9755021465700855]
      },
      {
        "species": [{ "element": "Br", "occu": 1 }],
        "abc": [0.61339244, 0.9038748, 0.22678487],
        "properties": { "magmom": 0.0 },
        "label": "Br",
        "xyz": [2.055621055373927, 4.5617548445190685, -2.159591196570086]
      }
    ]
  },
  "task_ids": null,
  "uncorrected_energy_per_atom": null,
  "energy_per_atom": -3.737080018333333,
  "formation_energy_per_atom": -1.399311373333333,
  "energy_above_hull": 0.0,
  "is_stable": true,
  "equilibrium_reaction_energy_per_atom": null,
  "decomposes_to": null,
  "xas": null,
  "grain_boundaries": null,
  "band_gap": 5.180400000000001,
  "cbm": null,
  "vbm": null,
  "efermi": -2.00796126,
  "is_gap_direct": null,
  "is_metal": null,
  "es_source_calc_id": null,
  "bandstructure": null,
  "dos": null,
  "dos_energy_up": null,
  "dos_energy_down": null,
  "is_magnetic": null,
  "ordering": null,
  "total_magnetization": 0.0,
  "total_magnetization_normalized_vol": null,
  "total_magnetization_normalized_formula_units": null,
  "num_magnetic_sites": null,
  "num_unique_magnetic_sites": null,
  "types_of_magnetic_species": null,
  "bulk_modulus": null,
  "shear_modulus": null,
  "universal_anisotropy": null,
  "homogeneous_poisson": null,
  "e_total": null,
  "e_ionic": null,
  "e_electronic": null,
  "n": null,
  "e_ij_max": null,
  "weighted_surface_energy_EV_PER_ANG2": null,
  "weighted_surface_energy": null,
  "weighted_work_function": null,
  "surface_anisotropy": null,
  "shape_factor": null,
  "has_reconstructed": null,
  "possible_species": null,
  "has_props": null,
  "theoretical": null,
  "database_IDs": null,
  "fields_not_requested": [
    "builder_meta",
    "nsites",
    "elements",
    "nelements",
    "composition",
    "composition_reduced",
    "chemsys",
    "symmetry",
    "property_name",
    "deprecated",
    "deprecation_reasons",
    "last_updated",
    "origins",
    "warnings",
    "task_ids",
    "uncorrected_energy_per_atom",
    "equilibrium_reaction_energy_per_atom",
    "decomposes_to",
    "xas",
    "grain_boundaries",
    "cbm",
    "vbm",
    "is_gap_direct",
    "is_metal",
    "es_source_calc_id",
    "bandstructure",
    "dos",
    "dos_energy_up",
    "dos_energy_down",
    "is_magnetic",
    "ordering",
    "total_magnetization_normalized_vol",
    "total_magnetization_normalized_formula_units",
    "num_magnetic_sites",
    "num_unique_magnetic_sites",
    "types_of_magnetic_species",
    "bulk_modulus",
    "shear_modulus",
    "universal_anisotropy",
    "homogeneous_poisson",
    "e_total",
    "e_ionic",
    "e_electronic",
    "n",
    "e_ij_max",
    "weighted_surface_energy_EV_PER_ANG2",
    "weighted_surface_energy",
    "weighted_work_function",
    "surface_anisotropy",
    "shape_factor",
    "has_reconstructed",
    "possible_species",
    "has_props",
    "theoretical",
    "database_IDs"
  ]
}
