{"builder_meta": null, "nsites": null, "elements": null, "nelements": null, "composition": null, "composition_reduced": null, "formula_pretty": "BeC2", "formula_anonymous": "AB2", "chemsys": null, "volume": 58.40206917627684, "density": 1.878479793418562, "density_atomic": 9.73367819604614, "symmetry": null, "property_name": null, "material_id": "mp-1001023", "deprecated": null, "deprecation_reasons": null, "last_updated": null, "origins": null, "warnings": null, "structure": {"@module": "pymatgen.core.structure", "@class": "Structure", "charge": 0, "lattice": {"matrix": [[3.360238, 0.0, 0.0], [0.0, 3.360238, 0.0], [0.0, 0.0, 5.172353]], "pbc": [true, true, true], "a": 3.360238, "b": 3.360238, "c": 5.172353, "alpha": 90.0, "beta": 90.0, "gamma": 90.0, "volume": 58.40206917627684}, "properties": {}, "sites": [{"species": [{"element": "Be", "occu": 1}], "abc": [0.5, 0.5, 0.0], "properties": {"magmom": 0.0}, "label": "Be", "xyz": [1.680119, 1.680119, 0.0]}, {"species": [{"element": "Be", "occu": 1}], "abc": [0.0, 0.0, 0.5], "properties": {"magmom": 0.0}, "label": "Be", "xyz": [0.0, 0.0, 2.5861765]}, {"species": [{"element": "C", "occu": 1}], "abc": [0.867831999999999, 0.867831999999999, 0.0], "properties": {"magmom": 0.0}, "label": "C", "xyz": [2.9161220640159966, 2.9161220640159966, 0.0]}, {"species": [{"element": "C", "occu": 1}], "abc": [0.632168, 0.367832, 0.5], "properties": {"magmom": 0.0}, "label": "C", "xyz": [2.1242349359839996, 1.236003064016, 2.5861765]}, {"species": [{"element": "C", "occu": 1}], "abc": [0.132168, 0.132168, 0.0], "properties": {"magmom": 0.0}, "label": "C", "xyz": [0.444115935984, 0.444115935984, 0.0]}, {"species": [{"element": "C", "occu": 1}], "abc": [0.367832, 0.632168, 0.5], "properties": {"magmom": 0.0}, "label": "C", "xyz": [1.236003064016, 2.1242349359839996, 2.5861765]}]}, "task_ids": null, "uncorrected_energy_per_atom": null, "energy_per_atom": -6.551243408333334, "formation_energy_per_atom": 0.8476712083333321, "energy_above_hull": 0.9633231012500001, "is_stable": false, "equilibrium_reaction_energy_per_atom": null, "decomposes_to": null, "xas": null, "grain_boundaries": null, "band_gap": 1.669699999999999, "cbm": null, "vbm": null, "efermi": 2.44600617, "is_gap_direct": null, "is_metal": null, "es_source_calc_id": null, "bandstructure": null, "dos": null, "dos_energy_up": null, "dos_energy_down": null, "is_magnetic": null, "ordering": null, "total_magnetization": 6.400000000000002e-05, "total_magnetization_normalized_vol": null, "total_magnetization_normalized_formula_units": null, "num_magnetic_sites": null, "num_unique_magnetic_sites": null, "types_of_magnetic_species": null, "bulk_modulus": null, "shear_modulus": null, "universal_anisotropy": null, "homogeneous_poisson": null, "e_total": null, "e_ionic": null, "e_electronic": null, "n": null, "e_ij_max": null, "weighted_surface_energy_EV_PER_ANG2": null, "weighted_surface_energy": null, "weighted_work_function": null, "surface_anisotropy": null, "shape_factor": null, "has_reconstructed": null, "possible_species": null, "has_props": null, "theoretical": null, "database_IDs": null, "fields_not_requested": ["builder_meta", "nsites", "elements", "nelements", "composition", "composition_reduced", "chemsys", "symmetry", "property_name", "deprecated", "deprecation_reasons", "last_updated", "origins", "warnings", "task_ids", "uncorrected_energy_per_atom", "equilibrium_reaction_energy_per_atom", "decomposes_to", "xas", "grain_boundaries", "cbm", "vbm", "is_gap_direct", "is_metal", "es_source_calc_id", "bandstructure", "dos", "dos_energy_up", "dos_energy_down", "is_magnetic", "ordering", "total_magnetization_normalized_vol", "total_magnetization_normalized_formula_units", "num_magnetic_sites", "num_unique_magnetic_sites", "types_of_magnetic_species", "bulk_modulus", "shear_modulus", "universal_anisotropy", "homogeneous_poisson", "e_total", "e_ionic", "e_electronic", "n", "e_ij_max", "weighted_surface_energy_EV_PER_ANG2", "weighted_surface_energy", "weighted_work_function", "surface_anisotropy", "shape_factor", "has_reconstructed", "possible_species", "has_props", "theoretical", "database_IDs"]}