{"builder_meta": null, "nsites": null, "elements": null, "nelements": null, "composition": null, "composition_reduced": null, "formula_pretty": "BeF2", "formula_anonymous": "AB2", "chemsys": null, "volume": 568.9419261901606, "density": 1.646430149571132, "density_atomic": 15.803942394171129, "symmetry": null, "property_name": null, "material_id": "mp-561543", "deprecated": null, "deprecation_reasons": null, "last_updated": null, "origins": null, "warnings": null, "structure": {"@module": "pymatgen.core.structure", "@class": "Structure", "charge": 0, "lattice": {"matrix": [[8.28621084, 0.0, 0.0], [0.0, 8.28621084, -0.0], [0.0, -0.0, 8.28621084]], "pbc": [true, true, true], "a": 8.28621084, "b": 8.28621084, "c": 8.28621084, "alpha": 90.0, "beta": 90.0, "gamma": 90.0, "volume": 568.9419261901606}, "properties": {}, "sites": [{"species": [{"element": "Be", "occu": 1}], "abc": [0.0, 0.75, 0.5], "properties": {"magmom": 0.0}, "label": "Be", "xyz": [0.0, 6.21465813, 4.14310542]}, {"species": [{"element": "Be", "occu": 1}], "abc": [0.0, 0.5, 0.25], "properties": {"magmom": 0.0}, "label": "Be", "xyz": [0.0, 4.14310542, 2.07155271]}, {"species": [{"element": "Be", "occu": 1}], "abc": [0.25, 0.5, 0.0], "properties": {"magmom": 0.0}, "label": "Be", "xyz": [2.07155271, 4.14310542, 0.0]}, {"species": [{"element": "Be", "occu": 1}], "abc": [0.5, -0.0, 0.75], "properties": {"magmom": 0.0}, "label": "Be", "xyz": [4.14310542, 0.0, 6.21465813]}, {"species": [{"element": "Be", "occu": 1}], "abc": [0.5, -0.0, 0.25], "properties": {"magmom": 0.0}, "label": "Be", "xyz": [4.14310542, 0.0, 2.07155271]}, {"species": [{"element": "Be", "occu": 1}], "abc": [0.5, 0.25, 0.0], "properties": {"magmom": 0.0}, "label": "Be", "xyz": [4.14310542, 2.07155271, 0.0]}, {"species": [{"element": "Be", "occu": 1}], "abc": [0.0, 0.25, 0.5], "properties": {"magmom": 0.0}, "label": "Be", "xyz": [0.0, 2.07155271, 4.14310542]}, {"species": [{"element": "Be", "occu": 1}], "abc": [0.5, 0.75, 0.0], "properties": {"magmom": 0.0}, "label": "Be", "xyz": [4.14310542, 6.21465813, 0.0]}, {"species": [{"element": "Be", "occu": 1}], "abc": [0.0, 0.5, 0.75], "properties": {"magmom": 0.0}, "label": "Be", "xyz": [0.0, 4.14310542, 6.21465813]}, {"species": [{"element": "Be", "occu": 1}], "abc": [0.75, -0.0, 0.5], "properties": {"magmom": 0.0}, "label": "Be", "xyz": [6.21465813, 0.0, 4.14310542]}, {"species": [{"element": "Be", "occu": 1}], "abc": [0.75, 0.5, 0.0], "properties": {"magmom": 0.0}, "label": "Be", "xyz": [6.21465813, 4.14310542, 0.0]}, {"species": [{"element": "Be", "occu": 1}], "abc": [0.25, -0.0, 0.5], "properties": {"magmom": 0.0}, "label": "Be", "xyz": [2.07155271, 0.0, 4.14310542]}, {"species": [{"element": "F", "occu": 1}], "abc": [0.05484758, 0.64284618, 0.64284618], "properties": {"magmom": -0.0}, "label": "F", "xyz": [0.45447861194376726, 5.326758985168592, 5.326758985168592]}, {"species": [{"element": "F", "occu": 1}], "abc": [0.44515242, 0.8571538200000001, 0.14284618], "properties": {"magmom": -0.0}, "label": "F", "xyz": [3.688626808056233, 7.10255727483141, 1.1836535651685913]}, {"species": [{"element": "F", "occu": 1}], "abc": [0.05484758, 0.35715382, 0.35715382], "properties": {"magmom": -0.0}, "label": "F", "xyz": [0.45447861194376726, 2.9594518548314093, 2.9594518548314093]}, {"species": [{"element": "F", "occu": 1}], "abc": [0.8571538200000001, 0.14284618, 0.44515242], "properties": {"magmom": -0.0}, "label": "F", "xyz": [7.10255727483141, 1.1836535651685913, 3.688626808056233]}, {"species": [{"element": "F", "occu": 1}], "abc": [0.64284618, 0.64284618, 0.05484758], "properties": {"magmom": -0.0}, "label": "F", "xyz": [5.326758985168592, 5.326758985168592, 0.45447861194376726]}, {"species": [{"element": "F", "occu": 1}], "abc": [0.14284618, 0.8571538200000001, 0.44515242], "properties": {"magmom": -0.0}, "label": "F", "xyz": [1.1836535651685913, 7.10255727483141, 3.688626808056233]}, {"species": [{"element": "F", "occu": 1}], "abc": [0.64284618, 0.94515242, 0.35715382], "properties": {"magmom": -0.0}, "label": "F", "xyz": [5.326758985168592, 7.831732228056233, 2.9594518548314093]}, {"species": [{"element": "F", "occu": 1}], "abc": [0.35715382, 0.94515242, 0.64284618], "properties": {"magmom": -0.0}, "label": "F", "xyz": [2.9594518548314093, 7.831732228056233, 5.326758985168592]}, {"species": [{"element": "F", "occu": 1}], "abc": [0.64284618, 0.05484758, 0.64284618], "properties": {"magmom": -0.0}, "label": "F", "xyz": [5.326758985168592, 0.45447861194376726, 5.326758985168592]}, {"species": [{"element": "F", "occu": 1}], "abc": [0.8571538200000001, 0.8571538200000001, 0.55484758], "properties": {"magmom": -0.0}, "label": "F", "xyz": [7.10255727483141, 7.10255727483141, 4.597584031943768]}, {"species": [{"element": "F", "occu": 1}], "abc": [0.14284618, 0.14284618, 0.55484758], "properties": {"magmom": -0.0}, "label": "F", "xyz": [1.1836535651685913, 1.1836535651685913, 4.597584031943768]}, {"species": [{"element": "F", "occu": 1}], "abc": [0.8571538200000001, 0.44515242, 0.14284618], "properties": {"magmom": -0.0}, "label": "F", "xyz": [7.10255727483141, 3.688626808056233, 1.1836535651685913]}, {"species": [{"element": "F", "occu": 1}], "abc": [0.8571538200000001, 0.55484758, 0.8571538200000001], "properties": {"magmom": -0.0}, "label": "F", "xyz": [7.10255727483141, 4.597584031943768, 7.10255727483141]}, {"species": [{"element": "F", "occu": 1}], "abc": [0.44515242, 0.14284618, 0.8571538200000001], "properties": {"magmom": -0.0}, "label": "F", "xyz": [3.688626808056233, 1.1836535651685913, 7.10255727483141]}, {"species": [{"element": "F", "occu": 1}], "abc": [0.14284618, 0.55484758, 0.14284618], "properties": {"magmom": -0.0}, "label": "F", "xyz": [1.1836535651685913, 4.597584031943768, 1.1836535651685913]}, {"species": [{"element": "F", "occu": 1}], "abc": [0.55484758, 0.14284618, 0.14284618], "properties": {"magmom": -0.0}, "label": "F", "xyz": [4.597584031943768, 1.1836535651685913, 1.1836535651685913]}, {"species": [{"element": "F", "occu": 1}], "abc": [0.35715382, 0.05484758, 0.35715382], "properties": {"magmom": -0.0}, "label": "F", "xyz": [2.9594518548314093, 0.45447861194376726, 2.9594518548314093]}, {"species": [{"element": "F", "occu": 1}], "abc": [0.14284618, 0.44515242, 0.8571538200000001], "properties": {"magmom": -0.0}, "label": "F", "xyz": [1.1836535651685913, 3.688626808056233, 7.10255727483141]}, {"species": [{"element": "F", "occu": 1}], "abc": [0.94515242, 0.64284618, 0.35715382], "properties": {"magmom": -0.0}, "label": "F", "xyz": [7.831732228056233, 5.326758985168592, 2.9594518548314093]}, {"species": [{"element": "F", "occu": 1}], "abc": [0.64284618, 0.35715382, 0.94515242], "properties": {"magmom": -0.0}, "label": "F", "xyz": [5.326758985168592, 2.9594518548314093, 7.831732228056233]}, {"species": [{"element": "F", "occu": 1}], "abc": [0.94515242, 0.35715382, 0.64284618], "properties": {"magmom": -0.0}, "label": "F", "xyz": [7.831732228056233, 2.9594518548314093, 5.326758985168592]}, {"species": [{"element": "F", "occu": 1}], "abc": [0.35715382, 0.64284618, 0.94515242], "properties": {"magmom": -0.0}, "label": "F", "xyz": [2.9594518548314093, 5.326758985168592, 7.831732228056233]}, {"species": [{"element": "F", "occu": 1}], "abc": [0.55484758, 0.8571538200000001, 0.8571538200000001], "properties": {"magmom": -0.0}, "label": "F", "xyz": [4.597584031943768, 7.10255727483141, 7.10255727483141]}, {"species": [{"element": "F", "occu": 1}], "abc": [0.35715382, 0.35715382, 0.05484758], "properties": {"magmom": -0.0}, "label": "F", "xyz": [2.9594518548314093, 2.9594518548314093, 0.45447861194376726]}]}, "task_ids": null, "uncorrected_energy_per_atom": null, "energy_per_atom": -6.073447940555556, "formation_energy_per_atom": -3.551075402222222, "energy_above_hull": 0.0, "is_stable": true, "equilibrium_reaction_energy_per_atom": null, "decomposes_to": null, "xas": null, "grain_boundaries": null, "band_gap": 8.0368, "cbm": null, "vbm": null, "efermi": -5.72354365, "is_gap_direct": null, "is_metal": null, "es_source_calc_id": null, "bandstructure": null, "dos": null, "dos_energy_up": null, "dos_energy_down": null, "is_magnetic": null, "ordering": null, "total_magnetization": 0.0, "total_magnetization_normalized_vol": null, "total_magnetization_normalized_formula_units": null, "num_magnetic_sites": null, "num_unique_magnetic_sites": null, "types_of_magnetic_species": null, "bulk_modulus": null, "shear_modulus": null, "universal_anisotropy": null, "homogeneous_poisson": null, "e_total": null, "e_ionic": null, "e_electronic": null, "n": null, "e_ij_max": null, "weighted_surface_energy_EV_PER_ANG2": null, "weighted_surface_energy": null, "weighted_work_function": null, "surface_anisotropy": null, "shape_factor": null, "has_reconstructed": null, "possible_species": null, "has_props": null, "theoretical": null, "database_IDs": null, "fields_not_requested": ["builder_meta", "nsites", "elements", "nelements", "composition", "composition_reduced", "chemsys", "symmetry", "property_name", "deprecated", "deprecation_reasons", "last_updated", "origins", "warnings", "task_ids", "uncorrected_energy_per_atom", "equilibrium_reaction_energy_per_atom", "decomposes_to", "xas", "grain_boundaries", "cbm", "vbm", "is_gap_direct", "is_metal", "es_source_calc_id", "bandstructure", "dos", "dos_energy_up", "dos_energy_down", "is_magnetic", "ordering", "total_magnetization_normalized_vol", "total_magnetization_normalized_formula_units", "num_magnetic_sites", "num_unique_magnetic_sites", "types_of_magnetic_species", "bulk_modulus", "shear_modulus", "universal_anisotropy", "homogeneous_poisson", "e_total", "e_ionic", "e_electronic", "n", "e_ij_max", "weighted_surface_energy_EV_PER_ANG2", "weighted_surface_energy", "weighted_work_function", "surface_anisotropy", "shape_factor", "has_reconstructed", "possible_species", "has_props", "theoretical", "database_IDs"]}