{"builder_meta": null, "nsites": null, "elements": null, "nelements": null, "composition": null, "composition_reduced": null, "formula_pretty": "BeF4", "formula_anonymous": "AB4", "chemsys": null, "volume": 491.98375479455376, "density": 1.147643122580158, "density_atomic": 24.59918773972769, "symmetry": null, "property_name": null, "material_id": "mp-1214240", "deprecated": null, "deprecation_reasons": null, "last_updated": null, "origins": null, "warnings": null, "structure": {"@module": "pymatgen.core.structure", "@class": "Structure", "charge": 0, "lattice": {"matrix": [[0.0, -5.949181, 0.0], [-7.839047, 0.0, 0.0], [0.0, 0.0, -10.549462]], "pbc": [true, true, true], "a": 5.949181, "b": 7.839047, "c": 10.549462, "alpha": 90.0, "beta": 90.0, "gamma": 90.0, "volume": 491.98375479455376}, "properties": {}, "sites": [{"species": [{"element": "Be", "occu": 1}], "abc": [0.75, 0.768323, 0.921207999999999], "properties": {"magmom": -0.025}, "label": "Be", "xyz": [-6.022920108180999, -4.46188575, -9.71824879009599]}, {"species": [{"element": "Be", "occu": 1}], "abc": [0.25, 0.231677, 0.078792], "properties": {"magmom": -0.025}, "label": "Be", "xyz": [-1.8161268918189999, -1.48729525, -0.831213209904]}, {"species": [{"element": "Be", "occu": 1}], "abc": [0.25, 0.731677, 0.421207999999999], "properties": {"magmom": -0.025}, "label": "Be", "xyz": [-5.735650391819, -1.48729525, -4.4435177900959895]}, {"species": [{"element": "Be", "occu": 1}], "abc": [0.75, 0.268323, 0.578792], "properties": {"magmom": -0.025}, "label": "Be", "xyz": [-2.103396608181, -4.46188575, -6.105944209904]}, {"species": [{"element": "F", "occu": 1}], "abc": [0.969486, 0.704336, 0.859151999999999], "properties": {"magmom": 0.456}, "label": "F", "xyz": [-5.521323007792, -5.767647690966, -9.06359137622399]}, {"species": [{"element": "F", "occu": 1}], "abc": [0.030514, 0.295664, 0.140848], "properties": {"magmom": 0.456}, "label": "F", "xyz": [-2.3177239922079997, -0.181533309034, -1.485870623776]}, {"species": [{"element": "F", "occu": 1}], "abc": [0.030514, 0.795663999999999, 0.359151999999999], "properties": {"magmom": 0.456}, "label": "F", "xyz": [-6.237247492207993, -0.181533309034, -3.78886037622399]}, {"species": [{"element": "F", "occu": 1}], "abc": [0.469485999999999, 0.295664, 0.140848], "properties": {"magmom": 0.456}, "label": "F", "xyz": [-2.3177239922079997, -2.7930571909659943, -1.485870623776]}, {"species": [{"element": "F", "occu": 1}], "abc": [0.969486, 0.204336, 0.640848], "properties": {"magmom": 0.456}, "label": "F", "xyz": [-1.601799507792, -5.767647690966, -6.760601623776]}, {"species": [{"element": "F", "occu": 1}], "abc": [0.530513999999999, 0.704336, 0.859151999999999], "properties": {"magmom": 0.456}, "label": "F", "xyz": [-5.521323007792, -3.1561238090339945, -9.06359137622399]}, {"species": [{"element": "F", "occu": 1}], "abc": [0.530513999999999, 0.204336, 0.640848], "properties": {"magmom": 0.456}, "label": "F", "xyz": [-1.601799507792, -3.1561238090339945, -6.760601623776]}, {"species": [{"element": "F", "occu": 1}], "abc": [0.469485999999999, 0.795663999999999, 0.359151999999999], "properties": {"magmom": 0.456}, "label": "F", "xyz": [-6.237247492207993, -2.7930571909659943, -3.78886037622399]}, {"species": [{"element": "F", "occu": 1}], "abc": [0.75, 0.188982999999999, 0.446586999999999], "properties": {"magmom": 0.449}, "label": "F", "xyz": [-1.4814466192009923, -4.46188575, -4.711252586193989]}, {"species": [{"element": "F", "occu": 1}], "abc": [0.25, 0.811017, 0.553412999999999], "properties": {"magmom": 0.449}, "label": "F", "xyz": [-6.357600380799, -1.48729525, -5.83820941380599]}, {"species": [{"element": "F", "occu": 1}], "abc": [0.25, 0.311017, 0.946587], "properties": {"magmom": 0.449}, "label": "F", "xyz": [-2.4380768807989996, -1.48729525, -9.985983586194]}, {"species": [{"element": "F", "occu": 1}], "abc": [0.75, 0.688983, 0.053412999999999], "properties": {"magmom": 0.449}, "label": "F", "xyz": [-5.400970119201, -4.46188575, -0.5634784138059895]}, {"species": [{"element": "F", "occu": 1}], "abc": [0.75, 0.962523999999999, 0.907123999999999], "properties": {"magmom": 0.427}, "label": "F", "xyz": [-7.545270874627993, -4.46188575, -9.56967016728799]}, {"species": [{"element": "F", "occu": 1}], "abc": [0.25, 0.037475999999999, 0.092876], "properties": {"magmom": 0.427}, "label": "F", "xyz": [-0.29377612537199216, -1.48729525, -0.979791832712]}, {"species": [{"element": "F", "occu": 1}], "abc": [0.25, 0.537476, 0.407124], "properties": {"magmom": 0.427}, "label": "F", "xyz": [-4.213299625372, -1.48729525, -4.294939167288]}, {"species": [{"element": "F", "occu": 1}], "abc": [0.75, 0.462524, 0.592876], "properties": {"magmom": 0.427}, "label": "F", "xyz": [-3.625747374628, -4.46188575, -6.2545228327119995]}]}, "task_ids": null, "uncorrected_energy_per_atom": null, "energy_per_atom": -4.15094696, "formation_energy_per_atom": -1.871982486999999, "energy_above_hull": 0.258662754333332, "is_stable": false, "equilibrium_reaction_energy_per_atom": null, "decomposes_to": null, "xas": null, "grain_boundaries": null, "band_gap": 0.031200000000000002, "cbm": null, "vbm": null, "efermi": -7.36071285, "is_gap_direct": null, "is_metal": null, "es_source_calc_id": null, "bandstructure": null, "dos": null, "dos_energy_up": null, "dos_energy_down": null, "is_magnetic": null, "ordering": null, "total_magnetization": 7.9997439, "total_magnetization_normalized_vol": null, "total_magnetization_normalized_formula_units": null, "num_magnetic_sites": null, "num_unique_magnetic_sites": null, "types_of_magnetic_species": null, "bulk_modulus": null, "shear_modulus": null, "universal_anisotropy": null, "homogeneous_poisson": null, "e_total": null, "e_ionic": null, "e_electronic": null, "n": null, "e_ij_max": null, "weighted_surface_energy_EV_PER_ANG2": null, "weighted_surface_energy": null, "weighted_work_function": null, "surface_anisotropy": null, "shape_factor": null, "has_reconstructed": null, "possible_species": null, "has_props": null, "theoretical": null, "database_IDs": null, "fields_not_requested": ["builder_meta", "nsites", "elements", "nelements", "composition", "composition_reduced", "chemsys", "symmetry", "property_name", "deprecated", "deprecation_reasons", "last_updated", "origins", "warnings", "task_ids", "uncorrected_energy_per_atom", "equilibrium_reaction_energy_per_atom", "decomposes_to", "xas", "grain_boundaries", "cbm", "vbm", "is_gap_direct", "is_metal", "es_source_calc_id", "bandstructure", "dos", "dos_energy_up", "dos_energy_down", "is_magnetic", "ordering", "total_magnetization_normalized_vol", "total_magnetization_normalized_formula_units", "num_magnetic_sites", "num_unique_magnetic_sites", "types_of_magnetic_species", "bulk_modulus", "shear_modulus", "universal_anisotropy", "homogeneous_poisson", "e_total", "e_ionic", "e_electronic", "n", "e_ij_max", "weighted_surface_energy_EV_PER_ANG2", "weighted_surface_energy", "weighted_work_function", "surface_anisotropy", "shape_factor", "has_reconstructed", "possible_species", "has_props", "theoretical", "database_IDs"]}