{
  "builder_meta": null,
  "nsites": null,
  "elements": null,
  "nelements": null,
  "composition": null,
  "composition_reduced": null,
  "formula_pretty": "BeFe3",
  "formula_anonymous": "AB3",
  "chemsys": null,
  "volume": 42.76425937597964,
  "density": 6.855338946283915,
  "density_atomic": 10.69106484399491,
  "symmetry": null,
  "property_name": null,
  "material_id": "mp-1227549",
  "deprecated": null,
  "deprecation_reasons": null,
  "last_updated": null,
  "origins": null,
  "warnings": null,
  "structure": {
    "@module": "pymatgen.core.structure",
    "@class": "Structure",
    "charge": 0,
    "lattice": {
      "matrix": [
        [1.54401558, -1.8817533800000001, 0.0],
        [1.54401558, 1.8817533800000001, 0.0],
        [0.0, 0.0, 7.35930117]
      ],
      "pbc": [true, true, true],
      "a": 2.434128158997418,
      "b": 2.434128158997418,
      "c": 7.35930117,
      "alpha": 90.0,
      "beta": 90.0,
      "gamma": 101.26089942932524,
      "volume": 42.76425937597965
    },
    "properties": {},
    "sites": [
      {
        "species": [{ "element": "Be", "occu": 1 }],
        "abc": [-0.0, 0.0, 3.558e-5],
        "properties": { "magmom": 0.14400000000000002 },
        "label": "Be",
        "xyz": [0.0, 0.0, 0.00026184393562860003]
      },
      {
        "species": [{ "element": "Fe", "occu": 1 }],
        "abc": [0.5, 0.5, 0.77143474],
        "properties": { "magmom": -2.545 },
        "label": "Fe",
        "xyz": [1.54401558, 0.0, 5.677220584660646]
      },
      {
        "species": [{ "element": "Fe", "occu": 1 }],
        "abc": [0.0, -0.0, 0.4999303],
        "properties": { "magmom": -2.7560000000000002 },
        "label": "Fe",
        "xyz": [0.0, 0.0, 3.679137641708451]
      },
      {
        "species": [{ "element": "Fe", "occu": 1 }],
        "abc": [0.5, 0.5, 0.22859939],
        "properties": { "magmom": -2.544 },
        "label": "Fe",
        "xyz": [1.54401558, 0.0, 1.6823317582882864]
      }
    ]
  },
  "task_ids": null,
  "uncorrected_energy_per_atom": null,
  "energy_per_atom": -7.3450056075,
  "formation_energy_per_atom": -0.057636483749999,
  "energy_above_hull": 0.046459954374999,
  "is_stable": false,
  "equilibrium_reaction_energy_per_atom": null,
  "decomposes_to": null,
  "xas": null,
  "grain_boundaries": null,
  "band_gap": 0.0,
  "cbm": null,
  "vbm": null,
  "efermi": 5.11940192,
  "is_gap_direct": null,
  "is_metal": null,
  "es_source_calc_id": null,
  "bandstructure": null,
  "dos": null,
  "dos_energy_up": null,
  "dos_energy_down": null,
  "is_magnetic": null,
  "ordering": null,
  "total_magnetization": 7.4145404,
  "total_magnetization_normalized_vol": null,
  "total_magnetization_normalized_formula_units": null,
  "num_magnetic_sites": null,
  "num_unique_magnetic_sites": null,
  "types_of_magnetic_species": null,
  "bulk_modulus": null,
  "shear_modulus": null,
  "universal_anisotropy": null,
  "homogeneous_poisson": null,
  "e_total": null,
  "e_ionic": null,
  "e_electronic": null,
  "n": null,
  "e_ij_max": null,
  "weighted_surface_energy_EV_PER_ANG2": null,
  "weighted_surface_energy": null,
  "weighted_work_function": null,
  "surface_anisotropy": null,
  "shape_factor": null,
  "has_reconstructed": null,
  "possible_species": null,
  "has_props": null,
  "theoretical": null,
  "database_IDs": null,
  "fields_not_requested": [
    "builder_meta",
    "nsites",
    "elements",
    "nelements",
    "composition",
    "composition_reduced",
    "chemsys",
    "symmetry",
    "property_name",
    "deprecated",
    "deprecation_reasons",
    "last_updated",
    "origins",
    "warnings",
    "task_ids",
    "uncorrected_energy_per_atom",
    "equilibrium_reaction_energy_per_atom",
    "decomposes_to",
    "xas",
    "grain_boundaries",
    "cbm",
    "vbm",
    "is_gap_direct",
    "is_metal",
    "es_source_calc_id",
    "bandstructure",
    "dos",
    "dos_energy_up",
    "dos_energy_down",
    "is_magnetic",
    "ordering",
    "total_magnetization_normalized_vol",
    "total_magnetization_normalized_formula_units",
    "num_magnetic_sites",
    "num_unique_magnetic_sites",
    "types_of_magnetic_species",
    "bulk_modulus",
    "shear_modulus",
    "universal_anisotropy",
    "homogeneous_poisson",
    "e_total",
    "e_ionic",
    "e_electronic",
    "n",
    "e_ij_max",
    "weighted_surface_energy_EV_PER_ANG2",
    "weighted_surface_energy",
    "weighted_work_function",
    "surface_anisotropy",
    "shape_factor",
    "has_reconstructed",
    "possible_species",
    "has_props",
    "theoretical",
    "database_IDs"
  ]
}
