{
  "builder_meta": null,
  "nsites": null,
  "elements": null,
  "nelements": null,
  "composition": null,
  "composition_reduced": null,
  "formula_pretty": "BeH2",
  "formula_anonymous": "AB2",
  "chemsys": null,
  "volume": 140.31914249780309,
  "density": 0.7830376149928491,
  "density_atomic": 7.795507916544616,
  "symmetry": null,
  "property_name": null,
  "material_id": "mp-768203",
  "deprecated": null,
  "deprecation_reasons": null,
  "last_updated": null,
  "origins": null,
  "warnings": null,
  "structure": {
    "@module": "pymatgen.core.structure",
    "@class": "Structure",
    "charge": 0,
    "lattice": {
      "matrix": [
        [-4.48013383, 2.05072783, 3.817923],
        [4.48020419, -2.05051053, 3.81790287],
        [4.48031184, 2.0509154, -3.81780937]
      ],
      "pbc": [true, true, true],
      "a": 6.233267185142633,
      "b": 6.233233939335879,
      "c": 6.233387245090838,
      "alpha": 88.09550538605134,
      "beta": 141.582709456909,
      "gamma": 104.4579285033075,
      "volume": 140.31914249780309
    },
    "properties": {},
    "sites": [
      {
        "species": [{ "element": "Be", "occu": 1 }],
        "abc": [0.74990784, 0.75000644, -8.408000000000002e-5],
        "properties": { "magmom": -0.0 },
        "label": "Be",
        "xyz": [
          0.00011780702924971229, -0.00021166633145819425, 5.726863131422632
        ]
      },
      {
        "species": [{ "element": "Be", "occu": 1 }],
        "abc": [0.25009208, 0.24999339, 8.385e-5],
        "properties": { "magmom": -0.0 },
        "label": "Be",
        "xyz": [
          -4.8880724978161766e-5, 0.0004286791494797105, 1.908962662196195
        ]
      },
      {
        "species": [{ "element": "Be", "occu": 1 }],
        "abc": [0.12174491, 0.16864678, 0.290373899999999],
        "properties": { "magmom": 0.0 },
        "label": "Be",
        "xyz": [1.5111041426616745, 0.4993859801253099, 9.75211767493267e-5]
      },
      {
        "species": [{ "element": "Be", "occu": 1 }],
        "abc": [0.37828654, 0.66863717, 0.04691505],
        "properties": { "magmom": -0.0 },
        "label": "Be",
        "xyz": [1.5110507793252863, -0.4990660240052219, 3.8179479345040797]
      },
      {
        "species": [{ "element": "Be", "occu": 1 }],
        "abc": [0.62171354, 0.33136283, 0.95308494],
        "properties": { "magmom": 0.0 },
        "label": "Be",
        "xyz": [2.9693310174608887, 2.550198867554294, 6.890910785450899e-5]
      },
      {
        "species": [{ "element": "Be", "occu": 1 }],
        "abc": [0.8782552, 0.83135345, 0.70962607],
        "properties": { "magmom": -0.0 },
        "label": "Be",
        "xyz": [2.969278460561209, 1.5517464123098657, 3.8179203914467266]
      },
      {
        "species": [{ "element": "H", "occu": 1 }],
        "abc": [0.57335871, 0.25977104, 0.13654888],
        "properties": { "magmom": 0.0 },
        "label": "H",
        "xyz": [-0.7931148877447626, 0.9231896111056002, 2.6595024117912094]
      },
      {
        "species": [{ "element": "H", "occu": 1 }],
        "abc": [0.87661775, 0.56317415, 0.13642898],
        "properties": { "magmom": -0.0 },
        "label": "H",
        "xyz": [-0.7929852768106699, 0.9227141874864748, 4.976143435344517]
      },
      {
        "species": [{ "element": "H", "occu": 1 }],
        "abc": [0.92674866, 0.06318543, 0.68656043],
        "properties": { "magmom": 0.0 },
        "label": "H",
        "xyz": [-0.792869571935725, 3.179024237837252, 1.1583340160471347]
      },
      {
        "species": [{ "element": "H", "occu": 1 }],
        "abc": [0.37672945, 0.24020724000000002, 0.31354471],
        "properties": { "magmom": -0.0 },
        "label": "H",
        "xyz": [0.7931572059964085, 0.9230757668208904, 1.1583580111711964]
      },
      {
        "species": [{ "element": "H", "occu": 1 }],
        "abc": [0.72440044, 0.68856687, 0.41288555],
        "properties": { "magmom": 0.0 },
        "label": "H",
        "xyz": [1.6893652765882123, 0.9204278577605741, 3.8182682087184343]
      },
      {
        "species": [{ "element": "H", "occu": 1 }],
        "abc": [0.7756919600000001, 0.18856452, 0.9642020800000001],
        "properties": { "magmom": 0.0 },
        "label": "H",
        "xyz": [1.689529756110959, 3.1815764506188833, 0.0003134614897626342]
      },
      {
        "species": [{ "element": "H", "occu": 1 }],
        "abc": [0.27559922, 0.31143339000000003, 0.58711421],
        "properties": { "magmom": -0.0 },
        "label": "H",
        "xyz": [2.791018536235538, 1.1307031196395299, -0.0002510978832583888]
      },
      {
        "species": [{ "element": "H", "occu": 1 }],
        "abc": [0.22430804000000001, 0.81143549, 0.03579781],
        "properties": { "magmom": 0.0 },
        "label": "H",
        "xyz": [2.7908519958567806, -1.1304439967246822, 3.817703496648297]
      },
      {
        "species": [{ "element": "H", "occu": 1 }],
        "abc": [0.62327077, 0.75979273, 0.6864554700000001],
        "properties": { "magmom": 0.0 },
        "label": "H",
        "xyz": [3.6872246804241553, 1.1280578150193206, 2.659658527029091]
      },
      {
        "species": [{ "element": "H", "occu": 1 }],
        "abc": [0.07325149, 0.93681459, 0.31343955],
        "properties": { "magmom": 0.0 },
        "label": "H",
        "xyz": [5.273251099913498, -1.1278913122565957, 2.65968320935556]
      },
      {
        "species": [{ "element": "H", "occu": 1 }],
        "abc": [0.12338208, 0.43682563, 0.86357071],
        "properties": { "magmom": -0.0 },
        "label": "H",
        "xyz": [5.273365863891829, 1.1284179792183364, -1.1581272408091543]
      },
      {
        "species": [{ "element": "H", "occu": 1 }],
        "abc": [0.42664131, 0.74022888, 0.86345088],
        "properties": { "magmom": -0.0 },
        "label": "H",
        "xyz": [5.27349556445091, 1.1279428017301032, 1.1585147754092704]
      }
    ]
  },
  "task_ids": null,
  "uncorrected_energy_per_atom": null,
  "energy_per_atom": -3.6747865911111113,
  "formation_energy_per_atom": -0.16487134361111,
  "energy_above_hull": 0.0,
  "is_stable": true,
  "equilibrium_reaction_energy_per_atom": null,
  "decomposes_to": null,
  "xas": null,
  "grain_boundaries": null,
  "band_gap": 5.326,
  "cbm": null,
  "vbm": null,
  "efermi": -2.40391768,
  "is_gap_direct": null,
  "is_metal": null,
  "es_source_calc_id": null,
  "bandstructure": null,
  "dos": null,
  "dos_energy_up": null,
  "dos_energy_down": null,
  "is_magnetic": null,
  "ordering": null,
  "total_magnetization": 0.0,
  "total_magnetization_normalized_vol": null,
  "total_magnetization_normalized_formula_units": null,
  "num_magnetic_sites": null,
  "num_unique_magnetic_sites": null,
  "types_of_magnetic_species": null,
  "bulk_modulus": null,
  "shear_modulus": null,
  "universal_anisotropy": null,
  "homogeneous_poisson": null,
  "e_total": null,
  "e_ionic": null,
  "e_electronic": null,
  "n": null,
  "e_ij_max": null,
  "weighted_surface_energy_EV_PER_ANG2": null,
  "weighted_surface_energy": null,
  "weighted_work_function": null,
  "surface_anisotropy": null,
  "shape_factor": null,
  "has_reconstructed": null,
  "possible_species": null,
  "has_props": null,
  "theoretical": null,
  "database_IDs": null,
  "fields_not_requested": [
    "builder_meta",
    "nsites",
    "elements",
    "nelements",
    "composition",
    "composition_reduced",
    "chemsys",
    "symmetry",
    "property_name",
    "deprecated",
    "deprecation_reasons",
    "last_updated",
    "origins",
    "warnings",
    "task_ids",
    "uncorrected_energy_per_atom",
    "equilibrium_reaction_energy_per_atom",
    "decomposes_to",
    "xas",
    "grain_boundaries",
    "cbm",
    "vbm",
    "is_gap_direct",
    "is_metal",
    "es_source_calc_id",
    "bandstructure",
    "dos",
    "dos_energy_up",
    "dos_energy_down",
    "is_magnetic",
    "ordering",
    "total_magnetization_normalized_vol",
    "total_magnetization_normalized_formula_units",
    "num_magnetic_sites",
    "num_unique_magnetic_sites",
    "types_of_magnetic_species",
    "bulk_modulus",
    "shear_modulus",
    "universal_anisotropy",
    "homogeneous_poisson",
    "e_total",
    "e_ionic",
    "e_electronic",
    "n",
    "e_ij_max",
    "weighted_surface_energy_EV_PER_ANG2",
    "weighted_surface_energy",
    "weighted_work_function",
    "surface_anisotropy",
    "shape_factor",
    "has_reconstructed",
    "possible_species",
    "has_props",
    "theoretical",
    "database_IDs"
  ]
}
