{
  "builder_meta": null,
  "nsites": null,
  "elements": null,
  "nelements": null,
  "composition": null,
  "composition_reduced": null,
  "formula_pretty": "BeI2",
  "formula_anonymous": "AB2",
  "chemsys": null,
  "volume": 1707.2492610691563,
  "density": 4.090085735556491,
  "density_atomic": 35.56769293894076,
  "symmetry": null,
  "property_name": null,
  "material_id": "mp-30140",
  "deprecated": null,
  "deprecation_reasons": null,
  "last_updated": null,
  "origins": null,
  "warnings": null,
  "structure": {
    "@module": "pymatgen.core.structure",
    "@class": "Structure",
    "charge": 0,
    "lattice": {
      "matrix": [
        [11.36144032, -0.0025203400000000003, -5.63812725],
        [-2.79929718, 11.01447871, -5.63553212],
        [-0.18726749, -0.237660899999999, 13.88798545]
      ],
      "pbc": [true, true, true],
      "a": 12.68348577419583,
      "b": 12.685189325766917,
      "c": 13.891281138743519,
      "alpha": 117.13160033255944,
      "beta": 117.16097110388651,
      "gamma": 90.02064058139568,
      "volume": 1707.2492610691563
    },
    "properties": {},
    "sites": [
      {
        "species": [{ "element": "Be", "occu": 1 }],
        "abc": [0.60199317, 0.56266861, 0.37757081000000003],
        "properties": { "magmom": -0.0 },
        "label": "Be",
        "xyz": [5.1937260828691265, 6.106250379645887, -1.321353205036921]
      },
      {
        "species": [{ "element": "Be", "occu": 1 }],
        "abc": [0.31514951, 0.60210403, 0.8783166],
        "properties": { "magmom": -0.0 },
        "label": "Be",
        "xyz": [1.730604091389274, 6.422326222083228, 7.02801852049188]
      },
      {
        "species": [{ "element": "Be", "occu": 1 }],
        "abc": [0.5625559, 0.77573285, 0.87726684],
        "properties": { "magmom": 0.0 },
        "label": "Be",
        "xyz": [4.055654945888493, 8.334383102101063, 4.640039967535061]
      },
      {
        "species": [{ "element": "Be", "occu": 1 }],
        "abc": [0.72448005, 0.93741411, 0.62271212],
        "properties": { "magmom": 0.0 },
        "label": "Be",
        "xyz": [5.4904224407854265, 10.175307498119274, -0.7193211765339207]
      },
      {
        "species": [{ "element": "Be", "occu": 1 }],
        "abc": [0.89797691, 0.184806399999999, 0.6216988],
        "properties": { "magmom": -0.0 },
        "label": "Be",
        "xyz": [9.56855906352505, 1.8855294548094643, 2.529753399359101]
      },
      {
        "species": [{ "element": "Be", "occu": 1 }],
        "abc": [0.18458483, 0.7234906, 0.12194918],
        "properties": { "magmom": -0.0 },
        "label": "Be",
        "xyz": [0.04904721683967926, 7.939424042181622, -3.424338837298258]
      },
      {
        "species": [{ "element": "Be", "occu": 1 }],
        "abc": [0.93714326, 0.89796204, 0.12213377],
        "properties": { "magmom": -0.0 },
        "label": "Be",
        "xyz": [8.11076292890906, 9.859195430625668, -8.648034849606914]
      },
      {
        "species": [{ "element": "Be", "occu": 1 }],
        "abc": [0.77653501, 0.31542796, 0.37812373],
        "properties": { "magmom": 0.0 },
        "label": "Be",
        "xyz": [7.868769291757912, 3.3824521917284716, -0.9044307400463687]
      },
      {
        "species": [{ "element": "Be", "occu": 1 }],
        "abc": [0.39800683000000003, 0.43733039, 0.62242919],
        "properties": { "magmom": -0.0 },
        "label": "Be",
        "xyz": [3.181152366428053, 4.6680360758754045, 3.9356849205690416]
      },
      {
        "species": [{ "element": "Be", "occu": 1 }],
        "abc": [0.68485049, 0.39789597, 0.1216834],
        "properties": { "magmom": -0.0 },
        "label": "Be",
        "xyz": [6.644271558610726, 4.351971247916773, -4.413692440491878]
      },
      {
        "species": [{ "element": "Be", "occu": 1 }],
        "abc": [0.4374431, 0.22426715, 0.12273316000000001],
        "properties": { "magmom": 0.0 },
        "label": "Be",
        "xyz": [4.319209342671186, 2.4399143704192787, -2.0257082494078107]
      },
      {
        "species": [{ "element": "Be", "occu": 1 }],
        "abc": [0.27551995, 0.06258689, 0.37728788],
        "properties": { "magmom": 0.0 },
        "label": "Be",
        "xyz": [2.8844504099173927, 0.5990009863594373, 3.3336416210018016]
      },
      {
        "species": [{ "element": "Be", "occu": 1 }],
        "abc": [0.10202309, 0.8151936, 0.3783012],
        "properties": { "magmom": -0.0 },
        "label": "Be",
        "xyz": [-1.1936834135250471, 8.888768015190525, 0.08457268064090684]
      },
      {
        "species": [{ "element": "Be", "occu": 1 }],
        "abc": [0.81541517, 0.276509399999999, 0.87805082],
        "properties": { "magmom": -0.0 },
        "label": "Be",
        "xyz": [8.325828433160323, 2.8348734278183687, 6.038664917298265]
      },
      {
        "species": [{ "element": "Be", "occu": 1 }],
        "abc": [0.06285774, 0.10203796, 0.87786623],
        "properties": { "magmom": -0.0 },
        "label": "Be",
        "xyz": [0.2641240825312613, 0.915102036853994, 11.262355291479663]
      },
      {
        "species": [{ "element": "Be", "occu": 1 }],
        "abc": [0.22346499, 0.68457204, 0.62187627],
        "properties": { "magmom": 0.0 },
        "label": "Be",
        "xyz": [0.506106358242087, 7.39184527827153, 3.5187568200463692]
      },
      {
        "species": [{ "element": "I", "occu": 1 }],
        "abc": [0.65973923, 0.59464295, 0.24808188],
        "properties": { "magmom": -0.0 },
        "label": "I",
        "xyz": [5.784547884383793, 6.489059982781165, -3.6254656353649253]
      },
      {
        "species": [{ "element": "I", "occu": 1 }],
        "abc": [0.15353365, 0.65991765, 0.74869333],
        "properties": { "magmom": 0.0 },
        "label": "I",
        "xyz": [-0.2431481357793008, 7.090326818646994, 5.813212704565168]
      },
      {
        "species": [{ "element": "I", "occu": 1 }],
        "abc": [0.59487189, 0.58832204, 0.74850918],
        "properties": { "magmom": 0.0 },
        "label": "I",
        "xyz": [4.971541813396199, 6.300669939407466, 3.7258134344395035]
      },
      {
        "species": [{ "element": "I", "occu": 1 }],
        "abc": [0.91179996, 0.90520882, 0.75176651],
        "properties": { "magmom": -0.0 },
        "label": "I",
        "xyz": [7.684630904787499, 9.789439724726579, 0.19834477123507277]
      },
      {
        "species": [{ "element": "I", "occu": 1 }],
        "abc": [0.8399876, 0.34623922, 0.75094958],
        "properties": { "magmom": 0.0 },
        "label": "I",
        "xyz": [8.433614071825478, 3.6330561098718013, 3.741977617987766]
      },
      {
        "species": [{ "element": "I", "occu": 1 }],
        "abc": [0.34561246, 0.91104831, 0.25070808],
        "properties": { "magmom": -0.0 },
        "label": "I",
        "xyz": [1.3294109002473025, 9.974267645438973, -3.601018875304816]
      },
      {
        "species": [{ "element": "I", "occu": 1 }],
        "abc": [0.905048099999999, 0.84006231, 0.25156871000000003],
        "properties": { "magmom": 0.0 },
        "label": "I",
        "xyz": [7.883955278587856, 9.190779353609626, -6.343191901821847]
      },
      {
        "species": [{ "element": "I", "occu": 1 }],
        "abc": [0.58903728, 0.15441557, 0.24961601],
        "properties": { "magmom": -0.0 },
        "label": "I",
        "xyz": [6.213311869669522, 1.639998468448231, -0.7246175292299339]
      },
      {
        "species": [{ "element": "I", "occu": 1 }],
        "abc": [0.34026077, 0.40535705, 0.75191812],
        "properties": { "magmom": -0.0 },
        "label": "I",
        "xyz": [2.5903277656162085, 4.285237487218837, 6.239791715364927]
      },
      {
        "species": [{ "element": "I", "occu": 1 }],
        "abc": [0.84646635, 0.34008235000000003, 0.25130667],
        "properties": { "magmom": 0.0 },
        "label": "I",
        "xyz": [8.618023785779302, 3.6839706513530075, -3.1988866245651675]
      },
      {
        "species": [{ "element": "I", "occu": 1 }],
        "abc": [0.40512811, 0.41167796, 0.25149082],
        "properties": { "magmom": 0.0 },
        "label": "I",
        "xyz": [3.403333836603801, 4.473627530592537, -1.111487354439503]
      },
      {
        "species": [{ "element": "I", "occu": 1 }],
        "abc": [0.08820004000000001, 0.09479118, 0.24823349],
        "properties": { "magmom": -0.0 },
        "label": "I",
        "xyz": [0.6902447452125003, 0.9848577452734234, 2.4159813087649287]
      },
      {
        "species": [{ "element": "I", "occu": 1 }],
        "abc": [0.1600124, 0.65376078, 0.24905042],
        "properties": { "magmom": 0.0 },
        "label": "I",
        "xyz": [-0.05873842182547823, 7.141241360128201, -1.1276515379877643]
      },
      {
        "species": [{ "element": "I", "occu": 1 }],
        "abc": [0.65438754, 0.08895169, 0.74929192],
        "properties": { "magmom": -0.0 },
        "label": "I",
        "xyz": [7.045464749752698, 0.8000298245610291, 6.215344955304816]
      },
      {
        "species": [{ "element": "I", "occu": 1 }],
        "abc": [0.094951899999999, 0.15993769, 0.74843129],
        "properties": { "magmom": 0.0 },
        "label": "I",
        "xyz": [0.4909203714121204, 1.5835181163903735, 8.957517981821859]
      },
      {
        "species": [{ "element": "I", "occu": 1 }],
        "abc": [0.41096272, 0.84558443, 0.75038399],
        "properties": { "magmom": -0.0 },
        "label": "I",
        "xyz": [2.1615637803304777, 9.13429900155177, 3.3389436092299345]
      },
      {
        "species": [{ "element": "I", "occu": 1 }],
        "abc": [0.75910908, 0.5090528400000001, 0.51722751],
        "properties": { "magmom": -0.0 },
        "label": "I",
        "xyz": [7.102722431750465, 5.482113699934992, 0.03451091295207842]
      },
      {
        "species": [{ "element": "I", "occu": 1 }],
        "abc": [0.5088862200000001, 0.7590204500000001, 0.01712457],
        "properties": { "magmom": -0.0 },
        "label": "I",
        "xyz": [3.653749737711831, 8.354862179965595, -6.908823610845844]
      },
      {
        "species": [{ "element": "I", "occu": 1 }],
        "abc": [0.74105833, 0.99112731, 0.48284277000000003],
        "properties": { "magmom": 0.0 },
        "label": "I",
        "xyz": [5.554609352427332, 10.800130088666446, -3.057997590328993]
      },
      {
        "species": [{ "element": "I", "occu": 1 }],
        "abc": [0.99084792, 0.74075257, 0.98272633],
        "properties": { "magmom": 0.0 },
        "label": "I",
        "xyz": [8.99984023582137, 7.922950513954597, 3.88702741280653]
      },
      {
        "species": [{ "element": "I", "occu": 1 }],
        "abc": [0.24089092, 0.49094716, 0.48277249],
        "properties": { "magmom": -0.0 },
        "label": "I",
        "xyz": [1.2721532182495356, 5.2921837700650105, 2.579815167047922]
      },
      {
        "species": [{ "element": "I", "occu": 1 }],
        "abc": [0.49111378, 0.24097955000000001, 0.98287543],
        "properties": { "magmom": -0.0 },
        "label": "I",
        "xyz": [4.721125912288169, 2.41943529003441, 9.523149690845841]
      },
      {
        "species": [{ "element": "I", "occu": 1 }],
        "abc": [0.25894167, 0.00887269, 0.51715723],
        "properties": { "magmom": 0.0 },
        "label": "I",
        "xyz": [2.820266297572668, -0.025832618666444374, 5.672323670328994]
      },
      {
        "species": [{ "element": "I", "occu": 1 }],
        "abc": [0.00915208, 0.25924743, 0.01727367],
        "properties": { "magmom": 0.0 },
        "label": "I",
        "xyz": [-0.6249645858213702, 2.851346956045405, -1.27270133280653]
      },
      {
        "species": [{ "element": "I", "occu": 1 }],
        "abc": [0.56020077, 0.75004799, 0.49997506],
        "properties": { "magmom": -0.0 },
        "label": "I",
        "xyz": [4.171451317752579, 8.141151198187478, -0.4417564073515434]
      },
      {
        "species": [{ "element": "I", "occu": 1 }],
        "abc": [0.25009627, 0.55959749, 0.000198],
        "properties": { "magmom": 0.0 },
        "label": "I",
        "xyz": [1.2749370912045082, 6.1629972552831065, -4.560954403057636]
      },
      {
        "species": [{ "element": "I", "occu": 1 }],
        "abc": [0.7498405, 0.94016511, 0.9997372],
        "properties": { "magmom": -0.0 },
        "label": "I",
        "xyz": [5.700248273007943, 10.11594029225856, 4.358308855711783]
      },
      {
        "species": [{ "element": "I", "occu": 1 }],
        "abc": [0.94075335, 0.25020699, 0.5001476],
        "properties": { "magmom": 0.0 },
        "label": "I",
        "xyz": [9.89424793466026, 2.6346630174012047, 0.23190596469511338]
      },
      {
        "species": [{ "element": "I", "occu": 1 }],
        "abc": [0.43979923, 0.24995201, 0.50002494],
        "properties": { "magmom": -0.0 },
        "label": "I",
        "xyz": [4.203424332247421, 2.6331462718125236, 3.056082487351544]
      },
      {
        "species": [{ "element": "I", "occu": 1 }],
        "abc": [0.74990373, 0.44040251, 0.999802],
        "properties": { "magmom": 0.0 },
        "label": "I",
        "xyz": [7.0999385587954915, 4.611300214716896, 7.1752804830576355]
      },
      {
        "species": [{ "element": "I", "occu": 1 }],
        "abc": [0.2501595, 0.05983489, 0.0002628],
        "properties": { "magmom": -0.0 },
        "label": "I",
        "xyz": [2.6746273769920577, 0.658357177741442, -1.7439827757117816]
      },
      {
        "species": [{ "element": "I", "occu": 1 }],
        "abc": [0.05924665, 0.74979301, 0.4998524],
        "properties": { "magmom": 0.0 },
        "label": "I",
        "xyz": [-1.5193722846602595, 8.139634452598797, 2.3824201153048863]
      }
    ]
  },
  "task_ids": null,
  "uncorrected_energy_per_atom": null,
  "energy_per_atom": -3.098829020000001,
  "formation_energy_per_atom": -0.836349655000001,
  "energy_above_hull": 0.0,
  "is_stable": true,
  "equilibrium_reaction_energy_per_atom": null,
  "decomposes_to": null,
  "xas": null,
  "grain_boundaries": null,
  "band_gap": 4.1443,
  "cbm": null,
  "vbm": null,
  "efermi": 0.93795569,
  "is_gap_direct": null,
  "is_metal": null,
  "es_source_calc_id": null,
  "bandstructure": null,
  "dos": null,
  "dos_energy_up": null,
  "dos_energy_down": null,
  "is_magnetic": null,
  "ordering": null,
  "total_magnetization": 0.0,
  "total_magnetization_normalized_vol": null,
  "total_magnetization_normalized_formula_units": null,
  "num_magnetic_sites": null,
  "num_unique_magnetic_sites": null,
  "types_of_magnetic_species": null,
  "bulk_modulus": null,
  "shear_modulus": null,
  "universal_anisotropy": null,
  "homogeneous_poisson": null,
  "e_total": null,
  "e_ionic": null,
  "e_electronic": null,
  "n": null,
  "e_ij_max": null,
  "weighted_surface_energy_EV_PER_ANG2": null,
  "weighted_surface_energy": null,
  "weighted_work_function": null,
  "surface_anisotropy": null,
  "shape_factor": null,
  "has_reconstructed": null,
  "possible_species": null,
  "has_props": null,
  "theoretical": null,
  "database_IDs": null,
  "fields_not_requested": [
    "builder_meta",
    "nsites",
    "elements",
    "nelements",
    "composition",
    "composition_reduced",
    "chemsys",
    "symmetry",
    "property_name",
    "deprecated",
    "deprecation_reasons",
    "last_updated",
    "origins",
    "warnings",
    "task_ids",
    "uncorrected_energy_per_atom",
    "equilibrium_reaction_energy_per_atom",
    "decomposes_to",
    "xas",
    "grain_boundaries",
    "cbm",
    "vbm",
    "is_gap_direct",
    "is_metal",
    "es_source_calc_id",
    "bandstructure",
    "dos",
    "dos_energy_up",
    "dos_energy_down",
    "is_magnetic",
    "ordering",
    "total_magnetization_normalized_vol",
    "total_magnetization_normalized_formula_units",
    "num_magnetic_sites",
    "num_unique_magnetic_sites",
    "types_of_magnetic_species",
    "bulk_modulus",
    "shear_modulus",
    "universal_anisotropy",
    "homogeneous_poisson",
    "e_total",
    "e_ionic",
    "e_electronic",
    "n",
    "e_ij_max",
    "weighted_surface_energy_EV_PER_ANG2",
    "weighted_surface_energy",
    "weighted_work_function",
    "surface_anisotropy",
    "shape_factor",
    "has_reconstructed",
    "possible_species",
    "has_props",
    "theoretical",
    "database_IDs"
  ]
}
