{
  "builder_meta": null,
  "nsites": null,
  "elements": null,
  "nelements": null,
  "composition": null,
  "composition_reduced": null,
  "formula_pretty": "BeO2",
  "formula_anonymous": "AB2",
  "chemsys": null,
  "volume": 112.88426901956146,
  "density": 2.413102848150735,
  "density_atomic": 9.407022418296789,
  "symmetry": null,
  "property_name": null,
  "material_id": "mp-1182269",
  "deprecated": null,
  "deprecation_reasons": null,
  "last_updated": null,
  "origins": null,
  "warnings": null,
  "structure": {
    "@module": "pymatgen.core.structure",
    "@class": "Structure",
    "charge": 0,
    "lattice": {
      "matrix": [
        [3.713797, 0.0, 0.0],
        [0.0, 6.305464, 0.0],
        [0.0, 0.0, 4.820568]
      ],
      "pbc": [true, true, true],
      "a": 3.713797,
      "b": 6.305464,
      "c": 4.820568,
      "alpha": 90.0,
      "beta": 90.0,
      "gamma": 90.0,
      "volume": 112.88426901956146
    },
    "properties": {},
    "sites": [
      {
        "species": [{ "element": "Be", "occu": 1 }],
        "abc": [0.902955, 0.602407999999999, 0.074003],
        "properties": { "magmom": -0.0 },
        "label": "Be",
        "xyz": [3.353391570135, 3.7984619573119938, 0.35673649370399996]
      },
      {
        "species": [{ "element": "Be", "occu": 1 }],
        "abc": [0.597044999999999, 0.397592, 0.574002999999999],
        "properties": { "magmom": -0.0 },
        "label": "Be",
        "xyz": [2.2173039298649964, 2.5070020426879998, 2.767020493703995]
      },
      {
        "species": [{ "element": "Be", "occu": 1 }],
        "abc": [0.402955, 0.897592, 0.925997],
        "properties": { "magmom": -0.0 },
        "label": "Be",
        "xyz": [1.496493070135, 5.659734042687999, 4.463831506296]
      },
      {
        "species": [{ "element": "Be", "occu": 1 }],
        "abc": [0.09704499999999901, 0.102408, 0.425996999999999],
        "properties": { "magmom": -0.0 },
        "label": "Be",
        "xyz": [0.3604054298649963, 0.645729957312, 2.0535475062959954]
      },
      {
        "species": [{ "element": "O", "occu": 1 }],
        "abc": [0.926619, 0.50183, 0.384768],
        "properties": { "magmom": 0.0 },
        "label": "O",
        "xyz": [3.441274862343, 3.1642709991199998, 1.8548003082239999]
      },
      {
        "species": [{ "element": "O", "occu": 1 }],
        "abc": [0.573381, 0.49817000000000006, 0.884768],
        "properties": { "magmom": 0.0 },
        "label": "O",
        "xyz": [2.129420637657, 3.1411930008800004, 4.265084308224]
      },
      {
        "species": [{ "element": "O", "occu": 1 }],
        "abc": [0.426618999999999, 0.9981700000000001, 0.615232],
        "properties": { "magmom": 0.0 },
        "label": "O",
        "xyz": [1.5843763623429965, 6.293925000880001, 2.9657676917759996]
      },
      {
        "species": [{ "element": "O", "occu": 1 }],
        "abc": [0.073381, 0.0018300000000000002, 0.115232],
        "properties": { "magmom": 0.0 },
        "label": "O",
        "xyz": [0.272522137657, 0.01153899912, 0.555483691776]
      },
      {
        "species": [{ "element": "O", "occu": 1 }],
        "abc": [0.771312, 0.850934, 0.093596],
        "properties": { "magmom": 0.0 },
        "label": "O",
        "xyz": [2.864496191664, 5.365533703375999, 0.45118588252799996]
      },
      {
        "species": [{ "element": "O", "occu": 1 }],
        "abc": [0.728688, 0.149066, 0.593596],
        "properties": { "magmom": 0.0 },
        "label": "O",
        "xyz": [2.706199308336, 0.939930296624, 2.861469882528]
      },
      {
        "species": [{ "element": "O", "occu": 1 }],
        "abc": [0.271312, 0.649065999999999, 0.906404],
        "properties": { "magmom": 0.0 },
        "label": "O",
        "xyz": [1.007597691664, 4.092662296623994, 4.369382117472]
      },
      {
        "species": [{ "element": "O", "occu": 1 }],
        "abc": [0.228688, 0.350933999999999, 0.406404],
        "properties": { "magmom": 0.0 },
        "label": "O",
        "xyz": [0.849300808336, 2.2128017033759937, 1.959098117472]
      }
    ]
  },
  "task_ids": null,
  "uncorrected_energy_per_atom": null,
  "energy_per_atom": -6.125881560833332,
  "formation_energy_per_atom": -1.580769935833332,
  "energy_above_hull": 0.487800599166667,
  "is_stable": false,
  "equilibrium_reaction_energy_per_atom": null,
  "decomposes_to": null,
  "xas": null,
  "grain_boundaries": null,
  "band_gap": 3.237,
  "cbm": null,
  "vbm": null,
  "efermi": 4.19901989,
  "is_gap_direct": null,
  "is_metal": null,
  "es_source_calc_id": null,
  "bandstructure": null,
  "dos": null,
  "dos_energy_up": null,
  "dos_energy_down": null,
  "is_magnetic": null,
  "ordering": null,
  "total_magnetization": 0.0001538,
  "total_magnetization_normalized_vol": null,
  "total_magnetization_normalized_formula_units": null,
  "num_magnetic_sites": null,
  "num_unique_magnetic_sites": null,
  "types_of_magnetic_species": null,
  "bulk_modulus": null,
  "shear_modulus": null,
  "universal_anisotropy": null,
  "homogeneous_poisson": null,
  "e_total": null,
  "e_ionic": null,
  "e_electronic": null,
  "n": null,
  "e_ij_max": null,
  "weighted_surface_energy_EV_PER_ANG2": null,
  "weighted_surface_energy": null,
  "weighted_work_function": null,
  "surface_anisotropy": null,
  "shape_factor": null,
  "has_reconstructed": null,
  "possible_species": null,
  "has_props": null,
  "theoretical": null,
  "database_IDs": null,
  "fields_not_requested": [
    "builder_meta",
    "nsites",
    "elements",
    "nelements",
    "composition",
    "composition_reduced",
    "chemsys",
    "symmetry",
    "property_name",
    "deprecated",
    "deprecation_reasons",
    "last_updated",
    "origins",
    "warnings",
    "task_ids",
    "uncorrected_energy_per_atom",
    "equilibrium_reaction_energy_per_atom",
    "decomposes_to",
    "xas",
    "grain_boundaries",
    "cbm",
    "vbm",
    "is_gap_direct",
    "is_metal",
    "es_source_calc_id",
    "bandstructure",
    "dos",
    "dos_energy_up",
    "dos_energy_down",
    "is_magnetic",
    "ordering",
    "total_magnetization_normalized_vol",
    "total_magnetization_normalized_formula_units",
    "num_magnetic_sites",
    "num_unique_magnetic_sites",
    "types_of_magnetic_species",
    "bulk_modulus",
    "shear_modulus",
    "universal_anisotropy",
    "homogeneous_poisson",
    "e_total",
    "e_ionic",
    "e_electronic",
    "n",
    "e_ij_max",
    "weighted_surface_energy_EV_PER_ANG2",
    "weighted_surface_energy",
    "weighted_work_function",
    "surface_anisotropy",
    "shape_factor",
    "has_reconstructed",
    "possible_species",
    "has_props",
    "theoretical",
    "database_IDs"
  ]
}
