{"builder_meta": null, "nsites": null, "elements": null, "nelements": null, "composition": null, "composition_reduced": null, "formula_pretty": "BeP2", "formula_anonymous": "AB2", "chemsys": null, "volume": 378.1575154801126, "density": 2.492746734235346, "density_atomic": 15.75656314500469, "symmetry": null, "property_name": null, "material_id": "mp-27148", "deprecated": null, "deprecation_reasons": null, "last_updated": null, "origins": null, "warnings": null, "structure": {"@module": "pymatgen.core.structure", "@class": "Structure", "charge": 0, "lattice": {"matrix": [[6.91557851, 0.0009397100000000001, -1.58816774], [-0.36458904000000003, 6.90605213, -1.58753281], [0.00036809, -0.00026665, 7.9179026100000005]], "pbc": [true, true, true], "a": 7.095597492911038, "b": 7.095543785587695, "c": 7.917902623045909, "alpha": 102.9306638275585, "beta": 102.93109403631655, "gamma": 89.99270082738829, "volume": 378.1575154801127}, "properties": {}, "sites": [{"species": [{"element": "Be", "occu": 1}], "abc": [0.29360944, 0.04694466, 0.17592595], "properties": {"magmom": -0.0}, "label": "Be", "xyz": [2.0134283816575436, 0.3244312662574207, 0.8521373098999694]}, {"species": [{"element": "Be", "occu": 1}], "abc": [0.29375506, 0.539950399999999, 0.17460931], "properties": {"magmom": -0.0}, "label": "Be", "xyz": [1.8346904540970628, 3.7291550950092667, 0.05881822585291219]}, {"species": [{"element": "Be", "occu": 1}], "abc": [0.83122975, 0.3350603, 0.3253976], "properties": {"magmom": -0.0}, "label": "Be", "xyz": [5.6263950584561435, 2.3146382461317714, 0.7244150132710283]}, {"species": [{"element": "Be", "occu": 1}], "abc": [0.83139341, 0.8280698400000001, 0.3240695], "properties": {"magmom": 0.0}, "label": "Be", "xyz": [5.44778049827532, 5.719388337889895, -0.06902949311064877]}, {"species": [{"element": "Be", "occu": 1}], "abc": [0.66492509, 0.16877158, 0.67462063], "properties": {"magmom": -0.0}, "label": "Be", "xyz": [4.53705771594003, 1.1659902787077998, 4.017637448936709]}, {"species": [{"element": "Be", "occu": 1}], "abc": [0.1719201, 0.1686112, 0.67593815], "properties": {"magmom": -0.0}, "label": "Be", "xyz": [1.1277019595294362, 1.1644190530313294, 4.811298673272526]}, {"species": [{"element": "Be", "occu": 1}], "abc": [0.46005536, 0.70622875, 0.82538872], "properties": {"magmom": -0.0}, "label": "Be", "xyz": [2.924369516377358, 4.877464791924895, 4.683541106996185]}, {"species": [{"element": "Be", "occu": 1}], "abc": [0.95305362, 0.70638524, 0.82408421], "properties": {"magmom": -0.0}, "label": "Be", "xyz": [6.333680153984796, 4.879009143265215, 3.8899997584448447]}, {"species": [{"element": "P", "occu": 1}], "abc": [0.12074965, 0.87925159, 0.50001258], "properties": {"magmom": 0.0}, "label": "P", "xyz": [0.51467224114402, 6.07213745722453, 2.3714394660988756]}, {"species": [{"element": "P", "occu": 1}], "abc": [0.62811956, 0.87929463, 0.49746335], "properties": {"magmom": 0.0}, "label": "P", "xyz": [4.023412057102302, 6.072912154038512, 1.5453980605075395]}, {"species": [{"element": "P", "occu": 1}], "abc": [0.12070758000000001, 0.37188688000000003, 0.5025478800000001], "properties": {"magmom": 0.0}, "label": "P", "xyz": [0.6993618485234598, 2.5682496054708546, 3.1970386625639655]}, {"species": [{"element": "P", "occu": 1}], "abc": [0.62910153, 0.37089443, 0.50000492], "properties": {"magmom": 0.0}, "label": "P", "xyz": [4.215561024112076, 2.5618741149934743, 2.3710644292789507]}, {"species": [{"element": "P", "occu": 1}], "abc": [0.33158129000000003, 0.83039725, 0.33017823], "properties": {"magmom": -0.0}, "label": "P", "xyz": [1.9904442425506184, 5.734990245337639, 0.7694294814078235]}, {"species": [{"element": "P", "occu": 1}], "abc": [0.33275325, 0.33508142, 0.334783699999999], "properties": {"magmom": -0.0}, "label": "P", "xyz": [2.1791374421251537, 2.3143131757973774, 1.5903640067139042]}, {"species": [{"element": "P", "occu": 1}], "abc": [0.79224405, 0.539920699999999, 0.16520335], "properties": {"magmom": -0.0}, "label": "P", "xyz": [5.282037566867339, 3.729420928449032, -0.8072942323193688]}, {"species": [{"element": "P", "occu": 1}], "abc": [0.79343734, 0.04463437, 0.16978877], "properties": {"magmom": 0.0}, "label": "P", "xyz": [5.470867512974608, 0.30894761283695893, 0.013400831203598473]}, {"species": [{"element": "P", "occu": 1}], "abc": [0.664932099999999, 0.66724398, 0.66522194], "properties": {"magmom": -0.0}, "label": "P", "xyz": [4.355365160799079, 4.608469171222067, 3.151867113919828]}, {"species": [{"element": "P", "occu": 1}], "abc": [0.16961193, 0.66841835, 0.66984266], "properties": {"magmom": -0.0}, "label": "P", "xyz": [0.9295131759874595, 4.616112742230037, 3.973240688927141]}, {"species": [{"element": "P", "occu": 1}], "abc": [0.46006326000000003, 0.20774589000000002, 0.83481191], "properties": {"magmom": 0.0}, "label": "P", "xyz": [3.106169005413449, 1.434913669583499, 5.5494983566392015]}, {"species": [{"element": "P", "occu": 1}], "abc": [0.49589193000000004, 0.50409731, 6.179999999999998e-06], "properties": {"magmom": 0.0}, "label": "P", "xyz": [3.2455912223457384, 3.4817882944104137, -1.5877816521719494]}, {"species": [{"element": "P", "occu": 1}], "abc": [0.00430355, 0.50309172, 0.99749801], "properties": {"magmom": 0.0}, "label": "P", "xyz": [-0.15329302028753744, 3.4741157057359677, 7.092582725631997]}, {"species": [{"element": "P", "occu": 1}], "abc": [0.49689953000000003, 0.9956763, 0.002512099999999], "properties": {"magmom": -0.0}, "label": "P", "xyz": [3.0733359696082374, 6.8766587040113905, -2.349938034809992]}, {"species": [{"element": "P", "occu": 1}], "abc": [0.95535233, 0.20655454, 0.83022059], "properties": {"magmom": 0.0}, "label": "P", "xyz": [6.53181211727716, 1.427152796745871, 4.728433916292449]}, {"species": [{"element": "P", "occu": 1}], "abc": [0.00424229, 0.9957526600000001, 6.74e-06], "properties": {"magmom": -0.0}, "label": "P", "xyz": [-0.33370261434873194, 6.876723763271281, -1.5874741198529079]}]}, "task_ids": null, "uncorrected_energy_per_atom": null, "energy_per_atom": -5.176169704583333, "formation_energy_per_atom": -0.319383066011903, "energy_above_hull": 0.0, "is_stable": true, "equilibrium_reaction_energy_per_atom": null, "decomposes_to": null, "xas": null, "grain_boundaries": null, "band_gap": 0.836199999999999, "cbm": null, "vbm": null, "efermi": 5.4305251, "is_gap_direct": null, "is_metal": null, "es_source_calc_id": null, "bandstructure": null, "dos": null, "dos_energy_up": null, "dos_energy_down": null, "is_magnetic": null, "ordering": null, "total_magnetization": 0.0, "total_magnetization_normalized_vol": null, "total_magnetization_normalized_formula_units": null, "num_magnetic_sites": null, "num_unique_magnetic_sites": null, "types_of_magnetic_species": null, "bulk_modulus": null, "shear_modulus": null, "universal_anisotropy": null, "homogeneous_poisson": null, "e_total": null, "e_ionic": null, "e_electronic": null, "n": null, "e_ij_max": null, "weighted_surface_energy_EV_PER_ANG2": null, "weighted_surface_energy": null, "weighted_work_function": null, "surface_anisotropy": null, "shape_factor": null, "has_reconstructed": null, "possible_species": null, "has_props": null, "theoretical": null, "database_IDs": null, "fields_not_requested": ["builder_meta", "nsites", "elements", "nelements", "composition", "composition_reduced", "chemsys", "symmetry", "property_name", "deprecated", "deprecation_reasons", "last_updated", "origins", "warnings", "task_ids", "uncorrected_energy_per_atom", "equilibrium_reaction_energy_per_atom", "decomposes_to", "xas", "grain_boundaries", "cbm", "vbm", "is_gap_direct", "is_metal", "es_source_calc_id", "bandstructure", "dos", "dos_energy_up", "dos_energy_down", "is_magnetic", "ordering", "total_magnetization_normalized_vol", "total_magnetization_normalized_formula_units", "num_magnetic_sites", "num_unique_magnetic_sites", "types_of_magnetic_species", "bulk_modulus", "shear_modulus", "universal_anisotropy", "homogeneous_poisson", "e_total", "e_ionic", "e_electronic", "n", "e_ij_max", "weighted_surface_energy_EV_PER_ANG2", "weighted_surface_energy", "weighted_work_function", "surface_anisotropy", "shape_factor", "has_reconstructed", "possible_species", "has_props", "theoretical", "database_IDs"]}