{
  "builder_meta": null,
  "nsites": null,
  "elements": null,
  "nelements": null,
  "composition": null,
  "composition_reduced": null,
  "formula_pretty": "BePd3",
  "formula_anonymous": "AB3",
  "chemsys": null,
  "volume": 105.04066054244497,
  "density": 10.379005232335853,
  "density_atomic": 13.130082567805621,
  "symmetry": null,
  "property_name": null,
  "material_id": "mp-13453",
  "deprecated": null,
  "deprecation_reasons": null,
  "last_updated": null,
  "origins": null,
  "warnings": null,
  "structure": {
    "@module": "pymatgen.core.structure",
    "@class": "Structure",
    "charge": 0,
    "lattice": {
      "matrix": [
        [2.85436846, 0.0, 0.0],
        [-1.42718473, 4.82149218, -0.0],
        [-0.0, -0.0, 7.63248472]
      ],
      "pbc": [true, true, true],
      "a": 2.85436846,
      "b": 5.0282843093192655,
      "c": 7.63248472,
      "alpha": 90.0,
      "beta": 90.0,
      "gamma": 106.48900549471475,
      "volume": 105.04066054244497
    },
    "properties": {},
    "sites": [
      {
        "species": [{ "element": "Be", "occu": 1 }],
        "abc": [0.74680773, 0.49361445000000004, 0.75],
        "properties": { "magmom": -0.0 },
        "label": "Be",
        "xyz": [1.4271854246488473, 2.3799582106100012, 5.72436354]
      },
      {
        "species": [{ "element": "Be", "occu": 1 }],
        "abc": [0.25319227, 0.50638555, 0.25],
        "properties": { "magmom": -0.0 },
        "label": "Be",
        "xyz": [-1.6946488472502352e-6, 2.4415339693899987, 1.90812118]
      },
      {
        "species": [{ "element": "Pd", "occu": 1 }],
        "abc": [0.43317132, 0.86634064, 0.75],
        "properties": { "magmom": -0.0 },
        "label": "Pd",
        "xyz": [2.421198139979097e-6, 4.177054620976195, 5.72436354]
      },
      {
        "species": [{ "element": "Pd", "occu": 1 }],
        "abc": [0.56682868, 0.13365936, 0.25],
        "properties": { "magmom": -0.0 },
        "label": "Pd",
        "xyz": [1.42718130880186, 0.6444375590238048, 1.90812118]
      },
      {
        "species": [{ "element": "Pd", "occu": 1 }],
        "abc": [0.13624569, 0.27249038000000003, 0.93936067],
        "properties": { "magmom": 0.0 },
        "label": "Pd",
        "xyz": [1.290939039944039e-6, 1.3138102362952286, 7.169655960343962]
      },
      {
        "species": [{ "element": "Pd", "occu": 1 }],
        "abc": [0.86375431, 0.72750962, 0.06063933],
        "properties": { "magmom": 0.0 },
        "label": "Pd",
        "xyz": [1.4271824390609602, 3.5076819437047715, 0.4628287596560376]
      },
      {
        "species": [{ "element": "Pd", "occu": 1 }],
        "abc": [0.86375431, 0.72750962, 0.43936067],
        "properties": { "magmom": 0.0 },
        "label": "Pd",
        "xyz": [1.4271824390609602, 3.5076819437047715, 3.3534136003439623]
      },
      {
        "species": [{ "element": "Pd", "occu": 1 }],
        "abc": [0.13624569, 0.27249038000000003, 0.56063933],
        "properties": { "magmom": 0.0 },
        "label": "Pd",
        "xyz": [1.290939039944039e-6, 1.3138102362952286, 4.279071119656037]
      }
    ]
  },
  "task_ids": null,
  "uncorrected_energy_per_atom": null,
  "energy_per_atom": -5.20174432125,
  "formation_energy_per_atom": -0.381979747499999,
  "energy_above_hull": 0.0,
  "is_stable": true,
  "equilibrium_reaction_energy_per_atom": null,
  "decomposes_to": null,
  "xas": null,
  "grain_boundaries": null,
  "band_gap": 0.0,
  "cbm": null,
  "vbm": null,
  "efermi": 4.10172329,
  "is_gap_direct": null,
  "is_metal": null,
  "es_source_calc_id": null,
  "bandstructure": null,
  "dos": null,
  "dos_energy_up": null,
  "dos_energy_down": null,
  "is_magnetic": null,
  "ordering": null,
  "total_magnetization": 0.0,
  "total_magnetization_normalized_vol": null,
  "total_magnetization_normalized_formula_units": null,
  "num_magnetic_sites": null,
  "num_unique_magnetic_sites": null,
  "types_of_magnetic_species": null,
  "bulk_modulus": null,
  "shear_modulus": null,
  "universal_anisotropy": null,
  "homogeneous_poisson": null,
  "e_total": null,
  "e_ionic": null,
  "e_electronic": null,
  "n": null,
  "e_ij_max": null,
  "weighted_surface_energy_EV_PER_ANG2": null,
  "weighted_surface_energy": null,
  "weighted_work_function": null,
  "surface_anisotropy": null,
  "shape_factor": null,
  "has_reconstructed": null,
  "possible_species": null,
  "has_props": null,
  "theoretical": null,
  "database_IDs": null,
  "fields_not_requested": [
    "builder_meta",
    "nsites",
    "elements",
    "nelements",
    "composition",
    "composition_reduced",
    "chemsys",
    "symmetry",
    "property_name",
    "deprecated",
    "deprecation_reasons",
    "last_updated",
    "origins",
    "warnings",
    "task_ids",
    "uncorrected_energy_per_atom",
    "equilibrium_reaction_energy_per_atom",
    "decomposes_to",
    "xas",
    "grain_boundaries",
    "cbm",
    "vbm",
    "is_gap_direct",
    "is_metal",
    "es_source_calc_id",
    "bandstructure",
    "dos",
    "dos_energy_up",
    "dos_energy_down",
    "is_magnetic",
    "ordering",
    "total_magnetization_normalized_vol",
    "total_magnetization_normalized_formula_units",
    "num_magnetic_sites",
    "num_unique_magnetic_sites",
    "types_of_magnetic_species",
    "bulk_modulus",
    "shear_modulus",
    "universal_anisotropy",
    "homogeneous_poisson",
    "e_total",
    "e_ionic",
    "e_electronic",
    "n",
    "e_ij_max",
    "weighted_surface_energy_EV_PER_ANG2",
    "weighted_surface_energy",
    "weighted_work_function",
    "surface_anisotropy",
    "shape_factor",
    "has_reconstructed",
    "possible_species",
    "has_props",
    "theoretical",
    "database_IDs"
  ]
}
