{
  "builder_meta": null,
  "nsites": null,
  "elements": null,
  "nelements": null,
  "composition": null,
  "composition_reduced": null,
  "formula_pretty": "BF2",
  "formula_anonymous": "AB2",
  "chemsys": null,
  "volume": 179.33932775905646,
  "density": 1.8076853592567712,
  "density_atomic": 14.944943979921371,
  "symmetry": null,
  "property_name": null,
  "material_id": "mp-27864",
  "deprecated": null,
  "deprecation_reasons": null,
  "last_updated": null,
  "origins": null,
  "warnings": null,
  "structure": {
    "@module": "pymatgen.core.structure",
    "@class": "Structure",
    "charge": 0,
    "lattice": {
      "matrix": [
        [6.666656, 0.0, 0.0],
        [0.0, 4.933923, 0.0],
        [0.0, 3.722953, 5.452242]
      ],
      "pbc": [true, true, true],
      "a": 6.666656,
      "b": 4.933923,
      "c": 6.602069513930688,
      "alpha": 55.673576424691746,
      "beta": 90.0,
      "gamma": 90.0,
      "volume": 179.33932775905646
    },
    "properties": {},
    "sites": [
      {
        "species": [{ "element": "B", "occu": 1 }],
        "abc": [0.935492, 0.141563, 0.369002999999999],
        "properties": { "magmom": -0.0 },
        "label": "B",
        "xyz": [6.236603354752, 2.0722417675079963, 2.011893654725995]
      },
      {
        "species": [{ "element": "B", "occu": 1 }],
        "abc": [0.435492, 0.858437, 0.130997],
        "properties": { "magmom": -0.0 },
        "label": "B",
        "xyz": [2.9032753547519996, 4.723157732492, 0.714227345274]
      },
      {
        "species": [{ "element": "B", "occu": 1 }],
        "abc": [0.064508, 0.858437, 0.630996999999999],
        "properties": { "magmom": -0.0 },
        "label": "B",
        "xyz": [0.43005264524799997, 6.584634232491997, 3.440348345273995]
      },
      {
        "species": [{ "element": "B", "occu": 1 }],
        "abc": [0.564508, 0.141563, 0.869003],
        "properties": { "magmom": -0.0 },
        "label": "B",
        "xyz": [3.763380645248, 3.933718267508, 4.738014654726]
      },
      {
        "species": [{ "element": "F", "occu": 1 }],
        "abc": [0.798125, 0.048311, 0.271727999999999],
        "properties": { "magmom": 0.0 },
        "label": "F",
        "xyz": [5.3208248199999995, 1.2499933268369963, 1.4815268141759947]
      },
      {
        "species": [{ "element": "F", "occu": 1 }],
        "abc": [0.298125, 0.951689, 0.228272],
        "properties": { "magmom": 0.0 },
        "label": "F",
        "xyz": [1.9874968199999998, 5.545406173163, 1.244594185824]
      },
      {
        "species": [{ "element": "F", "occu": 1 }],
        "abc": [0.201875, 0.951689, 0.728271999999999],
        "properties": { "magmom": 0.0 },
        "label": "F",
        "xyz": [1.34583118, 7.406882673162997, 3.9707151858239946]
      },
      {
        "species": [{ "element": "F", "occu": 1 }],
        "abc": [0.701874999999999, 0.048311, 0.771728],
        "properties": { "magmom": 0.0 },
        "label": "F",
        "xyz": [4.679159179999993, 3.111469826837, 4.207647814176]
      },
      {
        "species": [{ "element": "F", "occu": 1 }],
        "abc": [0.9668239999999991, 0.463076, 0.251316],
        "properties": { "magmom": 0.0 },
        "label": "F",
        "xyz": [6.4454830205439935, 3.2204189832959997, 1.370235650472]
      },
      {
        "species": [{ "element": "F", "occu": 1 }],
        "abc": [0.466823999999999, 0.536924, 0.248684],
        "properties": { "magmom": 0.0 },
        "label": "F",
        "xyz": [3.112155020543993, 3.5749805167039996, 1.3558853495279999]
      },
      {
        "species": [{ "element": "F", "occu": 1 }],
        "abc": [0.033176, 0.536924, 0.748684],
        "properties": { "magmom": 0.0 },
        "label": "F",
        "xyz": [0.22117297945599998, 5.436457016704, 4.082006349528]
      },
      {
        "species": [{ "element": "F", "occu": 1 }],
        "abc": [0.533176, 0.463076, 0.751316],
        "properties": { "magmom": 0.0 },
        "label": "F",
        "xyz": [3.554500979456, 5.081895483296, 4.096356650472]
      }
    ]
  },
  "task_ids": null,
  "uncorrected_energy_per_atom": null,
  "energy_per_atom": -7.014097674629631,
  "formation_energy_per_atom": -2.481294308796297,
  "energy_above_hull": 0.12106801648148101,
  "is_stable": false,
  "equilibrium_reaction_energy_per_atom": null,
  "decomposes_to": null,
  "xas": null,
  "grain_boundaries": null,
  "band_gap": 4.8986,
  "cbm": null,
  "vbm": null,
  "efermi": -3.24702119,
  "is_gap_direct": null,
  "is_metal": null,
  "es_source_calc_id": null,
  "bandstructure": null,
  "dos": null,
  "dos_energy_up": null,
  "dos_energy_down": null,
  "is_magnetic": null,
  "ordering": null,
  "total_magnetization": 0.0013116,
  "total_magnetization_normalized_vol": null,
  "total_magnetization_normalized_formula_units": null,
  "num_magnetic_sites": null,
  "num_unique_magnetic_sites": null,
  "types_of_magnetic_species": null,
  "bulk_modulus": null,
  "shear_modulus": null,
  "universal_anisotropy": null,
  "homogeneous_poisson": null,
  "e_total": null,
  "e_ionic": null,
  "e_electronic": null,
  "n": null,
  "e_ij_max": null,
  "weighted_surface_energy_EV_PER_ANG2": null,
  "weighted_surface_energy": null,
  "weighted_work_function": null,
  "surface_anisotropy": null,
  "shape_factor": null,
  "has_reconstructed": null,
  "possible_species": null,
  "has_props": null,
  "theoretical": null,
  "database_IDs": null,
  "fields_not_requested": [
    "builder_meta",
    "nsites",
    "elements",
    "nelements",
    "composition",
    "composition_reduced",
    "chemsys",
    "symmetry",
    "property_name",
    "deprecated",
    "deprecation_reasons",
    "last_updated",
    "origins",
    "warnings",
    "task_ids",
    "uncorrected_energy_per_atom",
    "equilibrium_reaction_energy_per_atom",
    "decomposes_to",
    "xas",
    "grain_boundaries",
    "cbm",
    "vbm",
    "is_gap_direct",
    "is_metal",
    "es_source_calc_id",
    "bandstructure",
    "dos",
    "dos_energy_up",
    "dos_energy_down",
    "is_magnetic",
    "ordering",
    "total_magnetization_normalized_vol",
    "total_magnetization_normalized_formula_units",
    "num_magnetic_sites",
    "num_unique_magnetic_sites",
    "types_of_magnetic_species",
    "bulk_modulus",
    "shear_modulus",
    "universal_anisotropy",
    "homogeneous_poisson",
    "e_total",
    "e_ionic",
    "e_electronic",
    "n",
    "e_ij_max",
    "weighted_surface_energy_EV_PER_ANG2",
    "weighted_surface_energy",
    "weighted_work_function",
    "surface_anisotropy",
    "shape_factor",
    "has_reconstructed",
    "possible_species",
    "has_props",
    "theoretical",
    "database_IDs"
  ]
}
