{
  "builder_meta": null,
  "nsites": null,
  "elements": null,
  "nelements": null,
  "composition": null,
  "composition_reduced": null,
  "formula_pretty": "BF3",
  "formula_anonymous": "AB3",
  "chemsys": null,
  "volume": 413.9096651530094,
  "density": 2.176220938590456,
  "density_atomic": 12.934677036031545,
  "symmetry": null,
  "property_name": null,
  "material_id": "mp-27896",
  "deprecated": null,
  "deprecation_reasons": null,
  "last_updated": null,
  "origins": null,
  "warnings": null,
  "structure": {
    "@module": "pymatgen.core.structure",
    "@class": "Structure",
    "charge": 0,
    "lattice": {
      "matrix": [
        [-4.54547168, -0.03379541, -0.01330571],
        [2.15837947, 6.77671979, 0.051838340000000004],
        [-0.24087656000000002, -0.74464955, -13.47474938]
      ],
      "pbc": [true, true, true],
      "a": 4.545616786018999,
      "b": 7.112328750992116,
      "c": 13.497458846882367,
      "alpha": 93.74168588083931,
      "beta": 88.78650525618235,
      "gamma": 108.09332548233041,
      "volume": 413.9096651530095
    },
    "properties": {},
    "sites": [
      {
        "species": [{ "element": "B", "occu": 1 }],
        "abc": [0.86234749, 0.23887536, 0.36534985000000003],
        "properties": { "magmom": -0.0 },
        "label": "B",
        "xyz": [-3.4921966362657404, 1.317590391073286, -4.9220889082624595]
      },
      {
        "species": [{ "element": "B", "occu": 1 }],
        "abc": [0.13765251, 0.76112464, 0.63465015],
        "properties": { "magmom": -0.0 },
        "label": "B",
        "xyz": [0.8642278662657397, 4.680684438926713, -8.514127841737542]
      },
      {
        "species": [{ "element": "B", "occu": 1 }],
        "abc": [0.48784258, 0.72815198, 0.38451141],
        "properties": { "magmom": -0.0 },
        "label": "B",
        "xyz": [-0.7384661327378339, 4.63166884456076, -5.149939785484645]
      },
      {
        "species": [{ "element": "B", "occu": 1 }],
        "abc": [0.51215742, 0.27184802, 0.61548859],
        "properties": { "magmom": -0.0 },
        "label": "B",
        "xyz": [-1.8895026372621666, 1.3666059854392392, -8.286276964515356]
      },
      {
        "species": [{ "element": "B", "occu": 1 }],
        "abc": [0.85726829, 0.73675966, 0.13466969],
        "properties": { "magmom": -0.0 },
        "label": "B",
        "xyz": [-2.3389205815523137, 4.8635603109979835, -1.787854487337864]
      },
      {
        "species": [{ "element": "B", "occu": 1 }],
        "abc": [0.14273171, 0.26324034, 0.86533031],
        "properties": { "magmom": -0.0 },
        "label": "B",
        "xyz": [-0.28904818844768665, 1.1347145190020167, -11.648362262662138]
      },
      {
        "species": [{ "element": "B", "occu": 1 }],
        "abc": [0.51807388, 0.77685708, 0.88389066],
        "properties": { "magmom": 0.0 },
        "label": "B",
        "xyz": [-0.8910463186885005, 4.588845446634519, -11.876827482184199]
      },
      {
        "species": [{ "element": "B", "occu": 1 }],
        "abc": [0.48192612, 0.22314292, 0.11610934],
        "properties": { "magmom": 0.0 },
        "label": "B",
        "xyz": [-1.7369224513115, 1.4094293833654803, -1.5593892678158017]
      },
      {
        "species": [{ "element": "F", "occu": 1 }],
        "abc": [0.76184588, 0.30635401, 0.44873227],
        "properties": { "magmom": 0.0 },
        "label": "F",
        "xyz": [-2.909809751887095, 1.7161801055154684, -6.040810893981725]
      },
      {
        "species": [{ "element": "F", "occu": 1 }],
        "abc": [0.23815412, 0.69364599, 0.5512677300000001],
        "properties": { "magmom": 0.0 },
        "label": "F",
        "xyz": [0.28184098188709483, 4.282094724484531, -7.395405856018277]
      },
      {
        "species": [{ "element": "F", "occu": 1 }],
        "abc": [0.07873472000000001, 0.15247365000000002, 0.36638777],
        "properties": { "magmom": 0.0 },
        "label": "F",
        "xyz": [-0.11704466978043539, 0.7577798412088947, -4.930127017088593]
      },
      {
        "species": [{ "element": "F", "occu": 1 }],
        "abc": [0.92126528, 0.84752635, 0.63361223],
        "properties": { "magmom": 0.0 },
        "label": "F",
        "xyz": [-2.510924100219565, 5.240494988791105, -8.506089732911407]
      },
      {
        "species": [{ "element": "F", "occu": 1 }],
        "abc": [0.74315782, 0.26181702, 0.27990228],
        "properties": { "magmom": 0.0 },
        "label": "F",
        "xyz": [-2.880324242058515, 1.5407161507252456, -3.7679291566271917]
      },
      {
        "species": [{ "element": "F", "occu": 1 }],
        "abc": [0.25684218000000003, 0.73818298, 0.72009772],
        "properties": { "magmom": 0.0 },
        "label": "F",
        "xyz": [0.2523554720585149, 4.457558679274754, -9.668287593372808]
      },
      {
        "species": [{ "element": "F", "occu": 1 }],
        "abc": [0.73742157, 0.70604699, 0.42274261],
        "properties": { "magmom": 0.0 },
        "label": "F",
        "xyz": [-1.929840320247064, 4.4449660511996125, -5.6695623356316505]
      },
      {
        "species": [{ "element": "F", "occu": 1 }],
        "abc": [0.26257843000000003, 0.29395301, 0.57725739],
        "properties": { "magmom": 0.0 },
        "label": "F",
        "xyz": [-0.6981284497529364, 1.553308778800387, -7.76665441436835]
      },
      {
        "species": [{ "element": "F", "occu": 1 }],
        "abc": [0.26634064, 0.57215127, 0.34722209],
        "properties": { "magmom": -0.0 },
        "label": "F",
        "xyz": [-0.059361944045859, 3.6097489700856107, -4.652615121201167]
      },
      {
        "species": [{ "element": "F", "occu": 1 }],
        "abc": [0.73365936, 0.42784873, 0.65277791],
        "properties": { "magmom": -0.0 },
        "label": "F",
        "xyz": [-2.5686068259541415, 2.3885258599143886, -8.783601628798833]
      },
      {
        "species": [{ "element": "F", "occu": 1 }],
        "abc": [0.455797499999999, 0.90667675, 0.3818901],
        "properties": { "magmom": -0.0 },
        "label": "F",
        "xyz": [-0.20685051852452901, 5.844516120353953, -5.104937479920268]
      },
      {
        "species": [{ "element": "F", "occu": 1 }],
        "abc": [0.544202499999999, 0.09332325, 0.6181099],
        "properties": { "magmom": -0.0 },
        "label": "F",
        "xyz": [-2.4211182514754626, 0.15375870964604743, -8.331279270079731]
      },
      {
        "species": [{ "element": "F", "occu": 1 }],
        "abc": [0.07384859, 0.65001908, 0.13219415],
        "properties": { "magmom": 0.0 },
        "label": "F",
        "xyz": [1.0354686908232322, 4.304063105626488, -1.7485697385990489]
      },
      {
        "species": [{ "element": "F", "occu": 1 }],
        "abc": [0.92615141, 0.34998092000000003, 0.86780585],
        "properties": { "magmom": 0.0 },
        "label": "F",
        "xyz": [-3.6634374608232325, 1.6942117243735113, -11.687647011400951]
      },
      {
        "species": [{ "element": "F", "occu": 1 }],
        "abc": [0.7499914400000001, 0.78842261, 0.22089153],
        "properties": { "magmom": 0.0 },
        "label": "F",
        "xyz": [-1.76055726753414, 5.15308605744585, -2.9455666561970064]
      },
      {
        "species": [{ "element": "F", "occu": 1 }],
        "abc": [0.25000856, 0.21157739, 0.77910847],
        "properties": { "magmom": 0.0 },
        "label": "F",
        "xyz": [-0.8674115024658607, 0.8451887725541499, -10.490650093802994]
      },
      {
        "species": [{ "element": "F", "occu": 1 }],
        "abc": [0.74328644, 0.77551402, 0.05181328],
        "properties": { "magmom": 0.0 },
        "label": "F",
        "xyz": [-1.717214528331567, 5.191738801133192, -0.6678595569298121]
      },
      {
        "species": [{ "element": "F", "occu": 1 }],
        "abc": [0.25671356, 0.22448598, 0.94818672],
        "properties": { "magmom": 0.0 },
        "label": "F",
        "xyz": [-0.9107542416684334, 0.8065360288668085, -12.76835719307019]
      },
      {
        "species": [{ "element": "F", "occu": 1 }],
        "abc": [0.5386177600000001, 0.59634172, 0.86485841],
        "properties": { "magmom": 0.0 },
        "label": "F",
        "xyz": [-1.3694641675604182, 3.3790215016739413, -11.630003650813151]
      },
      {
        "species": [{ "element": "F", "occu": 1 }],
        "abc": [0.46138224, 0.40365828000000004, 0.13514159],
        "properties": { "magmom": 0.0 },
        "label": "F",
        "xyz": [-1.258504602439582, 2.6192533283260584, -1.8062130991868495]
      },
      {
        "species": [{ "element": "F", "occu": 1 }],
        "abc": [0.27344643, 0.80339859, 0.9286600700000001],
        "properties": { "magmom": -0.0 },
        "label": "F",
        "xyz": [0.2674035762498854, 4.743639586667741, -12.475453252097433]
      },
      {
        "species": [{ "element": "F", "occu": 1 }],
        "abc": [0.72655357, 0.19660141, 0.07133993],
        "properties": { "magmom": -0.0 },
        "label": "F",
        "xyz": [-2.895372346249886, 1.2546352433322585, -0.9607634979025687]
      },
      {
        "species": [{ "element": "F", "occu": 1 }],
        "abc": [0.74787471, 0.9307074200000001, 0.85656897],
        "properties": { "magmom": -0.0 },
        "label": "F",
        "xyz": [-1.5969509134848896, 5.644024961306298, -11.50375687376385]
      },
      {
        "species": [{ "element": "F", "occu": 1 }],
        "abc": [0.25212529, 0.06929258, 0.14343103000000001],
        "properties": { "magmom": -0.0 },
        "label": "F",
        "xyz": [-1.0310178565151116, 0.35424986869370284, -1.9324598762361505]
      }
    ]
  },
  "task_ids": null,
  "uncorrected_energy_per_atom": null,
  "energy_per_atom": -7.1087671278125,
  "formation_energy_per_atom": -2.927657615937501,
  "energy_above_hull": 0.0,
  "is_stable": true,
  "equilibrium_reaction_energy_per_atom": null,
  "decomposes_to": null,
  "xas": null,
  "grain_boundaries": null,
  "band_gap": 8.1347,
  "cbm": null,
  "vbm": null,
  "efermi": -5.36991149,
  "is_gap_direct": null,
  "is_metal": null,
  "es_source_calc_id": null,
  "bandstructure": null,
  "dos": null,
  "dos_energy_up": null,
  "dos_energy_down": null,
  "is_magnetic": null,
  "ordering": null,
  "total_magnetization": 0.0,
  "total_magnetization_normalized_vol": null,
  "total_magnetization_normalized_formula_units": null,
  "num_magnetic_sites": null,
  "num_unique_magnetic_sites": null,
  "types_of_magnetic_species": null,
  "bulk_modulus": null,
  "shear_modulus": null,
  "universal_anisotropy": null,
  "homogeneous_poisson": null,
  "e_total": null,
  "e_ionic": null,
  "e_electronic": null,
  "n": null,
  "e_ij_max": null,
  "weighted_surface_energy_EV_PER_ANG2": null,
  "weighted_surface_energy": null,
  "weighted_work_function": null,
  "surface_anisotropy": null,
  "shape_factor": null,
  "has_reconstructed": null,
  "possible_species": null,
  "has_props": null,
  "theoretical": null,
  "database_IDs": null,
  "fields_not_requested": [
    "builder_meta",
    "nsites",
    "elements",
    "nelements",
    "composition",
    "composition_reduced",
    "chemsys",
    "symmetry",
    "property_name",
    "deprecated",
    "deprecation_reasons",
    "last_updated",
    "origins",
    "warnings",
    "task_ids",
    "uncorrected_energy_per_atom",
    "equilibrium_reaction_energy_per_atom",
    "decomposes_to",
    "xas",
    "grain_boundaries",
    "cbm",
    "vbm",
    "is_gap_direct",
    "is_metal",
    "es_source_calc_id",
    "bandstructure",
    "dos",
    "dos_energy_up",
    "dos_energy_down",
    "is_magnetic",
    "ordering",
    "total_magnetization_normalized_vol",
    "total_magnetization_normalized_formula_units",
    "num_magnetic_sites",
    "num_unique_magnetic_sites",
    "types_of_magnetic_species",
    "bulk_modulus",
    "shear_modulus",
    "universal_anisotropy",
    "homogeneous_poisson",
    "e_total",
    "e_ionic",
    "e_electronic",
    "n",
    "e_ij_max",
    "weighted_surface_energy_EV_PER_ANG2",
    "weighted_surface_energy",
    "weighted_work_function",
    "surface_anisotropy",
    "shape_factor",
    "has_reconstructed",
    "possible_species",
    "has_props",
    "theoretical",
    "database_IDs"
  ]
}
