{
  "builder_meta": null,
  "nsites": null,
  "elements": null,
  "nelements": null,
  "composition": null,
  "composition_reduced": null,
  "formula_pretty": "BH",
  "formula_anonymous": "AB",
  "chemsys": null,
  "volume": 484.966142138472,
  "density": 0.9712419844862981,
  "density_atomic": 10.103461294551499,
  "symmetry": null,
  "property_name": null,
  "material_id": "mp-1238837",
  "deprecated": null,
  "deprecation_reasons": null,
  "last_updated": null,
  "origins": null,
  "warnings": null,
  "structure": {
    "@module": "pymatgen.core.structure",
    "@class": "Structure",
    "charge": 0,
    "lattice": {
      "matrix": [
        [6.099841, 3.671121, 0.0],
        [-6.099841, 3.671121, 0.0],
        [0.0, 0.098271, 10.828398]
      ],
      "pbc": [true, true, true],
      "a": 7.119353174405804,
      "b": 7.119353174405804,
      "c": 10.828843910401748,
      "alpha": 89.7318821918432,
      "beta": 89.7318821918432,
      "gamma": 117.91767791744635,
      "volume": 484.966142138472
    },
    "properties": {},
    "sites": [
      {
        "species": [{ "element": "B", "occu": 1 }],
        "abc": [0.816271, 0.166685, 0.594465],
        "properties": { "magmom": 0.10200000000000001 },
        "label": "B",
        "xyz": [3.962371315826, 3.666969083691, 6.43710361707]
      },
      {
        "species": [{ "element": "B", "occu": 1 }],
        "abc": [0.833314999999999, 0.183729, 0.905535],
        "properties": { "magmom": 0.10200000000000001 },
        "label": "B",
        "xyz": [3.962371315825994, 3.822679416308996, 9.805493382929999]
      },
      {
        "species": [{ "element": "B", "occu": 1 }],
        "abc": [0.183729, 0.833314999999999, 0.405535],
        "properties": { "magmom": 0.10200000000000001 },
        "label": "B",
        "xyz": [-3.962371315825994, 3.7735439163089963, 4.39129438293]
      },
      {
        "species": [{ "element": "B", "occu": 1 }],
        "abc": [0.166685, 0.816271, 0.094465],
        "properties": { "magmom": 0.10200000000000001 },
        "label": "B",
        "xyz": [-3.962371315826, 3.6178335836909996, 1.02290461707]
      },
      {
        "species": [{ "element": "B", "occu": 1 }],
        "abc": [0.8780300000000001, 0.9893500000000001, 0.682367],
        "properties": { "magmom": 0.069 },
        "label": "B",
        "xyz": [-0.6790343001200005, 6.922434820437, 7.388941458065999]
      },
      {
        "species": [{ "element": "B", "occu": 1 }],
        "abc": [0.010650000000000001, 0.12197000000000001, 0.817632999999999],
        "properties": { "magmom": 0.069 },
        "label": "B",
        "xyz": [-0.67903430012, 0.567213679563, 8.853655541933989]
      },
      {
        "species": [{ "element": "B", "occu": 1 }],
        "abc": [0.12197000000000001, 0.010650000000000001, 0.317633],
        "properties": { "magmom": 0.069 },
        "label": "B",
        "xyz": [0.67903430012, 0.5180781795630001, 3.439456541934]
      },
      {
        "species": [{ "element": "B", "occu": 1 }],
        "abc": [0.9893500000000001, 0.8780300000000001, 0.182367],
        "properties": { "magmom": 0.069 },
        "label": "B",
        "xyz": [0.6790343001200005, 6.873299320437, 1.974742458066]
      },
      {
        "species": [{ "element": "B", "occu": 1 }],
        "abc": [0.6371100000000001, 0.224795, 0.682851],
        "properties": { "magmom": 0.067 },
        "label": "B",
        "xyz": [2.5150559419150005, 3.2312619961260003, 7.394182402698]
      },
      {
        "species": [{ "element": "B", "occu": 1 }],
        "abc": [0.775204999999999, 0.36289000000000005, 0.817149],
        "properties": { "magmom": 0.067 },
        "label": "B",
        "xyz": [2.5150559419149943, 4.2583865038739965, 8.848414597302]
      },
      {
        "species": [{ "element": "B", "occu": 1 }],
        "abc": [0.36289000000000005, 0.775204999999999, 0.317148999999999],
        "properties": { "magmom": 0.067 },
        "label": "B",
        "xyz": [-2.5150559419149943, 4.209251003873996, 3.434215597301989]
      },
      {
        "species": [{ "element": "B", "occu": 1 }],
        "abc": [0.224795, 0.6371100000000001, 0.18285099999999901],
        "properties": { "magmom": 0.067 },
        "label": "B",
        "xyz": [-2.5150559419150005, 3.182126496126, 1.9799834026979892]
      },
      {
        "species": [{ "element": "B", "occu": 1 }],
        "abc": [0.736966, 0.941423999999999, 0.824257999999999],
        "properties": { "magmom": 0.081 },
        "label": "B",
        "xyz": [-1.247161291177994, 6.242573433107996, 8.92539367868399]
      },
      {
        "species": [{ "element": "B", "occu": 1 }],
        "abc": [0.058575999999999004, 0.263034, 0.675742],
        "properties": { "magmom": 0.081 },
        "label": "B",
        "xyz": [-1.247161291178006, 1.2470750668919963, 7.317203321316]
      },
      {
        "species": [{ "element": "B", "occu": 1 }],
        "abc": [0.263034, 0.058575999999999004, 0.175741999999999],
        "properties": { "magmom": 0.081 },
        "label": "B",
        "xyz": [1.247161291178006, 1.1979395668919963, 1.9030043213159893]
      },
      {
        "species": [{ "element": "B", "occu": 1 }],
        "abc": [0.941423999999999, 0.736966, 0.324258],
        "properties": { "magmom": 0.081 },
        "label": "B",
        "xyz": [1.247161291177994, 6.1934379331079965, 3.511194678684]
      },
      {
        "species": [{ "element": "B", "occu": 1 }],
        "abc": [0.591448, 0.086683, 0.823793999999999],
        "properties": { "magmom": 0.092 },
        "label": "B",
        "xyz": [3.0789862423649996, 2.5704560150249995, 8.92036930201199]
      },
      {
        "species": [{ "element": "B", "occu": 1 }],
        "abc": [0.913316999999999, 0.408551999999999, 0.676206],
        "properties": { "magmom": 0.092 },
        "label": "B",
        "xyz": [3.078986242365, 4.919192484974993, 7.322227697988]
      },
      {
        "species": [{ "element": "B", "occu": 1 }],
        "abc": [0.408551999999999, 0.913316999999999, 0.176206],
        "properties": { "magmom": 0.092 },
        "label": "B",
        "xyz": [-3.078986242365, 4.870056984974993, 1.908028697988]
      },
      {
        "species": [{ "element": "B", "occu": 1 }],
        "abc": [0.086683, 0.591448, 0.323793999999999],
        "properties": { "magmom": 0.092 },
        "label": "B",
        "xyz": [-3.0789862423649996, 2.5213205150249998, 3.5061703020119896]
      },
      {
        "species": [{ "element": "B", "occu": 1 }],
        "abc": [0.609042, 0.961399, 0.685445],
        "properties": { "magmom": 0.074 },
        "label": "B",
        "xyz": [-2.1493216752369997, 5.832638299956, 7.422271267109999]
      },
      {
        "species": [{ "element": "B", "occu": 1 }],
        "abc": [0.038600999999999004, 0.39095799999999903, 0.814554999999999],
        "properties": { "magmom": 0.074 },
        "label": "B",
        "xyz": [-2.1493216752369997, 1.6570102000439926, 8.82032573288999]
      },
      {
        "species": [{ "element": "B", "occu": 1 }],
        "abc": [0.39095799999999903, 0.038600999999999004, 0.314555],
        "properties": { "magmom": 0.074 },
        "label": "B",
        "xyz": [2.1493216752369997, 1.6078747000439926, 3.40612673289]
      },
      {
        "species": [{ "element": "B", "occu": 1 }],
        "abc": [0.961399, 0.609042, 0.185445],
        "properties": { "magmom": 0.074 },
        "label": "B",
        "xyz": [2.1493216752369997, 5.783502799956, 2.00807226711]
      },
      {
        "species": [{ "element": "H", "occu": 1 }],
        "abc": [0.855254, 0.904813, 0.129738],
        "properties": { "magmom": 0.037 },
        "label": "H",
        "xyz": [-0.30230202011900076, 6.474168408104999, 1.404854699724]
      },
      {
        "species": [{ "element": "H", "occu": 1 }],
        "abc": [0.095187, 0.14474599999999901, 0.370262],
        "properties": { "magmom": 0.037 },
        "label": "H",
        "xyz": [-0.302302020118994, 0.9172090918949963, 4.009344300276]
      },
      {
        "species": [{ "element": "H", "occu": 1 }],
        "abc": [0.14474599999999901, 0.095187, 0.870262],
        "properties": { "magmom": 0.037 },
        "label": "H",
        "xyz": [0.302302020118994, 0.9663445918949963, 9.423543300276]
      },
      {
        "species": [{ "element": "H", "occu": 1 }],
        "abc": [0.904813, 0.855254, 0.629738],
        "properties": { "magmom": 0.037 },
        "label": "H",
        "xyz": [0.30230202011900076, 6.5233039081049995, 6.819053699724]
      },
      {
        "species": [{ "element": "H", "occu": 1 }],
        "abc": [0.505726999999999, 0.260672, 0.632417],
        "properties": { "magmom": 0.04 },
        "label": "H",
        "xyz": [1.494796536254994, 2.875691714285997, 6.848062977966]
      },
      {
        "species": [{ "element": "H", "occu": 1 }],
        "abc": [0.739328, 0.494272999999999, 0.867583],
        "properties": { "magmom": 0.04 },
        "label": "H",
        "xyz": [1.4947965362550057, 4.613956785713996, 9.394534022034]
      },
      {
        "species": [{ "element": "H", "occu": 1 }],
        "abc": [0.494272999999999, 0.739328, 0.367583],
        "properties": { "magmom": 0.04 },
        "label": "H",
        "xyz": [-1.4947965362550057, 4.564821285713996, 3.9803350220339997]
      },
      {
        "species": [{ "element": "H", "occu": 1 }],
        "abc": [0.260672, 0.505726999999999, 0.132417],
        "properties": { "magmom": 0.04 },
        "label": "H",
        "xyz": [-1.494796536254994, 2.8265562142859966, 1.433863977966]
      },
      {
        "species": [{ "element": "H", "occu": 1 }],
        "abc": [0.665640999999999, 0.768077999999999, 0.875205999999999],
        "properties": { "magmom": 0.058 },
        "label": "H",
        "xyz": [-0.6248494125170003, 5.349363297824992, 9.477078899987989]
      },
      {
        "species": [{ "element": "H", "occu": 1 }],
        "abc": [0.231922, 0.334358999999999, 0.624794],
        "properties": { "magmom": 0.058 },
        "label": "H",
        "xyz": [-0.6248494125169939, 2.140285202174996, 6.765518100012]
      },
      {
        "species": [{ "element": "H", "occu": 1 }],
        "abc": [0.334358999999999, 0.231922, 0.124793999999999],
        "properties": { "magmom": 0.058 },
        "label": "H",
        "xyz": [0.6248494125169939, 2.091149702174996, 1.3513191000119893]
      },
      {
        "species": [{ "element": "H", "occu": 1 }],
        "abc": [0.768077999999999, 0.665640999999999, 0.375206],
        "properties": { "magmom": 0.058 },
        "label": "H",
        "xyz": [0.6248494125170003, 5.300227797824992, 4.062879899988]
      },
      {
        "species": [{ "element": "H", "occu": 1 }],
        "abc": [0.430589, 0.031809, 0.885587],
        "properties": { "magmom": 0.064 },
        "label": "H",
        "xyz": [2.43249459398, 1.784546528235, 9.589488499626]
      },
      {
        "species": [{ "element": "H", "occu": 1 }],
        "abc": [0.968190999999999, 0.569411, 0.614413],
        "properties": { "magmom": 0.064 },
        "label": "H",
        "xyz": [2.432494593979994, 5.7051019717649964, 6.653108500374]
      },
      {
        "species": [{ "element": "H", "occu": 1 }],
        "abc": [0.569411, 0.968190999999999, 0.114413],
        "properties": { "magmom": 0.064 },
        "label": "H",
        "xyz": [-2.432494593979994, 5.655966471764997, 1.238909500374]
      },
      {
        "species": [{ "element": "H", "occu": 1 }],
        "abc": [0.031809, 0.430589, 0.385586999999999],
        "properties": { "magmom": 0.064 },
        "label": "H",
        "xyz": [-2.43249459398, 1.7354110282349997, 4.17528949962599]
      },
      {
        "species": [{ "element": "H", "occu": 1 }],
        "abc": [0.46487000000000006, 0.812321, 0.638687999999999],
        "properties": { "magmom": 0.011 },
        "label": "H",
        "xyz": [-2.1193958552909993, 4.7514872095589995, 6.915967861823989]
      },
      {
        "species": [{ "element": "H", "occu": 1 }],
        "abc": [0.187678999999999, 0.53513, 0.861312],
        "properties": { "magmom": 0.011 },
        "label": "H",
        "xyz": [-2.119395855291006, 2.7381612904409964, 9.326629138176]
      },
      {
        "species": [{ "element": "H", "occu": 1 }],
        "abc": [0.53513, 0.187678999999999, 0.361311999999999],
        "properties": { "magmom": 0.011 },
        "label": "H",
        "xyz": [2.119395855291006, 2.689025790440996, 3.9124301381759894]
      },
      {
        "species": [{ "element": "H", "occu": 1 }],
        "abc": [0.812321, 0.46487000000000006, 0.138688],
        "properties": { "magmom": 0.011 },
        "label": "H",
        "xyz": [2.1193958552909993, 4.702351709559, 1.5017688618240002]
      },
      {
        "species": [{ "element": "H", "occu": 1 }],
        "abc": [0.191256999999999, 0.844258, 0.517193999999999],
        "properties": { "magmom": 0.049 },
        "label": "H",
        "xyz": [-3.9832022728410053, 3.852326033888996, 5.6003824752119895]
      },
      {
        "species": [{ "element": "H", "occu": 1 }],
        "abc": [0.155742, 0.808743, 0.982806],
        "properties": { "magmom": 0.049 },
        "label": "H",
        "xyz": [-3.9832022728409995, 3.637322466111, 10.642214524787999]
      },
      {
        "species": [{ "element": "H", "occu": 1 }],
        "abc": [0.808743, 0.155742, 0.482805999999999],
        "properties": { "magmom": 0.049 },
        "label": "H",
        "xyz": [3.9832022728409995, 3.588186966111, 5.228015524787989]
      },
      {
        "species": [{ "element": "H", "occu": 1 }],
        "abc": [0.844258, 0.191256999999999, 0.017194],
        "properties": { "magmom": 0.049 },
        "label": "H",
        "xyz": [3.9832022728410053, 3.803190533888996, 0.18618347521200002]
      }
    ]
  },
  "task_ids": null,
  "uncorrected_energy_per_atom": null,
  "energy_per_atom": -5.392771418219698,
  "formation_energy_per_atom": 0.007961881155302001,
  "energy_above_hull": 0.097137563655302,
  "is_stable": false,
  "equilibrium_reaction_energy_per_atom": null,
  "decomposes_to": null,
  "xas": null,
  "grain_boundaries": null,
  "band_gap": 0.0,
  "cbm": null,
  "vbm": null,
  "efermi": -2.93601005,
  "is_gap_direct": null,
  "is_metal": null,
  "es_source_calc_id": null,
  "bandstructure": null,
  "dos": null,
  "dos_energy_up": null,
  "dos_energy_down": null,
  "is_magnetic": null,
  "ordering": null,
  "total_magnetization": 3.9975683,
  "total_magnetization_normalized_vol": null,
  "total_magnetization_normalized_formula_units": null,
  "num_magnetic_sites": null,
  "num_unique_magnetic_sites": null,
  "types_of_magnetic_species": null,
  "bulk_modulus": null,
  "shear_modulus": null,
  "universal_anisotropy": null,
  "homogeneous_poisson": null,
  "e_total": null,
  "e_ionic": null,
  "e_electronic": null,
  "n": null,
  "e_ij_max": null,
  "weighted_surface_energy_EV_PER_ANG2": null,
  "weighted_surface_energy": null,
  "weighted_work_function": null,
  "surface_anisotropy": null,
  "shape_factor": null,
  "has_reconstructed": null,
  "possible_species": null,
  "has_props": null,
  "theoretical": null,
  "database_IDs": null,
  "fields_not_requested": [
    "builder_meta",
    "nsites",
    "elements",
    "nelements",
    "composition",
    "composition_reduced",
    "chemsys",
    "symmetry",
    "property_name",
    "deprecated",
    "deprecation_reasons",
    "last_updated",
    "origins",
    "warnings",
    "task_ids",
    "uncorrected_energy_per_atom",
    "equilibrium_reaction_energy_per_atom",
    "decomposes_to",
    "xas",
    "grain_boundaries",
    "cbm",
    "vbm",
    "is_gap_direct",
    "is_metal",
    "es_source_calc_id",
    "bandstructure",
    "dos",
    "dos_energy_up",
    "dos_energy_down",
    "is_magnetic",
    "ordering",
    "total_magnetization_normalized_vol",
    "total_magnetization_normalized_formula_units",
    "num_magnetic_sites",
    "num_unique_magnetic_sites",
    "types_of_magnetic_species",
    "bulk_modulus",
    "shear_modulus",
    "universal_anisotropy",
    "homogeneous_poisson",
    "e_total",
    "e_ionic",
    "e_electronic",
    "n",
    "e_ij_max",
    "weighted_surface_energy_EV_PER_ANG2",
    "weighted_surface_energy",
    "weighted_work_function",
    "surface_anisotropy",
    "shape_factor",
    "has_reconstructed",
    "possible_species",
    "has_props",
    "theoretical",
    "database_IDs"
  ]
}
