{"builder_meta": null, "nsites": null, "elements": null, "nelements": null, "composition": null, "composition_reduced": null, "formula_pretty": "BH3", "formula_anonymous": "AB3", "chemsys": null, "volume": 147.13435750634085, "density": 0.6245518580087981, "density_atomic": 9.195897344146303, "symmetry": null, "property_name": null, "material_id": "mp-634117", "deprecated": null, "deprecation_reasons": null, "last_updated": null, "origins": null, "warnings": null, "structure": {"@module": "pymatgen.core.structure", "@class": "Structure", "charge": 0, "lattice": {"matrix": [[4.29050682, -0.0276916, 0.0], [-1.48782511, 5.55050576, 0.0], [0.0, 0.0, 6.18906359]], "pbc": [true, true, true], "a": 4.290596182021454, "b": 5.746454363321759, "c": 6.18906359, "alpha": 90.0, "beta": 90.0, "gamma": 105.37529552690049, "volume": 147.13435750634085}, "properties": {}, "sites": [{"species": [{"element": "B", "occu": 1}], "abc": [0.5021379, 0.64462371, 0.45619023000000003], "properties": {"magmom": -0.0}, "label": "B", "xyz": [1.1953387422911201, 3.5640826135159296, 2.823390342606726]}, {"species": [{"element": "B", "occu": 1}], "abc": [0.9978621, 0.85537629, 0.95619023], "properties": {"magmom": -0.0}, "label": "B", "xyz": [3.00868382270888, 4.72013862648407, 5.917922137606726]}, {"species": [{"element": "B", "occu": 1}], "abc": [0.4978621, 0.35537629, 0.54380977], "properties": {"magmom": -0.0}, "label": "B", "xyz": [1.6073429677088802, 1.9587315464840702, 3.365673247393274]}, {"species": [{"element": "B", "occu": 1}], "abc": [0.0021379, 0.14462371000000002, 0.04380977], "properties": {"magmom": -0.0}, "label": "B", "xyz": [-0.20600211270888014, 0.8026755335159297, 0.2711414523932743]}, {"species": [{"element": "H", "occu": 1}], "abc": [0.28454873, 0.67132463, 0.34882195], "properties": {"magmom": -0.0}, "label": "H", "xyz": [0.2220446252118794, 3.718311616033201, 2.1588812301378004]}, {"species": [{"element": "H", "occu": 1}], "abc": [0.21545127, 0.82867537, 0.84882195], "properties": {"magmom": -0.0}, "label": "H", "xyz": [-0.3085288802118793, 4.593601223966799, 5.2534130251378]}, {"species": [{"element": "H", "occu": 1}], "abc": [0.71545127, 0.32867537, 0.6511780500000001], "properties": {"magmom": -0.0}, "label": "H", "xyz": [2.580637084788121, 1.8045025439667992, 4.0301823598621995]}, {"species": [{"element": "H", "occu": 1}], "abc": [0.78454873, 0.17132463, 0.15117805], "properties": {"magmom": -0.0}, "label": "H", "xyz": [3.111210590211879, 0.9292129360332008, 0.9356505648621996]}, {"species": [{"element": "H", "occu": 1}], "abc": [0.7225585, 0.81036971, 0.50475569], "properties": {"magmom": 0.0}, "label": "H", "xyz": [1.894453769177552, 4.47795294212593, 3.1239650628243267]}, {"species": [{"element": "H", "occu": 1}], "abc": [0.7774415, 0.68963029, 0.00475569], "properties": {"magmom": 0.0}, "label": "H", "xyz": [2.309568795822448, 3.8062682978740705, 0.0294332678243271]}, {"species": [{"element": "H", "occu": 1}], "abc": [0.2774415, 0.18963029, 0.49524431], "properties": {"magmom": 0.0}, "label": "H", "xyz": [0.9082279408224483, 1.0448612178740706, 3.065098527175673]}, {"species": [{"element": "H", "occu": 1}], "abc": [0.2225585, 0.31036971, 0.99524431], "properties": {"magmom": 0.0}, "label": "H", "xyz": [0.4931129141775519, 1.7165458621259297, 6.159630322175673]}, {"species": [{"element": "H", "occu": 1}], "abc": [0.61706845, 0.47594967, 0.36861349], "properties": {"magmom": 0.0}, "label": "H", "xyz": [1.9394065230096154, 2.624673772115079, 2.281372329741829]}, {"species": [{"element": "H", "occu": 1}], "abc": [0.88293155, 0.02405033, 0.86861349], "properties": {"magmom": 0.0}, "label": "H", "xyz": [3.752441151990385, 0.1090417078849208, 5.375904124741829]}, {"species": [{"element": "H", "occu": 1}], "abc": [0.38293155, 0.52405033, 0.63138651], "properties": {"magmom": 0.0}, "label": "H", "xyz": [0.8632751869903847, 2.898140387884921, 3.907691260258171]}, {"species": [{"element": "H", "occu": 1}], "abc": [0.11706845, 0.97594967, 0.13138651], "properties": {"magmom": 0.0}, "label": "H", "xyz": [-0.9497594419903846, 5.413772452115079, 0.813159465258171]}]}, "task_ids": null, "uncorrected_energy_per_atom": null, "energy_per_atom": -4.47285839375, "formation_energy_per_atom": -0.0449355434375, "energy_above_hull": 0.012223233750000001, "is_stable": false, "equilibrium_reaction_energy_per_atom": null, "decomposes_to": null, "xas": null, "grain_boundaries": null, "band_gap": 5.3252, "cbm": null, "vbm": null, "efermi": -4.29169418, "is_gap_direct": null, "is_metal": null, "es_source_calc_id": null, "bandstructure": null, "dos": null, "dos_energy_up": null, "dos_energy_down": null, "is_magnetic": null, "ordering": null, "total_magnetization": 0.0, "total_magnetization_normalized_vol": null, "total_magnetization_normalized_formula_units": null, "num_magnetic_sites": null, "num_unique_magnetic_sites": null, "types_of_magnetic_species": null, "bulk_modulus": null, "shear_modulus": null, "universal_anisotropy": null, "homogeneous_poisson": null, "e_total": null, "e_ionic": null, "e_electronic": null, "n": null, "e_ij_max": null, "weighted_surface_energy_EV_PER_ANG2": null, "weighted_surface_energy": null, "weighted_work_function": null, "surface_anisotropy": null, "shape_factor": null, "has_reconstructed": null, "possible_species": null, "has_props": null, "theoretical": null, "database_IDs": null, "fields_not_requested": ["builder_meta", "nsites", "elements", "nelements", "composition", "composition_reduced", "chemsys", "symmetry", "property_name", "deprecated", "deprecation_reasons", "last_updated", "origins", "warnings", "task_ids", "uncorrected_energy_per_atom", "equilibrium_reaction_energy_per_atom", "decomposes_to", "xas", "grain_boundaries", "cbm", "vbm", "is_gap_direct", "is_metal", "es_source_calc_id", "bandstructure", "dos", "dos_energy_up", "dos_energy_down", "is_magnetic", "ordering", "total_magnetization_normalized_vol", "total_magnetization_normalized_formula_units", "num_magnetic_sites", "num_unique_magnetic_sites", "types_of_magnetic_species", "bulk_modulus", "shear_modulus", "universal_anisotropy", "homogeneous_poisson", "e_total", "e_ionic", "e_electronic", "n", "e_ij_max", "weighted_surface_energy_EV_PER_ANG2", "weighted_surface_energy", "weighted_work_function", "surface_anisotropy", "shape_factor", "has_reconstructed", "possible_species", "has_props", "theoretical", "database_IDs"]}