{"builder_meta": null, "nsites": null, "elements": null, "nelements": null, "composition": null, "composition_reduced": null, "formula_pretty": "Bi2Ir", "formula_anonymous": "AB2", "chemsys": null, "volume": 300.6365088474165, "density": 13.481051630842188, "density_atomic": 25.053042403951377, "symmetry": null, "property_name": null, "material_id": "mp-1101783", "deprecated": null, "deprecation_reasons": null, "last_updated": null, "origins": null, "warnings": null, "structure": {"@module": "pymatgen.core.structure", "@class": "Structure", "charge": 0, "lattice": {"matrix": [[0.0, -6.84486957, 0.0], [-6.21945976, 0.0, 3.07148358], [-0.08273775, 0.0, -7.02107759]], "pbc": [true, true, true], "a": 6.84486957, "b": 6.936547490536547, "c": 7.0215650719818345, "alpha": 115.60733466674228, "beta": 90.0, "gamma": 90.0, "volume": 300.6365088474165}, "properties": {}, "sites": [{"species": [{"element": "Bi", "occu": 1}], "abc": [0.86021709, 0.65329009, 0.32576242], "properties": {"magmom": -0.0}, "label": "Bi", "xyz": [-4.0900642760271335, -5.888073782934952, -0.2806334423144454]}, {"species": [{"element": "Bi", "occu": 1}], "abc": [0.36021709, 0.34670991, 0.17423758], "properties": {"magmom": -0.0}, "label": "Bi", "xyz": [-2.1707643589728667, -2.4656389979349513, -0.15842177268555435]}, {"species": [{"element": "Bi", "occu": 1}], "abc": [0.13978291, 0.34670991, 0.67423758], "properties": {"magmom": -0.0}, "label": "Bi", "xyz": [-2.212133233972867, -0.9567957870650488, -3.668960567685555]}, {"species": [{"element": "Bi", "occu": 1}], "abc": [0.63978291, 0.65329009, 0.82576242], "properties": {"magmom": -0.0}, "label": "Bi", "xyz": [-4.131433151027134, -4.379230572065048, -3.7911722373144454]}, {"species": [{"element": "Bi", "occu": 1}], "abc": [0.13855763000000001, 0.85418609, 0.12160846], "properties": {"magmom": -0.0}, "label": "Bi", "xyz": [-5.322637624668104, -0.9484089052783192, 1.769796116438991]}, {"species": [{"element": "Bi", "occu": 1}], "abc": [0.63855763, 0.14581391, 0.37839154], "properties": {"magmom": -0.0}, "label": "Bi", "xyz": [-0.9381910103318966, -4.370843690278319, -2.208851331438991]}, {"species": [{"element": "Bi", "occu": 1}], "abc": [0.86144237, 0.14581391, 0.87839154], "properties": {"magmom": -0.0}, "label": "Bi", "xyz": [-0.9795598853318965, -5.8964606647216815, -5.719390126438991]}, {"species": [{"element": "Bi", "occu": 1}], "abc": [0.36144237, 0.85418609, 0.62160846], "properties": {"magmom": -0.0}, "label": "Bi", "xyz": [-5.364006499668104, -2.474025879721681, -1.7407426785610087]}, {"species": [{"element": "Ir", "occu": 1}], "abc": [0.49881031000000003, 0.72873432, 0.21099381], "properties": {"magmom": 0.0}, "label": "Ir", "xyz": [-4.549790932074291, -3.414291512121267, 0.756891587042748]}, {"species": [{"element": "Ir", "occu": 1}], "abc": [0.99881031, 0.27126568, 0.28900619], "properties": {"magmom": 0.0}, "label": "Ir", "xyz": [-1.7110377029257093, -6.836726297121267, -1.1959468020427475]}, {"species": [{"element": "Ir", "occu": 1}], "abc": [0.50118969, 0.27126568, 0.78900619], "properties": {"magmom": 0.0}, "label": "Ir", "xyz": [-1.7524065779257094, -3.4305780578787335, -4.7064855970427475]}, {"species": [{"element": "Ir", "occu": 1}], "abc": [0.00118969, 0.72873432, 0.7109938100000001], "properties": {"magmom": 0.0}, "label": "Ir", "xyz": [-4.591159807074291, -0.0081432728787333, -2.7536472079572523]}]}, "task_ids": null, "uncorrected_energy_per_atom": null, "energy_per_atom": -56.53177393000001, "formation_energy_per_atom": -0.077140283333335, "energy_above_hull": 0.0, "is_stable": true, "equilibrium_reaction_energy_per_atom": null, "decomposes_to": null, "xas": null, "grain_boundaries": null, "band_gap": 0.0, "cbm": null, "vbm": null, "efermi": 6.76314072, "is_gap_direct": null, "is_metal": null, "es_source_calc_id": null, "bandstructure": null, "dos": null, "dos_energy_up": null, "dos_energy_down": null, "is_magnetic": null, "ordering": null, "total_magnetization": 0.0, "total_magnetization_normalized_vol": null, "total_magnetization_normalized_formula_units": null, "num_magnetic_sites": null, "num_unique_magnetic_sites": null, "types_of_magnetic_species": null, "bulk_modulus": null, "shear_modulus": null, "universal_anisotropy": null, "homogeneous_poisson": null, "e_total": null, "e_ionic": null, "e_electronic": null, "n": null, "e_ij_max": null, "weighted_surface_energy_EV_PER_ANG2": null, "weighted_surface_energy": null, "weighted_work_function": null, "surface_anisotropy": null, "shape_factor": null, "has_reconstructed": null, "possible_species": null, "has_props": null, "theoretical": null, "database_IDs": null, "fields_not_requested": ["builder_meta", "nsites", "elements", "nelements", "composition", "composition_reduced", "chemsys", "symmetry", "property_name", "deprecated", "deprecation_reasons", "last_updated", "origins", "warnings", "task_ids", "uncorrected_energy_per_atom", "equilibrium_reaction_energy_per_atom", "decomposes_to", "xas", "grain_boundaries", "cbm", "vbm", "is_gap_direct", "is_metal", "es_source_calc_id", "bandstructure", "dos", "dos_energy_up", "dos_energy_down", "is_magnetic", "ordering", "total_magnetization_normalized_vol", "total_magnetization_normalized_formula_units", "num_magnetic_sites", "num_unique_magnetic_sites", "types_of_magnetic_species", "bulk_modulus", "shear_modulus", "universal_anisotropy", "homogeneous_poisson", "e_total", "e_ionic", "e_electronic", "n", "e_ij_max", "weighted_surface_energy_EV_PER_ANG2", "weighted_surface_energy", "weighted_work_function", "surface_anisotropy", "shape_factor", "has_reconstructed", "possible_species", "has_props", "theoretical", "database_IDs"]}