{"builder_meta": null, "nsites": null, "elements": null, "nelements": null, "composition": null, "composition_reduced": null, "formula_pretty": "Bi2O5", "formula_anonymous": "A2B5", "chemsys": null, "volume": 241.31136279472346, "density": 6.853207166391006, "density_atomic": 17.236525913908817, "symmetry": null, "property_name": null, "material_id": "mp-1043373", "deprecated": null, "deprecation_reasons": null, "last_updated": null, "origins": null, "warnings": null, "structure": {"@module": "pymatgen.core.structure", "@class": "Structure", "charge": 0, "lattice": {"matrix": [[2.13092, -5.555424, 0.0], [2.13092, 5.555424, 0.0], [0.0, 0.0, 10.192094]], "pbc": [true, true, true], "a": 5.950088727588523, "b": 5.950088727588523, "c": 10.192094, "alpha": 90.0, "beta": 90.0, "gamma": 138.02890178114043, "volume": 241.31136279472346}, "properties": {}, "sites": [{"species": [{"element": "Bi", "occu": 1}], "abc": [0.635921, 0.364079, 0.5615], "properties": {"magmom": 0.0}, "label": "Bi", "xyz": [2.13092, -1.5101975710080002, 5.7228607810000005]}, {"species": [{"element": "Bi", "occu": 1}], "abc": [0.364079, 0.635921, 0.4385], "properties": {"magmom": 0.0}, "label": "Bi", "xyz": [2.13092, 1.5101975710080002, 4.469233219]}, {"species": [{"element": "Bi", "occu": 1}], "abc": [0.364079, 0.635921, 0.061500000000000006], "properties": {"magmom": 0.0}, "label": "Bi", "xyz": [2.13092, 1.5101975710080002, 0.6268137810000001]}, {"species": [{"element": "Bi", "occu": 1}], "abc": [0.635921, 0.364079, 0.9385], "properties": {"magmom": 0.0}, "label": "Bi", "xyz": [2.13092, -1.5101975710080002, 9.565280219000002]}, {"species": [{"element": "O", "occu": 1}], "abc": [0.714131, 0.285869, 0.75], "properties": {"magmom": 0.0}, "label": "O", "xyz": [2.1309199999999997, -2.379176993088, 7.644070500000001]}, {"species": [{"element": "O", "occu": 1}], "abc": [0.453636999999999, 0.546362999999999, 0.624679], "properties": {"magmom": -0.001}, "label": "O", "xyz": [2.130919999999996, 0.5151322458240002, 6.366787087826]}, {"species": [{"element": "O", "occu": 1}], "abc": [0.18598699999999901, 0.814013, 0.536492], "properties": {"magmom": 0.0}, "label": "O", "xyz": [2.130919999999998, 3.4889507130240056, 5.467976894248]}, {"species": [{"element": "O", "occu": 1}], "abc": [0.814013, 0.18598699999999901, 0.463508], "properties": {"magmom": 0.0}, "label": "O", "xyz": [2.130919999999998, -3.4889507130240056, 4.724117105752]}, {"species": [{"element": "O", "occu": 1}], "abc": [0.546362999999999, 0.453636999999999, 0.375320999999999], "properties": {"magmom": -0.001}, "label": "O", "xyz": [2.130919999999996, -0.5151322458240002, 3.8253069121739904]}, {"species": [{"element": "O", "occu": 1}], "abc": [0.285869, 0.714131, 0.25], "properties": {"magmom": 0.0}, "label": "O", "xyz": [2.1309199999999997, 2.379176993088, 2.5480235]}, {"species": [{"element": "O", "occu": 1}], "abc": [0.546362999999999, 0.453636999999999, 0.124679], "properties": {"magmom": -0.001}, "label": "O", "xyz": [2.130919999999996, -0.5151322458240002, 1.270740087826]}, {"species": [{"element": "O", "occu": 1}], "abc": [0.453636999999999, 0.546362999999999, 0.875321], "properties": {"magmom": -0.001}, "label": "O", "xyz": [2.130919999999996, 0.5151322458240002, 8.921353912174]}, {"species": [{"element": "O", "occu": 1}], "abc": [0.814013, 0.18598699999999901, 0.036492], "properties": {"magmom": 0.0}, "label": "O", "xyz": [2.130919999999998, -3.4889507130240056, 0.371929894248]}, {"species": [{"element": "O", "occu": 1}], "abc": [0.18598699999999901, 0.814013, 0.963507999999999], "properties": {"magmom": 0.0}, "label": "O", "xyz": [2.130919999999998, 3.4889507130240056, 9.82016410575199]}]}, "task_ids": null, "uncorrected_energy_per_atom": null, "energy_per_atom": -5.751003317857143, "formation_energy_per_atom": -1.105307082857145, "energy_above_hull": 0.14591931142857, "is_stable": false, "equilibrium_reaction_energy_per_atom": null, "decomposes_to": null, "xas": null, "grain_boundaries": null, "band_gap": 0.0, "cbm": null, "vbm": null, "efermi": 1.53533787, "is_gap_direct": null, "is_metal": null, "es_source_calc_id": null, "bandstructure": null, "dos": null, "dos_energy_up": null, "dos_energy_down": null, "is_magnetic": null, "ordering": null, "total_magnetization": 0.002137699999999, "total_magnetization_normalized_vol": null, "total_magnetization_normalized_formula_units": null, "num_magnetic_sites": null, "num_unique_magnetic_sites": null, "types_of_magnetic_species": null, "bulk_modulus": null, "shear_modulus": null, "universal_anisotropy": null, "homogeneous_poisson": null, "e_total": null, "e_ionic": null, "e_electronic": null, "n": null, "e_ij_max": null, "weighted_surface_energy_EV_PER_ANG2": null, "weighted_surface_energy": null, "weighted_work_function": null, "surface_anisotropy": null, "shape_factor": null, "has_reconstructed": null, "possible_species": null, "has_props": null, "theoretical": null, "database_IDs": null, "fields_not_requested": ["builder_meta", "nsites", "elements", "nelements", "composition", "composition_reduced", "chemsys", "symmetry", "property_name", "deprecated", "deprecation_reasons", "last_updated", "origins", "warnings", "task_ids", "uncorrected_energy_per_atom", "equilibrium_reaction_energy_per_atom", "decomposes_to", "xas", "grain_boundaries", "cbm", "vbm", "is_gap_direct", "is_metal", "es_source_calc_id", "bandstructure", "dos", "dos_energy_up", "dos_energy_down", "is_magnetic", "ordering", "total_magnetization_normalized_vol", "total_magnetization_normalized_formula_units", "num_magnetic_sites", "num_unique_magnetic_sites", "types_of_magnetic_species", "bulk_modulus", "shear_modulus", "universal_anisotropy", "homogeneous_poisson", "e_total", "e_ionic", "e_electronic", "n", "e_ij_max", "weighted_surface_energy_EV_PER_ANG2", "weighted_surface_energy", "weighted_work_function", "surface_anisotropy", "shape_factor", "has_reconstructed", "possible_species", "has_props", "theoretical", "database_IDs"]}