{"builder_meta": null, "nsites": null, "elements": null, "nelements": null, "composition": null, "composition_reduced": null, "formula_pretty": "Bi2O3", "formula_anonymous": "A2B3", "chemsys": null, "volume": 327.9206233179676, "density": 9.438175801265304, "density_atomic": 16.396031165898382, "symmetry": null, "property_name": null, "material_id": "mp-23262", "deprecated": null, "deprecation_reasons": null, "last_updated": null, "origins": null, "warnings": null, "structure": {"@module": "pymatgen.core.structure", "@class": "Structure", "charge": 0, "lattice": {"matrix": [[5.87184718, -0.04059406, 0.0], [-2.9767116, 6.90216803, 1.02e-06], [1e-08, 1.02e-06, 8.11531262]], "pbc": [true, true, true], "a": 5.871987498537547, "b": 7.516697111360128, "c": 8.115312620000063, "alpha": 89.99998564038502, "beta": 89.99999997918422, "gamma": 113.72528116653494, "volume": 327.9206233179676}, "properties": {}, "sites": [{"species": [{"element": "Bi", "occu": 1}], "abc": [0.23654822, 0.27620881, 0.45665825], "properties": {"magmom": 0.0}, "label": "Bi", "xyz": [0.566781034358406, 1.8968376311421864, 3.705924740985101]}, {"species": [{"element": "Bi", "occu": 1}], "abc": [0.26345178, 0.22379019, 0.95665825], "properties": {"magmom": 0.0}, "label": "Bi", "xyz": [0.880789746486359, 1.5339438932726142, 7.763580997518108]}, {"species": [{"element": "Bi", "occu": 1}], "abc": [0.76345178, 0.72379019, 0.54334175], "properties": {"magmom": 0.0}, "label": "Bi", "xyz": [2.3283575323531935, 4.964730456689784, 4.409388899013878]}, {"species": [{"element": "Bi", "occu": 1}], "abc": [0.73654822, 0.77620981, 0.04334175], "properties": {"magmom": 0.0}, "label": "Bi", "xyz": [2.014345843513641, 5.327631096727386, 0.3517326424818911]}, {"species": [{"element": "Bi", "occu": 1}], "abc": [0.34423372, 0.86696377, 0.31327522], "properties": {"magmom": 0.0}, "label": "Bi", "xyz": [-0.5594133097630701, 5.969956091719295, 2.542327230702322]}, {"species": [{"element": "Bi", "occu": 1}], "abc": [0.15576628, 0.63303623, 0.81327522], "properties": {"magmom": 0.0}, "label": "Bi", "xyz": [-0.9697304889714252, 4.363000072362154, 6.59998330209623]}, {"species": [{"element": "Bi", "occu": 1}], "abc": [0.65576628, 0.13303623, 0.68672478], "properties": {"magmom": 0.0}, "label": "Bi", "xyz": [3.4545488997630702, 0.8916188982807057, 5.572986409297679]}, {"species": [{"element": "Bi", "occu": 1}], "abc": [0.84423372, 0.36696377, 0.18672478], "properties": {"magmom": 0.0}, "label": "Bi", "xyz": [3.8648660789714246, 2.498574917637846, 1.515330337903769]}, {"species": [{"element": "O", "occu": 1}], "abc": [0.74120999, 0.01149175, 0.46821123000000003], "properties": {"magmom": -0.0}, "label": "O", "xyz": [4.318064168722141, 0.049229744227547695, 3.7996805153663074]}, {"species": [{"element": "O", "occu": 1}], "abc": [0.75879101, 0.48850925, 0.96821223], "properties": {"magmom": -0.0}, "label": "O", "xyz": [3.0013537107776744, 3.340971507498352, 7.857345427236776]}, {"species": [{"element": "O", "occu": 1}], "abc": [0.25879001, 0.98850925, 0.53178777], "properties": {"magmom": -0.0}, "label": "O", "xyz": [-1.4229315554337505, 6.812352147939462, 4.315625009322092]}, {"species": [{"element": "O", "occu": 1}], "abc": [0.24120999, 0.51149075, 0.03178877], "properties": {"magmom": -0.0}, "label": "O", "xyz": [-0.10621224893048399, 3.5206034419086083, 0.2579763280758424]}, {"species": [{"element": "O", "occu": 1}], "abc": [0.38856728, 0.62434405, 0.44939327], "properties": {"magmom": -0.0}, "label": "O", "xyz": [0.42311551577622314, 4.293554476533501, 3.646967512204998]}, {"species": [{"element": "O", "occu": 1}], "abc": [0.11143372, 0.8756559500000001, 0.9493932700000001], "properties": {"magmom": -0.0}, "label": "O", "xyz": [-1.9522534399411777, 6.039401924634712, 7.704624078543136]}, {"species": [{"element": "O", "occu": 1}], "abc": [0.61143372, 0.37565595, 0.55060673], "properties": {"magmom": -0.0}, "label": "O", "xyz": [2.4720259460709566, 2.56802047287244, 4.468346127795002]}, {"species": [{"element": "O", "occu": 1}], "abc": [0.8885672800000001, 0.12434405, 0.05060673], "properties": {"magmom": -0.0}, "label": "O", "xyz": [4.847394901788358, 0.8221730247712294, 0.4106895614568636]}, {"species": [{"element": "O", "occu": 1}], "abc": [0.9304586300000001, 0.70812522, 0.296856], "properties": {"magmom": -0.0}, "label": "O", "xyz": [3.3556263290141715, 4.8498284640601, 2.4090799654104442]}, {"species": [{"element": "O", "occu": 1}], "abc": [0.56954137, 0.79187478, 0.796856], "properties": {"magmom": -0.0}, "label": "O", "xyz": [0.9870770519229488, 5.442533606526141, 6.466736360834995]}, {"species": [{"element": "O", "occu": 1}], "abc": [0.06954037, 0.29187478, 0.703144], "properties": {"magmom": -0.0}, "label": "O", "xyz": [-0.46049661086135135, 2.0117465665339616, 5.706233674589555]}, {"species": [{"element": "O", "occu": 1}], "abc": [0.43045863, 0.20812522, 0.203144], "properties": {"magmom": -0.0}, "label": "O", "xyz": [1.9080585380770514, 1.4190413834738589, 1.6485772791650042]}]}, "task_ids": null, "uncorrected_energy_per_atom": null, "energy_per_atom": -6.166517542000003, "formation_energy_per_atom": -1.641727215000003, "energy_above_hull": 0.0, "is_stable": true, "equilibrium_reaction_energy_per_atom": null, "decomposes_to": null, "xas": null, "grain_boundaries": null, "band_gap": 2.194499999999999, "cbm": null, "vbm": null, "efermi": 4.50689941, "is_gap_direct": null, "is_metal": null, "es_source_calc_id": null, "bandstructure": null, "dos": null, "dos_energy_up": null, "dos_energy_down": null, "is_magnetic": null, "ordering": null, "total_magnetization": 0.0, "total_magnetization_normalized_vol": null, "total_magnetization_normalized_formula_units": null, "num_magnetic_sites": null, "num_unique_magnetic_sites": null, "types_of_magnetic_species": null, "bulk_modulus": null, "shear_modulus": null, "universal_anisotropy": null, "homogeneous_poisson": null, "e_total": null, "e_ionic": null, "e_electronic": null, "n": null, "e_ij_max": null, "weighted_surface_energy_EV_PER_ANG2": null, "weighted_surface_energy": null, "weighted_work_function": null, "surface_anisotropy": null, "shape_factor": null, "has_reconstructed": null, "possible_species": null, "has_props": null, "theoretical": null, "database_IDs": null, "fields_not_requested": ["builder_meta", "nsites", "elements", "nelements", "composition", "composition_reduced", "chemsys", "symmetry", "property_name", "deprecated", "deprecation_reasons", "last_updated", "origins", "warnings", "task_ids", "uncorrected_energy_per_atom", "equilibrium_reaction_energy_per_atom", "decomposes_to", "xas", "grain_boundaries", "cbm", "vbm", "is_gap_direct", "is_metal", "es_source_calc_id", "bandstructure", "dos", "dos_energy_up", "dos_energy_down", "is_magnetic", "ordering", "total_magnetization_normalized_vol", "total_magnetization_normalized_formula_units", "num_magnetic_sites", "num_unique_magnetic_sites", "types_of_magnetic_species", "bulk_modulus", "shear_modulus", "universal_anisotropy", "homogeneous_poisson", "e_total", "e_ionic", "e_electronic", "n", "e_ij_max", "weighted_surface_energy_EV_PER_ANG2", "weighted_surface_energy", "weighted_work_function", "surface_anisotropy", "shape_factor", "has_reconstructed", "possible_species", "has_props", "theoretical", "database_IDs"]}