{"builder_meta": null, "nsites": null, "elements": null, "nelements": null, "composition": null, "composition_reduced": null, "formula_pretty": "Bi2Pd5", "formula_anonymous": "A2B5", "chemsys": null, "volume": 253.69051058495603, "density": 12.437304575623353, "density_atomic": 18.120750756068286, "symmetry": null, "property_name": null, "material_id": "mp-30464", "deprecated": null, "deprecation_reasons": null, "last_updated": null, "origins": null, "warnings": null, "structure": {"@module": "pymatgen.core.structure", "@class": "Structure", "charge": 0, "lattice": {"matrix": [[5.43630563, 0.0012843, -2.21193693], [-1.17615743, 6.04503438, -2.88849071], [-0.01819738, -0.00339263, 7.72865717]], "pbc": [true, true, true], "a": 5.86907876369827, "b": 6.802144186746006, "c": 7.728679337763315, "alpha": 115.12698733814531, "beta": 112.27544877666872, "gamma": 89.99573513884567, "volume": 253.69051058495603}, "properties": {}, "sites": [{"species": [{"element": "Bi", "occu": 1}], "abc": [0.60045947, 0.90463485, 0.2009224], "properties": {"magmom": -0.0}, "label": "Bi", "xyz": [2.196631935820068, 5.468638284331552, -2.388347489454863]}, {"species": [{"element": "Bi", "occu": 1}], "abc": [0.39954053, 0.09536515, 0.799077599999999], "properties": {"magmom": -0.0}, "label": "Bi", "xyz": [2.0453188841799315, 0.574287765668448, 5.016577019454855]}, {"species": [{"element": "Bi", "occu": 1}], "abc": [0.87089458, 0.64533302, 0.74150907], "properties": {"magmom": -0.0}, "label": "Bi", "xyz": [3.9619423597729093, 3.899663116442168, 1.9404670737104484]}, {"species": [{"element": "Bi", "occu": 1}], "abc": [0.12910542, 0.35466698, 0.25849093], "properties": {"magmom": -0.0}, "label": "Bi", "xyz": [0.2800084602270897, 2.1432629335578324, 0.6877624562895517]}, {"species": [{"element": "Pd", "occu": 1}], "abc": [0.52476873, 0.23584933, 0.5467212300000001], "properties": {"magmom": 0.0}, "label": "Pd", "xyz": [2.5654583655305507, 1.4245364459833694, 2.3834170219697968]}, {"species": [{"element": "Pd", "occu": 1}], "abc": [0.97862801, 0.76420356, 0.45332057000000003], "properties": {"magmom": -0.0}, "label": "Pd", "xyz": [4.413048018638139, 4.6193556965062355, -0.8684990460213493]}, {"species": [{"element": "Pd", "occu": 1}], "abc": [0.47523127, 0.76415067, 0.45327877], "properties": {"magmom": 0.0}, "label": "Pd", "xyz": [1.676492454469449, 4.618389604016631, 0.24481250803020416]}, {"species": [{"element": "Pd", "occu": 1}], "abc": [0.02137199, 0.23579644, 0.54667943], "properties": {"magmom": -0.0}, "label": "Pd", "xyz": [-0.17109719863813888, 1.4235703534937632, 3.49672857602135]}, {"species": [{"element": "Pd", "occu": 1}], "abc": [0.7485612700000001, 0.50034766, 2.4030000000000002e-05], "properties": {"magmom": -0.0}, "label": "Pd", "xyz": [3.480919791325795, 3.0255801023667126, -3.1008341655291445]}, {"species": [{"element": "Pd", "occu": 1}], "abc": [0.25143873, 0.49965234000000003, -2.4030000000000002e-05], "properties": {"magmom": -0.0}, "label": "Pd", "xyz": [0.7792284086742052, 3.020738577633287, -1.9995934744708554]}, {"species": [{"element": "Pd", "occu": 1}], "abc": [0.09648105, 0.91135066, 0.19269635000000002], "properties": {"magmom": -0.0}, "label": "Pd", "xyz": [-0.5508979434966552, 5.5086162351303045, -1.356553885442216]}, {"species": [{"element": "Pd", "occu": 1}], "abc": [0.90351895, 0.08864934000000001, 0.80730365], "properties": {"magmom": -0.0}, "label": "Pd", "xyz": [4.7928487634966555, 0.5343098148696946, 3.9847834154422155]}, {"species": [{"element": "Pd", "occu": 1}], "abc": [0.36703491, 0.64190835, 0.73399843], "properties": {"magmom": -0.0}, "label": "Pd", "xyz": [1.2269718240578893, 3.878339242400415, 3.0068178511135875]}, {"species": [{"element": "Pd", "occu": 1}], "abc": [0.63296509, 0.35809165, 0.26600157], "properties": {"magmom": -0.0}, "label": "Pd", "xyz": [3.0149789959421103, 2.1645868075995844, -0.3785883211135883]}]}, "task_ids": null, "uncorrected_energy_per_atom": null, "energy_per_atom": -33.36624580785714, "formation_energy_per_atom": -0.250986444999999, "energy_above_hull": 0.0, "is_stable": true, "equilibrium_reaction_energy_per_atom": null, "decomposes_to": null, "xas": null, "grain_boundaries": null, "band_gap": 0.0, "cbm": null, "vbm": null, "efermi": 5.71120927, "is_gap_direct": null, "is_metal": null, "es_source_calc_id": null, "bandstructure": null, "dos": null, "dos_energy_up": null, "dos_energy_down": null, "is_magnetic": null, "ordering": null, "total_magnetization": 0.0, "total_magnetization_normalized_vol": null, "total_magnetization_normalized_formula_units": null, "num_magnetic_sites": null, "num_unique_magnetic_sites": null, "types_of_magnetic_species": null, "bulk_modulus": null, "shear_modulus": null, "universal_anisotropy": null, "homogeneous_poisson": null, "e_total": null, "e_ionic": null, "e_electronic": null, "n": null, "e_ij_max": null, "weighted_surface_energy_EV_PER_ANG2": null, "weighted_surface_energy": null, "weighted_work_function": null, "surface_anisotropy": null, "shape_factor": null, "has_reconstructed": null, "possible_species": null, "has_props": null, "theoretical": null, "database_IDs": null, "fields_not_requested": ["builder_meta", "nsites", "elements", "nelements", "composition", "composition_reduced", "chemsys", "symmetry", "property_name", "deprecated", "deprecation_reasons", "last_updated", "origins", "warnings", "task_ids", "uncorrected_energy_per_atom", "equilibrium_reaction_energy_per_atom", "decomposes_to", "xas", "grain_boundaries", "cbm", "vbm", "is_gap_direct", "is_metal", "es_source_calc_id", "bandstructure", "dos", "dos_energy_up", "dos_energy_down", "is_magnetic", "ordering", "total_magnetization_normalized_vol", "total_magnetization_normalized_formula_units", "num_magnetic_sites", "num_unique_magnetic_sites", "types_of_magnetic_species", "bulk_modulus", "shear_modulus", "universal_anisotropy", "homogeneous_poisson", "e_total", "e_ionic", "e_electronic", "n", "e_ij_max", "weighted_surface_energy_EV_PER_ANG2", "weighted_surface_energy", "weighted_work_function", "surface_anisotropy", "shape_factor", "has_reconstructed", "possible_species", "has_props", "theoretical", "database_IDs"]}