{"builder_meta": null, "nsites": null, "elements": null, "nelements": null, "composition": null, "composition_reduced": null, "formula_pretty": "Bi2Pt", "formula_anonymous": "AB2", "chemsys": null, "volume": 631.3623246650828, "density": 12.898898780708732, "density_atomic": 26.306763527711784, "symmetry": null, "property_name": null, "material_id": "mp-568531", "deprecated": null, "deprecation_reasons": null, "last_updated": null, "origins": null, "warnings": null, "structure": {"@module": "pymatgen.core.structure", "@class": "Structure", "charge": 0, "lattice": {"matrix": [[6.80374488, -0.0, 0.0], [-0.0, 6.87113584, 0.0], [0.0, 0.0, 13.50523382]], "pbc": [true, true, true], "a": 6.80374488, "b": 6.87113584, "c": 13.50523382, "alpha": 90.0, "beta": 90.0, "gamma": 90.0, "volume": 631.3623246650828}, "properties": {}, "sites": [{"species": [{"element": "Bi", "occu": 1}], "abc": [0.3728534, 0.5398351100000001, 0.1852482], "properties": {"magmom": 0.0}, "label": "Bi", "xyz": [2.536799411240592, 3.7092803720113428, 2.501820255734124]}, {"species": [{"element": "Bi", "occu": 1}], "abc": [0.63958779, 0.80709896, 0.06473629], "properties": {"magmom": 0.0}, "label": "Bi", "xyz": [4.351592151523015, 5.545686590482727, 0.8742787330893279]}, {"species": [{"element": "Bi", "occu": 1}], "abc": [0.13958779, 0.80709896, 0.43526371], "properties": {"magmom": 0.0}, "label": "Bi", "xyz": [0.9497197115230152, 5.545686590482727, 5.878338176910673]}, {"species": [{"element": "Bi", "occu": 1}], "abc": [0.8728534, 0.96016489, 0.814751799999999], "properties": {"magmom": 0.0}, "label": "Bi", "xyz": [5.938671851240592, 6.597423387988658, 11.003413564265864]}, {"species": [{"element": "Bi", "occu": 1}], "abc": [0.36041221, 0.30709896000000003, 0.43526371], "properties": {"magmom": 0.0}, "label": "Bi", "xyz": [2.452152728476985, 2.1101186704827266, 5.878338176910673]}, {"species": [{"element": "Bi", "occu": 1}], "abc": [0.8728534, 0.5398351100000001, 0.314751799999999], "properties": {"magmom": 0.0}, "label": "Bi", "xyz": [5.938671851240592, 3.7092803720113428, 4.250796654265863]}, {"species": [{"element": "Bi", "occu": 1}], "abc": [0.6271466, 0.46016489, 0.814751799999999], "properties": {"magmom": 0.0}, "label": "Bi", "xyz": [4.266945468759408, 3.1618554679886577, 11.003413564265864]}, {"species": [{"element": "Bi", "occu": 1}], "abc": [0.6271466, 0.03983511, 0.314751799999999], "properties": {"magmom": 0.0}, "label": "Bi", "xyz": [4.266945468759408, 0.2737124520113424, 4.250796654265863]}, {"species": [{"element": "Bi", "occu": 1}], "abc": [0.3728534, 0.96016489, 0.6852482], "properties": {"magmom": 0.0}, "label": "Bi", "xyz": [2.536799411240592, 6.597423387988658, 9.254437165734124]}, {"species": [{"element": "Bi", "occu": 1}], "abc": [0.1271466, 0.03983511, 0.1852482], "properties": {"magmom": 0.0}, "label": "Bi", "xyz": [0.865073028759408, 0.2737124520113424, 2.501820255734124]}, {"species": [{"element": "Bi", "occu": 1}], "abc": [0.86041221, 0.30709896000000003, 0.06473629], "properties": {"magmom": 0.0}, "label": "Bi", "xyz": [5.854025168476985, 2.1101186704827266, 0.8742787330893279]}, {"species": [{"element": "Bi", "occu": 1}], "abc": [0.1271466, 0.46016489, 0.6852482], "properties": {"magmom": 0.0}, "label": "Bi", "xyz": [0.865073028759408, 3.1618554679886577, 9.254437165734124]}, {"species": [{"element": "Bi", "occu": 1}], "abc": [0.13958779, 0.69290104, 0.93526371], "properties": {"magmom": 0.0}, "label": "Bi", "xyz": [0.9497197115230152, 4.761017169517273, 12.630955086910673]}, {"species": [{"element": "Bi", "occu": 1}], "abc": [0.86041221, 0.19290104, 0.56473629], "properties": {"magmom": 0.0}, "label": "Bi", "xyz": [5.854025168476985, 1.3254492495172736, 7.626895643089329]}, {"species": [{"element": "Bi", "occu": 1}], "abc": [0.36041221, 0.19290104, 0.93526371], "properties": {"magmom": 0.0}, "label": "Bi", "xyz": [2.452152728476985, 1.3254492495172736, 12.630955086910673]}, {"species": [{"element": "Bi", "occu": 1}], "abc": [0.63958779, 0.69290104, 0.56473629], "properties": {"magmom": 0.0}, "label": "Bi", "xyz": [4.351592151523015, 4.761017169517273, 7.626895643089329]}, {"species": [{"element": "Pt", "occu": 1}], "abc": [0.50281445, 0.66676693, 0.37064254], "properties": {"magmom": -0.0}, "label": "Pt", "xyz": [3.421021239777516, 4.581446149649771, 5.005614166338703]}, {"species": [{"element": "Pt", "occu": 1}], "abc": [0.50281445, 0.83323307, 0.87064254], "properties": {"magmom": -0.0}, "label": "Pt", "xyz": [3.421021239777516, 5.725257610350229, 11.758231076338703]}, {"species": [{"element": "Pt", "occu": 1}], "abc": [0.49718555000000003, 0.33323307, 0.62935746], "properties": {"magmom": -0.0}, "label": "Pt", "xyz": [3.3827236402224843, 2.289689690350229, 8.499619653661298]}, {"species": [{"element": "Pt", "occu": 1}], "abc": [0.00281445, 0.83323307, 0.62935746], "properties": {"magmom": -0.0}, "label": "Pt", "xyz": [0.019148799777516, 5.725257610350229, 8.499619653661298]}, {"species": [{"element": "Pt", "occu": 1}], "abc": [0.00281445, 0.66676693, 0.12935746], "properties": {"magmom": -0.0}, "label": "Pt", "xyz": [0.019148799777516, 4.581446149649771, 1.7470027436612974]}, {"species": [{"element": "Pt", "occu": 1}], "abc": [0.99718555, 0.33323307, 0.87064254], "properties": {"magmom": -0.0}, "label": "Pt", "xyz": [6.784596080222483, 2.289689690350229, 11.758231076338703]}, {"species": [{"element": "Pt", "occu": 1}], "abc": [0.49718555000000003, 0.16676693, 0.12935746], "properties": {"magmom": -0.0}, "label": "Pt", "xyz": [3.3827236402224843, 1.1458782296497712, 1.7470027436612974]}, {"species": [{"element": "Pt", "occu": 1}], "abc": [0.99718555, 0.16676693, 0.37064254], "properties": {"magmom": -0.0}, "label": "Pt", "xyz": [6.784596080222483, 1.1458782296497712, 5.005614166338703]}]}, "task_ids": null, "uncorrected_energy_per_atom": null, "energy_per_atom": -56.44940916958333, "formation_energy_per_atom": -0.28532103958333205, "energy_above_hull": 0.0, "is_stable": true, "equilibrium_reaction_energy_per_atom": null, "decomposes_to": null, "xas": null, "grain_boundaries": null, "band_gap": 0.0, "cbm": null, "vbm": null, "efermi": 6.10768487, "is_gap_direct": null, "is_metal": null, "es_source_calc_id": null, "bandstructure": null, "dos": null, "dos_energy_up": null, "dos_energy_down": null, "is_magnetic": null, "ordering": null, "total_magnetization": 1e-07, "total_magnetization_normalized_vol": null, "total_magnetization_normalized_formula_units": null, "num_magnetic_sites": null, "num_unique_magnetic_sites": null, "types_of_magnetic_species": null, "bulk_modulus": null, "shear_modulus": null, "universal_anisotropy": null, "homogeneous_poisson": null, "e_total": null, "e_ionic": null, "e_electronic": null, "n": null, "e_ij_max": null, "weighted_surface_energy_EV_PER_ANG2": null, "weighted_surface_energy": null, "weighted_work_function": null, "surface_anisotropy": null, "shape_factor": null, "has_reconstructed": null, "possible_species": null, "has_props": null, "theoretical": null, "database_IDs": null, "fields_not_requested": ["builder_meta", "nsites", "elements", "nelements", "composition", "composition_reduced", "chemsys", "symmetry", "property_name", "deprecated", "deprecation_reasons", "last_updated", "origins", "warnings", "task_ids", "uncorrected_energy_per_atom", "equilibrium_reaction_energy_per_atom", "decomposes_to", "xas", "grain_boundaries", "cbm", "vbm", "is_gap_direct", "is_metal", "es_source_calc_id", "bandstructure", "dos", "dos_energy_up", "dos_energy_down", "is_magnetic", "ordering", "total_magnetization_normalized_vol", "total_magnetization_normalized_formula_units", "num_magnetic_sites", "num_unique_magnetic_sites", "types_of_magnetic_species", "bulk_modulus", "shear_modulus", "universal_anisotropy", "homogeneous_poisson", "e_total", "e_ionic", "e_electronic", "n", "e_ij_max", "weighted_surface_energy_EV_PER_ANG2", "weighted_surface_energy", "weighted_work_function", "surface_anisotropy", "shape_factor", "has_reconstructed", "possible_species", "has_props", "theoretical", "database_IDs"]}