{
  "builder_meta": null,
  "nsites": null,
  "elements": null,
  "nelements": null,
  "composition": null,
  "composition_reduced": null,
  "formula_pretty": "Bi2Pd",
  "formula_anonymous": "AB2",
  "chemsys": null,
  "volume": 153.6751590240831,
  "density": 11.332408044406208,
  "density_atomic": 25.612526504013847,
  "symmetry": null,
  "property_name": null,
  "material_id": "mp-568746",
  "deprecated": null,
  "deprecation_reasons": null,
  "last_updated": null,
  "origins": null,
  "warnings": null,
  "structure": {
    "@module": "pymatgen.core.structure",
    "@class": "Structure",
    "charge": 0,
    "lattice": {
      "matrix": [
        [4.06510244, -0.00608722, -1.3566242],
        [-0.41927254, 5.60370245, -1.23379974],
        [-0.00298933, -0.08421602, 6.76856945]
      ],
      "pbc": [true, true, true],
      "a": 4.28550161847676,
      "b": 5.753219308296714,
      "c": 6.769094006851419,
      "alpha": 103.09244773911107,
      "beta": 108.47785210993523,
      "gamma": 90.15034048618797,
      "volume": 153.67515902408311
    },
    "properties": {},
    "sites": [
      {
        "species": [{ "element": "Bi", "occu": 1 }],
        "abc": [0.8383601900000001, 0.68382741, 0.67805667],
        "properties": { "magmom": 0.0 },
        "label": "Bi",
        "xyz": [3.119283063710211, 3.7697588157965294, 2.60842785919726]
      },
      {
        "species": [{ "element": "Bi", "occu": 1 }],
        "abc": [0.16163981, 0.31617259000000003, 0.32194333],
        "properties": { "magmom": 0.0 },
        "label": "Bi",
        "xyz": [0.5235575062897889, 1.743640394203471, 1.5697176508027402]
      },
      {
        "species": [{ "element": "Bi", "occu": 1 }],
        "abc": [0.4303222, 0.20546736000000002, 0.8570005900000001],
        "properties": { "magmom": 0.0 },
        "label": "Bi",
        "xyz": [1.660595145718169, 1.0765853038972963, 4.963376926442249]
      },
      {
        "species": [{ "element": "Bi", "occu": 1 }],
        "abc": [0.5696778, 0.79453264, 0.14299941],
        "properties": { "magmom": 0.0 },
        "label": "Bi",
        "xyz": [1.9822454242818313, 4.436813906102703, -0.7852314164422491]
      },
      {
        "species": [{ "element": "Pd", "occu": 1 }],
        "abc": [0.77906626, 0.17012934, 0.55573887],
        "properties": { "magmom": -0.0 },
        "label": "Pd",
        "xyz": [3.0939923070610944, 0.9018097358649884, 2.494751460481658]
      },
      {
        "species": [{ "element": "Pd", "occu": 1 }],
        "abc": [0.22093374000000002, 0.82987066, 0.44426113],
        "properties": { "magmom": -0.0 },
        "label": "Pd",
        "xyz": [0.5488482629389064, 4.611589474135012, 1.6833940495183424]
      }
    ]
  },
  "task_ids": null,
  "uncorrected_energy_per_atom": null,
  "energy_per_atom": -46.853453116666664,
  "formation_energy_per_atom": -0.198452750000001,
  "energy_above_hull": 0.0011861450000050001,
  "is_stable": false,
  "equilibrium_reaction_energy_per_atom": null,
  "decomposes_to": null,
  "xas": null,
  "grain_boundaries": null,
  "band_gap": 0.0,
  "cbm": null,
  "vbm": null,
  "efermi": 6.22864895,
  "is_gap_direct": null,
  "is_metal": null,
  "es_source_calc_id": null,
  "bandstructure": null,
  "dos": null,
  "dos_energy_up": null,
  "dos_energy_down": null,
  "is_magnetic": null,
  "ordering": null,
  "total_magnetization": 0.0,
  "total_magnetization_normalized_vol": null,
  "total_magnetization_normalized_formula_units": null,
  "num_magnetic_sites": null,
  "num_unique_magnetic_sites": null,
  "types_of_magnetic_species": null,
  "bulk_modulus": null,
  "shear_modulus": null,
  "universal_anisotropy": null,
  "homogeneous_poisson": null,
  "e_total": null,
  "e_ionic": null,
  "e_electronic": null,
  "n": null,
  "e_ij_max": null,
  "weighted_surface_energy_EV_PER_ANG2": null,
  "weighted_surface_energy": null,
  "weighted_work_function": null,
  "surface_anisotropy": null,
  "shape_factor": null,
  "has_reconstructed": null,
  "possible_species": null,
  "has_props": null,
  "theoretical": null,
  "database_IDs": null,
  "fields_not_requested": [
    "builder_meta",
    "nsites",
    "elements",
    "nelements",
    "composition",
    "composition_reduced",
    "chemsys",
    "symmetry",
    "property_name",
    "deprecated",
    "deprecation_reasons",
    "last_updated",
    "origins",
    "warnings",
    "task_ids",
    "uncorrected_energy_per_atom",
    "equilibrium_reaction_energy_per_atom",
    "decomposes_to",
    "xas",
    "grain_boundaries",
    "cbm",
    "vbm",
    "is_gap_direct",
    "is_metal",
    "es_source_calc_id",
    "bandstructure",
    "dos",
    "dos_energy_up",
    "dos_energy_down",
    "is_magnetic",
    "ordering",
    "total_magnetization_normalized_vol",
    "total_magnetization_normalized_formula_units",
    "num_magnetic_sites",
    "num_unique_magnetic_sites",
    "types_of_magnetic_species",
    "bulk_modulus",
    "shear_modulus",
    "universal_anisotropy",
    "homogeneous_poisson",
    "e_total",
    "e_ionic",
    "e_electronic",
    "n",
    "e_ij_max",
    "weighted_surface_energy_EV_PER_ANG2",
    "weighted_surface_energy",
    "weighted_work_function",
    "surface_anisotropy",
    "shape_factor",
    "has_reconstructed",
    "possible_species",
    "has_props",
    "theoretical",
    "database_IDs"
  ]
}
