{"builder_meta": null, "nsites": null, "elements": null, "nelements": null, "composition": null, "composition_reduced": null, "formula_pretty": "Bi2Rh", "formula_anonymous": "AB2", "chemsys": null, "volume": 297.64887928582357, "density": 11.623344145634617, "density_atomic": 24.80407327381863, "symmetry": null, "property_name": null, "material_id": "mp-23217", "deprecated": null, "deprecation_reasons": null, "last_updated": null, "origins": null, "warnings": null, "structure": {"@module": "pymatgen.core.structure", "@class": "Structure", "charge": 0, "lattice": {"matrix": [[6.86032693, 0.0, 0.0], [0.0, 6.16939461, -3.19778282], [0.0, 0.05094915, 7.00620728]], "pbc": [true, true, true], "a": 6.86032693, "b": 6.948902418208519, "c": 7.00639252869911, "alpha": 116.98241827278095, "beta": 90.0, "gamma": 90.0, "volume": 297.64887928582357}, "properties": {}, "sites": [{"species": [{"element": "Bi", "occu": 1}], "abc": [0.35895742, 0.85331729, 0.62756797], "properties": {"magmom": -0.0}, "label": "Bi", "xyz": [2.462565255149321, 5.296425144184533, 1.6681479101378636]}, {"species": [{"element": "Bi", "occu": 1}], "abc": [0.85895742, 0.14668271, 0.87243203], "properties": {"magmom": -0.0}, "label": "Bi", "xyz": [5.892728720149321, 0.9493931908154676, 5.643380189862136]}, {"species": [{"element": "Bi", "occu": 1}], "abc": [0.64104258, 0.14668271, 0.37243203], "properties": {"magmom": -0.0}, "label": "Bi", "xyz": [4.397761674850679, 0.9239186158154676, 2.1402765498621363]}, {"species": [{"element": "Bi", "occu": 1}], "abc": [0.14104258, 0.85331729, 0.12756797], "properties": {"magmom": -0.0}, "label": "Bi", "xyz": [0.9675982098506795, 5.270950569184533, -1.8349557298621364]}, {"species": [{"element": "Bi", "occu": 1}], "abc": [0.85829672, 0.65308402, 0.32886647], "properties": {"magmom": -0.0}, "label": "Bi", "xyz": [5.8881961021466696, 4.045888499975133, 0.2156857970893653]}, {"species": [{"element": "Bi", "occu": 1}], "abc": [0.35829672, 0.34691598, 0.17113353], "properties": {"magmom": -0.0}, "label": "Bi", "xyz": [2.45803263714667, 2.1489806850248674, 0.08963502291063485]}, {"species": [{"element": "Bi", "occu": 1}], "abc": [0.14170328000000001, 0.34691598, 0.67113353], "properties": {"magmom": -0.0}, "label": "Bi", "xyz": [0.9721308278533305, 2.1744552600248674, 3.5927386629106346]}, {"species": [{"element": "Bi", "occu": 1}], "abc": [0.64170328, 0.65308402, 0.82886647], "properties": {"magmom": -0.0}, "label": "Bi", "xyz": [4.40229429285333, 4.0713630749751335, 3.7187894370893653]}, {"species": [{"element": "Rh", "occu": 1}], "abc": [0.49933289000000003, 0.72896974, 0.21442562], "properties": {"magmom": 0.0}, "label": "Rh", "xyz": [3.425586872301728, 4.508226787886325, -0.8287765710093531]}, {"species": [{"element": "Rh", "occu": 1}], "abc": [0.99933289, 0.27103026, 0.28557438], "properties": {"magmom": 0.0}, "label": "Rh", "xyz": [6.855750337301728, 1.6866423971136757, 1.1340973910093535]}, {"species": [{"element": "Rh", "occu": 1}], "abc": [0.50066711, 0.27103026, 0.78557438], "properties": {"magmom": 0.0}, "label": "Rh", "xyz": [3.434740057698272, 1.7121169721136758, 4.6372010310093525]}, {"species": [{"element": "Rh", "occu": 1}], "abc": [0.0006671100000000001, 0.72896974, 0.71442562], "properties": {"magmom": 0.0}, "label": "Rh", "xyz": [0.0045765926982723, 4.533701362886325, 2.674327068990647]}]}, "task_ids": null, "uncorrected_energy_per_atom": null, "energy_per_atom": -47.26974811583333, "formation_energy_per_atom": -0.2228227425, "energy_above_hull": 0.0, "is_stable": true, "equilibrium_reaction_energy_per_atom": null, "decomposes_to": null, "xas": null, "grain_boundaries": null, "band_gap": 0.0, "cbm": null, "vbm": null, "efermi": 6.35425848, "is_gap_direct": null, "is_metal": null, "es_source_calc_id": null, "bandstructure": null, "dos": null, "dos_energy_up": null, "dos_energy_down": null, "is_magnetic": null, "ordering": null, "total_magnetization": 0.0, "total_magnetization_normalized_vol": null, "total_magnetization_normalized_formula_units": null, "num_magnetic_sites": null, "num_unique_magnetic_sites": null, "types_of_magnetic_species": null, "bulk_modulus": null, "shear_modulus": null, "universal_anisotropy": null, "homogeneous_poisson": null, "e_total": null, "e_ionic": null, "e_electronic": null, "n": null, "e_ij_max": null, "weighted_surface_energy_EV_PER_ANG2": null, "weighted_surface_energy": null, "weighted_work_function": null, "surface_anisotropy": null, "shape_factor": null, "has_reconstructed": null, "possible_species": null, "has_props": null, "theoretical": null, "database_IDs": null, "fields_not_requested": ["builder_meta", "nsites", "elements", "nelements", "composition", "composition_reduced", "chemsys", "symmetry", "property_name", "deprecated", "deprecation_reasons", "last_updated", "origins", "warnings", "task_ids", "uncorrected_energy_per_atom", "equilibrium_reaction_energy_per_atom", "decomposes_to", "xas", "grain_boundaries", "cbm", "vbm", "is_gap_direct", "is_metal", "es_source_calc_id", "bandstructure", "dos", "dos_energy_up", "dos_energy_down", "is_magnetic", "ordering", "total_magnetization_normalized_vol", "total_magnetization_normalized_formula_units", "num_magnetic_sites", "num_unique_magnetic_sites", "types_of_magnetic_species", "bulk_modulus", "shear_modulus", "universal_anisotropy", "homogeneous_poisson", "e_total", "e_ionic", "e_electronic", "n", "e_ij_max", "weighted_surface_energy_EV_PER_ANG2", "weighted_surface_energy", "weighted_work_function", "surface_anisotropy", "shape_factor", "has_reconstructed", "possible_species", "has_props", "theoretical", "database_IDs"]}