{
  "builder_meta": null,
  "nsites": null,
  "elements": null,
  "nelements": null,
  "composition": null,
  "composition_reduced": null,
  "formula_pretty": "Bi2Se",
  "formula_anonymous": "AB2",
  "chemsys": null,
  "volume": 379.81092647587786,
  "density": 8.690180759805303,
  "density_atomic": 31.65091053965649,
  "symmetry": null,
  "property_name": null,
  "material_id": "mp-1214190",
  "deprecated": null,
  "deprecation_reasons": null,
  "last_updated": null,
  "origins": null,
  "warnings": null,
  "structure": {
    "@module": "pymatgen.core.structure",
    "@class": "Structure",
    "charge": 0.0,
    "lattice": {
      "matrix": [
        [-2.12288936, -3.6769518100000003, -0.0],
        [-2.12288936, 3.6769518100000003, 0.0],
        [-0.0, 0.0, -24.32888247]
      ],
      "pbc": [true, true, true],
      "a": 4.2457783559511775,
      "b": 4.2457783559511775,
      "c": 24.32888247,
      "alpha": 90.0,
      "beta": 90.0,
      "gamma": 119.99999432724121,
      "volume": 379.8109264758779
    },
    "properties": {},
    "sites": [
      {
        "species": [{ "element": "Bi", "occu": 1 }],
        "abc": [0.666667, 0.333333, 0.46233989000000003],
        "properties": { "magmom": -0.0 },
        "label": "Bi",
        "xyz": [-2.12288936, -1.22565305463454, -11.24821284500273]
      },
      {
        "species": [{ "element": "Bi", "occu": 1 }],
        "abc": [0.333333, 0.666667, 0.53766011],
        "properties": { "magmom": -0.0 },
        "label": "Bi",
        "xyz": [-2.12288936, 1.22565305463454, -13.080669624997272]
      },
      {
        "species": [{ "element": "Bi", "occu": 1 }],
        "abc": [0.666667, 0.333333, 0.70498425],
        "properties": { "magmom": 0.0 },
        "label": "Bi",
        "xyz": [-2.12288936, -1.22565305463454, -17.151478961451097]
      },
      {
        "species": [{ "element": "Bi", "occu": 1 }],
        "abc": [0.333333, 0.666667, 0.29501575],
        "properties": { "magmom": 0.0 },
        "label": "Bi",
        "xyz": [-2.12288936, 1.22565305463454, -7.177403508548903]
      },
      {
        "species": [{ "element": "Bi", "occu": 1 }],
        "abc": [0.666667, 0.333333, 0.9449689800000001],
        "properties": { "magmom": 0.0 },
        "label": "Bi",
        "xyz": [-2.12288936, -1.22565305463454, -22.990039252215784]
      },
      {
        "species": [{ "element": "Bi", "occu": 1 }],
        "abc": [0.333333, 0.666667, 0.05503102],
        "properties": { "magmom": 0.0 },
        "label": "Bi",
        "xyz": [-2.12288936, 1.22565305463454, -1.3388432177842193]
      },
      {
        "species": [{ "element": "Bi", "occu": 1 }],
        "abc": [-0.0, 0.0, 0.8692023400000001],
        "properties": { "magmom": 0.0 },
        "label": "Bi",
        "xyz": [0.0, 0.0, -21.14672157250898]
      },
      {
        "species": [{ "element": "Bi", "occu": 1 }],
        "abc": [0.0, -0.0, 0.13079766],
        "properties": { "magmom": 0.0 },
        "label": "Bi",
        "xyz": [0.0, 0.0, -3.1821608974910203]
      },
      {
        "species": [{ "element": "Se", "occu": 1 }],
        "abc": [0.666667, 0.333333, 0.22498174],
        "properties": { "magmom": -0.0 },
        "label": "Se",
        "xyz": [-2.12288936, -1.22565305463454, -5.473554310356098]
      },
      {
        "species": [{ "element": "Se", "occu": 1 }],
        "abc": [0.333333, 0.666667, 0.7750182600000001],
        "properties": { "magmom": -0.0 },
        "label": "Se",
        "xyz": [-2.12288936, 1.22565305463454, -18.855328159643904]
      },
      {
        "species": [{ "element": "Se", "occu": 1 }],
        "abc": [-0.0, 0.0, 0.63738693],
        "properties": { "magmom": -0.0 },
        "label": "Se",
        "xyz": [0.0, 0.0, -15.506911707884118]
      },
      {
        "species": [{ "element": "Se", "occu": 1 }],
        "abc": [0.0, -0.0, 0.36261307],
        "properties": { "magmom": -0.0 },
        "label": "Se",
        "xyz": [0.0, 0.0, -8.821970762115882]
      }
    ]
  },
  "task_ids": null,
  "uncorrected_energy_per_atom": null,
  "energy_per_atom": -43.946355654166666,
  "formation_energy_per_atom": -0.174319747187505,
  "energy_above_hull": 0.06683410583332901,
  "is_stable": false,
  "equilibrium_reaction_energy_per_atom": null,
  "decomposes_to": null,
  "xas": null,
  "grain_boundaries": null,
  "band_gap": 0.0,
  "cbm": null,
  "vbm": null,
  "efermi": 4.57640597,
  "is_gap_direct": null,
  "is_metal": null,
  "es_source_calc_id": null,
  "bandstructure": null,
  "dos": null,
  "dos_energy_up": null,
  "dos_energy_down": null,
  "is_magnetic": null,
  "ordering": null,
  "total_magnetization": 4.4e-6,
  "total_magnetization_normalized_vol": null,
  "total_magnetization_normalized_formula_units": null,
  "num_magnetic_sites": null,
  "num_unique_magnetic_sites": null,
  "types_of_magnetic_species": null,
  "bulk_modulus": null,
  "shear_modulus": null,
  "universal_anisotropy": null,
  "homogeneous_poisson": null,
  "e_total": null,
  "e_ionic": null,
  "e_electronic": null,
  "n": null,
  "e_ij_max": null,
  "weighted_surface_energy_EV_PER_ANG2": null,
  "weighted_surface_energy": null,
  "weighted_work_function": null,
  "surface_anisotropy": null,
  "shape_factor": null,
  "has_reconstructed": null,
  "possible_species": null,
  "has_props": null,
  "theoretical": null,
  "database_IDs": null,
  "fields_not_requested": [
    "builder_meta",
    "nsites",
    "elements",
    "nelements",
    "composition",
    "composition_reduced",
    "chemsys",
    "symmetry",
    "property_name",
    "deprecated",
    "deprecation_reasons",
    "last_updated",
    "origins",
    "warnings",
    "task_ids",
    "uncorrected_energy_per_atom",
    "equilibrium_reaction_energy_per_atom",
    "decomposes_to",
    "xas",
    "grain_boundaries",
    "cbm",
    "vbm",
    "is_gap_direct",
    "is_metal",
    "es_source_calc_id",
    "bandstructure",
    "dos",
    "dos_energy_up",
    "dos_energy_down",
    "is_magnetic",
    "ordering",
    "total_magnetization_normalized_vol",
    "total_magnetization_normalized_formula_units",
    "num_magnetic_sites",
    "num_unique_magnetic_sites",
    "types_of_magnetic_species",
    "bulk_modulus",
    "shear_modulus",
    "universal_anisotropy",
    "homogeneous_poisson",
    "e_total",
    "e_ionic",
    "e_electronic",
    "n",
    "e_ij_max",
    "weighted_surface_energy_EV_PER_ANG2",
    "weighted_surface_energy",
    "weighted_work_function",
    "surface_anisotropy",
    "shape_factor",
    "has_reconstructed",
    "possible_species",
    "has_props",
    "theoretical",
    "database_IDs"
  ]
}
