{
  "builder_meta": null,
  "nsites": null,
  "elements": null,
  "nelements": null,
  "composition": null,
  "composition_reduced": null,
  "formula_pretty": "Bi2S3",
  "formula_anonymous": "A2B3",
  "chemsys": null,
  "volume": 517.2810621133061,
  "density": 6.602026285137526,
  "density_atomic": 25.864053105665306,
  "symmetry": null,
  "property_name": null,
  "material_id": "mp-22856",
  "deprecated": null,
  "deprecation_reasons": null,
  "last_updated": null,
  "origins": null,
  "warnings": null,
  "structure": {
    "@module": "pymatgen.core.structure",
    "@class": "Structure",
    "charge": 0,
    "lattice": {
      "matrix": [
        [3.99779374, -7.3e-7, 8e-8],
        [-3.02e-6, 11.16061766, -0.00035669],
        [2e-7, -0.00036736, 11.59359074]
      ],
      "pbc": [true, true, true],
      "a": 3.9977937400000676,
      "b": 11.160617665700261,
      "c": 11.593590745820173,
      "alpha": 90.00364665713421,
      "beta": 89.99999786471611,
      "gamma": 90.00002596620081,
      "volume": 517.2810621133061
    },
    "properties": {},
    "sites": [
      {
        "species": [{ "element": "Bi", "occu": 1 }],
        "abc": [0.2500001, 0.32637965, 0.51754788],
        "properties": { "magmom": 0.0 },
        "label": "Bi",
        "xyz": [0.999447952622407, 3.6424081767653496, 6.00012191271728]
      },
      {
        "species": [{ "element": "Bi", "occu": 1 }],
        "abc": [0.7499999900000001, 0.67365107, 0.48251082],
        "properties": { "magmom": 0.0 },
        "label": "Bi",
        "xyz": [2.9983433270979956, 7.518184225845069, 5.593792750101648]
      },
      {
        "species": [{ "element": "Bi", "occu": 1 }],
        "abc": [0.75000002, 0.82634512, 0.98244045],
        "properties": { "magmom": -0.0 },
        "label": "Bi",
        "xyz": [2.998343085881702, 9.222160482703092, 11.389717814680582]
      },
      {
        "species": [{ "element": "Bi", "occu": 1 }],
        "abc": [0.25000005000000003, 0.17369141, 0.017518660000000002],
        "properties": { "magmom": 0.0 },
        "label": "Bi",
        "xyz": [0.9994481138453609, 1.9384967996813265, 0.2030422403641795]
      },
      {
        "species": [{ "element": "Bi", "occu": 1 }],
        "abc": [0.74999989, 0.03267636, 0.65646596],
        "properties": { "magmom": -0.0 },
        "label": "Bi",
        "xyz": [2.998344897853273, 0.36444665364553236, 7.610786079650353]
      },
      {
        "species": [{ "element": "Bi", "occu": 1 }],
        "abc": [0.24999993, 0.96731782, 0.34355406],
        "properties": { "magmom": -0.0 },
        "label": "Bi",
        "xyz": [0.999445302565434, 10.795737954205268, 3.982680156112183]
      },
      {
        "species": [{ "element": "Bi", "occu": 1 }],
        "abc": [0.25, 0.5325998, 0.84351461],
        "properties": { "magmom": -0.0 },
        "label": "Bi",
        "xyz": [0.999446995251526, 5.943832677565338, 9.779173218528049]
      },
      {
        "species": [{ "element": "Bi", "occu": 1 }],
        "abc": [0.74999976, 0.46734378, 0.15645014000000002],
        "properties": { "magmom": -0.0 },
        "label": "Bi",
        "xyz": [2.998342965441315, 5.2157872233359, 1.8136522575227962]
      },
      {
        "species": [{ "element": "S", "occu": 1 }],
        "abc": [0.75000005, 0.37128529, 0.95178602],
        "properties": { "magmom": -0.0 },
        "label": "S",
        "xyz": [2.9983445739653156, 4.143422968859878, 11.03448521418337]
      },
      {
        "species": [{ "element": "S", "occu": 1 }],
        "abc": [0.25000002, 0.62870275, 0.048194640000000004],
        "properties": { "magmom": 0.0 },
        "label": "S",
        "xyz": [0.9994466259124978, 7.016693127257599, 0.5585247000377378]
      },
      {
        "species": [{ "element": "S", "occu": 1 }],
        "abc": [0.25000005000000003, 0.87129045, 0.54820722],
        "properties": { "magmom": 0.0 },
        "label": "S",
        "xyz": [0.9994461132339721, 9.723938011354972, 6.355379388802536]
      },
      {
        "species": [{ "element": "S", "occu": 1 }],
        "abc": [0.75000001, 0.12872692, 0.45181387],
        "properties": { "magmom": 0.0 },
        "label": "S",
        "xyz": [2.9983450465854133, 1.4365054108261166, 5.23809924383047]
      },
      {
        "species": [{ "element": "S", "occu": 1 }],
        "abc": [0.74999994, 0.44358787, 0.6215907900000001],
        "properties": { "magmom": 0.0 },
        "label": "S",
        "xyz": [2.9983438498151664, 4.950485720591214, 7.20631106365593]
      },
      {
        "species": [{ "element": "S", "occu": 1 }],
        "abc": [0.25000012, 0.5563722600000001, 0.37844217],
        "properties": { "magmom": 0.0 },
        "label": "S",
        "xyz": [0.9994473101794575, 6.209318863474453, 4.387305205316096]
      },
      {
        "species": [{ "element": "S", "occu": 1 }],
        "abc": [0.25, 0.94359931, 0.87841188],
        "properties": { "magmom": 0.0 },
        "label": "S",
        "xyz": [0.9994457610124599, 10.530828247261578, 10.183611285436108]
      },
      {
        "species": [{ "element": "S", "occu": 1 }],
        "abc": [0.75000007, 0.056415690000000004, 0.1215426],
        "properties": { "magmom": 0.0 },
        "label": "S",
        "xyz": [2.9983454387786983, 0.6295887487254983, 1.4090950989630635]
      },
      {
        "species": [{ "element": "S", "occu": 1 }],
        "abc": [0.24999999, 0.30869307, 0.21063429],
        "properties": { "magmom": -0.0 },
        "label": "S",
        "xyz": [0.9994475048958492, 3.4451277674488487, 2.4418976663393357]
      },
      {
        "species": [{ "element": "S", "occu": 1 }],
        "abc": [0.74999996, 0.69129921, 0.78934346],
        "properties": { "magmom": 0.0 },
        "label": "S",
        "xyz": [2.9983432152333283, 7.7150356507566125, 9.151078509020342]
      },
      {
        "species": [{ "element": "S", "occu": 1 }],
        "abc": [0.75000005, 0.80871799, 0.28936034],
        "properties": { "magmom": -0.0 },
        "label": "S",
        "xyz": [2.998343120433425, 9.025685434239165, 3.3544369567274024]
      },
      {
        "species": [{ "element": "S", "occu": 1 }],
        "abc": [0.24999999, 0.191303199999999, 0.71067316],
        "properties": { "magmom": -0.0 },
        "label": "S",
        "xyz": [0.9994479594210306, 2.1348006169424503, 8.23918555100413]
      }
    ]
  },
  "task_ids": null,
  "uncorrected_energy_per_atom": null,
  "energy_per_atom": -28.6359473035,
  "formation_energy_per_atom": -0.414038356187501,
  "energy_above_hull": 0.0,
  "is_stable": true,
  "equilibrium_reaction_energy_per_atom": null,
  "decomposes_to": null,
  "xas": null,
  "grain_boundaries": null,
  "band_gap": 1.361799999999999,
  "cbm": null,
  "vbm": null,
  "efermi": 4.14431336,
  "is_gap_direct": null,
  "is_metal": null,
  "es_source_calc_id": null,
  "bandstructure": null,
  "dos": null,
  "dos_energy_up": null,
  "dos_energy_down": null,
  "is_magnetic": null,
  "ordering": null,
  "total_magnetization": 0.0,
  "total_magnetization_normalized_vol": null,
  "total_magnetization_normalized_formula_units": null,
  "num_magnetic_sites": null,
  "num_unique_magnetic_sites": null,
  "types_of_magnetic_species": null,
  "bulk_modulus": null,
  "shear_modulus": null,
  "universal_anisotropy": null,
  "homogeneous_poisson": null,
  "e_total": null,
  "e_ionic": null,
  "e_electronic": null,
  "n": null,
  "e_ij_max": null,
  "weighted_surface_energy_EV_PER_ANG2": null,
  "weighted_surface_energy": null,
  "weighted_work_function": null,
  "surface_anisotropy": null,
  "shape_factor": null,
  "has_reconstructed": null,
  "possible_species": null,
  "has_props": null,
  "theoretical": null,
  "database_IDs": null,
  "fields_not_requested": [
    "builder_meta",
    "nsites",
    "elements",
    "nelements",
    "composition",
    "composition_reduced",
    "chemsys",
    "symmetry",
    "property_name",
    "deprecated",
    "deprecation_reasons",
    "last_updated",
    "origins",
    "warnings",
    "task_ids",
    "uncorrected_energy_per_atom",
    "equilibrium_reaction_energy_per_atom",
    "decomposes_to",
    "xas",
    "grain_boundaries",
    "cbm",
    "vbm",
    "is_gap_direct",
    "is_metal",
    "es_source_calc_id",
    "bandstructure",
    "dos",
    "dos_energy_up",
    "dos_energy_down",
    "is_magnetic",
    "ordering",
    "total_magnetization_normalized_vol",
    "total_magnetization_normalized_formula_units",
    "num_magnetic_sites",
    "num_unique_magnetic_sites",
    "types_of_magnetic_species",
    "bulk_modulus",
    "shear_modulus",
    "universal_anisotropy",
    "homogeneous_poisson",
    "e_total",
    "e_ionic",
    "e_electronic",
    "n",
    "e_ij_max",
    "weighted_surface_energy_EV_PER_ANG2",
    "weighted_surface_energy",
    "weighted_work_function",
    "surface_anisotropy",
    "shape_factor",
    "has_reconstructed",
    "possible_species",
    "has_props",
    "theoretical",
    "database_IDs"
  ]
}
