{
  "builder_meta": null,
  "nsites": null,
  "elements": null,
  "nelements": null,
  "composition": null,
  "composition_reduced": null,
  "formula_pretty": "Bi2S",
  "formula_anonymous": "AB2",
  "chemsys": null,
  "volume": 360.50370336976675,
  "density": 8.29156998824427,
  "density_atomic": 30.041975280813897,
  "symmetry": null,
  "property_name": null,
  "material_id": "mp-1103100",
  "deprecated": null,
  "deprecation_reasons": null,
  "last_updated": null,
  "origins": null,
  "warnings": null,
  "structure": {
    "@module": "pymatgen.core.structure",
    "@class": "Structure",
    "charge": 0,
    "lattice": {
      "matrix": [
        [0.04549, 0.0, -4.168119],
        [-7.297542, 0.0, 1.839048],
        [0.0, 11.884725, 0.0]
      ],
      "pbc": [true, true, true],
      "a": 4.1683672268960414,
      "b": 7.525703740386543,
      "c": 11.884725,
      "alpha": 90.0,
      "beta": 90.0,
      "gamma": 104.76983080912642,
      "volume": 360.50370336976675
    },
    "properties": {},
    "sites": [
      {
        "species": [{ "element": "Bi", "occu": 1 }],
        "abc": [0.462771, 0.990946, 0.347451],
        "properties": { "magmom": 0.001 },
        "label": "Bi",
        "xyz": [-7.210418601942, 4.129359585975, -0.10648733834099988]
      },
      {
        "species": [{ "element": "Bi", "occu": 1 }],
        "abc": [0.037229, 0.009054, 0.847451],
        "properties": { "magmom": -0.001 },
        "label": "Bi",
        "xyz": [-0.064378398058, 10.071722085974999, -0.138524161659]
      },
      {
        "species": [{ "element": "Bi", "occu": 1 }],
        "abc": [0.537229, 0.009054, 0.652548999999999],
        "properties": { "magmom": -0.0 },
        "label": "Bi",
        "xyz": [-0.041633398057999996, 7.755365414024989, -2.222583661659]
      },
      {
        "species": [{ "element": "Bi", "occu": 1 }],
        "abc": [0.962770999999999, 0.990946, 0.152549],
        "properties": { "magmom": 0.0 },
        "label": "Bi",
        "xyz": [-7.1876736019420004, 1.813002914025, -2.1905468383409956]
      },
      {
        "species": [{ "element": "Bi", "occu": 1 }],
        "abc": [0.797172, 0.625352, 0.37911000000000006],
        "properties": { "magmom": 0.001 },
        "label": "Bi",
        "xyz": [-4.527269130504, 4.505618094750001, -2.1726554145719996]
      },
      {
        "species": [{ "element": "Bi", "occu": 1 }],
        "abc": [0.702828, 0.374648, 0.8791100000000001],
        "properties": { "magmom": -0.001 },
        "label": "Bi",
        "xyz": [-2.702037869496, 10.44798059475, -2.240475085428]
      },
      {
        "species": [{ "element": "Bi", "occu": 1 }],
        "abc": [0.202827999999999, 0.374648, 0.62089],
        "properties": { "magmom": -0.001 },
        "label": "Bi",
        "xyz": [-2.724782869496, 7.3791069052500005, -0.15641558542799594]
      },
      {
        "species": [{ "element": "Bi", "occu": 1 }],
        "abc": [0.297172, 0.625352, 0.12089000000000001],
        "properties": { "magmom": 0.001 },
        "label": "Bi",
        "xyz": [-4.550014130504, 1.43674440525, -0.08859591457199989]
      },
      {
        "species": [{ "element": "S", "occu": 1 }],
        "abc": [0.324857, 0.653056, 0.899662],
        "properties": { "magmom": -0.0 },
        "label": "S",
        "xyz": [-4.750925843421999, 10.692235462949998, -0.1530413032950002]
      },
      {
        "species": [{ "element": "S", "occu": 1 }],
        "abc": [0.175143, 0.346944, 0.399661999999999],
        "properties": { "magmom": 0.0 },
        "label": "S",
        "xyz": [-2.5238711565779997, 4.749872962949988, -0.09197019670500006]
      },
      {
        "species": [{ "element": "S", "occu": 1 }],
        "abc": [0.675142999999999, 0.346944, 0.100338],
        "properties": { "magmom": -0.0 },
        "label": "S",
        "xyz": [-2.5011261565779996, 1.19248953705, -2.1760296967049957]
      },
      {
        "species": [{ "element": "S", "occu": 1 }],
        "abc": [0.824857, 0.653056, 0.600337999999999],
        "properties": { "magmom": 0.0 },
        "label": "S",
        "xyz": [-4.728180843421999, 7.134852037049988, -2.2371008032949997]
      }
    ]
  },
  "task_ids": null,
  "uncorrected_energy_per_atom": null,
  "energy_per_atom": -41.74193143055555,
  "formation_energy_per_atom": -0.06208257315972301,
  "energy_above_hull": 0.16793873583333102,
  "is_stable": false,
  "equilibrium_reaction_energy_per_atom": null,
  "decomposes_to": null,
  "xas": null,
  "grain_boundaries": null,
  "band_gap": 0.0,
  "cbm": null,
  "vbm": null,
  "efermi": 5.1979598,
  "is_gap_direct": null,
  "is_metal": null,
  "es_source_calc_id": null,
  "bandstructure": null,
  "dos": null,
  "dos_energy_up": null,
  "dos_energy_down": null,
  "is_magnetic": null,
  "ordering": null,
  "total_magnetization": 2e-7,
  "total_magnetization_normalized_vol": null,
  "total_magnetization_normalized_formula_units": null,
  "num_magnetic_sites": null,
  "num_unique_magnetic_sites": null,
  "types_of_magnetic_species": null,
  "bulk_modulus": null,
  "shear_modulus": null,
  "universal_anisotropy": null,
  "homogeneous_poisson": null,
  "e_total": null,
  "e_ionic": null,
  "e_electronic": null,
  "n": null,
  "e_ij_max": null,
  "weighted_surface_energy_EV_PER_ANG2": null,
  "weighted_surface_energy": null,
  "weighted_work_function": null,
  "surface_anisotropy": null,
  "shape_factor": null,
  "has_reconstructed": null,
  "possible_species": null,
  "has_props": null,
  "theoretical": null,
  "database_IDs": null,
  "fields_not_requested": [
    "builder_meta",
    "nsites",
    "elements",
    "nelements",
    "composition",
    "composition_reduced",
    "chemsys",
    "symmetry",
    "property_name",
    "deprecated",
    "deprecation_reasons",
    "last_updated",
    "origins",
    "warnings",
    "task_ids",
    "uncorrected_energy_per_atom",
    "equilibrium_reaction_energy_per_atom",
    "decomposes_to",
    "xas",
    "grain_boundaries",
    "cbm",
    "vbm",
    "is_gap_direct",
    "is_metal",
    "es_source_calc_id",
    "bandstructure",
    "dos",
    "dos_energy_up",
    "dos_energy_down",
    "is_magnetic",
    "ordering",
    "total_magnetization_normalized_vol",
    "total_magnetization_normalized_formula_units",
    "num_magnetic_sites",
    "num_unique_magnetic_sites",
    "types_of_magnetic_species",
    "bulk_modulus",
    "shear_modulus",
    "universal_anisotropy",
    "homogeneous_poisson",
    "e_total",
    "e_ionic",
    "e_electronic",
    "n",
    "e_ij_max",
    "weighted_surface_energy_EV_PER_ANG2",
    "weighted_surface_energy",
    "weighted_work_function",
    "surface_anisotropy",
    "shape_factor",
    "has_reconstructed",
    "possible_species",
    "has_props",
    "theoretical",
    "database_IDs"
  ]
}
