{
  "builder_meta": null,
  "nsites": null,
  "elements": null,
  "nelements": null,
  "composition": null,
  "composition_reduced": null,
  "formula_pretty": "BI3",
  "formula_anonymous": "AB3",
  "chemsys": null,
  "volume": 343.3017052728368,
  "density": 3.787581409278581,
  "density_atomic": 42.9127131591046,
  "symmetry": null,
  "property_name": null,
  "material_id": "mp-23189",
  "deprecated": null,
  "deprecation_reasons": null,
  "last_updated": null,
  "origins": null,
  "warnings": null,
  "structure": {
    "@module": "pymatgen.core.structure",
    "@class": "Structure",
    "charge": 0,
    "lattice": {
      "matrix": [
        [7.2184565, -0.00035924, 0.0],
        [-3.60891818, 6.25154439, -0.0],
        [-0.0, 0.0, 7.6077595]
      ],
      "pbc": [true, true, true],
      "a": 7.218456508939125,
      "b": 7.218455353472444,
      "c": 7.6077595,
      "alpha": 90.0,
      "beta": 90.0,
      "gamma": 120.00001483501958,
      "volume": 343.3017052728368
    },
    "properties": {},
    "sites": [
      {
        "species": [{ "element": "B", "occu": 1 }],
        "abc": [0.333333, 0.666667, 0.25],
        "properties": { "magmom": 0.0 },
        "label": "B",
        "xyz": [0.0002031042084400525, 4.16757859730121, 1.901939875]
      },
      {
        "species": [{ "element": "B", "occu": 1 }],
        "abc": [0.666667, 0.333333, 0.75],
        "properties": { "magmom": 0.0 },
        "label": "B",
        "xyz": [3.60933521579156, 2.0836065526987904, 5.705819625]
      },
      {
        "species": [{ "element": "I", "occu": 1 }],
        "abc": [0.053031299999999004, 0.36052981, 0.25],
        "properties": { "magmom": -0.0 },
        "label": "I",
        "xyz": [-0.9183184535525031, 2.253849060169054, 1.901939875]
      },
      {
        "species": [{ "element": "I", "occu": 1 }],
        "abc": [0.69250249, 0.053031299999999004, 0.75],
        "properties": { "magmom": -0.0 },
        "label": "I",
        "xyz": [4.807413477527654, 0.33127875141489316, 5.705819625]
      },
      {
        "species": [{ "element": "I", "occu": 1 }],
        "abc": [0.36052981, 0.30749751000000003, 0.75],
        "properties": { "magmom": -0.0 },
        "label": "I",
        "xyz": [1.4927353962945336, 1.9222048168505248, 5.705819625]
      },
      {
        "species": [{ "element": "I", "occu": 1 }],
        "abc": [0.63947019, 0.69250249, 0.25],
        "properties": { "magmom": -0.0 },
        "label": "I",
        "xyz": [2.116802923705468, 4.328980333149476, 1.901939875]
      },
      {
        "species": [{ "element": "I", "occu": 1 }],
        "abc": [0.30749751000000003, 0.9469687, 0.25],
        "properties": { "magmom": -0.0 },
        "label": "I",
        "xyz": [-1.1978751575276507, 5.919906398585101, 1.901939875]
      },
      {
        "species": [{ "element": "I", "occu": 1 }],
        "abc": [0.9469687, 0.63947019, 0.75],
        "properties": { "magmom": -0.0 },
        "label": "I",
        "xyz": [4.527856773552497, 3.9973360898309465, 5.705819625]
      }
    ]
  },
  "task_ids": null,
  "uncorrected_energy_per_atom": null,
  "energy_per_atom": -3.160202255000001,
  "formation_energy_per_atom": -0.347344851041667,
  "energy_above_hull": 0.0,
  "is_stable": true,
  "equilibrium_reaction_energy_per_atom": null,
  "decomposes_to": null,
  "xas": null,
  "grain_boundaries": null,
  "band_gap": 2.6901,
  "cbm": null,
  "vbm": null,
  "efermi": -0.6082331,
  "is_gap_direct": null,
  "is_metal": null,
  "es_source_calc_id": null,
  "bandstructure": null,
  "dos": null,
  "dos_energy_up": null,
  "dos_energy_down": null,
  "is_magnetic": null,
  "ordering": null,
  "total_magnetization": 0.0,
  "total_magnetization_normalized_vol": null,
  "total_magnetization_normalized_formula_units": null,
  "num_magnetic_sites": null,
  "num_unique_magnetic_sites": null,
  "types_of_magnetic_species": null,
  "bulk_modulus": null,
  "shear_modulus": null,
  "universal_anisotropy": null,
  "homogeneous_poisson": null,
  "e_total": null,
  "e_ionic": null,
  "e_electronic": null,
  "n": null,
  "e_ij_max": null,
  "weighted_surface_energy_EV_PER_ANG2": null,
  "weighted_surface_energy": null,
  "weighted_work_function": null,
  "surface_anisotropy": null,
  "shape_factor": null,
  "has_reconstructed": null,
  "possible_species": null,
  "has_props": null,
  "theoretical": null,
  "database_IDs": null,
  "fields_not_requested": [
    "builder_meta",
    "nsites",
    "elements",
    "nelements",
    "composition",
    "composition_reduced",
    "chemsys",
    "symmetry",
    "property_name",
    "deprecated",
    "deprecation_reasons",
    "last_updated",
    "origins",
    "warnings",
    "task_ids",
    "uncorrected_energy_per_atom",
    "equilibrium_reaction_energy_per_atom",
    "decomposes_to",
    "xas",
    "grain_boundaries",
    "cbm",
    "vbm",
    "is_gap_direct",
    "is_metal",
    "es_source_calc_id",
    "bandstructure",
    "dos",
    "dos_energy_up",
    "dos_energy_down",
    "is_magnetic",
    "ordering",
    "total_magnetization_normalized_vol",
    "total_magnetization_normalized_formula_units",
    "num_magnetic_sites",
    "num_unique_magnetic_sites",
    "types_of_magnetic_species",
    "bulk_modulus",
    "shear_modulus",
    "universal_anisotropy",
    "homogeneous_poisson",
    "e_total",
    "e_ionic",
    "e_electronic",
    "n",
    "e_ij_max",
    "weighted_surface_energy_EV_PER_ANG2",
    "weighted_surface_energy",
    "weighted_work_function",
    "surface_anisotropy",
    "shape_factor",
    "has_reconstructed",
    "possible_species",
    "has_props",
    "theoretical",
    "database_IDs"
  ]
}
