{"builder_meta": null, "nsites": null, "elements": null, "nelements": null, "composition": null, "composition_reduced": null, "formula_pretty": "Bi3As", "formula_anonymous": "AB3", "chemsys": null, "volume": 228.15346184789712, "density": 10.216549767456483, "density_atomic": 28.51918273098714, "symmetry": null, "property_name": null, "material_id": "mp-1183505", "deprecated": null, "deprecation_reasons": null, "last_updated": null, "origins": null, "warnings": null, "structure": {"@module": "pymatgen.core.structure", "@class": "Structure", "charge": 0, "lattice": {"matrix": [[3.4678620000000002, -6.006514, 0.0], [3.4678620000000002, 6.006514, 0.0], [0.0, 0.0, 5.476622]], "pbc": [true, true, true], "a": 6.935724712186896, "b": 6.935724712186896, "c": 5.476622, "alpha": 90.0, "beta": 90.0, "gamma": 120.00000679350853, "volume": 228.15346184789715}, "properties": {}, "sites": [{"species": [{"element": "Bi", "occu": 1}], "abc": [0.17777, 0.355541, 0.25], "properties": {"magmom": 0.0}, "label": "Bi", "xyz": [1.849448951082, 1.067784000294, 1.3691555]}, {"species": [{"element": "Bi", "occu": 1}], "abc": [0.644459, 0.82223, 0.25], "properties": {"magmom": -0.0}, "label": "Bi", "xyz": [5.086275048918001, 1.067784000294, 1.3691555]}, {"species": [{"element": "Bi", "occu": 1}], "abc": [0.17777, 0.82223, 0.25], "properties": {"magmom": 0.001}, "label": "Bi", "xyz": [3.4678620000000002, 3.87095801244, 1.3691555]}, {"species": [{"element": "Bi", "occu": 1}], "abc": [0.82223, 0.644459, 0.75], "properties": {"magmom": 0.0}, "label": "Bi", "xyz": [5.086275048918001, -1.067784000294, 4.1074665]}, {"species": [{"element": "Bi", "occu": 1}], "abc": [0.355541, 0.17777, 0.75], "properties": {"magmom": -0.0}, "label": "Bi", "xyz": [1.849448951082, -1.067784000294, 4.1074665]}, {"species": [{"element": "Bi", "occu": 1}], "abc": [0.82223, 0.17777, 0.75], "properties": {"magmom": 0.001}, "label": "Bi", "xyz": [3.4678620000000002, -3.87095801244, 4.1074665]}, {"species": [{"element": "As", "occu": 1}], "abc": [0.333333, 0.666667, 0.75], "properties": {"magmom": -0.001}, "label": "As", "xyz": [3.4678620000000002, 2.002175337676, 4.1074665]}, {"species": [{"element": "As", "occu": 1}], "abc": [0.666667, 0.333333, 0.25], "properties": {"magmom": -0.001}, "label": "As", "xyz": [3.4678620000000002, -2.002175337676, 1.3691555]}]}, "task_ids": null, "uncorrected_energy_per_atom": null, "energy_per_atom": -47.276818025625, "formation_energy_per_atom": 0.276770030000001, "energy_above_hull": 0.276770030000001, "is_stable": false, "equilibrium_reaction_energy_per_atom": null, "decomposes_to": null, "xas": null, "grain_boundaries": null, "band_gap": 0.0, "cbm": null, "vbm": null, "efermi": 6.69185171, "is_gap_direct": null, "is_metal": null, "es_source_calc_id": null, "bandstructure": null, "dos": null, "dos_energy_up": null, "dos_energy_down": null, "is_magnetic": null, "ordering": null, "total_magnetization": 0.0039609, "total_magnetization_normalized_vol": null, "total_magnetization_normalized_formula_units": null, "num_magnetic_sites": null, "num_unique_magnetic_sites": null, "types_of_magnetic_species": null, "bulk_modulus": null, "shear_modulus": null, "universal_anisotropy": null, "homogeneous_poisson": null, "e_total": null, "e_ionic": null, "e_electronic": null, "n": null, "e_ij_max": null, "weighted_surface_energy_EV_PER_ANG2": null, "weighted_surface_energy": null, "weighted_work_function": null, "surface_anisotropy": null, "shape_factor": null, "has_reconstructed": null, "possible_species": null, "has_props": null, "theoretical": null, "database_IDs": null, "fields_not_requested": ["builder_meta", "nsites", "elements", "nelements", "composition", "composition_reduced", "chemsys", "symmetry", "property_name", "deprecated", "deprecation_reasons", "last_updated", "origins", "warnings", "task_ids", "uncorrected_energy_per_atom", "equilibrium_reaction_energy_per_atom", "decomposes_to", "xas", "grain_boundaries", "cbm", "vbm", "is_gap_direct", "is_metal", "es_source_calc_id", "bandstructure", "dos", "dos_energy_up", "dos_energy_down", "is_magnetic", "ordering", "total_magnetization_normalized_vol", "total_magnetization_normalized_formula_units", "num_magnetic_sites", "num_unique_magnetic_sites", "types_of_magnetic_species", "bulk_modulus", "shear_modulus", "universal_anisotropy", "homogeneous_poisson", "e_total", "e_ionic", "e_electronic", "n", "e_ij_max", "weighted_surface_energy_EV_PER_ANG2", "weighted_surface_energy", "weighted_work_function", "surface_anisotropy", "shape_factor", "has_reconstructed", "possible_species", "has_props", "theoretical", "database_IDs"]}