{
  "builder_meta": null,
  "nsites": null,
  "elements": null,
  "nelements": null,
  "composition": null,
  "composition_reduced": null,
  "formula_pretty": "Bi3Mo",
  "formula_anonymous": "AB3",
  "chemsys": null,
  "volume": 440.46474364183626,
  "density": 10.900963043587163,
  "density_atomic": 27.529046477614767,
  "symmetry": null,
  "property_name": null,
  "material_id": "mp-1189810",
  "deprecated": null,
  "deprecation_reasons": null,
  "last_updated": null,
  "origins": null,
  "warnings": null,
  "structure": {
    "@module": "pymatgen.core.structure",
    "@class": "Structure",
    "charge": 0,
    "lattice": {
      "matrix": [
        [4.915258, 0.0, 0.0],
        [0.0, 7.37247, 0.0],
        [0.0, 1.967804999999999, 12.154912]
      ],
      "pbc": [true, true, true],
      "a": 4.915258,
      "b": 7.37247,
      "c": 12.313169463861405,
      "alpha": 80.80395564263242,
      "beta": 90.0,
      "gamma": 90.0,
      "volume": 440.46474364183626
    },
    "properties": {},
    "sites": [
      {
        "species": [{ "element": "Bi", "occu": 1 }],
        "abc": [0.25, 0.158333, 0.477639],
        "properties": { "magmom": 0.0 },
        "label": "Bi",
        "xyz": [1.2288145, 2.1072057049049997, 5.805660012768]
      },
      {
        "species": [{ "element": "Bi", "occu": 1 }],
        "abc": [0.75, 0.841666999999999, 0.522361],
        "properties": { "magmom": 0.0 },
        "label": "Bi",
        "xyz": [3.6864434999999998, 7.233069295094992, 6.349251987231999]
      },
      {
        "species": [{ "element": "Bi", "occu": 1 }],
        "abc": [0.75, 0.162115999999999, 0.682404999999999],
        "properties": { "magmom": 0.0 },
        "label": "Bi",
        "xyz": [3.6864434999999998, 2.53803531754499, 8.294572723359988]
      },
      {
        "species": [{ "element": "Bi", "occu": 1 }],
        "abc": [0.25, 0.837884, 0.317594999999999],
        "properties": { "magmom": 0.0 },
        "label": "Bi",
        "xyz": [1.2288145, 6.8022396824549975, 3.860339276639988]
      },
      {
        "species": [{ "element": "Bi", "occu": 1 }],
        "abc": [0.25, 0.200187999999999, 0.862333],
        "properties": { "magmom": 0.0 },
        "label": "Bi",
        "xyz": [1.2288145, 3.1727832134249914, 10.481581729696]
      },
      {
        "species": [{ "element": "Bi", "occu": 1 }],
        "abc": [0.75, 0.799812, 0.137666999999999],
        "properties": { "magmom": 0.0 },
        "label": "Bi",
        "xyz": [3.6864434999999998, 6.167491786574997, 1.6733302703039878]
      },
      {
        "species": [{ "element": "Bi", "occu": 1 }],
        "abc": [0.75, 0.259806, 0.046521],
        "properties": { "magmom": 0.0 },
        "label": "Bi",
        "xyz": [3.6864434999999998, 2.0069561972249996, 0.5654586611519999]
      },
      {
        "species": [{ "element": "Bi", "occu": 1 }],
        "abc": [0.25, 0.740194, 0.953479],
        "properties": { "magmom": 0.0 },
        "label": "Bi",
        "xyz": [1.2288145, 7.333318802775, 11.589453338848]
      },
      {
        "species": [{ "element": "Bi", "occu": 1 }],
        "abc": [0.25, 0.342796, 0.20766199999999901],
        "properties": { "magmom": 0.0 },
        "label": "Bi",
        "xyz": [1.2288145, 2.935891548029998, 2.524113335743988]
      },
      {
        "species": [{ "element": "Bi", "occu": 1 }],
        "abc": [0.75, 0.657204, 0.792338],
        "properties": { "magmom": 0.0 },
        "label": "Bi",
        "xyz": [3.6864434999999998, 6.4043834519699985, 9.630798664256]
      },
      {
        "species": [{ "element": "Bi", "occu": 1 }],
        "abc": [0.75, 0.426867999999999, 0.374261],
        "properties": { "magmom": 0.0 },
        "label": "Bi",
        "xyz": [3.6864434999999998, 3.8835441910649924, 4.549109520032]
      },
      {
        "species": [{ "element": "Bi", "occu": 1 }],
        "abc": [0.25, 0.573132, 0.625738999999999],
        "properties": { "magmom": 0.0 },
        "label": "Bi",
        "xyz": [1.2288145, 5.4567308089349975, 7.605802479967988]
      },
      {
        "species": [{ "element": "Mo", "occu": 1 }],
        "abc": [0.25, 0.028370000000000003, 0.099034],
        "properties": { "magmom": -0.001 },
        "label": "Mo",
        "xyz": [1.2288145, 0.4040365742699999, 1.203749555008]
      },
      {
        "species": [{ "element": "Mo", "occu": 1 }],
        "abc": [0.75, 0.9716300000000001, 0.900964999999999],
        "properties": { "magmom": -0.001 },
        "label": "Mo",
        "xyz": [3.6864434999999998, 8.936236457924998, 10.951150290079987]
      },
      {
        "species": [{ "element": "Mo", "occu": 1 }],
        "abc": [0.75, 0.087208, 0.292450999999999],
        "properties": { "magmom": -0.0 },
        "label": "Mo",
        "xyz": [3.6864434999999998, 1.2184249038149977, 3.554716169311988]
      },
      {
        "species": [{ "element": "Mo", "occu": 1 }],
        "abc": [0.25, 0.912791999999999, 0.707549],
        "properties": { "magmom": -0.0 },
        "label": "Mo",
        "xyz": [1.2288145, 8.121850096184993, 8.600195830688]
      }
    ]
  },
  "task_ids": null,
  "uncorrected_energy_per_atom": null,
  "energy_per_atom": -50.0559564275,
  "formation_energy_per_atom": 0.338743741249999,
  "energy_above_hull": 0.338743741249999,
  "is_stable": false,
  "equilibrium_reaction_energy_per_atom": null,
  "decomposes_to": null,
  "xas": null,
  "grain_boundaries": null,
  "band_gap": 0.0,
  "cbm": null,
  "vbm": null,
  "efermi": 6.63437975,
  "is_gap_direct": null,
  "is_metal": null,
  "es_source_calc_id": null,
  "bandstructure": null,
  "dos": null,
  "dos_energy_up": null,
  "dos_energy_down": null,
  "is_magnetic": null,
  "ordering": null,
  "total_magnetization": 0.0039161,
  "total_magnetization_normalized_vol": null,
  "total_magnetization_normalized_formula_units": null,
  "num_magnetic_sites": null,
  "num_unique_magnetic_sites": null,
  "types_of_magnetic_species": null,
  "bulk_modulus": null,
  "shear_modulus": null,
  "universal_anisotropy": null,
  "homogeneous_poisson": null,
  "e_total": null,
  "e_ionic": null,
  "e_electronic": null,
  "n": null,
  "e_ij_max": null,
  "weighted_surface_energy_EV_PER_ANG2": null,
  "weighted_surface_energy": null,
  "weighted_work_function": null,
  "surface_anisotropy": null,
  "shape_factor": null,
  "has_reconstructed": null,
  "possible_species": null,
  "has_props": null,
  "theoretical": null,
  "database_IDs": null,
  "fields_not_requested": [
    "builder_meta",
    "nsites",
    "elements",
    "nelements",
    "composition",
    "composition_reduced",
    "chemsys",
    "symmetry",
    "property_name",
    "deprecated",
    "deprecation_reasons",
    "last_updated",
    "origins",
    "warnings",
    "task_ids",
    "uncorrected_energy_per_atom",
    "equilibrium_reaction_energy_per_atom",
    "decomposes_to",
    "xas",
    "grain_boundaries",
    "cbm",
    "vbm",
    "is_gap_direct",
    "is_metal",
    "es_source_calc_id",
    "bandstructure",
    "dos",
    "dos_energy_up",
    "dos_energy_down",
    "is_magnetic",
    "ordering",
    "total_magnetization_normalized_vol",
    "total_magnetization_normalized_formula_units",
    "num_magnetic_sites",
    "num_unique_magnetic_sites",
    "types_of_magnetic_species",
    "bulk_modulus",
    "shear_modulus",
    "universal_anisotropy",
    "homogeneous_poisson",
    "e_total",
    "e_ionic",
    "e_electronic",
    "n",
    "e_ij_max",
    "weighted_surface_energy_EV_PER_ANG2",
    "weighted_surface_energy",
    "weighted_work_function",
    "surface_anisotropy",
    "shape_factor",
    "has_reconstructed",
    "possible_species",
    "has_props",
    "theoretical",
    "database_IDs"
  ]
}
