{
  "builder_meta": null,
  "nsites": null,
  "elements": null,
  "nelements": null,
  "composition": null,
  "composition_reduced": null,
  "formula_pretty": "Bi3O5",
  "formula_anonymous": "A3B5",
  "chemsys": null,
  "volume": 270.8529071503116,
  "density": 8.668162443760822,
  "density_atomic": 16.928306696894474,
  "symmetry": null,
  "property_name": null,
  "material_id": "mp-753707",
  "deprecated": null,
  "deprecation_reasons": null,
  "last_updated": null,
  "origins": null,
  "warnings": null,
  "structure": {
    "@module": "pymatgen.core.structure",
    "@class": "Structure",
    "charge": 0,
    "lattice": {
      "matrix": [
        [2.86375, 6.090082, 0.0],
        [-2.86375, 6.090082, 0.0],
        [0.0, 2.955842, 7.765068]
      ],
      "pbc": [true, true, true],
      "a": 6.729796641000678,
      "b": 6.729796641000678,
      "c": 8.30862702096971,
      "alpha": 71.21979172260257,
      "beta": 71.21979172260257,
      "gamma": 50.368800048527945,
      "volume": 270.8529071503116
    },
    "properties": {},
    "sites": [
      {
        "species": [{ "element": "Bi", "occu": 1 }],
        "abc": [0.6809000000000001, 0.6885100000000001, 0.158267],
        "properties": { "magmom": -0.0 },
        "label": "Bi",
        "xyz": [-0.021793137500000004, 8.807631437434, 1.228954017156]
      },
      {
        "species": [{ "element": "Bi", "occu": 1 }],
        "abc": [0.6885100000000001, 0.6809000000000001, 0.658266999999999],
        "properties": { "magmom": -0.0 },
        "label": "Bi",
        "xyz": [0.021793137500000004, 10.285552437433997, 5.111488017155993]
      },
      {
        "species": [{ "element": "Bi", "occu": 1 }],
        "abc": [0.0, 0.0, 0.0],
        "properties": { "magmom": -0.0 },
        "label": "Bi",
        "xyz": [0.0, 0.0, 0.0]
      },
      {
        "species": [{ "element": "Bi", "occu": 1 }],
        "abc": [0.0, 0.0, 0.5],
        "properties": { "magmom": -0.0 },
        "label": "Bi",
        "xyz": [0.0, 1.477921, 3.882534]
      },
      {
        "species": [{ "element": "Bi", "occu": 1 }],
        "abc": [0.3191, 0.31149000000000004, 0.841733],
        "properties": { "magmom": -0.0 },
        "label": "Bi",
        "xyz": [0.021793137499999893, 6.328374562566, 6.536113982844]
      },
      {
        "species": [{ "element": "Bi", "occu": 1 }],
        "abc": [0.31149000000000004, 0.3191, 0.341733],
        "properties": { "magmom": -0.0 },
        "label": "Bi",
        "xyz": [-0.021793137499999893, 4.850453562566001, 2.653579982844]
      },
      {
        "species": [{ "element": "O", "occu": 1 }],
        "abc": [0.911215999999999, 0.413836, 0.888639],
        "properties": { "magmom": 0.0 },
        "label": "O",
        "xyz": [1.4243719749999975, 10.696351813301995, 6.900342262452]
      },
      {
        "species": [{ "element": "O", "occu": 1 }],
        "abc": [0.920636, 0.394391, 0.451379],
        "properties": { "magmom": 0.0 },
        "label": "O",
        "xyz": [1.5070341187499998, 9.342827268332, 3.504988628772]
      },
      {
        "species": [{ "element": "O", "occu": 1 }],
        "abc": [0.394391, 0.920636, 0.951379],
        "properties": { "magmom": 0.0 },
        "label": "O",
        "xyz": [-1.5070341187499998, 10.820748268332, 7.387522628772]
      },
      {
        "species": [{ "element": "O", "occu": 1 }],
        "abc": [0.413836, 0.911215999999999, 0.388638999999999],
        "properties": { "magmom": 0.0 },
        "label": "O",
        "xyz": [-1.4243719749999975, 9.21843081330199, 3.0178082624519926]
      },
      {
        "species": [{ "element": "O", "occu": 1 }],
        "abc": [0.605609, 0.079363999999999, 0.048621],
        "properties": { "magmom": 0.0 },
        "label": "O",
        "xyz": [1.5070341187500027, 4.315257731667994, 0.37754537122799997]
      },
      {
        "species": [{ "element": "O", "occu": 1 }],
        "abc": [0.891053, 0.108946999999999, 0.25],
        "properties": { "magmom": 0.0 },
        "label": "O",
        "xyz": [2.239756057500003, 6.829042499999994, 1.941267]
      },
      {
        "species": [{ "element": "O", "occu": 1 }],
        "abc": [0.586164, 0.088784, 0.611360999999999],
        "properties": { "magmom": 0.0 },
        "label": "O",
        "xyz": [1.4243719750000001, 5.917575186697997, 4.747259737547993]
      },
      {
        "species": [{ "element": "O", "occu": 1 }],
        "abc": [0.108946999999999, 0.891053, 0.75],
        "properties": { "magmom": 0.0 },
        "label": "O",
        "xyz": [-2.239756057500003, 8.306963499999993, 5.8238010000000004]
      },
      {
        "species": [{ "element": "O", "occu": 1 }],
        "abc": [0.079363999999999, 0.605609, 0.548621],
        "properties": { "magmom": 0.0 },
        "label": "O",
        "xyz": [-1.5070341187500027, 5.793178731667994, 4.2600793712280005]
      },
      {
        "species": [{ "element": "O", "occu": 1 }],
        "abc": [0.088784, 0.586164, 0.111361],
        "properties": { "magmom": 0.0 },
        "label": "O",
        "xyz": [-1.4243719750000001, 4.439654186698, 0.8647257375480001]
      }
    ]
  },
  "task_ids": null,
  "uncorrected_energy_per_atom": null,
  "energy_per_atom": -6.083671169375,
  "formation_energy_per_atom": -1.532432675,
  "energy_above_hull": 0.05943332968750201,
  "is_stable": false,
  "equilibrium_reaction_energy_per_atom": null,
  "decomposes_to": null,
  "xas": null,
  "grain_boundaries": null,
  "band_gap": 0.0,
  "cbm": null,
  "vbm": null,
  "efermi": 4.61406371,
  "is_gap_direct": null,
  "is_metal": null,
  "es_source_calc_id": null,
  "bandstructure": null,
  "dos": null,
  "dos_energy_up": null,
  "dos_energy_down": null,
  "is_magnetic": null,
  "ordering": null,
  "total_magnetization": 0.0001315,
  "total_magnetization_normalized_vol": null,
  "total_magnetization_normalized_formula_units": null,
  "num_magnetic_sites": null,
  "num_unique_magnetic_sites": null,
  "types_of_magnetic_species": null,
  "bulk_modulus": null,
  "shear_modulus": null,
  "universal_anisotropy": null,
  "homogeneous_poisson": null,
  "e_total": null,
  "e_ionic": null,
  "e_electronic": null,
  "n": null,
  "e_ij_max": null,
  "weighted_surface_energy_EV_PER_ANG2": null,
  "weighted_surface_energy": null,
  "weighted_work_function": null,
  "surface_anisotropy": null,
  "shape_factor": null,
  "has_reconstructed": null,
  "possible_species": null,
  "has_props": null,
  "theoretical": null,
  "database_IDs": null,
  "fields_not_requested": [
    "builder_meta",
    "nsites",
    "elements",
    "nelements",
    "composition",
    "composition_reduced",
    "chemsys",
    "symmetry",
    "property_name",
    "deprecated",
    "deprecation_reasons",
    "last_updated",
    "origins",
    "warnings",
    "task_ids",
    "uncorrected_energy_per_atom",
    "equilibrium_reaction_energy_per_atom",
    "decomposes_to",
    "xas",
    "grain_boundaries",
    "cbm",
    "vbm",
    "is_gap_direct",
    "is_metal",
    "es_source_calc_id",
    "bandstructure",
    "dos",
    "dos_energy_up",
    "dos_energy_down",
    "is_magnetic",
    "ordering",
    "total_magnetization_normalized_vol",
    "total_magnetization_normalized_formula_units",
    "num_magnetic_sites",
    "num_unique_magnetic_sites",
    "types_of_magnetic_species",
    "bulk_modulus",
    "shear_modulus",
    "universal_anisotropy",
    "homogeneous_poisson",
    "e_total",
    "e_ionic",
    "e_electronic",
    "n",
    "e_ij_max",
    "weighted_surface_energy_EV_PER_ANG2",
    "weighted_surface_energy",
    "weighted_work_function",
    "surface_anisotropy",
    "shape_factor",
    "has_reconstructed",
    "possible_species",
    "has_props",
    "theoretical",
    "database_IDs"
  ]
}
