{
  "builder_meta": null,
  "nsites": null,
  "elements": null,
  "nelements": null,
  "composition": null,
  "composition_reduced": null,
  "formula_pretty": "Bi3O7",
  "formula_anonymous": "A3B7",
  "chemsys": null,
  "volume": 662.7390995317644,
  "density": 7.405832896372782,
  "density_atomic": 16.56847748829411,
  "symmetry": null,
  "property_name": null,
  "material_id": "mp-1044088",
  "deprecated": null,
  "deprecation_reasons": null,
  "last_updated": null,
  "origins": null,
  "warnings": null,
  "structure": {
    "@module": "pymatgen.core.structure",
    "@class": "Structure",
    "charge": 0,
    "lattice": {
      "matrix": [
        [6.909348, 0.0, 0.0],
        [0.0, 7.939153, 0.0],
        [0.0, 0.0, 12.081792]
      ],
      "pbc": [true, true, true],
      "a": 6.909348,
      "b": 7.939153,
      "c": 12.081792,
      "alpha": 90.0,
      "beta": 90.0,
      "gamma": 90.0,
      "volume": 662.7390995317644
    },
    "properties": {},
    "sites": [
      {
        "species": [{ "element": "Bi", "occu": 1 }],
        "abc": [0.241855, 0.755313999999999, 0.037146],
        "properties": { "magmom": 0.0 },
        "label": "Bi",
        "xyz": [1.6710603605399998, 5.996553409041993, 0.448790245632]
      },
      {
        "species": [{ "element": "Bi", "occu": 1 }],
        "abc": [0.741854999999999, 0.744686, 0.962854],
        "properties": { "magmom": 0.0 },
        "label": "Bi",
        "xyz": [5.125734360539993, 5.912176090958, 11.633001754368]
      },
      {
        "species": [{ "element": "Bi", "occu": 1 }],
        "abc": [0.758145, 0.244686, 0.537146],
        "properties": { "magmom": 0.0 },
        "label": "Bi",
        "xyz": [5.238287639459999, 1.9425995909579998, 6.489686245632]
      },
      {
        "species": [{ "element": "Bi", "occu": 1 }],
        "abc": [0.258145, 0.255314, 0.462854],
        "properties": { "magmom": 0.0 },
        "label": "Bi",
        "xyz": [1.78361363946, 2.026976909042, 5.592105754368]
      },
      {
        "species": [{ "element": "Bi", "occu": 1 }],
        "abc": [0.243111, 0.734486, 0.75],
        "properties": { "magmom": 0.0 },
        "label": "Bi",
        "xyz": [1.6797385016279998, 5.831196730358, 9.061344]
      },
      {
        "species": [{ "element": "Bi", "occu": 1 }],
        "abc": [0.743111, 0.765513999999999, 0.25],
        "properties": { "magmom": 0.0 },
        "label": "Bi",
        "xyz": [5.134412501628, 6.0775327696419925, 3.020448]
      },
      {
        "species": [{ "element": "Bi", "occu": 1 }],
        "abc": [0.756888999999999, 0.265514, 0.25],
        "properties": { "magmom": 0.0 },
        "label": "Bi",
        "xyz": [5.229609498371993, 2.107956269642, 3.020448]
      },
      {
        "species": [{ "element": "Bi", "occu": 1 }],
        "abc": [0.256889, 0.234485, 0.75],
        "properties": { "magmom": 0.0 },
        "label": "Bi",
        "xyz": [1.7749354983719998, 1.861612291205, 9.061344]
      },
      {
        "species": [{ "element": "Bi", "occu": 1 }],
        "abc": [0.741854999999999, 0.744686, 0.537146],
        "properties": { "magmom": 0.0 },
        "label": "Bi",
        "xyz": [5.125734360539993, 5.912176090958, 6.489686245632]
      },
      {
        "species": [{ "element": "Bi", "occu": 1 }],
        "abc": [0.241855, 0.755313999999999, 0.462854],
        "properties": { "magmom": 0.0 },
        "label": "Bi",
        "xyz": [1.6710603605399998, 5.996553409041993, 5.592105754368]
      },
      {
        "species": [{ "element": "Bi", "occu": 1 }],
        "abc": [0.258145, 0.255314, 0.037146],
        "properties": { "magmom": 0.0 },
        "label": "Bi",
        "xyz": [1.78361363946, 2.026976909042, 0.448790245632]
      },
      {
        "species": [{ "element": "Bi", "occu": 1 }],
        "abc": [0.758145, 0.244686, 0.962854],
        "properties": { "magmom": 0.0 },
        "label": "Bi",
        "xyz": [5.238287639459999, 1.9425995909579998, 11.633001754368]
      },
      {
        "species": [{ "element": "O", "occu": 1 }],
        "abc": [0.56177, 0.215462, 0.10835000000000002],
        "properties": { "magmom": -0.0 },
        "label": "O",
        "xyz": [3.8814644259599995, 1.710585783686, 1.3090621632000001]
      },
      {
        "species": [{ "element": "O", "occu": 1 }],
        "abc": [0.061770000000000005, 0.284538, 0.89165],
        "properties": { "magmom": -0.0 },
        "label": "O",
        "xyz": [0.42679042596, 2.258990716314, 10.7727298368]
      },
      {
        "species": [{ "element": "O", "occu": 1 }],
        "abc": [0.43823, 0.784538, 0.6083500000000001],
        "properties": { "magmom": -0.0 },
        "label": "O",
        "xyz": [3.02788357404, 6.228567216314, 7.349958163200001]
      },
      {
        "species": [{ "element": "O", "occu": 1 }],
        "abc": [0.9382300000000001, 0.715461999999999, 0.39165000000000005],
        "properties": { "magmom": -0.0 },
        "label": "O",
        "xyz": [6.48255757404, 5.680162283685992, 4.731833836800001]
      },
      {
        "species": [{ "element": "O", "occu": 1 }],
        "abc": [0.43823, 0.784538, 0.89165],
        "properties": { "magmom": -0.0 },
        "label": "O",
        "xyz": [3.02788357404, 6.228567216314, 10.7727298368]
      },
      {
        "species": [{ "element": "O", "occu": 1 }],
        "abc": [0.9382300000000001, 0.715461999999999, 0.10835000000000002],
        "properties": { "magmom": -0.0 },
        "label": "O",
        "xyz": [6.48255757404, 5.680162283685992, 1.3090621632000001]
      },
      {
        "species": [{ "element": "O", "occu": 1 }],
        "abc": [0.56177, 0.215462, 0.39165000000000005],
        "properties": { "magmom": -0.0 },
        "label": "O",
        "xyz": [3.8814644259599995, 1.710585783686, 4.731833836800001]
      },
      {
        "species": [{ "element": "O", "occu": 1 }],
        "abc": [0.061770000000000005, 0.284538, 0.6083500000000001],
        "properties": { "magmom": -0.0 },
        "label": "O",
        "xyz": [0.42679042596, 2.258990716314, 7.349958163200001]
      },
      {
        "species": [{ "element": "O", "occu": 1 }],
        "abc": [0.949337, 0.298840999999999, 0.10705],
        "properties": { "magmom": -0.0 },
        "label": "O",
        "xyz": [6.559299702275999, 2.3725444216729925, 1.2933558336000002]
      },
      {
        "species": [{ "element": "O", "occu": 1 }],
        "abc": [0.449337, 0.201159, 0.89295],
        "properties": { "magmom": -0.0 },
        "label": "O",
        "xyz": [3.1046257022759995, 1.597032078327, 10.7884361664]
      },
      {
        "species": [{ "element": "O", "occu": 1 }],
        "abc": [0.050663, 0.701159, 0.6070500000000001],
        "properties": { "magmom": -0.0 },
        "label": "O",
        "xyz": [0.350048297724, 5.566608578327, 7.3342518336000015]
      },
      {
        "species": [{ "element": "O", "occu": 1 }],
        "abc": [0.550663, 0.798840999999999, 0.39295],
        "properties": { "magmom": -0.0 },
        "label": "O",
        "xyz": [3.804722297724, 6.342120921672993, 4.7475401664]
      },
      {
        "species": [{ "element": "O", "occu": 1 }],
        "abc": [0.050663, 0.701159, 0.89295],
        "properties": { "magmom": -0.0 },
        "label": "O",
        "xyz": [0.350048297724, 5.566608578327, 10.7884361664]
      },
      {
        "species": [{ "element": "O", "occu": 1 }],
        "abc": [0.550663, 0.798840999999999, 0.10705],
        "properties": { "magmom": -0.0 },
        "label": "O",
        "xyz": [3.804722297724, 6.342120921672993, 1.2933558336000002]
      },
      {
        "species": [{ "element": "O", "occu": 1 }],
        "abc": [0.949337, 0.298840999999999, 0.39295],
        "properties": { "magmom": -0.0 },
        "label": "O",
        "xyz": [6.559299702275999, 2.3725444216729925, 4.7475401664]
      },
      {
        "species": [{ "element": "O", "occu": 1 }],
        "abc": [0.449337, 0.201159, 0.6070500000000001],
        "properties": { "magmom": -0.0 },
        "label": "O",
        "xyz": [3.1046257022759995, 1.597032078327, 7.3342518336000015]
      },
      {
        "species": [{ "element": "O", "occu": 1 }],
        "abc": [0.15222000000000002, 0.98743, 0.75],
        "properties": { "magmom": -0.0 },
        "label": "O",
        "xyz": [1.05174095256, 7.8393578467900005, 9.061344]
      },
      {
        "species": [{ "element": "O", "occu": 1 }],
        "abc": [0.65222, 0.5125700000000001, 0.25],
        "properties": { "magmom": -0.0 },
        "label": "O",
        "xyz": [4.50641495256, 4.069371653210001, 3.020448]
      },
      {
        "species": [{ "element": "O", "occu": 1 }],
        "abc": [0.8477800000000001, 0.012570000000000001, 0.25],
        "properties": { "magmom": -0.0 },
        "label": "O",
        "xyz": [5.85760704744, 0.09979515321000001, 3.020448]
      },
      {
        "species": [{ "element": "O", "occu": 1 }],
        "abc": [0.34778000000000003, 0.48743000000000003, 0.75],
        "properties": { "magmom": -0.0 },
        "label": "O",
        "xyz": [2.40293304744, 3.8697813467900004, 9.061344]
      },
      {
        "species": [{ "element": "O", "occu": 1 }],
        "abc": [0.316567999999999, 0.506991, 0.41662000000000005],
        "properties": { "magmom": 0.0 },
        "label": "O",
        "xyz": [2.187278477663993, 4.025079118623, 5.033516183040001]
      },
      {
        "species": [{ "element": "O", "occu": 1 }],
        "abc": [0.816568, 0.993008999999999, 0.58338],
        "properties": { "magmom": 0.0 },
        "label": "O",
        "xyz": [5.641952477664, 7.8836503813769925, 7.04827581696]
      },
      {
        "species": [{ "element": "O", "occu": 1 }],
        "abc": [0.683431999999999, 0.493009, 0.9166200000000001],
        "properties": { "magmom": 0.0 },
        "label": "O",
        "xyz": [4.722069522335993, 3.914073881377, 11.074412183040002]
      },
      {
        "species": [{ "element": "O", "occu": 1 }],
        "abc": [0.183431999999999, 0.006991, 0.08338000000000001],
        "properties": { "magmom": 0.0 },
        "label": "O",
        "xyz": [1.2673955223359932, 0.055502618623, 1.0073798169600001]
      },
      {
        "species": [{ "element": "O", "occu": 1 }],
        "abc": [0.683431999999999, 0.493009, 0.58338],
        "properties": { "magmom": 0.0 },
        "label": "O",
        "xyz": [4.722069522335993, 3.914073881377, 7.04827581696]
      },
      {
        "species": [{ "element": "O", "occu": 1 }],
        "abc": [0.183431999999999, 0.006991, 0.41662000000000005],
        "properties": { "magmom": 0.0 },
        "label": "O",
        "xyz": [1.2673955223359932, 0.055502618623, 5.033516183040001]
      },
      {
        "species": [{ "element": "O", "occu": 1 }],
        "abc": [0.316567999999999, 0.506991, 0.08338000000000001],
        "properties": { "magmom": 0.0 },
        "label": "O",
        "xyz": [2.187278477663993, 4.025079118623, 1.0073798169600001]
      },
      {
        "species": [{ "element": "O", "occu": 1 }],
        "abc": [0.816568, 0.993008999999999, 0.9166200000000001],
        "properties": { "magmom": 0.0 },
        "label": "O",
        "xyz": [5.641952477664, 7.8836503813769925, 11.074412183040002]
      }
    ]
  },
  "task_ids": null,
  "uncorrected_energy_per_atom": null,
  "energy_per_atom": -5.801767971999999,
  "formation_energy_per_atom": -1.1711849755000001,
  "energy_above_hull": 0.14260273849999902,
  "is_stable": false,
  "equilibrium_reaction_energy_per_atom": null,
  "decomposes_to": null,
  "xas": null,
  "grain_boundaries": null,
  "band_gap": 0.0,
  "cbm": null,
  "vbm": null,
  "efermi": 2.74539598,
  "is_gap_direct": null,
  "is_metal": null,
  "es_source_calc_id": null,
  "bandstructure": null,
  "dos": null,
  "dos_energy_up": null,
  "dos_energy_down": null,
  "is_magnetic": null,
  "ordering": null,
  "total_magnetization": 0.011224,
  "total_magnetization_normalized_vol": null,
  "total_magnetization_normalized_formula_units": null,
  "num_magnetic_sites": null,
  "num_unique_magnetic_sites": null,
  "types_of_magnetic_species": null,
  "bulk_modulus": null,
  "shear_modulus": null,
  "universal_anisotropy": null,
  "homogeneous_poisson": null,
  "e_total": null,
  "e_ionic": null,
  "e_electronic": null,
  "n": null,
  "e_ij_max": null,
  "weighted_surface_energy_EV_PER_ANG2": null,
  "weighted_surface_energy": null,
  "weighted_work_function": null,
  "surface_anisotropy": null,
  "shape_factor": null,
  "has_reconstructed": null,
  "possible_species": null,
  "has_props": null,
  "theoretical": null,
  "database_IDs": null,
  "fields_not_requested": [
    "builder_meta",
    "nsites",
    "elements",
    "nelements",
    "composition",
    "composition_reduced",
    "chemsys",
    "symmetry",
    "property_name",
    "deprecated",
    "deprecation_reasons",
    "last_updated",
    "origins",
    "warnings",
    "task_ids",
    "uncorrected_energy_per_atom",
    "equilibrium_reaction_energy_per_atom",
    "decomposes_to",
    "xas",
    "grain_boundaries",
    "cbm",
    "vbm",
    "is_gap_direct",
    "is_metal",
    "es_source_calc_id",
    "bandstructure",
    "dos",
    "dos_energy_up",
    "dos_energy_down",
    "is_magnetic",
    "ordering",
    "total_magnetization_normalized_vol",
    "total_magnetization_normalized_formula_units",
    "num_magnetic_sites",
    "num_unique_magnetic_sites",
    "types_of_magnetic_species",
    "bulk_modulus",
    "shear_modulus",
    "universal_anisotropy",
    "homogeneous_poisson",
    "e_total",
    "e_ionic",
    "e_electronic",
    "n",
    "e_ij_max",
    "weighted_surface_energy_EV_PER_ANG2",
    "weighted_surface_energy",
    "weighted_work_function",
    "surface_anisotropy",
    "shape_factor",
    "has_reconstructed",
    "possible_species",
    "has_props",
    "theoretical",
    "database_IDs"
  ]
}
