{
  "builder_meta": null,
  "nsites": null,
  "elements": null,
  "nelements": null,
  "composition": null,
  "composition_reduced": null,
  "formula_pretty": "Bi3Pd8",
  "formula_anonymous": "A3B8",
  "chemsys": null,
  "volume": 804.0994965795564,
  "density": 12.211309198643615,
  "density_atomic": 18.274988558626283,
  "symmetry": null,
  "property_name": null,
  "material_id": "mp-1198800",
  "deprecated": null,
  "deprecation_reasons": null,
  "last_updated": null,
  "origins": null,
  "warnings": null,
  "structure": {
    "@module": "pymatgen.core.structure",
    "@class": "Structure",
    "charge": 0,
    "lattice": {
      "matrix": [
        [14.761078, -3.990044, 0.0],
        [14.761078, 3.990044, 0.0],
        [13.682536, 0.0, 6.8262789999999995]
      ],
      "pbc": [true, true, true],
      "a": 15.290842842826551,
      "b": 15.290842842826551,
      "c": 15.29084289295842,
      "alpha": 30.252087168289474,
      "beta": 30.252087168289474,
      "gamma": 30.252090997013347,
      "volume": 804.0994965795563
    },
    "properties": {},
    "sites": [
      {
        "species": [{ "element": "Bi", "occu": 1 }],
        "abc": [0.9923869999999991, 0.361542, 0.664551999999999],
        "properties": { "magmom": -0.0 },
        "label": "Bi",
        "xyz": [29.078208239333975, -2.517099307179997, 4.5364173620079935]
      },
      {
        "species": [{ "element": "Bi", "occu": 1 }],
        "abc": [0.664551999999999, 0.9923869999999991, 0.361542],
        "properties": { "magmom": -0.0 },
        "label": "Bi",
        "xyz": [29.40501725075397, 1.3080760747400006, 2.4679865622179995]
      },
      {
        "species": [{ "element": "Bi", "occu": 1 }],
        "abc": [0.361542, 0.664551999999999, 0.9923869999999991],
        "properties": { "magmom": -0.0 },
        "label": "Bi",
        "xyz": [28.724624422763974, 1.2090232324399963, 6.774310537972994]
      },
      {
        "species": [{ "element": "Bi", "occu": 1 }],
        "abc": [0.493069, 0.162195, 0.861699],
        "properties": { "magmom": 0.0 },
        "label": "Bi",
        "xyz": [21.462630603256002, -1.3202018184559998, 5.882197788020999]
      },
      {
        "species": [{ "element": "Bi", "occu": 1 }],
        "abc": [0.861699, 0.493069, 0.162195],
        "properties": { "magmom": 0.0 },
        "label": "Bi",
        "xyz": [22.217075046423997, -1.47084991972, 1.1071883224049999]
      },
      {
        "species": [{ "element": "Bi", "occu": 1 }],
        "abc": [0.162195, 0.861699, 0.493069],
        "properties": { "magmom": 0.0 },
        "label": "Bi",
        "xyz": [21.860213540716, 2.791051738176, 3.3658265602509996]
      },
      {
        "species": [{ "element": "Bi", "occu": 1 }],
        "abc": [0.074975, 0.074975, 0.074975],
        "properties": { "magmom": 0.0 },
        "label": "Bi",
        "xyz": [3.2392717827, 0.0, 0.511800268025]
      },
      {
        "species": [{ "element": "Bi", "occu": 1 }],
        "abc": [0.268451, 0.268451, 0.268451],
        "properties": { "magmom": 0.0 },
        "label": "Bi",
        "xyz": [11.598342772092, 0.0, 1.8325214238289997]
      },
      {
        "species": [{ "element": "Bi", "occu": 1 }],
        "abc": [0.428405, 0.428405, 0.428405],
        "properties": { "magmom": 0.0 },
        "label": "Bi",
        "xyz": [18.50910607626, 0.0, 2.9244120549949995]
      },
      {
        "species": [{ "element": "Bi", "occu": 1 }],
        "abc": [0.575368, 0.575368, 0.575368],
        "properties": { "magmom": 0.0 },
        "label": "Bi",
        "xyz": [24.858597226656002, 0.0, 3.927622495672]
      },
      {
        "species": [{ "element": "Bi", "occu": 1 }],
        "abc": [0.769888, 0.769888, 0.769888],
        "properties": { "magmom": 0.0 },
        "label": "Bi",
        "xyz": [33.262773914496, 0.0, 5.255470286752]
      },
      {
        "species": [{ "element": "Bi", "occu": 1 }],
        "abc": [0.927164, 0.927164, 0.927164],
        "properties": { "magmom": 0.0 },
        "label": "Bi",
        "xyz": [40.057835053488, 0.0, 6.329080142755999]
      },
      {
        "species": [{ "element": "Pd", "occu": 1 }],
        "abc": [0.040764, 0.745289, 0.331252999999999],
        "properties": { "magmom": -0.0 },
        "label": "Pd",
        "xyz": [16.135370742741983, 2.8110857491, 2.261225397586993]
      },
      {
        "species": [{ "element": "Pd", "occu": 1 }],
        "abc": [0.331252999999999, 0.040764, 0.745289],
        "properties": { "magmom": -0.0 },
        "label": "Pd",
        "xyz": [15.688815527229984, -1.159063891515996, 5.087550649631]
      },
      {
        "species": [{ "element": "Pd", "occu": 1 }],
        "abc": [0.745289, 0.331252999999999, 0.040764],
        "properties": { "magmom": -0.0 },
        "label": "Pd",
        "xyz": [16.448675329779984, -1.652021857584004, 0.27826643715599997]
      },
      {
        "species": [{ "element": "Pd", "occu": 1 }],
        "abc": [0.541759, 0.831733, 0.244727],
        "properties": { "magmom": -0.0 },
        "label": "Pd",
        "xyz": [23.622708532047998, 1.1570090188559998, 1.6705747808329998]
      },
      {
        "species": [{ "element": "Pd", "occu": 1 }],
        "abc": [0.244727, 0.541759, 0.831733],
        "properties": { "magmom": -0.0 },
        "label": "Pd",
        "xyz": [22.989597906796, 1.1851707494080002, 5.677641511506999]
      },
      {
        "species": [{ "element": "Pd", "occu": 1 }],
        "abc": [0.831733, 0.244727, 0.541759],
        "properties": { "magmom": -0.0 },
        "label": "Pd",
        "xyz": [23.302347044704, -2.3421797682639998, 3.6981980847609996]
      },
      {
        "species": [{ "element": "Pd", "occu": 1 }],
        "abc": [0.06905599999999901, 0.437162, 0.708368],
        "properties": { "magmom": -0.0 },
        "label": "Pd",
        "xyz": [17.164594044251984, 1.468759136664004, 4.835517602672]
      },
      {
        "species": [{ "element": "Pd", "occu": 1 }],
        "abc": [0.708368, 0.06905599999999901, 0.437162],
        "properties": { "magmom": -0.0 },
        "label": "Pd",
        "xyz": [17.457101105903988, -2.550883009728004, 2.9841897801979997]
      },
      {
        "species": [{ "element": "Pd", "occu": 1 }],
        "abc": [0.437162, 0.708368, 0.06905599999999901],
        "properties": { "magmom": -0.0 },
        "label": "Pd",
        "xyz": [17.854118887355988, 1.0821238730640002, 0.4713955226239932]
      },
      {
        "species": [{ "element": "Pd", "occu": 1 }],
        "abc": [0.567442999999999, 0.209664, 0.9373],
        "properties": { "magmom": -0.0 },
        "label": "Pd",
        "xyz": [24.295578034145986, -1.4275539522759964, 6.3982713067]
      },
      {
        "species": [{ "element": "Pd", "occu": 1 }],
        "abc": [0.9373, 0.567442999999999, 0.209664],
        "properties": { "magmom": -0.0 },
        "label": "Pd",
        "xyz": [25.080364020857985, -1.4757457037080042, 1.4312249602559999]
      },
      {
        "species": [{ "element": "Pd", "occu": 1 }],
        "abc": [0.209664, 0.9373, 0.567442999999999],
        "properties": { "magmom": -0.0 },
        "label": "Pd",
        "xyz": [24.694484342639985, 2.9032996559840005, 3.873524234596993]
      },
      {
        "species": [{ "element": "Pd", "occu": 1 }],
        "abc": [0.113966, 0.793245, 0.410466],
        "properties": { "magmom": -0.0 },
        "label": "Pd",
        "xyz": [19.007628155234002, 2.7103530982760002, 2.801955436014]
      },
      {
        "species": [{ "element": "Pd", "occu": 1 }],
        "abc": [0.410466, 0.113966, 0.793245],
        "properties": { "magmom": -0.0 },
        "label": "Pd",
        "xyz": [18.594784927016, -1.1830480460000001, 5.4149116853549994]
      },
      {
        "species": [{ "element": "Pd", "occu": 1 }],
        "abc": [0.793245, 0.410466, 0.113966],
        "properties": { "magmom": -0.0 },
        "label": "Pd",
        "xyz": [19.327415858233998, -1.527305052276, 0.777963712514]
      },
      {
        "species": [{ "element": "Pd", "occu": 1 }],
        "abc": [0.619718, 0.908123, 0.291889],
        "properties": { "magmom": -0.0 },
        "label": "Pd",
        "xyz": [26.546361923101998, 1.1507486398199998, 1.9925157510309999]
      },
      {
        "species": [{ "element": "Pd", "occu": 1 }],
        "abc": [0.291889, 0.619718, 0.908123],
        "properties": { "magmom": -0.0 },
        "label": "Pd",
        "xyz": [25.881727672274, 1.308052134476, 6.199100964317]
      },
      {
        "species": [{ "element": "Pd", "occu": 1 }],
        "abc": [0.908123, 0.291889, 0.619718],
        "properties": { "magmom": -0.0 },
        "label": "Pd",
        "xyz": [26.192784577784, -2.458800774296, 4.230367969322]
      },
      {
        "species": [{ "element": "Pd", "occu": 1 }],
        "abc": [0.116733999999999, 0.507390999999999, 0.791717],
        "properties": { "magmom": -0.0 },
        "label": "Pd",
        "xyz": [20.045454161061972, 1.5587386189080001, 5.404481131043]
      },
      {
        "species": [{ "element": "Pd", "occu": 1 }],
        "abc": [0.791717, 0.116733999999999, 0.507390999999999],
        "properties": { "magmom": -0.0 },
        "label": "Pd",
        "xyz": [20.352111693753972, -2.6932118692520044, 3.463592528088993]
      },
      {
        "species": [{ "element": "Pd", "occu": 1 }],
        "abc": [0.507390999999999, 0.791717, 0.116733999999999],
        "properties": { "magmom": -0.0 },
        "label": "Pd",
        "xyz": [20.773451675847973, 1.134473250344004, 0.7968588527859931]
      },
      {
        "species": [{ "element": "Pd", "occu": 1 }],
        "abc": [0.606298, 0.294288999999999, 0.016711],
        "properties": { "magmom": 0.0 },
        "label": "Pd",
        "xyz": [13.522283811881984, -1.244929638396004, 0.11407394836899999]
      },
      {
        "species": [{ "element": "Pd", "occu": 1 }],
        "abc": [0.016711, 0.606298, 0.294288999999999],
        "properties": { "magmom": 0.0 },
        "label": "Pd",
        "xyz": [13.222904280605988, 2.352478071828, 2.0088988206309932]
      },
      {
        "species": [{ "element": "Pd", "occu": 1 }],
        "abc": [0.294288999999999, 0.016711, 0.606298],
        "properties": { "magmom": 0.0 },
        "label": "Pd",
        "xyz": [12.886389469727984, -1.107548433431996, 4.138759305142]
      },
      {
        "species": [{ "element": "Pd", "occu": 1 }],
        "abc": [0.139177, 0.139177, 0.139177],
        "properties": { "magmom": 0.0 },
        "label": "Pd",
        "xyz": [6.013099418484, 0.0, 0.9500610323829999]
      },
      {
        "species": [{ "element": "Pd", "occu": 1 }],
        "abc": [0.205630999999999, 0.205630999999999, 0.205630999999999],
        "properties": { "magmom": -0.0 },
        "label": "Pd",
        "xyz": [8.884224020651958, 0.0, 1.403694577048993]
      },
      {
        "species": [{ "element": "Pd", "occu": 1 }],
        "abc": [0.362295, 0.362295, 0.362295],
        "properties": { "magmom": -0.0 },
        "label": "Pd",
        "xyz": [15.65284388814, 0.0, 2.4731267503049996]
      },
      {
        "species": [{ "element": "Pd", "occu": 1 }],
        "abc": [0.493755, 0.493755, 0.493755],
        "properties": { "magmom": -0.0 },
        "label": "Pd",
        "xyz": [21.33253269846, 0.0, 3.370509387645]
      },
      {
        "species": [{ "element": "Pd", "occu": 1 }],
        "abc": [0.639963, 0.639963, 0.639963],
        "properties": { "magmom": 0.0 },
        "label": "Pd",
        "xyz": [27.649404306395997, 0.0, 4.368565987676999]
      },
      {
        "species": [{ "element": "Pd", "occu": 1 }],
        "abc": [0.706994, 0.706994, 0.706994],
        "properties": { "magmom": -0.0 },
        "label": "Pd",
        "xyz": [30.545458015848, 0.0, 4.8261382953259995]
      },
      {
        "species": [{ "element": "Pd", "occu": 1 }],
        "abc": [0.861703999999999, 0.861703999999999, 0.861703999999999],
        "properties": { "magmom": -0.0 },
        "label": "Pd",
        "xyz": [37.22965591516796, 0.0, 5.882231919415993]
      },
      {
        "species": [{ "element": "Pd", "occu": 1 }],
        "abc": [0.991721, 0.991721, 0.991721],
        "properties": { "magmom": -0.0 },
        "label": "Pd",
        "xyz": [42.847000354932, 0.0, 6.769764236158999]
      }
    ]
  },
  "task_ids": null,
  "uncorrected_energy_per_atom": null,
  "energy_per_atom": -32.88361561227272,
  "formation_energy_per_atom": -0.22993832909090503,
  "energy_above_hull": 0.014650359090914002,
  "is_stable": false,
  "equilibrium_reaction_energy_per_atom": null,
  "decomposes_to": null,
  "xas": null,
  "grain_boundaries": null,
  "band_gap": 0.0,
  "cbm": null,
  "vbm": null,
  "efermi": 6.17486666,
  "is_gap_direct": null,
  "is_metal": null,
  "es_source_calc_id": null,
  "bandstructure": null,
  "dos": null,
  "dos_energy_up": null,
  "dos_energy_down": null,
  "is_magnetic": null,
  "ordering": null,
  "total_magnetization": 0.0015768,
  "total_magnetization_normalized_vol": null,
  "total_magnetization_normalized_formula_units": null,
  "num_magnetic_sites": null,
  "num_unique_magnetic_sites": null,
  "types_of_magnetic_species": null,
  "bulk_modulus": null,
  "shear_modulus": null,
  "universal_anisotropy": null,
  "homogeneous_poisson": null,
  "e_total": null,
  "e_ionic": null,
  "e_electronic": null,
  "n": null,
  "e_ij_max": null,
  "weighted_surface_energy_EV_PER_ANG2": null,
  "weighted_surface_energy": null,
  "weighted_work_function": null,
  "surface_anisotropy": null,
  "shape_factor": null,
  "has_reconstructed": null,
  "possible_species": null,
  "has_props": null,
  "theoretical": null,
  "database_IDs": null,
  "fields_not_requested": [
    "builder_meta",
    "nsites",
    "elements",
    "nelements",
    "composition",
    "composition_reduced",
    "chemsys",
    "symmetry",
    "property_name",
    "deprecated",
    "deprecation_reasons",
    "last_updated",
    "origins",
    "warnings",
    "task_ids",
    "uncorrected_energy_per_atom",
    "equilibrium_reaction_energy_per_atom",
    "decomposes_to",
    "xas",
    "grain_boundaries",
    "cbm",
    "vbm",
    "is_gap_direct",
    "is_metal",
    "es_source_calc_id",
    "bandstructure",
    "dos",
    "dos_energy_up",
    "dos_energy_down",
    "is_magnetic",
    "ordering",
    "total_magnetization_normalized_vol",
    "total_magnetization_normalized_formula_units",
    "num_magnetic_sites",
    "num_unique_magnetic_sites",
    "types_of_magnetic_species",
    "bulk_modulus",
    "shear_modulus",
    "universal_anisotropy",
    "homogeneous_poisson",
    "e_total",
    "e_ionic",
    "e_electronic",
    "n",
    "e_ij_max",
    "weighted_surface_energy_EV_PER_ANG2",
    "weighted_surface_energy",
    "weighted_work_function",
    "surface_anisotropy",
    "shape_factor",
    "has_reconstructed",
    "possible_species",
    "has_props",
    "theoretical",
    "database_IDs"
  ]
}
