{
  "builder_meta": null,
  "nsites": null,
  "elements": null,
  "nelements": null,
  "composition": null,
  "composition_reduced": null,
  "formula_pretty": "Bi3P",
  "formula_anonymous": "AB3",
  "chemsys": null,
  "volume": 221.0126253233262,
  "density": 9.886254192975734,
  "density_atomic": 27.626578165415776,
  "symmetry": null,
  "property_name": null,
  "material_id": "mp-1183506",
  "deprecated": null,
  "deprecation_reasons": null,
  "last_updated": null,
  "origins": null,
  "warnings": null,
  "structure": {
    "@module": "pymatgen.core.structure",
    "@class": "Structure",
    "charge": 0,
    "lattice": {
      "matrix": [
        [3.498599, -6.059752, 0.0],
        [3.498599, 6.059752, 0.0],
        [0.0, 0.0, 5.212404]
      ],
      "pbc": [true, true, true],
      "a": 6.99719867263357,
      "b": 6.99719867263357,
      "c": 5.212404,
      "alpha": 90.0,
      "beta": 90.0,
      "gamma": 120.00000635984203,
      "volume": 221.0126253233262
    },
    "properties": {},
    "sites": [
      {
        "species": [{ "element": "Bi", "occu": 1 }],
        "abc": [0.820894, 0.179106, 0.75],
        "properties": { "magmom": 0.001 },
        "label": "Bi",
        "xyz": [3.498599, -3.8890761165759997, 3.9093030000000004]
      },
      {
        "species": [{ "element": "Bi", "occu": 1 }],
        "abc": [0.358211, 0.179106, 0.75],
        "properties": { "magmom": -0.0 },
        "label": "Bi",
        "xyz": [1.879856718883, -1.0853318819599997, 3.9093030000000004]
      },
      {
        "species": [{ "element": "Bi", "occu": 1 }],
        "abc": [0.820894, 0.641788999999999, 0.75],
        "properties": { "magmom": -0.0 },
        "label": "Bi",
        "xyz": [5.117341281116996, -1.0853318819600055, 3.9093030000000004]
      },
      {
        "species": [{ "element": "Bi", "occu": 1 }],
        "abc": [0.179106, 0.820894, 0.25],
        "properties": { "magmom": 0.001 },
        "label": "Bi",
        "xyz": [3.498599, 3.8890761165759997, 1.303101]
      },
      {
        "species": [{ "element": "Bi", "occu": 1 }],
        "abc": [0.641788999999999, 0.820894, 0.25],
        "properties": { "magmom": -0.0 },
        "label": "Bi",
        "xyz": [5.117341281116996, 1.0853318819600055, 1.303101]
      },
      {
        "species": [{ "element": "Bi", "occu": 1 }],
        "abc": [0.179106, 0.358211, 0.25],
        "properties": { "magmom": -0.0 },
        "label": "Bi",
        "xyz": [1.879856718883, 1.0853318819599997, 1.303101]
      },
      {
        "species": [{ "element": "P", "occu": 1 }],
        "abc": [0.666667, 0.333333, 0.25],
        "properties": { "magmom": 0.0 },
        "label": "P",
        "xyz": [3.498599, -2.0199213731679997, 1.303101]
      },
      {
        "species": [{ "element": "P", "occu": 1 }],
        "abc": [0.333333, 0.666667, 0.75],
        "properties": { "magmom": 0.0 },
        "label": "P",
        "xyz": [3.498599, 2.0199213731679997, 3.9093030000000004]
      }
    ]
  },
  "task_ids": null,
  "uncorrected_energy_per_atom": null,
  "energy_per_atom": -45.71680708883928,
  "formation_energy_per_atom": 0.41041729791666604,
  "energy_above_hull": 0.41041729791666604,
  "is_stable": false,
  "equilibrium_reaction_energy_per_atom": null,
  "decomposes_to": null,
  "xas": null,
  "grain_boundaries": null,
  "band_gap": 0.0,
  "cbm": null,
  "vbm": null,
  "efermi": 6.89851461,
  "is_gap_direct": null,
  "is_metal": null,
  "es_source_calc_id": null,
  "bandstructure": null,
  "dos": null,
  "dos_energy_up": null,
  "dos_energy_down": null,
  "is_magnetic": null,
  "ordering": null,
  "total_magnetization": 0.0021272,
  "total_magnetization_normalized_vol": null,
  "total_magnetization_normalized_formula_units": null,
  "num_magnetic_sites": null,
  "num_unique_magnetic_sites": null,
  "types_of_magnetic_species": null,
  "bulk_modulus": null,
  "shear_modulus": null,
  "universal_anisotropy": null,
  "homogeneous_poisson": null,
  "e_total": null,
  "e_ionic": null,
  "e_electronic": null,
  "n": null,
  "e_ij_max": null,
  "weighted_surface_energy_EV_PER_ANG2": null,
  "weighted_surface_energy": null,
  "weighted_work_function": null,
  "surface_anisotropy": null,
  "shape_factor": null,
  "has_reconstructed": null,
  "possible_species": null,
  "has_props": null,
  "theoretical": null,
  "database_IDs": null,
  "fields_not_requested": [
    "builder_meta",
    "nsites",
    "elements",
    "nelements",
    "composition",
    "composition_reduced",
    "chemsys",
    "symmetry",
    "property_name",
    "deprecated",
    "deprecation_reasons",
    "last_updated",
    "origins",
    "warnings",
    "task_ids",
    "uncorrected_energy_per_atom",
    "equilibrium_reaction_energy_per_atom",
    "decomposes_to",
    "xas",
    "grain_boundaries",
    "cbm",
    "vbm",
    "is_gap_direct",
    "is_metal",
    "es_source_calc_id",
    "bandstructure",
    "dos",
    "dos_energy_up",
    "dos_energy_down",
    "is_magnetic",
    "ordering",
    "total_magnetization_normalized_vol",
    "total_magnetization_normalized_formula_units",
    "num_magnetic_sites",
    "num_unique_magnetic_sites",
    "types_of_magnetic_species",
    "bulk_modulus",
    "shear_modulus",
    "universal_anisotropy",
    "homogeneous_poisson",
    "e_total",
    "e_ionic",
    "e_electronic",
    "n",
    "e_ij_max",
    "weighted_surface_energy_EV_PER_ANG2",
    "weighted_surface_energy",
    "weighted_work_function",
    "surface_anisotropy",
    "shape_factor",
    "has_reconstructed",
    "possible_species",
    "has_props",
    "theoretical",
    "database_IDs"
  ]
}
