{"builder_meta": null, "nsites": null, "elements": null, "nelements": null, "composition": null, "composition_reduced": null, "formula_pretty": "Bi3Rh", "formula_anonymous": "AB3", "chemsys": null, "volume": 444.3849822761442, "density": 10.908910123573724, "density_atomic": 27.774061392259014, "symmetry": null, "property_name": null, "material_id": "mp-581990", "deprecated": null, "deprecation_reasons": null, "last_updated": null, "origins": null, "warnings": null, "structure": {"@module": "pymatgen.core.structure", "@class": "Structure", "charge": 0, "lattice": {"matrix": [[4.28105583, 0.0, 0.0], [0.0, 8.90072447, 0.0], [0.0, 0.0, 11.66227089]], "pbc": [true, true, true], "a": 4.28105583, "b": 8.90072447, "c": 11.66227089, "alpha": 90.0, "beta": 90.0, "gamma": 90.0, "volume": 444.3849822761442}, "properties": {}, "sites": [{"species": [{"element": "Bi", "occu": 1}], "abc": [0.25, 0.39799728, 0.5898629400000001], "properties": {"magmom": -0.0}, "label": "Bi", "xyz": [1.0702639575, 3.5424641290894416, 6.879141394251818]}, {"species": [{"element": "Bi", "occu": 1}], "abc": [0.25, 0.8103927400000001, 0.61537945], "properties": {"magmom": -0.0}, "label": "Bi", "xyz": [1.0702639575, 7.213082491228349, 7.176721846039211]}, {"species": [{"element": "Bi", "occu": 1}], "abc": [0.75, 0.104228599999999, 0.67296061], "properties": {"magmom": -0.0}, "label": "Bi", "xyz": [3.2107918724999998, 0.9277100504938331, 7.848248932119643]}, {"species": [{"element": "Bi", "occu": 1}], "abc": [0.75, 0.6042286, 0.82703939], "properties": {"magmom": -0.0}, "label": "Bi", "xyz": [3.2107918724999998, 5.378072285493842, 9.645157402880358]}, {"species": [{"element": "Bi", "occu": 1}], "abc": [0.75, 0.10200272, 0.08986294], "properties": {"magmom": -0.0}, "label": "Bi", "xyz": [3.2107918724999998, 0.9078981059105584, 1.0480059492518166]}, {"species": [{"element": "Bi", "occu": 1}], "abc": [0.25, 0.3957714, 0.17296061000000001], "properties": {"magmom": -0.0}, "label": "Bi", "xyz": [1.0702639575, 3.522652184506158, 2.017113487119643]}, {"species": [{"element": "Bi", "occu": 1}], "abc": [0.25, 0.31039274, 0.8846205500000001], "properties": {"magmom": -0.0}, "label": "Bi", "xyz": [1.0702639575, 2.7627202562283477, 10.31668448896079]}, {"species": [{"element": "Bi", "occu": 1}], "abc": [0.25, 0.89799728, 0.91013706], "properties": {"magmom": -0.0}, "label": "Bi", "xyz": [1.0702639575, 7.992826364089442, 10.614264940748184]}, {"species": [{"element": "Bi", "occu": 1}], "abc": [0.25, 0.8957714, 0.32703939], "properties": {"magmom": -0.0}, "label": "Bi", "xyz": [1.0702639575, 7.973014419506158, 3.814021957880357]}, {"species": [{"element": "Bi", "occu": 1}], "abc": [0.75, 0.68960726, 0.11537945000000001], "properties": {"magmom": -0.0}, "label": "Bi", "xyz": [3.2107918724999998, 6.138004213771652, 1.3455864010392107]}, {"species": [{"element": "Bi", "occu": 1}], "abc": [0.75, 0.60200272, 0.41013706], "properties": {"magmom": -0.0}, "label": "Bi", "xyz": [3.2107918724999998, 5.358260340910558, 4.783129495748184]}, {"species": [{"element": "Bi", "occu": 1}], "abc": [0.75, 0.18960726, 0.38462055], "properties": {"magmom": -0.0}, "label": "Bi", "xyz": [3.2107918724999998, 1.6876419787716521, 4.4855490439607895]}, {"species": [{"element": "Rh", "occu": 1}], "abc": [0.25, 0.60275623, 0.98076328], "properties": {"magmom": 0.0}, "label": "Rh", "xyz": [1.0702639575, 5.364967125805948, 11.43792705032492]}, {"species": [{"element": "Rh", "occu": 1}], "abc": [0.25, 0.10275623, 0.51923672], "properties": {"magmom": 0.0}, "label": "Rh", "xyz": [1.0702639575, 0.9146048908059482, 6.055479284675081]}, {"species": [{"element": "Rh", "occu": 1}], "abc": [0.75, 0.89724377, 0.48076328], "properties": {"magmom": 0.0}, "label": "Rh", "xyz": [3.2107918724999998, 7.986119579194052, 5.606791605324919]}, {"species": [{"element": "Rh", "occu": 1}], "abc": [0.75, 0.39724377, 0.01923672], "properties": {"magmom": 0.0}, "label": "Rh", "xyz": [3.2107918724999998, 3.5357573441940517, 0.2243438396750808]}]}, "task_ids": null, "uncorrected_energy_per_atom": null, "energy_per_atom": -50.03124395, "formation_energy_per_atom": -0.12048148374999801, "energy_above_hull": 0.046635573125001, "is_stable": false, "equilibrium_reaction_energy_per_atom": null, "decomposes_to": null, "xas": null, "grain_boundaries": null, "band_gap": 0.0, "cbm": null, "vbm": null, "efermi": 6.26075117, "is_gap_direct": null, "is_metal": null, "es_source_calc_id": null, "bandstructure": null, "dos": null, "dos_energy_up": null, "dos_energy_down": null, "is_magnetic": null, "ordering": null, "total_magnetization": 2e-07, "total_magnetization_normalized_vol": null, "total_magnetization_normalized_formula_units": null, "num_magnetic_sites": null, "num_unique_magnetic_sites": null, "types_of_magnetic_species": null, "bulk_modulus": null, "shear_modulus": null, "universal_anisotropy": null, "homogeneous_poisson": null, "e_total": null, "e_ionic": null, "e_electronic": null, "n": null, "e_ij_max": null, "weighted_surface_energy_EV_PER_ANG2": null, "weighted_surface_energy": null, "weighted_work_function": null, "surface_anisotropy": null, "shape_factor": null, "has_reconstructed": null, "possible_species": null, "has_props": null, "theoretical": null, "database_IDs": null, "fields_not_requested": ["builder_meta", "nsites", "elements", "nelements", "composition", "composition_reduced", "chemsys", "symmetry", "property_name", "deprecated", "deprecation_reasons", "last_updated", "origins", "warnings", "task_ids", "uncorrected_energy_per_atom", "equilibrium_reaction_energy_per_atom", "decomposes_to", "xas", "grain_boundaries", "cbm", "vbm", "is_gap_direct", "is_metal", "es_source_calc_id", "bandstructure", "dos", "dos_energy_up", "dos_energy_down", "is_magnetic", "ordering", "total_magnetization_normalized_vol", "total_magnetization_normalized_formula_units", "num_magnetic_sites", "num_unique_magnetic_sites", "types_of_magnetic_species", "bulk_modulus", "shear_modulus", "universal_anisotropy", "homogeneous_poisson", "e_total", "e_ionic", "e_electronic", "n", "e_ij_max", "weighted_surface_energy_EV_PER_ANG2", "weighted_surface_energy", "weighted_work_function", "surface_anisotropy", "shape_factor", "has_reconstructed", "possible_species", "has_props", "theoretical", "database_IDs"]}