{"builder_meta": null, "nsites": null, "elements": null, "nelements": null, "composition": null, "composition_reduced": null, "formula_pretty": "Bi3Se4", "formula_anonymous": "A3B4", "chemsys": null, "volume": 211.14607427639024, "density": 7.414416863875741, "density_atomic": 30.163724896627176, "symmetry": null, "property_name": null, "material_id": "mp-542615", "deprecated": null, "deprecation_reasons": null, "last_updated": null, "origins": null, "warnings": null, "structure": {"@module": "pymatgen.core.structure", "@class": "Structure", "charge": 0, "lattice": {"matrix": [[13.05417776, -2.16581582, -0.032768610000000004], [13.05417776, 2.16581582, -0.032768610000000004], [12.70422315, -0.0, 3.70217569]], "pbc": [true, true, true], "a": 13.232663712860015, "b": 13.232663712860015, "c": 13.232663778870183, "alpha": 18.840188894501896, "beta": 18.840188894501896, "gamma": 18.84018759698507, "volume": 211.14607427639024}, "properties": {}, "sites": [{"species": [{"element": "Bi", "occu": 1}], "abc": [-0.0, -0.0, 0.0], "properties": {"magmom": 0.0}, "label": "Bi", "xyz": [0.0, 0.0, 0.0]}, {"species": [{"element": "Bi", "occu": 1}], "abc": [0.42622447, 0.42622447, 0.42622447], "properties": {"magmom": 0.0}, "label": "Bi", "xyz": [16.542870772954057, 0.0, 1.550024304457361]}, {"species": [{"element": "Bi", "occu": 1}], "abc": [0.57377553, 0.57377553, 0.57377553], "properties": {"magmom": 0.0}, "label": "Bi", "xyz": [22.269707897045947, 0.0, 2.086614165542639]}, {"species": [{"element": "Se", "occu": 1}], "abc": [0.12812279000000001, 0.12812279000000001, 0.12812279000000001], "properties": {"magmom": -0.0}, "label": "Se", "xyz": [4.97277586629489, 0.0, 0.46593626699773133]}, {"species": [{"element": "Se", "occu": 1}], "abc": [0.8718772100000001, 0.8718772100000001, 0.8718772100000001], "properties": {"magmom": -0.0}, "label": "Se", "xyz": [33.83980280370511, 0.0, 3.1707022030022687]}, {"species": [{"element": "Se", "occu": 1}], "abc": [0.29155531, 0.29155531, 0.29155531], "properties": {"magmom": 0.0}, "label": "Se", "xyz": [11.316013406031239, 0.0, 1.0602812564787758]}, {"species": [{"element": "Se", "occu": 1}], "abc": [0.70844469, 0.70844469, 0.70844469], "properties": {"magmom": 0.0}, "label": "Se", "xyz": [27.496565263968762, 0.0, 2.576357213521224]}]}, "task_ids": null, "uncorrected_energy_per_atom": null, "energy_per_atom": -33.58973607428571, "formation_energy_per_atom": -0.339298623035712, "energy_above_hull": 0.074107982142862, "is_stable": false, "equilibrium_reaction_energy_per_atom": null, "decomposes_to": null, "xas": null, "grain_boundaries": null, "band_gap": 0.0, "cbm": null, "vbm": null, "efermi": 4.3288716, "is_gap_direct": null, "is_metal": null, "es_source_calc_id": null, "bandstructure": null, "dos": null, "dos_energy_up": null, "dos_energy_down": null, "is_magnetic": null, "ordering": null, "total_magnetization": 1e-07, "total_magnetization_normalized_vol": null, "total_magnetization_normalized_formula_units": null, "num_magnetic_sites": null, "num_unique_magnetic_sites": null, "types_of_magnetic_species": null, "bulk_modulus": null, "shear_modulus": null, "universal_anisotropy": null, "homogeneous_poisson": null, "e_total": null, "e_ionic": null, "e_electronic": null, "n": null, "e_ij_max": null, "weighted_surface_energy_EV_PER_ANG2": null, "weighted_surface_energy": null, "weighted_work_function": null, "surface_anisotropy": null, "shape_factor": null, "has_reconstructed": null, "possible_species": null, "has_props": null, "theoretical": null, "database_IDs": null, "fields_not_requested": ["builder_meta", "nsites", "elements", "nelements", "composition", "composition_reduced", "chemsys", "symmetry", "property_name", "deprecated", "deprecation_reasons", "last_updated", "origins", "warnings", "task_ids", "uncorrected_energy_per_atom", "equilibrium_reaction_energy_per_atom", "decomposes_to", "xas", "grain_boundaries", "cbm", "vbm", "is_gap_direct", "is_metal", "es_source_calc_id", "bandstructure", "dos", "dos_energy_up", "dos_energy_down", "is_magnetic", "ordering", "total_magnetization_normalized_vol", "total_magnetization_normalized_formula_units", "num_magnetic_sites", "num_unique_magnetic_sites", "types_of_magnetic_species", "bulk_modulus", "shear_modulus", "universal_anisotropy", "homogeneous_poisson", "e_total", "e_ionic", "e_electronic", "n", "e_ij_max", "weighted_surface_energy_EV_PER_ANG2", "weighted_surface_energy", "weighted_work_function", "surface_anisotropy", "shape_factor", "has_reconstructed", "possible_species", "has_props", "theoretical", "database_IDs"]}