{
  "builder_meta": null,
  "nsites": null,
  "elements": null,
  "nelements": null,
  "composition": null,
  "composition_reduced": null,
  "formula_pretty": "Bi3Sb",
  "formula_anonymous": "AB3",
  "chemsys": null,
  "volume": 141.43193576766612,
  "density": 8.79043042904125,
  "density_atomic": 35.35798394191653,
  "symmetry": null,
  "property_name": null,
  "material_id": "mp-1227319",
  "deprecated": null,
  "deprecation_reasons": null,
  "last_updated": null,
  "origins": null,
  "warnings": null,
  "structure": {
    "@module": "pymatgen.core.structure",
    "@class": "Structure",
    "charge": 0,
    "lattice": {
      "matrix": [
        [-2.24715583, -3.89218651, 1e-8],
        [4.49431065, 0.0, 2e-8],
        [2.24715586, -1.29739621, 8.08519978]
      ],
      "pbc": [true, true, true],
      "a": 4.494310308927163,
      "b": 4.49431065,
      "c": 8.491372201674283,
      "alpha": 74.65444325901133,
      "beta": 90.00000192800034,
      "gamma": 120.00000994438054,
      "volume": 141.43193576766615
    },
    "properties": {},
    "sites": [
      {
        "species": [{ "element": "Bi", "occu": 1 }],
        "abc": [0.1155355, 0.23107201, 0.65339149],
        "properties": { "magmom": 0.0 },
        "label": "Bi",
        "xyz": [2.2471556386905727, -1.2973933572983578, 5.2828007369786665]
      },
      {
        "species": [{ "element": "Bi", "occu": 1 }],
        "abc": [0.88637186, 0.77274272, 0.34088543],
        "properties": { "magmom": -0.0 },
        "label": "Bi",
        "xyz": [2.247152835072144, -3.892188061261829, 2.756126827959778]
      },
      {
        "species": [{ "element": "Bi", "occu": 1 }],
        "abc": [0.38165878000000003, 0.76331856, 0.85502066],
        "properties": { "magmom": -0.0 },
        "label": "Bi",
        "xyz": [4.494308667543043, -2.5947877186947563, 6.913012871210414]
      },
      {
        "species": [{ "element": "Sb", "occu": 1 }],
        "abc": [0.61643386, 0.23286572, 0.15070042],
        "properties": { "magmom": 0.0 },
        "label": "Sb",
        "xyz": [-4.724985024795458e-6, -2.5947937079526366, 1.2184430134515605]
      }
    ]
  },
  "task_ids": null,
  "uncorrected_energy_per_atom": null,
  "energy_per_atom": -50.30010216,
  "formation_energy_per_atom": 0.003182081249995,
  "energy_above_hull": 0.006644767499999001,
  "is_stable": false,
  "equilibrium_reaction_energy_per_atom": null,
  "decomposes_to": null,
  "xas": null,
  "grain_boundaries": null,
  "band_gap": 0.0,
  "cbm": null,
  "vbm": null,
  "efermi": 5.08616503,
  "is_gap_direct": null,
  "is_metal": null,
  "es_source_calc_id": null,
  "bandstructure": null,
  "dos": null,
  "dos_energy_up": null,
  "dos_energy_down": null,
  "is_magnetic": null,
  "ordering": null,
  "total_magnetization": 3e-7,
  "total_magnetization_normalized_vol": null,
  "total_magnetization_normalized_formula_units": null,
  "num_magnetic_sites": null,
  "num_unique_magnetic_sites": null,
  "types_of_magnetic_species": null,
  "bulk_modulus": null,
  "shear_modulus": null,
  "universal_anisotropy": null,
  "homogeneous_poisson": null,
  "e_total": null,
  "e_ionic": null,
  "e_electronic": null,
  "n": null,
  "e_ij_max": null,
  "weighted_surface_energy_EV_PER_ANG2": null,
  "weighted_surface_energy": null,
  "weighted_work_function": null,
  "surface_anisotropy": null,
  "shape_factor": null,
  "has_reconstructed": null,
  "possible_species": null,
  "has_props": null,
  "theoretical": null,
  "database_IDs": null,
  "fields_not_requested": [
    "builder_meta",
    "nsites",
    "elements",
    "nelements",
    "composition",
    "composition_reduced",
    "chemsys",
    "symmetry",
    "property_name",
    "deprecated",
    "deprecation_reasons",
    "last_updated",
    "origins",
    "warnings",
    "task_ids",
    "uncorrected_energy_per_atom",
    "equilibrium_reaction_energy_per_atom",
    "decomposes_to",
    "xas",
    "grain_boundaries",
    "cbm",
    "vbm",
    "is_gap_direct",
    "is_metal",
    "es_source_calc_id",
    "bandstructure",
    "dos",
    "dos_energy_up",
    "dos_energy_down",
    "is_magnetic",
    "ordering",
    "total_magnetization_normalized_vol",
    "total_magnetization_normalized_formula_units",
    "num_magnetic_sites",
    "num_unique_magnetic_sites",
    "types_of_magnetic_species",
    "bulk_modulus",
    "shear_modulus",
    "universal_anisotropy",
    "homogeneous_poisson",
    "e_total",
    "e_ionic",
    "e_electronic",
    "n",
    "e_ij_max",
    "weighted_surface_energy_EV_PER_ANG2",
    "weighted_surface_energy",
    "weighted_work_function",
    "surface_anisotropy",
    "shape_factor",
    "has_reconstructed",
    "possible_species",
    "has_props",
    "theoretical",
    "database_IDs"
  ]
}
