{
  "builder_meta": null,
  "nsites": null,
  "elements": null,
  "nelements": null,
  "composition": null,
  "composition_reduced": null,
  "formula_pretty": "Bi4Ir",
  "formula_anonymous": "AB4",
  "chemsys": null,
  "volume": 1500.7417016360057,
  "density": 10.238523247447974,
  "density_atomic": 33.34981559191124,
  "symmetry": null,
  "property_name": null,
  "material_id": "mp-1194918",
  "deprecated": null,
  "deprecation_reasons": null,
  "last_updated": null,
  "origins": null,
  "warnings": null,
  "structure": {
    "@module": "pymatgen.core.structure",
    "@class": "Structure",
    "charge": 0,
    "lattice": {
      "matrix": [
        [-1e-8, -0.0, -7.55545284],
        [0.0, -15.14458666, 2.5184832200000002],
        [-13.11559588, 7.57229333, 2.5184832200000002]
      ],
      "pbc": [true, true, true],
      "a": 7.55545284,
      "b": 15.352565350184038,
      "c": 15.352564583562483,
      "alpha": 117.36354362233872,
      "beta": 99.4416541854356,
      "gamma": 99.44165377533149,
      "volume": 1500.7417016360057
    },
    "properties": {},
    "sites": [
      {
        "species": [{ "element": "Bi", "occu": 1 }],
        "abc": [0.37162881000000003, 0.4106468, 0.11671038],
        "properties": { "magmom": 0.0 },
        "label": "Bi",
        "xyz": [-1.5307261827975227, -5.335310817235922, -1.4796837391638011]
      },
      {
        "species": [{ "element": "Bi", "occu": 1 }],
        "abc": [0.25491943, 0.88328962, 0.29393542],
        "properties": { "magmom": 0.0 },
        "label": "Bi",
        "xyz": [-3.855138186087264, -11.15129097565172, 1.0387897780391477]
      },
      {
        "species": [{ "element": "Bi", "occu": 1 }],
        "abc": [0.96098401, 0.70606458, 0.5893532],
        "properties": { "magmom": 0.0 },
        "label": "Bi",
        "xyz": [-7.729718411394657, -6.230300913992348, -3.9981814257294364]
      },
      {
        "species": [{ "element": "Bi", "occu": 1 }],
        "abc": [0.37162881000000003, 0.11671038, 0.4106468],
        "properties": { "magmom": 0.0 },
        "label": "Bi",
        "xyz": [-5.385877481931471, 1.342007560594313, -1.4796837391638011]
      },
      {
        "species": [{ "element": "Bi", "occu": 1 }],
        "abc": [0.96098401, 0.5893532, 0.70606458],
        "properties": { "magmom": 0.0 },
        "label": "Bi",
        "xyz": [-9.260457706071772, -3.5789825010650596, -3.9981814257294364]
      },
      {
        "species": [{ "element": "Bi", "occu": 1 }],
        "abc": [0.25491943, 0.29393542, 0.88328962],
        "properties": { "magmom": 0.0 },
        "label": "Bi",
        "xyz": [-11.58486970346796, 2.236997657350738, 1.0387897780391477]
      },
      {
        "species": [{ "element": "Bi", "occu": 1 }],
        "abc": [0.62837119, 0.5893532, 0.88328962],
        "properties": { "magmom": 0.0 },
        "label": "Bi",
        "xyz": [-11.584869707202477, -2.236982512764077, -1.0388026608361987]
      },
      {
        "species": [{ "element": "Bi", "occu": 1 }],
        "abc": [0.74508057, 0.11671038, 0.70606458],
        "properties": { "magmom": 0.0 },
        "label": "Bi",
        "xyz": [-9.260457703912738, 3.578997645651721, -3.5572761780391478]
      },
      {
        "species": [{ "element": "Bi", "occu": 1 }],
        "abc": [0.03901699, 0.29393542, 0.4106468],
        "properties": { "magmom": 0.0 },
        "label": "Bi",
        "xyz": [-5.385877478605353, -1.341992416007653, 1.479687470276597]
      },
      {
        "species": [{ "element": "Bi", "occu": 1 }],
        "abc": [0.62837119, 0.88328962, 0.5893532],
        "properties": { "magmom": 0.0 },
        "label": "Bi",
        "xyz": [-7.729718408068529, -8.914300890594314, -1.0388026608361984]
      },
      {
        "species": [{ "element": "Bi", "occu": 1 }],
        "abc": [0.03901699, 0.4106468, 0.29393542],
        "properties": { "magmom": 0.0 },
        "label": "Bi",
        "xyz": [-3.85513818392824, -3.993310828934939, 1.479687470276597]
      },
      {
        "species": [{ "element": "Bi", "occu": 1 }],
        "abc": [0.74508057, 0.70606458, 0.11671038],
        "properties": { "magmom": 0.0 },
        "label": "Bi",
        "xyz": [-1.5307261865320403, -9.809290987350739, -3.5572761780391478]
      },
      {
        "species": [{ "element": "Bi", "occu": 1 }],
        "abc": [0.31682427, 0.6334868300000001, 0.12729685],
        "properties": { "magmom": -0.0 },
        "label": "Bi",
        "xyz": [-1.6695740445652207, -8.629967106718679, -0.4777298984225771]
      },
      {
        "species": [{ "element": "Bi", "occu": 1 }],
        "abc": [0.18952742, 0.87270315, 0.50618898],
        "properties": { "magmom": -0.0 },
        "label": "Bi",
        "xyz": [-6.638970102484677, -9.383717046656475, 2.040751207898186]
      },
      {
        "species": [{ "element": "Bi", "occu": 1 }],
        "abc": [0.68333744, 0.49381102, 0.36651317],
        "properties": { "magmom": -0.0 },
        "label": "Bi",
        "xyz": [-4.807038629251115, -4.703218553504836, -2.9962117654512372]
      },
      {
        "species": [{ "element": "Bi", "occu": 1 }],
        "abc": [0.31682427, 0.12729685, 0.6334868300000001],
        "properties": { "magmom": -0.0 },
        "label": "Bi",
        "xyz": [-8.308557260750504, 2.8690899210818235, -0.47772989842257707]
      },
      {
        "species": [{ "element": "Bi", "occu": 1 }],
        "abc": [0.68333744, 0.36651317, 0.49381102],
        "properties": { "magmom": -0.0 },
        "label": "Bi",
        "xyz": [-6.4766257862439724, -1.8114085720698156, -2.9962117654512372]
      },
      {
        "species": [{ "element": "Bi", "occu": 1 }],
        "abc": [0.18952742, 0.50618898, 0.87270315],
        "properties": { "magmom": -0.0 },
        "label": "Bi",
        "xyz": [-11.446021840498297, -1.0576586321320178, 2.040751207898186]
      },
      {
        "species": [{ "element": "Bi", "occu": 1 }],
        "abc": [0.68317573, 0.36651317, 0.87270315],
        "properties": { "magmom": -0.0 },
        "label": "Bi",
        "xyz": [-11.446021845434778, 1.0576737767186772, -2.0407565015774227]
      },
      {
        "species": [{ "element": "Bi", "occu": 1 }],
        "abc": [0.81047258, 0.12729685, 0.49381102],
        "properties": { "magmom": -0.0 },
        "label": "Bi",
        "xyz": [-6.4766257875153235, 1.8114237166564755, -4.559237607898186]
      },
      {
        "species": [{ "element": "Bi", "occu": 1 }],
        "abc": [0.31666256, 0.50618898, 0.6334868300000001],
        "properties": { "magmom": -0.0 },
        "label": "Bi",
        "xyz": [-8.308557260748888, -2.8690747764951627, 0.47772536545123856]
      },
      {
        "species": [{ "element": "Bi", "occu": 1 }],
        "abc": [0.68317573, 0.87270315, 0.36651317],
        "properties": { "magmom": -0.0 },
        "label": "Bi",
        "xyz": [-4.807038629249497, -10.441383251081822, -2.0407565015774227]
      },
      {
        "species": [{ "element": "Bi", "occu": 1 }],
        "abc": [0.31666256, 0.6334868300000001, 0.50618898],
        "properties": { "magmom": -0.0 },
        "label": "Bi",
        "xyz": [-6.638970103756028, -5.760884757930185, 0.47772536545123856]
      },
      {
        "species": [{ "element": "Bi", "occu": 1 }],
        "abc": [0.81047258, 0.49381102, 0.12729685],
        "properties": { "magmom": -0.0 },
        "label": "Bi",
        "xyz": [-1.6695740495017037, -6.514634697867982, -4.559237607898186]
      },
      {
        "species": [{ "element": "Bi", "occu": 1 }],
        "abc": [0.77640849, 0.16970745, 0.16970745],
        "properties": { "magmom": -0.0 },
        "label": "Bi",
        "xyz": [-2.225814339789391, -1.2850745916863087, -5.011307000502634]
      },
      {
        "species": [{ "element": "Bi", "occu": 1 }],
        "abc": [0.6067000300000001, 0.83029255, 0.0],
        "properties": { "magmom": -0.0 },
        "label": "Bi",
        "xyz": [-6.067000300000001e-9, -12.574437476627383, -2.4928156098255743]
      },
      {
        "species": [{ "element": "Bi", "occu": 1 }],
        "abc": [0.6067000300000001, -0.0, 0.83029255],
        "properties": { "magmom": -0.0 },
        "label": "Bi",
        "xyz": [-10.889781554041695, 6.287218738313691, -2.4928156098255743]
      },
      {
        "species": [{ "element": "Bi", "occu": 1 }],
        "abc": [0.22359151, 0.83029255, 0.83029255],
        "properties": { "magmom": -0.0 },
        "label": "Bi",
        "xyz": [-10.889781550210609, -6.287218738313691, 2.492820600502634]
      },
      {
        "species": [{ "element": "Bi", "occu": 1 }],
        "abc": [0.39329997, 0.16970745, -0.0],
        "properties": { "magmom": -0.0 },
        "label": "Bi",
        "xyz": [-3.9329997e-9, -2.5701491833726173, -2.5441540101744256]
      },
      {
        "species": [{ "element": "Bi", "occu": 1 }],
        "abc": [0.39329997, 0.0, 0.16970745],
        "properties": { "magmom": -0.0 },
        "label": "Bi",
        "xyz": [-2.225814335958306, 1.2850745916863087, -2.5441540101744256]
      },
      {
        "species": [{ "element": "Bi", "occu": 1 }],
        "abc": [0.56045371, 0.73211448, 0.73211448],
        "properties": { "magmom": 0.0 },
        "label": "Bi",
        "xyz": [-9.60211766318088, -5.543785593700418, -0.5468455089099846]
      },
      {
        "species": [{ "element": "Bi", "occu": 1 }],
        "abc": [0.82833923, 0.26788552, 0.0],
        "properties": { "magmom": 0.0 },
        "label": "Bi",
        "xyz": [-8.2833923e-9, -4.057015472599163, -5.583812800785938]
      },
      {
        "species": [{ "element": "Bi", "occu": 1 }],
        "abc": [0.82833923, 0.0, 0.26788552],
        "properties": { "magmom": 0.0 },
        "label": "Bi",
        "xyz": [-3.51347823070705, 2.0285077362995816, -5.583812800785938]
      },
      {
        "species": [{ "element": "Bi", "occu": 1 }],
        "abc": [0.43954629, 0.26788552, 0.26788552],
        "properties": { "magmom": 0.0 },
        "label": "Bi",
        "xyz": [-3.513478226819121, -2.0285077362995816, -1.971640891090015]
      },
      {
        "species": [{ "element": "Bi", "occu": 1 }],
        "abc": [0.17166077, 0.73211448, -0.0],
        "properties": { "magmom": 0.0 },
        "label": "Bi",
        "xyz": [-1.7166077e-9, -11.087571187400837, 0.5468431807859391]
      },
      {
        "species": [{ "element": "Bi", "occu": 1 }],
        "abc": [0.17166077, -0.0, 0.73211448],
        "properties": { "magmom": 0.0 },
        "label": "Bi",
        "xyz": [-9.60211765929295, 5.543785593700418, 0.5468431807859391]
      },
      {
        "species": [{ "element": "Ir", "occu": 1 }],
        "abc": [0.33091689, 0.83091689, 0.66183177],
        "properties": { "magmom": -0.0 },
        "label": "Ir",
        "xyz": [-8.680318039174276, -7.572308550309593, 1.2592354955330183]
      },
      {
        "species": [{ "element": "Ir", "occu": 1 }],
        "abc": [0.66908311, 0.33816823, 0.16908311],
        "properties": { "magmom": -0.0 },
        "label": "Ir",
        "xyz": [-2.217625747584418, -3.841071158825156, -3.777721895533017]
      },
      {
        "species": [{ "element": "Ir", "occu": 1 }],
        "abc": [0.5, 0.83091689, 0.16908311],
        "properties": { "magmom": -0.0 },
        "label": "Ir",
        "xyz": [-2.217625745893587, -11.303545941794031, -1.2592431999999996]
      },
      {
        "species": [{ "element": "Ir", "occu": 1 }],
        "abc": [0.33091689, 0.66183177, 0.83091689],
        "properties": { "magmom": -0.0 },
        "label": "Ir",
        "xyz": [-10.897970142415582, -3.731222171174845, 1.2592354955330183]
      },
      {
        "species": [{ "element": "Ir", "occu": 1 }],
        "abc": [0.5, 0.16908311, 0.83091689],
        "properties": { "magmom": -0.0 },
        "label": "Ir",
        "xyz": [-10.897970144106415, 3.731252611794031, -1.2592431999999993]
      },
      {
        "species": [{ "element": "Ir", "occu": 1 }],
        "abc": [0.66908311, 0.16908311, 0.33816823],
        "properties": { "magmom": -0.0 },
        "label": "Ir",
        "xyz": [-4.435277850825724, 1.522030959355547e-5, -3.7777218955330167]
      },
      {
        "species": [{ "element": "Ir", "occu": 1 }],
        "abc": [0.5, 0.5, 0.0],
        "properties": { "magmom": 0.0 },
        "label": "Ir",
        "xyz": [-5e-9, -7.57229333, -2.51848481]
      },
      {
        "species": [{ "element": "Ir", "occu": 1 }],
        "abc": [0.5, 0.0, 0.5],
        "properties": { "magmom": 0.0 },
        "label": "Ir",
        "xyz": [-6.557797945000001, 3.786146665, -2.51848481]
      },
      {
        "species": [{ "element": "Ir", "occu": 1 }],
        "abc": [0.0, 0.5, 0.5],
        "properties": { "magmom": 0.0 },
        "label": "Ir",
        "xyz": [-6.55779794, -3.786146665, 2.5184832200000002]
      }
    ]
  },
  "task_ids": null,
  "uncorrected_energy_per_atom": null,
  "energy_per_atom": -57.28010706733333,
  "formation_energy_per_atom": -0.006417381333327,
  "energy_above_hull": 0.039866788666671,
  "is_stable": false,
  "equilibrium_reaction_energy_per_atom": null,
  "decomposes_to": null,
  "xas": null,
  "grain_boundaries": null,
  "band_gap": 0.0,
  "cbm": null,
  "vbm": null,
  "efermi": 5.41508291,
  "is_gap_direct": null,
  "is_metal": null,
  "es_source_calc_id": null,
  "bandstructure": null,
  "dos": null,
  "dos_energy_up": null,
  "dos_energy_down": null,
  "is_magnetic": null,
  "ordering": null,
  "total_magnetization": 2e-7,
  "total_magnetization_normalized_vol": null,
  "total_magnetization_normalized_formula_units": null,
  "num_magnetic_sites": null,
  "num_unique_magnetic_sites": null,
  "types_of_magnetic_species": null,
  "bulk_modulus": null,
  "shear_modulus": null,
  "universal_anisotropy": null,
  "homogeneous_poisson": null,
  "e_total": null,
  "e_ionic": null,
  "e_electronic": null,
  "n": null,
  "e_ij_max": null,
  "weighted_surface_energy_EV_PER_ANG2": null,
  "weighted_surface_energy": null,
  "weighted_work_function": null,
  "surface_anisotropy": null,
  "shape_factor": null,
  "has_reconstructed": null,
  "possible_species": null,
  "has_props": null,
  "theoretical": null,
  "database_IDs": null,
  "fields_not_requested": [
    "builder_meta",
    "nsites",
    "elements",
    "nelements",
    "composition",
    "composition_reduced",
    "chemsys",
    "symmetry",
    "property_name",
    "deprecated",
    "deprecation_reasons",
    "last_updated",
    "origins",
    "warnings",
    "task_ids",
    "uncorrected_energy_per_atom",
    "equilibrium_reaction_energy_per_atom",
    "decomposes_to",
    "xas",
    "grain_boundaries",
    "cbm",
    "vbm",
    "is_gap_direct",
    "is_metal",
    "es_source_calc_id",
    "bandstructure",
    "dos",
    "dos_energy_up",
    "dos_energy_down",
    "is_magnetic",
    "ordering",
    "total_magnetization_normalized_vol",
    "total_magnetization_normalized_formula_units",
    "num_magnetic_sites",
    "num_unique_magnetic_sites",
    "types_of_magnetic_species",
    "bulk_modulus",
    "shear_modulus",
    "universal_anisotropy",
    "homogeneous_poisson",
    "e_total",
    "e_ionic",
    "e_electronic",
    "n",
    "e_ij_max",
    "weighted_surface_energy_EV_PER_ANG2",
    "weighted_surface_energy",
    "weighted_work_function",
    "surface_anisotropy",
    "shape_factor",
    "has_reconstructed",
    "possible_species",
    "has_props",
    "theoretical",
    "database_IDs"
  ]
}
