{
  "builder_meta": null,
  "nsites": null,
  "elements": null,
  "nelements": null,
  "composition": null,
  "composition_reduced": null,
  "formula_pretty": "Bi4I",
  "formula_anonymous": "AB4",
  "chemsys": null,
  "volume": 769.9364003858044,
  "density": 8.30619413642376,
  "density_atomic": 38.49682001929022,
  "symmetry": null,
  "property_name": null,
  "material_id": "mp-583234",
  "deprecated": null,
  "deprecation_reasons": null,
  "last_updated": null,
  "origins": null,
  "warnings": null,
  "structure": {
    "@module": "pymatgen.core.structure",
    "@class": "Structure",
    "charge": 0,
    "lattice": {
      "matrix": [
        [4.45407227, 2e-8, 1e-8],
        [-2.22703509, 12.87138014, -3.14998131],
        [2e-8, 0.09059182, 13.40772031]
      ],
      "pbc": [true, true, true],
      "a": 4.45407227,
      "b": 13.437056755622752,
      "c": 13.408026356963855,
      "alpha": 103.17626240719905,
      "beta": 89.99999978416292,
      "gamma": 99.54012690549021,
      "volume": 769.9364003858045
    },
    "properties": {},
    "sites": [
      {
        "species": [{ "element": "Bi", "occu": 1 }],
        "abc": [0.11298488, 0.22596877, 0.11645114000000001],
        "properties": { "magmom": 0.0 },
        "label": "Bi",
        "xyz": [2.443232160967805e-6, 2.9190794614116005, 0.8495469138868137]
      },
      {
        "species": [{ "element": "Bi", "occu": 1 }],
        "abc": [0.88701512, 0.7740312300000001, 0.88354886],
        "properties": { "magmom": 0.0 },
        "label": "Bi",
        "xyz": [2.227034756767839, 10.042892518588399, 9.408192096113186]
      },
      {
        "species": [{ "element": "Bi", "occu": 1 }],
        "abc": [0.34164037, 0.68328075, 0.13042067000000002],
        "properties": { "magmom": 0.0 },
        "label": "Bi",
        "xyz": [6.943664358197195e-7, 8.806581328288031, -0.40367772256357104]
      },
      {
        "species": [{ "element": "Bi", "occu": 1 }],
        "abc": [0.43722141000000003, 0.87444281, 0.63289499],
        "properties": { "magmom": 0.0 },
        "label": "Bi",
        "xyz": [9.487209977227125e-7, 11.312620935957202, 5.73120050772858]
      },
      {
        "species": [{ "element": "Bi", "occu": 1 }],
        "abc": [0.08109789, 0.16219378, 0.88248887],
        "properties": { "magmom": -0.0 },
        "label": "Bi",
        "xyz": [4.641214547500952e-6, 2.16760407320853, 11.321256570860676]
      },
      {
        "species": [{ "element": "Bi", "occu": 1 }],
        "abc": [0.98645994, 0.97292088, 0.38191148],
        "properties": { "magmom": -0.0 },
        "label": "Bi",
        "xyz": [2.2270349323044147, 12.557432568404616, 2.0558797287740056]
      },
      {
        "species": [{ "element": "Bi", "occu": 1 }],
        "abc": [0.91890211, 0.83780622, 0.11751113],
        "properties": { "magmom": -0.0 },
        "label": "Bi",
        "xyz": [2.2270325587854525, 10.79436790679147, -1.0635175608606766]
      },
      {
        "species": [{ "element": "Bi", "occu": 1 }],
        "abc": [0.78916485, 0.57832869, 0.37115293],
        "properties": { "magmom": -0.0 },
        "label": "Bi",
        "xyz": [2.227038996083036, 7.477511850068545, 3.154590121031873]
      },
      {
        "species": [{ "element": "Bi", "occu": 1 }],
        "abc": [0.46373775, 0.9274735, 0.86856623],
        "properties": { "magmom": -0.0 },
        "label": "Bi",
        "xyz": [5.440653402243421e-6, 12.016548993117283, 8.723968896668225]
      },
      {
        "species": [{ "element": "Bi", "occu": 1 }],
        "abc": [0.56277859, 0.12555719, 0.36710501],
        "properties": { "magmom": 0.0 },
        "label": "Bi",
        "xyz": [2.2270362512790025, 1.6493510440427965, 4.52653850227142]
      },
      {
        "species": [{ "element": "Bi", "occu": 1 }],
        "abc": [0.01354006, 0.02707912, 0.61808852],
        "properties": { "magmom": -0.0 },
        "label": "Bi",
        "xyz": [2.2676955857916136e-6, 0.4045394115953844, 8.201859281225996]
      },
      {
        "species": [{ "element": "Bi", "occu": 1 }],
        "abc": [0.53626225, 0.0725265, 0.13143377],
        "properties": { "magmom": -0.0 },
        "label": "Bi",
        "xyz": [2.2270317593465987, 0.9454229868827163, 1.5337701133317765]
      },
      {
        "species": [{ "element": "Bi", "occu": 1 }],
        "abc": [0.65835963, 0.31671925, 0.86957933],
        "properties": { "magmom": 0.0 },
        "label": "Bi",
        "xyz": [2.227036505633564, 4.155390651711968, 10.66141673256357]
      },
      {
        "species": [{ "element": "Bi", "occu": 1 }],
        "abc": [0.6317497400000001, 0.26349949, 0.63727877],
        "properties": { "magmom": 0.0 },
        "label": "Bi",
        "xyz": [2.2270364008321812, 3.4493343587427847, 7.714437045283785]
      },
      {
        "species": [{ "element": "Bi", "occu": 1 }],
        "abc": [0.36825026, 0.73650051, 0.36272123],
        "properties": { "magmom": 0.0 },
        "label": "Bi",
        "xyz": [7.99167818571555e-7, 9.512637621257216, 2.5433019647162163]
      },
      {
        "species": [{ "element": "Bi", "occu": 1 }],
        "abc": [0.21083515, 0.42167131, 0.6288470700000001],
        "properties": { "magmom": -0.0 },
        "label": "Bi",
        "xyz": [-1.7960830360536082e-6, 5.484460129931454, 7.103148888968128]
      },
      {
        "species": [{ "element": "I", "occu": 1 }],
        "abc": [0.26795762, 0.53591425, 0.86110396],
        "properties": { "magmom": 0.0 },
        "label": "I",
        "xyz": [2.7820182441002183e-6, 6.9759650144977545, 9.857321184930337]
      },
      {
        "species": [{ "element": "I", "occu": 1 }],
        "abc": [0.73204238, 0.46408575, 0.13889604],
        "properties": { "magmom": 0.0 },
        "label": "I",
        "xyz": [2.2270344179817565, 5.986006965502245, 0.4004178250696637]
      },
      {
        "species": [{ "element": "I", "occu": 1 }],
        "abc": [0.81954024, 0.63908047, 0.60814959],
        "properties": { "magmom": -0.0 },
        "label": "I",
        "xyz": [2.2270368372724447, 8.280941064001023, 6.140808081470561]
      },
      {
        "species": [{ "element": "I", "occu": 1 }],
        "abc": [0.18045976, 0.36091953, 0.39185041],
        "properties": { "magmom": -0.0 },
        "label": "I",
        "xyz": [3.6272755570481584e-7, 4.681030915998976, 4.11693092852944]
      }
    ]
  },
  "task_ids": null,
  "uncorrected_energy_per_atom": null,
  "energy_per_atom": -3.578695815000003,
  "formation_energy_per_atom": -0.161865844000005,
  "energy_above_hull": 0.042504000666661004,
  "is_stable": false,
  "equilibrium_reaction_energy_per_atom": null,
  "decomposes_to": null,
  "xas": null,
  "grain_boundaries": null,
  "band_gap": 0.0,
  "cbm": null,
  "vbm": null,
  "efermi": 4.07708936,
  "is_gap_direct": null,
  "is_metal": null,
  "es_source_calc_id": null,
  "bandstructure": null,
  "dos": null,
  "dos_energy_up": null,
  "dos_energy_down": null,
  "is_magnetic": null,
  "ordering": null,
  "total_magnetization": 1e-7,
  "total_magnetization_normalized_vol": null,
  "total_magnetization_normalized_formula_units": null,
  "num_magnetic_sites": null,
  "num_unique_magnetic_sites": null,
  "types_of_magnetic_species": null,
  "bulk_modulus": null,
  "shear_modulus": null,
  "universal_anisotropy": null,
  "homogeneous_poisson": null,
  "e_total": null,
  "e_ionic": null,
  "e_electronic": null,
  "n": null,
  "e_ij_max": null,
  "weighted_surface_energy_EV_PER_ANG2": null,
  "weighted_surface_energy": null,
  "weighted_work_function": null,
  "surface_anisotropy": null,
  "shape_factor": null,
  "has_reconstructed": null,
  "possible_species": null,
  "has_props": null,
  "theoretical": null,
  "database_IDs": null,
  "fields_not_requested": [
    "builder_meta",
    "nsites",
    "elements",
    "nelements",
    "composition",
    "composition_reduced",
    "chemsys",
    "symmetry",
    "property_name",
    "deprecated",
    "deprecation_reasons",
    "last_updated",
    "origins",
    "warnings",
    "task_ids",
    "uncorrected_energy_per_atom",
    "equilibrium_reaction_energy_per_atom",
    "decomposes_to",
    "xas",
    "grain_boundaries",
    "cbm",
    "vbm",
    "is_gap_direct",
    "is_metal",
    "es_source_calc_id",
    "bandstructure",
    "dos",
    "dos_energy_up",
    "dos_energy_down",
    "is_magnetic",
    "ordering",
    "total_magnetization_normalized_vol",
    "total_magnetization_normalized_formula_units",
    "num_magnetic_sites",
    "num_unique_magnetic_sites",
    "types_of_magnetic_species",
    "bulk_modulus",
    "shear_modulus",
    "universal_anisotropy",
    "homogeneous_poisson",
    "e_total",
    "e_ionic",
    "e_electronic",
    "n",
    "e_ij_max",
    "weighted_surface_energy_EV_PER_ANG2",
    "weighted_surface_energy",
    "weighted_work_function",
    "surface_anisotropy",
    "shape_factor",
    "has_reconstructed",
    "possible_species",
    "has_props",
    "theoretical",
    "database_IDs"
  ]
}
