{"builder_meta": null, "nsites": null, "elements": null, "nelements": null, "composition": null, "composition_reduced": null, "formula_pretty": "Bi4O5", "formula_anonymous": "A4B5", "chemsys": null, "volume": 343.2115842087627, "density": 8.862862951621475, "density_atomic": 19.06731023382015, "symmetry": null, "property_name": null, "material_id": "mp-684589", "deprecated": null, "deprecation_reasons": null, "last_updated": null, "origins": null, "warnings": null, "structure": {"@module": "pymatgen.core.structure", "@class": "Structure", "charge": 0, "lattice": {"matrix": [[5.475754, 5.573663, 0.0], [-5.475754, 5.573663, 0.0], [0.0, 0.839341, 5.622731]], "pbc": [true, true, true], "a": 7.813424416098552, "b": 7.813424416098552, "c": 5.685032736285869, "alpha": 83.95448167125542, "beta": 83.95448167125542, "gamma": 88.98462956706591, "volume": 343.2115842087627}, "properties": {}, "sites": [{"species": [{"element": "Bi", "occu": 1}], "abc": [0.198944999999999, 0.541088, 0.745020999999999], "properties": {"magmom": 0.0}, "label": "Bi", "xyz": [-1.8734909008220055, 4.750021222039994, 4.189052672350995]}, {"species": [{"element": "Bi", "occu": 1}], "abc": [0.23594299999999901, 0.030965999999999, 0.758663], "properties": {"magmom": 0.0}, "label": "Bi", "xyz": [1.122403627658, 2.124437778749989, 4.265757968652999]}, {"species": [{"element": "Bi", "occu": 1}], "abc": [0.76663, 0.961959, 0.701676], "properties": {"magmom": 0.0}, "label": "Bi", "xyz": [-1.0695735530660002, 10.223517987023001, 3.9453353971559997]}, {"species": [{"element": "Bi", "occu": 1}], "abc": [0.712160999999999, 0.440787999999999, 0.797454], "properties": {"magmom": 0.0}, "label": "Bi", "xyz": [1.485971790242, 7.0954850200009885, 4.483869326874]}, {"species": [{"element": "Bi", "occu": 1}], "abc": [0.030965999999999, 0.23594299999999901, 0.258663], "properties": {"magmom": 0.0}, "label": "Bi", "xyz": [-1.122403627658, 1.704767278749989, 1.4543924686529999]}, {"species": [{"element": "Bi", "occu": 1}], "abc": [0.440787999999999, 0.712160999999999, 0.297454], "properties": {"magmom": 0.0}, "label": "Bi", "xyz": [-1.485971790242, 6.675814520000989, 1.672503826874]}, {"species": [{"element": "Bi", "occu": 1}], "abc": [0.541088, 0.198944999999999, 0.245021], "properties": {"magmom": 0.0}, "label": "Bi", "xyz": [1.8734909008220055, 4.330350722039995, 1.377687172351]}, {"species": [{"element": "Bi", "occu": 1}], "abc": [0.961959, 0.76663, 0.201676], "properties": {"magmom": 0.0}, "label": "Bi", "xyz": [1.0695735530660002, 9.803847487023, 1.133969897156]}, {"species": [{"element": "O", "occu": 1}], "abc": [0.240792999999999, 0.763930999999999, 0.000325], "properties": {"magmom": -0.0}, "label": "O", "xyz": [-2.864574996052, 5.600265769836988, 0.0018273875749999998]}, {"species": [{"element": "O", "occu": 1}], "abc": [0.978044999999999, 0.022285, 0.969684], "properties": {"magmom": -0.0}, "label": "O", "xyz": [5.233506643039996, 6.389397847033995, 5.452272287004]}, {"species": [{"element": "O", "occu": 1}], "abc": [0.485722999999999, 0.540127, 0.643577], "properties": {"magmom": -0.0}, "label": "O", "xyz": [-0.29790292061600576, 6.257922751306994, 3.6186603487869995]}, {"species": [{"element": "O", "occu": 1}], "abc": [0.168832999999999, 0.291875999999999, 0.555895], "properties": {"magmom": -0.0}, "label": "O", "xyz": [-0.6737531994220002, 3.0344221722619893, 3.125648049245]}, {"species": [{"element": "O", "occu": 1}], "abc": [0.696522, 0.864383999999999, 0.360703], "properties": {"magmom": -0.0}, "label": "O", "xyz": [-0.9191710179479946, 9.002716835400994, 2.028135939893]}, {"species": [{"element": "O", "occu": 1}], "abc": [0.763930999999999, 0.240792999999999, 0.500325], "properties": {"magmom": -0.0}, "label": "O", "xyz": [2.864574996052, 6.019936269836989, 2.813192887575]}, {"species": [{"element": "O", "occu": 1}], "abc": [0.022285, 0.978044999999999, 0.469684], "properties": {"magmom": -0.0}, "label": "O", "xyz": [-5.233506643039996, 5.969727347033995, 2.640906787004]}, {"species": [{"element": "O", "occu": 1}], "abc": [0.540127, 0.485722999999999, 0.143576999999999], "properties": {"magmom": -0.0}, "label": "O", "xyz": [0.29790292061600576, 5.838252251306994, 0.8072948487869944]}, {"species": [{"element": "O", "occu": 1}], "abc": [0.291875999999999, 0.168832999999999, 0.055895], "properties": {"magmom": -0.0}, "label": "O", "xyz": [0.6737531994220002, 2.6147516722619892, 0.314282549245]}, {"species": [{"element": "O", "occu": 1}], "abc": [0.864383999999999, 0.696522, 0.860703], "properties": {"magmom": -0.0}, "label": "O", "xyz": [0.9191710179479946, 9.422387335400995, 4.839501439893]}]}, "task_ids": null, "uncorrected_energy_per_atom": null, "energy_per_atom": -5.847825883333333, "formation_energy_per_atom": -1.370054520555557, "energy_above_hull": 0.150063271111114, "is_stable": false, "equilibrium_reaction_energy_per_atom": null, "decomposes_to": null, "xas": null, "grain_boundaries": null, "band_gap": 0.558, "cbm": null, "vbm": null, "efermi": 5.43579983, "is_gap_direct": null, "is_metal": null, "es_source_calc_id": null, "bandstructure": null, "dos": null, "dos_energy_up": null, "dos_energy_down": null, "is_magnetic": null, "ordering": null, "total_magnetization": 0.0005036999999990001, "total_magnetization_normalized_vol": null, "total_magnetization_normalized_formula_units": null, "num_magnetic_sites": null, "num_unique_magnetic_sites": null, "types_of_magnetic_species": null, "bulk_modulus": null, "shear_modulus": null, "universal_anisotropy": null, "homogeneous_poisson": null, "e_total": null, "e_ionic": null, "e_electronic": null, "n": null, "e_ij_max": null, "weighted_surface_energy_EV_PER_ANG2": null, "weighted_surface_energy": null, "weighted_work_function": null, "surface_anisotropy": null, "shape_factor": null, "has_reconstructed": null, "possible_species": null, "has_props": null, "theoretical": null, "database_IDs": null, "fields_not_requested": ["builder_meta", "nsites", "elements", "nelements", "composition", "composition_reduced", "chemsys", "symmetry", "property_name", "deprecated", "deprecation_reasons", "last_updated", "origins", "warnings", "task_ids", "uncorrected_energy_per_atom", "equilibrium_reaction_energy_per_atom", "decomposes_to", "xas", "grain_boundaries", "cbm", "vbm", "is_gap_direct", "is_metal", "es_source_calc_id", "bandstructure", "dos", "dos_energy_up", "dos_energy_down", "is_magnetic", "ordering", "total_magnetization_normalized_vol", "total_magnetization_normalized_formula_units", "num_magnetic_sites", "num_unique_magnetic_sites", "types_of_magnetic_species", "bulk_modulus", "shear_modulus", "universal_anisotropy", "homogeneous_poisson", "e_total", "e_ionic", "e_electronic", "n", "e_ij_max", "weighted_surface_energy_EV_PER_ANG2", "weighted_surface_energy", "weighted_work_function", "surface_anisotropy", "shape_factor", "has_reconstructed", "possible_species", "has_props", "theoretical", "database_IDs"]}