{"builder_meta": null, "nsites": null, "elements": null, "nelements": null, "composition": null, "composition_reduced": null, "formula_pretty": "Bi4O7", "formula_anonymous": "A4B7", "chemsys": null, "volume": 341.0743732873468, "density": 9.229974444804135, "density_atomic": 15.50338060397031, "symmetry": null, "property_name": null, "material_id": "mp-30303", "deprecated": null, "deprecation_reasons": null, "last_updated": null, "origins": null, "warnings": null, "structure": {"@module": "pymatgen.core.structure", "@class": "Structure", "charge": 0, "lattice": {"matrix": [[6.7443978399999995, -0.02888821, 0.12729106], [1.5154532, 6.45141931, 2.07775986], [-0.01015185, -0.02727989, 7.82207834]], "pbc": [true, true, true], "a": 6.745660810241617, "b": 6.945105870370756, "c": 7.822132497570851, "alpha": 72.80383904214914, "beta": 88.99227133921747, "gamma": 77.30089943991959, "volume": 341.07437328734676}, "properties": {}, "sites": [{"species": [{"element": "Bi", "occu": 1}], "abc": [-0.0, 0.0, 0.5], "properties": {"magmom": 0.0}, "label": "Bi", "xyz": [-0.005075925, -0.013639945, 3.91103917]}, {"species": [{"element": "Bi", "occu": 1}], "abc": [0.52308315, 0.9933764900000001, 0.7425887], "properties": {"magmom": 0.0}, "label": "Bi", "xyz": [5.0257577984815685, 6.373319595750118, 7.9391685912200884]}, {"species": [{"element": "Bi", "occu": 1}], "abc": [0.47691685, 0.00662351, 0.2574113], "properties": {"magmom": 0.0}, "label": "Bi", "xyz": [3.223941391518431, 0.021931614249882603, 2.0879606687799117]}, {"species": [{"element": "Bi", "occu": 1}], "abc": [-0.0, 0.0, -0.0], "properties": {"magmom": 0.0}, "label": "Bi", "xyz": [0.0, 0.0, 0.0]}, {"species": [{"element": "Bi", "occu": 1}], "abc": [0.73525113, 0.51794316, 0.11719793], "properties": {"magmom": -0.0}, "label": "Bi", "xyz": [5.7425549764640005, 3.3170312682216148, 2.0864837930592914]}, {"species": [{"element": "Bi", "occu": 1}], "abc": [0.26474887, 0.48205684, 0.88280207], "properties": {"magmom": -0.0}, "label": "Bi", "xyz": [2.5071442135359994, 3.0782199417783853, 7.940645466940708]}, {"species": [{"element": "Bi", "occu": 1}], "abc": [0.27146118, 0.51076367, 0.37937186], "properties": {"magmom": 0.0}, "label": "Bi", "xyz": [2.601029307964154, 3.276959353299884, 4.06327524173485]}, {"species": [{"element": "Bi", "occu": 1}], "abc": [0.72853882, 0.48923633, 0.62062814], "properties": {"magmom": 0.0}, "label": "Bi", "xyz": [5.648669882035845, 3.118291856700116, 5.963854018265151]}, {"species": [{"element": "O", "occu": 1}], "abc": [0.52823709, 0.62644685, 0.81251814], "properties": {"magmom": 0.0}, "label": "O", "xyz": [4.503743409986746, 4.004046075310761, 7.724426522221944]}, {"species": [{"element": "O", "occu": 1}], "abc": [0.47176291000000004, 0.37355315, 0.18748186], "properties": {"magmom": 0.0}, "label": "O", "xyz": [3.7459557800132535, 2.39120513468924, 2.302702737778056]}, {"species": [{"element": "O", "occu": 1}], "abc": [0.70879146, 0.95420416, 0.05876179], "properties": {"magmom": 0.0}, "label": "O", "xyz": [6.225826798681947, 6.13389241179624, 2.5324692429339937]}, {"species": [{"element": "O", "occu": 1}], "abc": [0.29120854, 0.045795840000000004, 0.9412382100000001], "properties": {"magmom": 0.0}, "label": "O", "xyz": [2.023872391318053, 0.2613587982037602, 7.494660017066007]}, {"species": [{"element": "O", "occu": 1}], "abc": [0.7152521900000001, 0.92350958, 0.47904446], "properties": {"magmom": -0.0}, "label": "O", "xyz": [6.218617686031674, 5.924216901740401, 5.756999639544876]}, {"species": [{"element": "O", "occu": 1}], "abc": [0.28474781, 0.07649042, 0.52095554], "properties": {"magmom": -0.0}, "label": "O", "xyz": [2.031081503968325, 0.4710343082595995, 4.270129620455124]}, {"species": [{"element": "O", "occu": 1}], "abc": [0.47261537000000003, 0.34192183, 0.63481319], "properties": {"magmom": -0.0}, "label": "O", "xyz": [3.6992280837192553, 2.174910450521, 5.73614966849664]}, {"species": [{"element": "O", "occu": 1}], "abc": [0.52738463, 0.65807817, 0.36518681000000003], "properties": {"magmom": -0.0}, "label": "O", "xyz": [4.550471106280744, 4.220340759479, 4.29097959150336]}, {"species": [{"element": "O", "occu": 1}], "abc": [0.09352251, 0.67775578, 0.03553151], "properties": {"magmom": -0.0}, "label": "O", "xyz": [1.6574994694950809, 4.368815732963172, 1.698048588757245]}, {"species": [{"element": "O", "occu": 1}], "abc": [0.90647749, 0.32224422, 0.96446849], "properties": {"magmom": -0.0}, "label": "O", "xyz": [6.592199720504918, 2.0264354770368294, 8.329080671242755]}, {"species": [{"element": "O", "occu": 1}], "abc": [0.89170132, 0.32043882, 0.37125445], "properties": {"magmom": -0.0}, "label": "O", "xyz": [6.49582957221814, 2.031397755474167, 3.6832819159815777]}, {"species": [{"element": "O", "occu": 1}], "abc": [0.10829868000000001, 0.67956118, 0.62874555], "properties": {"magmom": -0.0}, "label": "O", "xyz": [1.7538696177818598, 4.363853454525834, 6.343847344018422]}, {"species": [{"element": "O", "occu": 1}], "abc": [0.11329743, 0.91019991, 0.27329812000000003], "properties": {"magmom": 0.0}, "label": "O", "xyz": [2.140713826899241, 5.861352772733155, 4.043357892348309]}, {"species": [{"element": "O", "occu": 1}], "abc": [0.88670257, 0.08980009, 0.72670188], "properties": {"magmom": 0.0}, "label": "O", "xyz": [6.108985363100758, 0.533898437266845, 5.98377136765169]}]}, "task_ids": null, "uncorrected_energy_per_atom": null, "energy_per_atom": -6.132462206818184, "formation_energy_per_atom": -1.569201818181821, "energy_above_hull": 0.0, "is_stable": true, "equilibrium_reaction_energy_per_atom": null, "decomposes_to": null, "xas": null, "grain_boundaries": null, "band_gap": 0.9108, "cbm": null, "vbm": null, "efermi": 4.42867342, "is_gap_direct": null, "is_metal": null, "es_source_calc_id": null, "bandstructure": null, "dos": null, "dos_energy_up": null, "dos_energy_down": null, "is_magnetic": null, "ordering": null, "total_magnetization": 0.0, "total_magnetization_normalized_vol": null, "total_magnetization_normalized_formula_units": null, "num_magnetic_sites": null, "num_unique_magnetic_sites": null, "types_of_magnetic_species": null, "bulk_modulus": null, "shear_modulus": null, "universal_anisotropy": null, "homogeneous_poisson": null, "e_total": null, "e_ionic": null, "e_electronic": null, "n": null, "e_ij_max": null, "weighted_surface_energy_EV_PER_ANG2": null, "weighted_surface_energy": null, "weighted_work_function": null, "surface_anisotropy": null, "shape_factor": null, "has_reconstructed": null, "possible_species": null, "has_props": null, "theoretical": null, "database_IDs": null, "fields_not_requested": ["builder_meta", "nsites", "elements", "nelements", "composition", "composition_reduced", "chemsys", "symmetry", "property_name", "deprecated", "deprecation_reasons", "last_updated", "origins", "warnings", "task_ids", "uncorrected_energy_per_atom", "equilibrium_reaction_energy_per_atom", "decomposes_to", "xas", "grain_boundaries", "cbm", "vbm", "is_gap_direct", "is_metal", "es_source_calc_id", "bandstructure", "dos", "dos_energy_up", "dos_energy_down", "is_magnetic", "ordering", "total_magnetization_normalized_vol", "total_magnetization_normalized_formula_units", "num_magnetic_sites", "num_unique_magnetic_sites", "types_of_magnetic_species", "bulk_modulus", "shear_modulus", "universal_anisotropy", "homogeneous_poisson", "e_total", "e_ionic", "e_electronic", "n", "e_ij_max", "weighted_surface_energy_EV_PER_ANG2", "weighted_surface_energy", "weighted_work_function", "surface_anisotropy", "shape_factor", "has_reconstructed", "possible_species", "has_props", "theoretical", "database_IDs"]}