{
  "builder_meta": null,
  "nsites": null,
  "elements": null,
  "nelements": null,
  "composition": null,
  "composition_reduced": null,
  "formula_pretty": "Bi4Rh",
  "formula_anonymous": "AB4",
  "chemsys": null,
  "volume": 1738.374980309181,
  "density": 10.761492271745746,
  "density_atomic": 28.97291633848635,
  "symmetry": null,
  "property_name": null,
  "material_id": "mp-30467",
  "deprecated": null,
  "deprecation_reasons": null,
  "last_updated": null,
  "origins": null,
  "warnings": null,
  "structure": {
    "@module": "pymatgen.core.structure",
    "@class": "Structure",
    "charge": 0,
    "lattice": {
      "matrix": [
        [12.36931132, 3.0000000000000004e-8, -4.373212309999999],
        [-6.1846541, 10.71213801, -4.373212309999999],
        [-1e-8, -1e-8, 13.11963591]
      ],
      "pbc": [true, true, true],
      "a": 13.119635987306038,
      "b": 13.119635398526482,
      "c": 13.11963591,
      "alpha": 109.47122301511749,
      "beta": 109.47122213371064,
      "gamma": 109.47121316177638,
      "volume": 1738.3749803091807
    },
    "properties": {},
    "sites": [
      {
        "species": [{ "element": "Bi", "occu": 1 }],
        "abc": [0.58644317, 0.91163122, 0.37020975],
        "properties": { "magmom": 0.0 },
        "label": "Bi",
        "xyz": [1.6157743750545845, 9.76551945675587, -1.694380233311616]
      },
      {
        "species": [{ "element": "Bi", "occu": 1 }],
        "abc": [0.45857854000000003, 0.58836878, 0.17481295],
        "properties": { "magmom": 0.0 },
        "label": "Bi",
        "xyz": [2.0334433366439453, 6.302687584144555, -2.285040651392474]
      },
      {
        "species": [{ "element": "Bi", "occu": 1 }],
        "abc": [0.17481295, 0.45857854000000003, 0.58836878],
        "properties": { "magmom": 0.0 },
        "label": "Bi",
        "xyz": [-0.6738338521491083, 4.912356608265006, 4.949228713293648]
      },
      {
        "species": [{ "element": "Bi", "occu": 1 }],
        "abc": [0.21623441000000002, 0.12979025, 0.04142146],
        "properties": { "magmom": 0.0 },
        "label": "Bi",
        "xyz": [1.8719629331697816, 1.3903310764252201, -0.9698048286149356]
      },
      {
        "species": [{ "element": "Bi", "occu": 1 }],
        "abc": [0.32518705000000003, 0.91163122, 0.04142146],
        "properties": { "magmom": 0.0 },
        "label": "Bi",
        "xyz": [-1.6157839041928101, 9.76551945220607, -4.865434409536274]
      },
      {
        "species": [{ "element": "Bi", "occu": 1 }],
        "abc": [0.28376559, 0.32518705000000003, 0.91355683],
        "properties": { "magmom": 0.0 },
        "label": "Bi",
        "xyz": [1.4988154934285052, 3.4834485580421704, 9.322453811238766]
      },
      {
        "species": [{ "element": "Bi", "occu": 1 }],
        "abc": [0.04142146, 0.32518705000000003, 0.91163122],
        "properties": { "magmom": 0.0 },
        "label": "Bi",
        "xyz": [-1.4988144970967903, 3.4834485507911026, 10.357012841706352]
      },
      {
        "species": [{ "element": "Bi", "occu": 1 }],
        "abc": [0.91163122, 0.37020975, 0.58644317],
        "properties": { "magmom": 0.0 },
        "label": "Bi",
        "xyz": [8.986631115149502, 3.9657379561321027, 2.088158162839896]
      },
      {
        "species": [{ "element": "Bi", "occu": 1 }],
        "abc": [0.91163122, 0.04142146, 0.32518705000000003],
        "properties": { "magmom": 0.0 },
        "label": "Bi",
        "xyz": [11.020072963542553, 0.44371242019276075, 0.09843398639247702]
      },
      {
        "species": [{ "element": "Bi", "occu": 1 }],
        "abc": [0.37020975, 0.28376559, 0.45857854000000003],
        "properties": { "magmom": 0.0 },
        "label": "Bi",
        "xyz": [2.824247627231166, 3.0397361690895828, 3.1564104736149368]
      },
      {
        "species": [{ "element": "Bi", "occu": 1 }],
        "abc": [0.58644317, 0.17481295, 0.21623441000000002],
        "properties": { "magmom": 0.0 },
        "label": "Bi",
        "xyz": [6.172740511104745, 1.8726204617661804, -0.49221790463317294]
      },
      {
        "species": [{ "element": "Bi", "occu": 1 }],
        "abc": [0.58836878, 0.91355683, 0.12979025],
        "properties": { "magmom": 0.0 },
        "label": "Bi",
        "xyz": [1.627683615248184, 9.78614685929127, -4.865438741688379]
      },
      {
        "species": [{ "element": "Bi", "occu": 1 }],
        "abc": [0.41163122, 0.82518705, 0.54142146],
        "properties": { "magmom": 0.0 },
        "label": "Bi",
        "xyz": [-0.011901768252209977, 8.839517570599492, 1.694383545463726]
      },
      {
        "species": [{ "element": "Bi", "occu": 1 }],
        "abc": [0.82518705, 0.78376559, 0.41355683],
        "properties": { "magmom": 0.0 },
        "label": "Bi",
        "xyz": [5.3596764449144185, 8.395805188189119, -1.6105764537612313]
      },
      {
        "species": [{ "element": "Bi", "occu": 1 }],
        "abc": [0.87020975, 0.41163122, 0.08644317],
        "properties": { "magmom": 0.0 },
        "label": "Bi",
        "xyz": [8.218098598123934, 4.409450463106532, -4.471659792160104]
      },
      {
        "species": [{ "element": "Bi", "occu": 1 }],
        "abc": [0.08644317, 0.87020975, 0.41163122],
        "properties": { "magmom": 0.0 },
        "label": "Bi",
        "xyz": [-4.312703821096104, 9.32180693812458, 1.216805409447666]
      },
      {
        "species": [{ "element": "Bi", "occu": 1 }],
        "abc": [0.54142146, 0.62979025, 0.71623441],
        "properties": { "magmom": 0.0 },
        "label": "Bi",
        "xyz": [2.8019757351040577, 6.746400084432702, 4.274777217625513]
      },
      {
        "species": [{ "element": "Bi", "occu": 1 }],
        "abc": [0.71623441, 0.54142146, 0.62979025],
        "properties": { "magmom": 0.0 },
        "label": "Bi",
        "xyz": [5.510821936671633, 5.799781416284825, 2.7626226472401187]
      },
      {
        "species": [{ "element": "Bi", "occu": 1 }],
        "abc": [0.78376559, 0.41355683, 0.82518705],
        "properties": { "magmom": 0.0 },
        "label": "Bi",
        "xyz": [7.136934632119106, 4.430077853199205, 5.590008507463977]
      },
      {
        "species": [{ "element": "Bi", "occu": 1 }],
        "abc": [0.87020975, 0.95857854, 0.78376559],
        "properties": { "magmom": 0.0 },
        "label": "Bi",
        "xyz": [4.835418606028699, 10.268425632172942, 2.28503971737449]
      },
      {
        "species": [{ "element": "Bi", "occu": 1 }],
        "abc": [0.08644317, 0.71623441, 0.67481295],
        "properties": { "magmom": 0.0 },
        "label": "Bi",
        "xyz": [-3.3604196058980267, 7.6724018432760905, 5.343020737536025]
      },
      {
        "species": [{ "element": "Bi", "occu": 1 }],
        "abc": [0.62979025, 0.41355683, 0.08836878000000001],
        "properties": { "magmom": 0.0 },
        "label": "Bi",
        "xyz": [5.232365723424438, 4.430077855948128, -3.4034120744476635]
      },
      {
        "species": [{ "element": "Bi", "occu": 1 }],
        "abc": [0.95857854, 0.78376559, 0.87020975],
        "properties": { "magmom": 0.0 },
        "label": "Bi",
        "xyz": [7.009637307596555, 8.395805187624335, 3.7971942877598845]
      },
      {
        "species": [{ "element": "Bi", "occu": 1 }],
        "abc": [0.67481295, 0.08644317, 0.71623441],
        "properties": { "magmom": 0.0 },
        "label": "Bi",
        "xyz": [7.812350348397753, 0.9259911801439362, 6.067600050366826]
      },
      {
        "species": [{ "element": "Bi", "occu": 1 }],
        "abc": [0.41355683, 0.08836878000000001, 0.62979025],
        "properties": { "magmom": 0.0 },
        "label": "Bi",
        "xyz": [4.5688828349454145, 0.9466185732441302, 6.067591523311618]
      },
      {
        "species": [{ "element": "Bi", "occu": 1 }],
        "abc": [0.54142146, 0.41163122, 0.82518705],
        "properties": { "magmom": 0.0 },
        "label": "Bi",
        "xyz": [4.151213873356054, 4.4094504458554455, 6.658251941392476]
      },
      {
        "species": [{ "element": "Bi", "occu": 1 }],
        "abc": [0.82518705, 0.54142146, 0.41163122],
        "properties": { "magmom": 0.0 },
        "label": "Bi",
        "xyz": [6.858491062149108, 5.799781421734994, -0.5760174232936466]
      },
      {
        "species": [{ "element": "Bi", "occu": 1 }],
        "abc": [0.78376559, 0.87020975, 0.95857854],
        "properties": { "magmom": 0.0 },
        "label": "Bi",
        "xyz": [4.312694276830218, 9.32180695357478, 5.343016118614938]
      },
      {
        "species": [{ "element": "Bi", "occu": 1 }],
        "abc": [0.67481295, 0.08836878000000001, 0.95857854],
        "properties": { "magmom": 0.0 },
        "label": "Bi",
        "xyz": [7.80044111419281, 0.946618577793931, 9.238645699536276]
      },
      {
        "species": [{ "element": "Bi", "occu": 1 }],
        "abc": [0.71623441, 0.67481295, 0.08644317],
        "properties": { "magmom": 0.0 },
        "label": "Bi",
        "xyz": [4.685841716571494, 7.22868947195783, -4.949242521238764]
      },
      {
        "species": [{ "element": "Bi", "occu": 1 }],
        "abc": [0.95857854, 0.67481295, 0.08836878000000001],
        "properties": { "magmom": 0.0 },
        "label": "Bi",
        "xyz": [7.683471707096789, 7.2286894792088985, -5.98380155170635]
      },
      {
        "species": [{ "element": "Bi", "occu": 1 }],
        "abc": [0.08836878000000001, 0.62979025, 0.41355683],
        "properties": { "magmom": 0.0 },
        "label": "Bi",
        "xyz": [-2.801973905149504, 6.746400073867898, 2.2850531271601064]
      },
      {
        "species": [{ "element": "Bi", "occu": 1 }],
        "abc": [0.08836878000000001, 0.95857854, 0.67481295],
        "properties": { "magmom": 0.0 },
        "label": "Bi",
        "xyz": [-4.835415753542554, 10.26842560980724, 4.274777303607526]
      },
      {
        "species": [{ "element": "Bi", "occu": 1 }],
        "abc": [0.62979025, 0.71623441, 0.54142146],
        "properties": { "magmom": 0.0 },
        "label": "Bi",
        "xyz": [3.3604095827688334, 7.672401860910417, 1.2168008163850654]
      },
      {
        "species": [{ "element": "Bi", "occu": 1 }],
        "abc": [0.41355683, 0.82518705, 0.78376559],
        "properties": { "magmom": 0.0 },
        "label": "Bi",
        "xyz": [0.011916698895253888, 8.83951756823382, 4.865429194633176]
      },
      {
        "species": [{ "element": "Bi", "occu": 1 }],
        "abc": [0.41163122, 0.08644317, 0.87020975],
        "properties": { "magmom": 0.0 },
        "label": "Bi",
        "xyz": [4.556973594751816, 0.9259911707087309, 9.238650031688383]
      },
      {
        "species": [{ "element": "Bi", "occu": 1 }],
        "abc": [0.32518705000000003, 0.91355683, 0.28376559],
        "properties": { "magmom": 0.0 },
        "label": "Bi",
        "xyz": [-1.6276931383977522, 9.786146849856065, -1.6943887603668242]
      },
      {
        "species": [{ "element": "Bi", "occu": 1 }],
        "abc": [0.04142146, 0.21623441000000002, 0.12979025],
        "properties": { "magmom": 0.0 },
        "label": "Bi",
        "xyz": [-0.8249800975965565, 2.3163328423756653, 0.5760170022401179]
      },
      {
        "species": [{ "element": "Bi", "occu": 1 }],
        "abc": [0.37020975, 0.58644317, 0.91163122],
        "properties": { "magmom": 0.0 },
        "label": "Bi",
        "xyz": [0.952291486575561, 6.282060174051873, 7.776623364447666]
      },
      {
        "species": [{ "element": "Bi", "occu": 1 }],
        "abc": [0.91355683, 0.28376559, 0.32518705000000003],
        "properties": { "magmom": 0.0 },
        "label": "Bi",
        "xyz": [9.545076815898025, 3.0397361867239105, -0.9698094475360222]
      },
      {
        "species": [{ "element": "Bi", "occu": 1 }],
        "abc": [0.12979025, 0.04142146, 0.21623441000000002],
        "properties": { "magmom": 0.0 },
        "label": "Bi",
        "xyz": [1.3492386039712998, 0.44371239782705807, 2.0881715726255132]
      },
      {
        "species": [{ "element": "Bi", "occu": 1 }],
        "abc": [0.21623441000000002, 0.58644317, 0.17481295],
        "properties": { "magmom": 0.0 },
        "label": "Bi",
        "xyz": [-0.9522774221191054, 6.282060176800795, -1.216797217463975]
      },
      {
        "species": [{ "element": "Bi", "occu": 1 }],
        "abc": [0.28376559, 0.45857854000000003, 0.37020975],
        "properties": { "magmom": 0.0 },
        "label": "Bi",
        "xyz": [0.6738352733283668, 4.912356613715176, 1.610588642759883]
      },
      {
        "species": [{ "element": "Bi", "occu": 1 }],
        "abc": [0.45857854000000003, 0.37020975, 0.28376559],
        "properties": { "magmom": 0.0 },
        "label": "Bi",
        "xyz": [3.3826814748959424, 3.965737945567298, 0.09843407237448742]
      },
      {
        "species": [{ "element": "Bi", "occu": 1 }],
        "abc": [0.91355683, 0.12979025, 0.58836878],
        "properties": { "magmom": 0.0 },
        "label": "Bi",
        "xyz": [10.497361031096101, 1.3903310918754197, 3.1564058805523363]
      },
      {
        "species": [{ "element": "Bi", "occu": 1 }],
        "abc": [0.12979025, 0.58836878, 0.91355683],
        "properties": { "magmom": 0.0 },
        "label": "Bi",
        "xyz": [-2.033441388123937, 6.302687566893468, 8.844871082160106]
      },
      {
        "species": [{ "element": "Bi", "occu": 1 }],
        "abc": [0.17481295, 0.21623441000000002, 0.58644317],
        "properties": { "magmom": 0.0 },
        "label": "Bi",
        "xyz": [0.824980765085581, 2.316332841810881, 5.9837877437612335]
      },
      {
        "species": [{ "element": "Bi", "occu": 1 }],
        "abc": [0.58836878, 0.17481295, 0.45857854000000003],
        "properties": { "magmom": 0.0 },
        "label": "Bi",
        "xyz": [6.1965589782522095, 1.8726204594005076, 2.6788277445362754]
      },
      {
        "species": [{ "element": "Rh", "occu": 1 }],
        "abc": [0.25, 0.875, 0.625],
        "properties": { "magmom": -0.0 },
        "label": "Rh",
        "xyz": [-2.31924451375, 9.37312076, 3.279908595000001]
      },
      {
        "species": [{ "element": "Rh", "occu": 1 }],
        "abc": [0.875, 0.625, 0.25],
        "properties": { "magmom": -0.0 },
        "label": "Rh",
        "xyz": [6.95773859, 6.695086280000001, -3.2799094874999977]
      },
      {
        "species": [{ "element": "Rh", "occu": 1 }],
        "abc": [0.625, 0.875, 0.75],
        "properties": { "magmom": -0.0 },
        "label": "Rh",
        "xyz": [2.3192472299999998, 9.37312077, 3.279908467500002]
      },
      {
        "species": [{ "element": "Rh", "occu": 1 }],
        "abc": [0.875, 0.75, 0.625],
        "properties": { "magmom": -0.0 },
        "label": "Rh",
        "xyz": [6.18465682375, 8.0341035275, 1.0933024400000022]
      },
      {
        "species": [{ "element": "Rh", "occu": 1 }],
        "abc": [0.625, 0.25, 0.875],
        "properties": { "magmom": -0.0 },
        "label": "Rh",
        "xyz": [6.18465604125, 2.6780345125000005, 7.653120650000001]
      },
      {
        "species": [{ "element": "Rh", "occu": 1 }],
        "abc": [0.75, 0.625, 0.875],
        "properties": { "magmom": -0.0 },
        "label": "Rh",
        "xyz": [5.411574668749999, 6.695086270000001, 5.466514495000002]
      },
      {
        "species": [{ "element": "Rh", "occu": 1 }],
        "abc": [0.75, 0.125, 0.375],
        "properties": { "magmom": -0.0 },
        "label": "Rh",
        "xyz": [8.50390172375, 1.33901727, 1.093302695000001]
      },
      {
        "species": [{ "element": "Rh", "occu": 1 }],
        "abc": [0.125, 0.375, 0.75],
        "properties": { "magmom": -0.0 },
        "label": "Rh",
        "xyz": [-0.7730813800000003, 4.01705175, 7.6531207775]
      },
      {
        "species": [{ "element": "Rh", "occu": 1 }],
        "abc": [0.375, 0.125, 0.25],
        "properties": { "magmom": -0.0 },
        "label": "Rh",
        "xyz": [3.8654099799999995, 1.33901726, 1.0933028225000005]
      },
      {
        "species": [{ "element": "Rh", "occu": 1 }],
        "abc": [0.125, 0.25, 0.375],
        "properties": { "magmom": -0.0 },
        "label": "Rh",
        "xyz": [3.8624999985023235e-7, 2.6780345025, 3.2799088500000004]
      },
      {
        "species": [{ "element": "Rh", "occu": 1 }],
        "abc": [0.375, 0.75, 0.125],
        "properties": { "magmom": -0.0 },
        "label": "Rh",
        "xyz": [1.168749999106608e-6, 8.0341035175, -3.2799093599999978]
      },
      {
        "species": [{ "element": "Rh", "occu": 1 }],
        "abc": [0.25, 0.375, 0.125],
        "properties": { "magmom": -0.0 },
        "label": "Rh",
        "xyz": [0.7730825412499996, 4.017051759999999, -1.093303204999999]
      }
    ]
  },
  "task_ids": null,
  "uncorrected_energy_per_atom": null,
  "energy_per_atom": -51.750398838833334,
  "formation_energy_per_atom": -0.121334116833334,
  "energy_above_hull": 0.012359528666664002,
  "is_stable": false,
  "equilibrium_reaction_energy_per_atom": null,
  "decomposes_to": null,
  "xas": null,
  "grain_boundaries": null,
  "band_gap": 0.0,
  "cbm": null,
  "vbm": null,
  "efermi": 6.10581688,
  "is_gap_direct": null,
  "is_metal": null,
  "es_source_calc_id": null,
  "bandstructure": null,
  "dos": null,
  "dos_energy_up": null,
  "dos_energy_down": null,
  "is_magnetic": null,
  "ordering": null,
  "total_magnetization": 0.0,
  "total_magnetization_normalized_vol": null,
  "total_magnetization_normalized_formula_units": null,
  "num_magnetic_sites": null,
  "num_unique_magnetic_sites": null,
  "types_of_magnetic_species": null,
  "bulk_modulus": null,
  "shear_modulus": null,
  "universal_anisotropy": null,
  "homogeneous_poisson": null,
  "e_total": null,
  "e_ionic": null,
  "e_electronic": null,
  "n": null,
  "e_ij_max": null,
  "weighted_surface_energy_EV_PER_ANG2": null,
  "weighted_surface_energy": null,
  "weighted_work_function": null,
  "surface_anisotropy": null,
  "shape_factor": null,
  "has_reconstructed": null,
  "possible_species": null,
  "has_props": null,
  "theoretical": null,
  "database_IDs": null,
  "fields_not_requested": [
    "builder_meta",
    "nsites",
    "elements",
    "nelements",
    "composition",
    "composition_reduced",
    "chemsys",
    "symmetry",
    "property_name",
    "deprecated",
    "deprecation_reasons",
    "last_updated",
    "origins",
    "warnings",
    "task_ids",
    "uncorrected_energy_per_atom",
    "equilibrium_reaction_energy_per_atom",
    "decomposes_to",
    "xas",
    "grain_boundaries",
    "cbm",
    "vbm",
    "is_gap_direct",
    "is_metal",
    "es_source_calc_id",
    "bandstructure",
    "dos",
    "dos_energy_up",
    "dos_energy_down",
    "is_magnetic",
    "ordering",
    "total_magnetization_normalized_vol",
    "total_magnetization_normalized_formula_units",
    "num_magnetic_sites",
    "num_unique_magnetic_sites",
    "types_of_magnetic_species",
    "bulk_modulus",
    "shear_modulus",
    "universal_anisotropy",
    "homogeneous_poisson",
    "e_total",
    "e_ionic",
    "e_electronic",
    "n",
    "e_ij_max",
    "weighted_surface_energy_EV_PER_ANG2",
    "weighted_surface_energy",
    "weighted_work_function",
    "surface_anisotropy",
    "shape_factor",
    "has_reconstructed",
    "possible_species",
    "has_props",
    "theoretical",
    "database_IDs"
  ]
}
