{"builder_meta": null, "nsites": null, "elements": null, "nelements": null, "composition": null, "composition_reduced": null, "formula_pretty": "Bi4Se3", "formula_anonymous": "A3B4", "chemsys": null, "volume": 220.78809995157792, "density": 8.068500829083089, "density_atomic": 31.541157135939702, "symmetry": null, "property_name": null, "material_id": "mp-27607", "deprecated": null, "deprecation_reasons": null, "last_updated": null, "origins": null, "warnings": null, "structure": {"@module": "pymatgen.core.structure", "@class": "Structure", "charge": 0, "lattice": {"matrix": [[13.93843794, -2.14261032, 0.03728723], [13.93843794, 2.14261032, 0.03728723], [13.59919034, -0.0, 3.73285976]], "pbc": [true, true, true], "a": 14.102206264557436, "b": 14.102206264557436, "c": 14.102206206525864, "alpha": 17.478093703865394, "beta": 17.478093703865394, "gamma": 17.47808968264737, "volume": 220.78809995157792}, "properties": {}, "sites": [{"species": [{"element": "Bi", "occu": 1}], "abc": [0.71132622, 0.71132622, 0.71132622], "properties": {"magmom": -0.0}, "label": "Bi", "xyz": [29.50301340474229, 0.0, 2.7083277916112487]}, {"species": [{"element": "Bi", "occu": 1}], "abc": [0.28867378, 0.28867378, 0.28867378], "properties": {"magmom": -0.0}, "label": "Bi", "xyz": [11.973052815257711, 0.0, 1.0991064283887515]}, {"species": [{"element": "Bi", "occu": 1}], "abc": [0.85404364, 0.85404364, 0.85404364], "properties": {"magmom": -0.0}, "label": "Bi", "xyz": [35.42237056740984, 0.0, 3.251714980309361]}, {"species": [{"element": "Bi", "occu": 1}], "abc": [0.14595636, 0.14595636, 0.14595636], "properties": {"magmom": -0.0}, "label": "Bi", "xyz": [6.053695652590159, 0.0, 0.5557192396906393]}, {"species": [{"element": "Se", "occu": 1}], "abc": [0.0, 0.0, 0.0], "properties": {"magmom": 0.0}, "label": "Se", "xyz": [0.0, 0.0, 0.0]}, {"species": [{"element": "Se", "occu": 1}], "abc": [0.58595448, 0.58595448, 0.58595448], "properties": {"magmom": 0.0}, "label": "Se", "xyz": [24.30308681438567, 0.0, 2.230983138514306]}, {"species": [{"element": "Se", "occu": 1}], "abc": [0.41404552, 0.41404552, 0.41404552], "properties": {"magmom": 0.0}, "label": "Se", "xyz": [17.172979405614335, 0.0, 1.5764510814856945]}]}, "task_ids": null, "uncorrected_energy_per_atom": null, "energy_per_atom": -39.86673284285714, "formation_energy_per_atom": -0.303336318169645, "energy_above_hull": 0.006718635714285001, "is_stable": false, "equilibrium_reaction_energy_per_atom": null, "decomposes_to": null, "xas": null, "grain_boundaries": null, "band_gap": 0.0, "cbm": null, "vbm": null, "efermi": 4.62138711, "is_gap_direct": null, "is_metal": null, "es_source_calc_id": null, "bandstructure": null, "dos": null, "dos_energy_up": null, "dos_energy_down": null, "is_magnetic": null, "ordering": null, "total_magnetization": 0.0, "total_magnetization_normalized_vol": null, "total_magnetization_normalized_formula_units": null, "num_magnetic_sites": null, "num_unique_magnetic_sites": null, "types_of_magnetic_species": null, "bulk_modulus": null, "shear_modulus": null, "universal_anisotropy": null, "homogeneous_poisson": null, "e_total": null, "e_ionic": null, "e_electronic": null, "n": null, "e_ij_max": null, "weighted_surface_energy_EV_PER_ANG2": null, "weighted_surface_energy": null, "weighted_work_function": null, "surface_anisotropy": null, "shape_factor": null, "has_reconstructed": null, "possible_species": null, "has_props": null, "theoretical": null, "database_IDs": null, "fields_not_requested": ["builder_meta", "nsites", "elements", "nelements", "composition", "composition_reduced", "chemsys", "symmetry", "property_name", "deprecated", "deprecation_reasons", "last_updated", "origins", "warnings", "task_ids", "uncorrected_energy_per_atom", "equilibrium_reaction_energy_per_atom", "decomposes_to", "xas", "grain_boundaries", "cbm", "vbm", "is_gap_direct", "is_metal", "es_source_calc_id", "bandstructure", "dos", "dos_energy_up", "dos_energy_down", "is_magnetic", "ordering", "total_magnetization_normalized_vol", "total_magnetization_normalized_formula_units", "num_magnetic_sites", "num_unique_magnetic_sites", "types_of_magnetic_species", "bulk_modulus", "shear_modulus", "universal_anisotropy", "homogeneous_poisson", "e_total", "e_ionic", "e_electronic", "n", "e_ij_max", "weighted_surface_energy_EV_PER_ANG2", "weighted_surface_energy", "weighted_work_function", "surface_anisotropy", "shape_factor", "has_reconstructed", "possible_species", "has_props", "theoretical", "database_IDs"]}