{
  "builder_meta": null,
  "nsites": null,
  "elements": null,
  "nelements": null,
  "composition": null,
  "composition_reduced": null,
  "formula_pretty": "Bi4Te3",
  "formula_anonymous": "A3B4",
  "chemsys": null,
  "volume": 251.1176558687546,
  "density": 8.05891095593435,
  "density_atomic": 35.87395083839352,
  "symmetry": null,
  "property_name": null,
  "material_id": "mp-28229",
  "deprecated": null,
  "deprecation_reasons": null,
  "last_updated": null,
  "origins": null,
  "warnings": null,
  "structure": {
    "@module": "pymatgen.core.structure",
    "@class": "Structure",
    "charge": 0,
    "lattice": {
      "matrix": [
        [14.56281216, -2.23550851, 0.03557029],
        [14.56281216, 2.23550851, 0.03557029],
        [14.21022636, 0.0, 3.89149629]
      ],
      "pbc": [true, true, true],
      "a": 14.733440248334974,
      "b": 14.733440248334974,
      "c": 14.733440758272408,
      "alpha": 17.45441437634486,
      "beta": 17.45441437634486,
      "gamma": 17.45442032623657,
      "volume": 251.1176558687546
    },
    "properties": {},
    "sites": [
      {
        "species": [{ "element": "Bi", "occu": 1 }],
        "abc": [0.286920599999999, 0.286920599999999, 0.286920599999999],
        "properties": { "magmom": -0.0 },
        "label": "Bi",
        "xyz": [12.433948278615965, 0.0, 1.136962148322518]
      },
      {
        "species": [{ "element": "Bi", "occu": 1 }],
        "abc": [0.713079399999999, 0.713079399999999, 0.713079399999999],
        "properties": { "magmom": -0.0 },
        "label": "Bi",
        "xyz": [30.90190240138395, 0.0, 2.825674721677474]
      },
      {
        "species": [{ "element": "Bi", "occu": 1 }],
        "abc": [0.14778738, 0.14778738, 0.14778738],
        "properties": { "magmom": 0.0 },
        "label": "Bi",
        "xyz": [6.404491832068418, 0.0, 0.5856277209087006]
      },
      {
        "species": [{ "element": "Bi", "occu": 1 }],
        "abc": [0.85221262, 0.85221262, 0.85221262],
        "properties": { "magmom": 0.0 },
        "label": "Bi",
        "xyz": [36.931358847931584, 0.0, 3.377009149091299]
      },
      {
        "species": [{ "element": "Te", "occu": 1 }],
        "abc": [-0.0, -0.0, -0.0],
        "properties": { "magmom": 0.0 },
        "label": "Te",
        "xyz": [0.0, 0.0, 0.0]
      },
      {
        "species": [{ "element": "Te", "occu": 1 }],
        "abc": [0.58136581, 0.58136581, 0.58136581],
        "properties": { "magmom": 0.0 },
        "label": "Te",
        "xyz": [25.19398193261725, 0.0, 2.303741593663415]
      },
      {
        "species": [{ "element": "Te", "occu": 1 }],
        "abc": [0.41863419, 0.41863419, 0.41863419],
        "properties": { "magmom": 0.0 },
        "label": "Te",
        "xyz": [18.141868747382752, 0.0, 1.6588952763365854]
      }
    ]
  },
  "task_ids": null,
  "uncorrected_energy_per_atom": null,
  "energy_per_atom": -44.517412424285716,
  "formation_energy_per_atom": -0.194445580000003,
  "energy_above_hull": 0.0015551371428510002,
  "is_stable": false,
  "equilibrium_reaction_energy_per_atom": null,
  "decomposes_to": null,
  "xas": null,
  "grain_boundaries": null,
  "band_gap": 0.0,
  "cbm": null,
  "vbm": null,
  "efermi": 5.31632164,
  "is_gap_direct": null,
  "is_metal": null,
  "es_source_calc_id": null,
  "bandstructure": null,
  "dos": null,
  "dos_energy_up": null,
  "dos_energy_down": null,
  "is_magnetic": null,
  "ordering": null,
  "total_magnetization": 0.0,
  "total_magnetization_normalized_vol": null,
  "total_magnetization_normalized_formula_units": null,
  "num_magnetic_sites": null,
  "num_unique_magnetic_sites": null,
  "types_of_magnetic_species": null,
  "bulk_modulus": null,
  "shear_modulus": null,
  "universal_anisotropy": null,
  "homogeneous_poisson": null,
  "e_total": null,
  "e_ionic": null,
  "e_electronic": null,
  "n": null,
  "e_ij_max": null,
  "weighted_surface_energy_EV_PER_ANG2": null,
  "weighted_surface_energy": null,
  "weighted_work_function": null,
  "surface_anisotropy": null,
  "shape_factor": null,
  "has_reconstructed": null,
  "possible_species": null,
  "has_props": null,
  "theoretical": null,
  "database_IDs": null,
  "fields_not_requested": [
    "builder_meta",
    "nsites",
    "elements",
    "nelements",
    "composition",
    "composition_reduced",
    "chemsys",
    "symmetry",
    "property_name",
    "deprecated",
    "deprecation_reasons",
    "last_updated",
    "origins",
    "warnings",
    "task_ids",
    "uncorrected_energy_per_atom",
    "equilibrium_reaction_energy_per_atom",
    "decomposes_to",
    "xas",
    "grain_boundaries",
    "cbm",
    "vbm",
    "is_gap_direct",
    "is_metal",
    "es_source_calc_id",
    "bandstructure",
    "dos",
    "dos_energy_up",
    "dos_energy_down",
    "is_magnetic",
    "ordering",
    "total_magnetization_normalized_vol",
    "total_magnetization_normalized_formula_units",
    "num_magnetic_sites",
    "num_unique_magnetic_sites",
    "types_of_magnetic_species",
    "bulk_modulus",
    "shear_modulus",
    "universal_anisotropy",
    "homogeneous_poisson",
    "e_total",
    "e_ionic",
    "e_electronic",
    "n",
    "e_ij_max",
    "weighted_surface_energy_EV_PER_ANG2",
    "weighted_surface_energy",
    "weighted_work_function",
    "surface_anisotropy",
    "shape_factor",
    "has_reconstructed",
    "possible_species",
    "has_props",
    "theoretical",
    "database_IDs"
  ]
}
