{"builder_meta": null, "nsites": null, "elements": null, "nelements": null, "composition": null, "composition_reduced": null, "formula_pretty": "Bi6Br7", "formula_anonymous": "A6B7", "chemsys": null, "volume": 3602.4935503783336, "density": 6.686272523317538, "density_atomic": 34.63936106133013, "symmetry": null, "property_name": null, "material_id": "mp-27709", "deprecated": null, "deprecation_reasons": null, "last_updated": null, "origins": null, "warnings": null, "structure": {"@module": "pymatgen.core.structure", "@class": "Structure", "charge": 0, "lattice": {"matrix": [[9.194298, 0.0, 0.0], [0.0, 16.017282, 0.0], [0.0, 0.0, 24.462217]], "pbc": [true, true, true], "a": 9.194298, "b": 16.017282, "c": 24.462217, "alpha": 90.0, "beta": 90.0, "gamma": 90.0, "volume": 3602.4935503783336}, "properties": {}, "sites": [{"species": [{"element": "Bi", "occu": 1}], "abc": [0.821353, 0.834476999999999, 0.8051200000000001], "properties": {"magmom": 0.0}, "label": "Bi", "xyz": [7.551764245194, 13.366053431513986, 19.69502015104]}, {"species": [{"element": "Bi", "occu": 1}], "abc": [0.821353, 0.165523, 0.19488000000000003], "properties": {"magmom": 0.0}, "label": "Bi", "xyz": [7.551764245194, 2.651228568486, 4.76719684896]}, {"species": [{"element": "Bi", "occu": 1}], "abc": [0.678647, 0.334476999999999, 0.69488], "properties": {"magmom": 0.0}, "label": "Bi", "xyz": [6.239682754806, 5.357412431513985, 16.99830534896]}, {"species": [{"element": "Bi", "occu": 1}], "abc": [0.678647, 0.665523, 0.30512], "properties": {"magmom": 0.0}, "label": "Bi", "xyz": [6.239682754806, 10.659869568486, 7.46391165104]}, {"species": [{"element": "Bi", "occu": 1}], "abc": [0.178647, 0.165523, 0.19488000000000003], "properties": {"magmom": 0.0}, "label": "Bi", "xyz": [1.642533754806, 2.651228568486, 4.76719684896]}, {"species": [{"element": "Bi", "occu": 1}], "abc": [0.178647, 0.834476999999999, 0.8051200000000001], "properties": {"magmom": 0.0}, "label": "Bi", "xyz": [1.642533754806, 13.366053431513986, 19.69502015104]}, {"species": [{"element": "Bi", "occu": 1}], "abc": [0.321353, 0.665523, 0.30512], "properties": {"magmom": 0.0}, "label": "Bi", "xyz": [2.9546152451939998, 10.659869568486, 7.46391165104]}, {"species": [{"element": "Bi", "occu": 1}], "abc": [0.321353, 0.334476999999999, 0.69488], "properties": {"magmom": 0.0}, "label": "Bi", "xyz": [2.9546152451939998, 5.357412431513985, 16.99830534896]}, {"species": [{"element": "Bi", "occu": 1}], "abc": [0.816657, 0.7819, 0.950448], "properties": {"magmom": 0.0}, "label": "Bi", "xyz": [7.508587821786, 12.523912795800001, 23.250065223215998]}, {"species": [{"element": "Bi", "occu": 1}], "abc": [0.816657, 0.21810000000000002, 0.049552], "properties": {"magmom": 0.0}, "label": "Bi", "xyz": [7.508587821786, 3.4933692042000004, 1.212151776784]}, {"species": [{"element": "Bi", "occu": 1}], "abc": [0.683342999999999, 0.28190000000000004, 0.549551999999999], "properties": {"magmom": 0.0}, "label": "Bi", "xyz": [6.282859178213991, 4.515271795800001, 13.443260276783976]}, {"species": [{"element": "Bi", "occu": 1}], "abc": [0.683342999999999, 0.7181000000000001, 0.450447999999999], "properties": {"magmom": 0.0}, "label": "Bi", "xyz": [6.282859178213991, 11.502010204200003, 11.018956723215975]}, {"species": [{"element": "Bi", "occu": 1}], "abc": [0.183342999999999, 0.21810000000000002, 0.049552], "properties": {"magmom": 0.0}, "label": "Bi", "xyz": [1.685710178213991, 3.4933692042000004, 1.212151776784]}, {"species": [{"element": "Bi", "occu": 1}], "abc": [0.183342999999999, 0.7819, 0.950448], "properties": {"magmom": 0.0}, "label": "Bi", "xyz": [1.685710178213991, 12.523912795800001, 23.250065223215998]}, {"species": [{"element": "Bi", "occu": 1}], "abc": [0.316656999999999, 0.7181000000000001, 0.450447999999999], "properties": {"magmom": 0.0}, "label": "Bi", "xyz": [2.911438821785991, 11.502010204200003, 11.018956723215975]}, {"species": [{"element": "Bi", "occu": 1}], "abc": [0.316656999999999, 0.28190000000000004, 0.549551999999999], "properties": {"magmom": 0.0}, "label": "Bi", "xyz": [2.911438821785991, 4.515271795800001, 13.443260276783976]}, {"species": [{"element": "Bi", "occu": 1}], "abc": [0.744582, 0.656354, 0.851564], "properties": {"magmom": -0.0}, "label": "Bi", "xyz": [6.845908793435999, 10.513007109828001, 20.831143357387997]}, {"species": [{"element": "Bi", "occu": 1}], "abc": [0.744582, 0.343646, 0.148435999999999], "properties": {"magmom": -0.0}, "label": "Bi", "xyz": [6.845908793435999, 5.504274890172001, 3.631073642611976]}, {"species": [{"element": "Bi", "occu": 1}], "abc": [0.755417999999999, 0.156354, 0.648436], "properties": {"magmom": -0.0}, "label": "Bi", "xyz": [6.945538206563991, 2.504366109828, 15.862182142612]}, {"species": [{"element": "Bi", "occu": 1}], "abc": [0.755417999999999, 0.843646, 0.351564], "properties": {"magmom": -0.0}, "label": "Bi", "xyz": [6.945538206563991, 13.512915890172001, 8.600034857388]}, {"species": [{"element": "Bi", "occu": 1}], "abc": [0.255418, 0.343646, 0.148435999999999], "properties": {"magmom": -0.0}, "label": "Bi", "xyz": [2.3483892065639997, 5.504274890172001, 3.631073642611976]}, {"species": [{"element": "Bi", "occu": 1}], "abc": [0.255418, 0.656354, 0.851564], "properties": {"magmom": -0.0}, "label": "Bi", "xyz": [2.3483892065639997, 10.513007109828001, 20.831143357387997]}, {"species": [{"element": "Bi", "occu": 1}], "abc": [0.244582, 0.843646, 0.351564], "properties": {"magmom": -0.0}, "label": "Bi", "xyz": [2.2487597934359997, 13.512915890172001, 8.600034857388]}, {"species": [{"element": "Bi", "occu": 1}], "abc": [0.244582, 0.156354, 0.648436], "properties": {"magmom": -0.0}, "label": "Bi", "xyz": [2.2487597934359997, 2.504366109828, 15.862182142612]}, {"species": [{"element": "Bi", "occu": 1}], "abc": [0.0, 0.614509, 0.932788], "properties": {"magmom": -0.0}, "label": "Bi", "xyz": [0.0, 9.842763944538001, 22.818062470995997]}, {"species": [{"element": "Bi", "occu": 1}], "abc": [0.0, 0.385491, 0.067212], "properties": {"magmom": -0.0}, "label": "Bi", "xyz": [0.0, 6.174518055462, 1.6441545290039998]}, {"species": [{"element": "Bi", "occu": 1}], "abc": [0.5, 0.114509, 0.567211999999999], "properties": {"magmom": -0.0}, "label": "Bi", "xyz": [4.597149, 1.834122944538, 13.875263029003976]}, {"species": [{"element": "Bi", "occu": 1}], "abc": [0.5, 0.885490999999999, 0.432788], "properties": {"magmom": -0.0}, "label": "Bi", "xyz": [4.597149, 14.183159055461985, 10.586953970996]}, {"species": [{"element": "Bi", "occu": 1}], "abc": [0.0, 0.925605, 0.898602], "properties": {"magmom": -0.0}, "label": "Bi", "xyz": [0.0, 14.825676305610001, 21.981797120634]}, {"species": [{"element": "Bi", "occu": 1}], "abc": [0.0, 0.074395, 0.101398], "properties": {"magmom": -0.0}, "label": "Bi", "xyz": [0.0, 1.1916056943900002, 2.480419879366]}, {"species": [{"element": "Bi", "occu": 1}], "abc": [0.5, 0.425604999999999, 0.601398], "properties": {"magmom": -0.0}, "label": "Bi", "xyz": [4.597149, 6.817035305609985, 14.711528379366]}, {"species": [{"element": "Bi", "occu": 1}], "abc": [0.5, 0.574395, 0.398601999999999], "properties": {"magmom": -0.0}, "label": "Bi", "xyz": [4.597149, 9.200246694390001, 9.750688620633975]}, {"species": [{"element": "Bi", "occu": 1}], "abc": [0.0, 0.672122999999999, 0.766944], "properties": {"magmom": 0.0}, "label": "Bi", "xyz": [0.0, 10.765583629685985, 18.761150554847998]}, {"species": [{"element": "Bi", "occu": 1}], "abc": [0.0, 0.327877, 0.23305599999999901], "properties": {"magmom": 0.0}, "label": "Bi", "xyz": [0.0, 5.251698370314, 5.701066445151976]}, {"species": [{"element": "Bi", "occu": 1}], "abc": [0.5, 0.172123, 0.733055999999999], "properties": {"magmom": 0.0}, "label": "Bi", "xyz": [4.597149, 2.7569426296860002, 17.932174945151974]}, {"species": [{"element": "Bi", "occu": 1}], "abc": [0.5, 0.827877, 0.266944], "properties": {"magmom": 0.0}, "label": "Bi", "xyz": [4.597149, 13.260339370314, 6.530042054848]}, {"species": [{"element": "Bi", "occu": 1}], "abc": [0.0, 0.903690999999999, 0.599221999999999], "properties": {"magmom": 0.0}, "label": "Bi", "xyz": [0.0, 14.474673587861986, 14.658298595173976]}, {"species": [{"element": "Bi", "occu": 1}], "abc": [0.0, 0.096308999999999, 0.400777999999999], "properties": {"magmom": 0.0}, "label": "Bi", "xyz": [0.0, 1.5426084121379842, 9.803918404825975]}, {"species": [{"element": "Bi", "occu": 1}], "abc": [0.5, 0.403690999999999, 0.900778], "properties": {"magmom": 0.0}, "label": "Bi", "xyz": [4.597149, 6.466032587861985, 22.035026904825997]}, {"species": [{"element": "Bi", "occu": 1}], "abc": [0.5, 0.596309, 0.099221999999999], "properties": {"magmom": 0.0}, "label": "Bi", "xyz": [4.597149, 9.551249412138, 2.4271900951739758]}, {"species": [{"element": "Bi", "occu": 1}], "abc": [0.0, 0.321671999999999, 0.855661999999999], "properties": {"magmom": 0.0}, "label": "Bi", "xyz": [0.0, 5.152311135503985, 20.931389522653976]}, {"species": [{"element": "Bi", "occu": 1}], "abc": [0.0, 0.678327999999999, 0.144338], "properties": {"magmom": 0.0}, "label": "Bi", "xyz": [0.0, 10.864970864495985, 3.5308274773459996]}, {"species": [{"element": "Bi", "occu": 1}], "abc": [0.5, 0.821672, 0.644338], "properties": {"magmom": 0.0}, "label": "Bi", "xyz": [4.597149, 13.160952135504001, 15.761935977345999]}, {"species": [{"element": "Bi", "occu": 1}], "abc": [0.5, 0.178328, 0.355662], "properties": {"magmom": 0.0}, "label": "Bi", "xyz": [4.597149, 2.8563298644960002, 8.700281022654]}, {"species": [{"element": "Bi", "occu": 1}], "abc": [0.0, 0.544315, 0.587649], "properties": {"magmom": 0.0}, "label": "Bi", "xyz": [0.0, 8.71844685183, 14.375197357832999]}, {"species": [{"element": "Bi", "occu": 1}], "abc": [0.0, 0.455685, 0.412350999999999], "properties": {"magmom": 0.0}, "label": "Bi", "xyz": [0.0, 7.298835148170001, 10.087019642166975]}, {"species": [{"element": "Bi", "occu": 1}], "abc": [0.5, 0.044315, 0.912350999999999], "properties": {"magmom": 0.0}, "label": "Bi", "xyz": [4.597149, 0.7098058518300001, 22.318128142166977]}, {"species": [{"element": "Bi", "occu": 1}], "abc": [0.5, 0.955685, 0.087648999999999], "properties": {"magmom": 0.0}, "label": "Bi", "xyz": [4.597149, 15.307476148170002, 2.1440888578329758]}, {"species": [{"element": "Br", "occu": 1}], "abc": [0.808896, 0.791663, 0.669308], "properties": {"magmom": -0.0}, "label": "Br", "xyz": [7.437230875008, 12.680289519966001, 16.372757535836]}, {"species": [{"element": "Br", "occu": 1}], "abc": [0.808896, 0.208337, 0.330692], "properties": {"magmom": -0.0}, "label": "Br", "xyz": [7.437230875008, 3.336992480034, 8.089459464164]}, {"species": [{"element": "Br", "occu": 1}], "abc": [0.691103999999999, 0.291663, 0.830692], "properties": {"magmom": -0.0}, "label": "Br", "xyz": [6.354216124991991, 4.671648519966, 20.320567964164]}, {"species": [{"element": "Br", "occu": 1}], "abc": [0.691103999999999, 0.708337, 0.169308], "properties": {"magmom": -0.0}, "label": "Br", "xyz": [6.354216124991991, 11.345633480034001, 4.141649035835999]}, {"species": [{"element": "Br", "occu": 1}], "abc": [0.191104, 0.208337, 0.330692], "properties": {"magmom": -0.0}, "label": "Br", "xyz": [1.757067124992, 3.336992480034, 8.089459464164]}, {"species": [{"element": "Br", "occu": 1}], "abc": [0.191104, 0.791663, 0.669308], "properties": {"magmom": -0.0}, "label": "Br", "xyz": [1.757067124992, 12.680289519966001, 16.372757535836]}, {"species": [{"element": "Br", "occu": 1}], "abc": [0.308896, 0.708337, 0.169308], "properties": {"magmom": -0.0}, "label": "Br", "xyz": [2.840081875008, 11.345633480034001, 4.141649035835999]}, {"species": [{"element": "Br", "occu": 1}], "abc": [0.308896, 0.291663, 0.830692], "properties": {"magmom": -0.0}, "label": "Br", "xyz": [2.840081875008, 4.671648519966, 20.320567964164]}, {"species": [{"element": "Br", "occu": 1}], "abc": [0.777134, 0.5542100000000001, 0.664107], "properties": {"magmom": -0.0}, "label": "Br", "xyz": [7.145201581932, 8.876937857220002, 16.245529545219]}, {"species": [{"element": "Br", "occu": 1}], "abc": [0.777134, 0.44579, 0.335893], "properties": {"magmom": -0.0}, "label": "Br", "xyz": [7.145201581932, 7.140344142780001, 8.216687454780999]}, {"species": [{"element": "Br", "occu": 1}], "abc": [0.722866, 0.05421, 0.835893], "properties": {"magmom": -0.0}, "label": "Br", "xyz": [6.646245418068, 0.86829685722, 20.447795954781]}, {"species": [{"element": "Br", "occu": 1}], "abc": [0.722866, 0.9457900000000001, 0.164107], "properties": {"magmom": -0.0}, "label": "Br", "xyz": [6.646245418068, 15.148985142780004, 4.014421045219]}, {"species": [{"element": "Br", "occu": 1}], "abc": [0.222865999999999, 0.44579, 0.335893], "properties": {"magmom": -0.0}, "label": "Br", "xyz": [2.049096418067991, 7.140344142780001, 8.216687454780999]}, {"species": [{"element": "Br", "occu": 1}], "abc": [0.222865999999999, 0.5542100000000001, 0.664107], "properties": {"magmom": -0.0}, "label": "Br", "xyz": [2.049096418067991, 8.876937857220002, 16.245529545219]}, {"species": [{"element": "Br", "occu": 1}], "abc": [0.277134, 0.9457900000000001, 0.164107], "properties": {"magmom": -0.0}, "label": "Br", "xyz": [2.5480525819319997, 15.148985142780004, 4.014421045219]}, {"species": [{"element": "Br", "occu": 1}], "abc": [0.277134, 0.05421, 0.835893], "properties": {"magmom": -0.0}, "label": "Br", "xyz": [2.5480525819319997, 0.86829685722, 20.447795954781]}, {"species": [{"element": "Br", "occu": 1}], "abc": [0.693309, 0.919435999999999, 0.560484], "properties": {"magmom": -0.0}, "label": "Br", "xyz": [6.374489552081999, 14.726865692951986, 13.710681233028]}, {"species": [{"element": "Br", "occu": 1}], "abc": [0.693309, 0.080564, 0.439515999999999], "properties": {"magmom": -0.0}, "label": "Br", "xyz": [6.374489552081999, 1.2904163070480001, 10.751535766971976]}, {"species": [{"element": "Br", "occu": 1}], "abc": [0.806690999999999, 0.419436, 0.939515999999999], "properties": {"magmom": -0.0}, "label": "Br", "xyz": [7.416957447917991, 6.718224692952, 22.982644266971974]}, {"species": [{"element": "Br", "occu": 1}], "abc": [0.806690999999999, 0.580564, 0.060483999999999004], "properties": {"magmom": -0.0}, "label": "Br", "xyz": [7.416957447917991, 9.299057307048, 1.4795727330279755]}, {"species": [{"element": "Br", "occu": 1}], "abc": [0.306691, 0.080564, 0.439515999999999], "properties": {"magmom": -0.0}, "label": "Br", "xyz": [2.8198084479179997, 1.2904163070480001, 10.751535766971976]}, {"species": [{"element": "Br", "occu": 1}], "abc": [0.306691, 0.919435999999999, 0.560484], "properties": {"magmom": -0.0}, "label": "Br", "xyz": [2.8198084479179997, 14.726865692951986, 13.710681233028]}, {"species": [{"element": "Br", "occu": 1}], "abc": [0.193308999999999, 0.580564, 0.060483999999999004], "properties": {"magmom": -0.0}, "label": "Br", "xyz": [1.777340552081991, 9.299057307048, 1.4795727330279755]}, {"species": [{"element": "Br", "occu": 1}], "abc": [0.193308999999999, 0.419436, 0.939515999999999], "properties": {"magmom": -0.0}, "label": "Br", "xyz": [1.777340552081991, 6.718224692952, 22.982644266971974]}, {"species": [{"element": "Br", "occu": 1}], "abc": [0.723822, 0.0, 0.0], "properties": {"magmom": -0.0}, "label": "Br", "xyz": [6.655035166956, 0.0, 0.0]}, {"species": [{"element": "Br", "occu": 1}], "abc": [0.776177999999999, 0.5, 0.5], "properties": {"magmom": -0.0}, "label": "Br", "xyz": [7.136411833043991, 8.008641, 12.2311085]}, {"species": [{"element": "Br", "occu": 1}], "abc": [0.276178, 0.0, 0.0], "properties": {"magmom": -0.0}, "label": "Br", "xyz": [2.539262833044, 0.0, 0.0]}, {"species": [{"element": "Br", "occu": 1}], "abc": [0.223822, 0.5, 0.5], "properties": {"magmom": -0.0}, "label": "Br", "xyz": [2.057886166956, 8.008641, 12.2311085]}, {"species": [{"element": "Br", "occu": 1}], "abc": [0.0, 0.078044, 0.556367], "properties": {"magmom": -0.0}, "label": "Br", "xyz": [0.0, 1.2500527564080002, 13.609970285638997]}, {"species": [{"element": "Br", "occu": 1}], "abc": [0.0, 0.921956, 0.443633], "properties": {"magmom": -0.0}, "label": "Br", "xyz": [0.0, 14.767229243592002, 10.852246714361]}, {"species": [{"element": "Br", "occu": 1}], "abc": [0.5, 0.578044, 0.9436329999999991], "properties": {"magmom": -0.0}, "label": "Br", "xyz": [4.597149, 9.258693756408, 23.083355214360974]}, {"species": [{"element": "Br", "occu": 1}], "abc": [0.5, 0.421956, 0.056367], "properties": {"magmom": -0.0}, "label": "Br", "xyz": [4.597149, 6.758588243592, 1.378861785639]}, {"species": [{"element": "Br", "occu": 1}], "abc": [0.0, 0.367973999999999, 0.608564], "properties": {"magmom": -0.0}, "label": "Br", "xyz": [0.0, 5.893943326667985, 14.886824626388]}, {"species": [{"element": "Br", "occu": 1}], "abc": [0.0, 0.632026, 0.391436], "properties": {"magmom": -0.0}, "label": "Br", "xyz": [0.0, 10.123338673332, 9.575392373611999]}, {"species": [{"element": "Br", "occu": 1}], "abc": [0.5, 0.867973999999999, 0.891436], "properties": {"magmom": -0.0}, "label": "Br", "xyz": [4.597149, 13.902584326667986, 21.806500873612]}, {"species": [{"element": "Br", "occu": 1}], "abc": [0.5, 0.132026, 0.108564], "properties": {"magmom": -0.0}, "label": "Br", "xyz": [4.597149, 2.1146976733320004, 2.6557161263879996]}, {"species": [{"element": "Br", "occu": 1}], "abc": [0.0, 0.22333000000000003, 0.755539], "properties": {"magmom": -0.0}, "label": "Br", "xyz": [0.0, 3.5771395890600006, 18.482158969963]}, {"species": [{"element": "Br", "occu": 1}], "abc": [0.0, 0.7766700000000001, 0.244460999999999], "properties": {"magmom": -0.0}, "label": "Br", "xyz": [0.0, 12.440142410940002, 5.980058030036975]}, {"species": [{"element": "Br", "occu": 1}], "abc": [0.5, 0.72333, 0.744460999999999], "properties": {"magmom": -0.0}, "label": "Br", "xyz": [4.597149, 11.585780589060002, 18.211166530036976]}, {"species": [{"element": "Br", "occu": 1}], "abc": [0.5, 0.27667, 0.255539], "properties": {"magmom": -0.0}, "label": "Br", "xyz": [4.597149, 4.431501410940001, 6.251050469963]}, {"species": [{"element": "Br", "occu": 1}], "abc": [0.0, 0.180400999999999, 0.939193], "properties": {"magmom": -0.0}, "label": "Br", "xyz": [0.0, 2.8895336900819846, 22.974742970880996]}, {"species": [{"element": "Br", "occu": 1}], "abc": [0.0, 0.819599, 0.060807], "properties": {"magmom": -0.0}, "label": "Br", "xyz": [0.0, 13.127748309918001, 1.4874740291189998]}, {"species": [{"element": "Br", "occu": 1}], "abc": [0.5, 0.680400999999999, 0.5608069999999991], "properties": {"magmom": -0.0}, "label": "Br", "xyz": [4.597149, 10.898174690081985, 13.718582529118976]}, {"species": [{"element": "Br", "occu": 1}], "abc": [0.5, 0.319598999999999, 0.439193], "properties": {"magmom": -0.0}, "label": "Br", "xyz": [4.597149, 5.119107309917985, 10.743634470881]}, {"species": [{"element": "Br", "occu": 1}], "abc": [0.0, 0.994463, 0.696004], "properties": {"magmom": -0.0}, "label": "Br", "xyz": [0.0, 15.928594309566002, 17.025800880867997]}, {"species": [{"element": "Br", "occu": 1}], "abc": [0.0, 0.005536999999999, 0.303996], "properties": {"magmom": -0.0}, "label": "Br", "xyz": [0.0, 0.088687690433984, 7.436416119132]}, {"species": [{"element": "Br", "occu": 1}], "abc": [0.5, 0.494463, 0.803995999999999], "properties": {"magmom": -0.0}, "label": "Br", "xyz": [4.597149, 7.919953309566001, 19.667524619131974]}, {"species": [{"element": "Br", "occu": 1}], "abc": [0.5, 0.505537, 0.196003999999999], "properties": {"magmom": -0.0}, "label": "Br", "xyz": [4.597149, 8.097328690434, 4.794692380867976]}, {"species": [{"element": "Br", "occu": 1}], "abc": [0.0, 0.719102999999999, 0.5402300000000001], "properties": {"magmom": -0.0}, "label": "Br", "xyz": [0.0, 11.518075538045986, 13.215223489910002]}, {"species": [{"element": "Br", "occu": 1}], "abc": [0.0, 0.280897, 0.45977], "properties": {"magmom": -0.0}, "label": "Br", "xyz": [0.0, 4.499206461954, 11.24699351009]}, {"species": [{"element": "Br", "occu": 1}], "abc": [0.5, 0.219103, 0.9597700000000001], "properties": {"magmom": -0.0}, "label": "Br", "xyz": [4.597149, 3.5094345380460004, 23.47810201009]}, {"species": [{"element": "Br", "occu": 1}], "abc": [0.5, 0.780897, 0.04023], "properties": {"magmom": -0.0}, "label": "Br", "xyz": [4.597149, 12.507847461954, 0.98411498991]}, {"species": [{"element": "Br", "occu": 1}], "abc": [0.0, 0.46069000000000004, 0.789045999999999], "properties": {"magmom": -0.0}, "label": "Br", "xyz": [0.0, 7.3790016445800015, 19.301814474981974]}, {"species": [{"element": "Br", "occu": 1}], "abc": [0.0, 0.5393100000000001, 0.210954], "properties": {"magmom": -0.0}, "label": "Br", "xyz": [0.0, 8.638280355420003, 5.160402525018]}, {"species": [{"element": "Br", "occu": 1}], "abc": [0.5, 0.96069, 0.710954], "properties": {"magmom": -0.0}, "label": "Br", "xyz": [4.597149, 15.387642644580001, 17.391511025017998]}, {"species": [{"element": "Br", "occu": 1}], "abc": [0.5, 0.039310000000000005, 0.289045999999999], "properties": {"magmom": -0.0}, "label": "Br", "xyz": [4.597149, 0.6296393554200002, 7.070705974981976]}]}, "task_ids": null, "uncorrected_energy_per_atom": null, "energy_per_atom": -3.4596780825, "formation_energy_per_atom": -0.782844882115385, "energy_above_hull": 0.05895959403846, "is_stable": false, "equilibrium_reaction_energy_per_atom": null, "decomposes_to": null, "xas": null, "grain_boundaries": null, "band_gap": 1.445799999999999, "cbm": null, "vbm": null, "efermi": 2.59170971, "is_gap_direct": null, "is_metal": null, "es_source_calc_id": null, "bandstructure": null, "dos": null, "dos_energy_up": null, "dos_energy_down": null, "is_magnetic": null, "ordering": null, "total_magnetization": 0.07798719999999901, "total_magnetization_normalized_vol": null, "total_magnetization_normalized_formula_units": null, "num_magnetic_sites": null, "num_unique_magnetic_sites": null, "types_of_magnetic_species": null, "bulk_modulus": null, "shear_modulus": null, "universal_anisotropy": null, "homogeneous_poisson": null, "e_total": null, "e_ionic": null, "e_electronic": null, "n": null, "e_ij_max": null, "weighted_surface_energy_EV_PER_ANG2": null, "weighted_surface_energy": null, "weighted_work_function": null, "surface_anisotropy": null, "shape_factor": null, "has_reconstructed": null, "possible_species": null, "has_props": null, "theoretical": null, "database_IDs": null, "fields_not_requested": ["builder_meta", "nsites", "elements", "nelements", "composition", "composition_reduced", "chemsys", "symmetry", "property_name", "deprecated", "deprecation_reasons", "last_updated", "origins", "warnings", "task_ids", "uncorrected_energy_per_atom", "equilibrium_reaction_energy_per_atom", "decomposes_to", "xas", "grain_boundaries", "cbm", "vbm", "is_gap_direct", "is_metal", "es_source_calc_id", "bandstructure", "dos", "dos_energy_up", "dos_energy_down", "is_magnetic", "ordering", "total_magnetization_normalized_vol", "total_magnetization_normalized_formula_units", "num_magnetic_sites", "num_unique_magnetic_sites", "types_of_magnetic_species", "bulk_modulus", "shear_modulus", "universal_anisotropy", "homogeneous_poisson", "e_total", "e_ionic", "e_electronic", "n", "e_ij_max", "weighted_surface_energy_EV_PER_ANG2", "weighted_surface_energy", "weighted_work_function", "surface_anisotropy", "shape_factor", "has_reconstructed", "possible_species", "has_props", "theoretical", "database_IDs"]}