{
  "builder_meta": null,
  "nsites": null,
  "elements": null,
  "nelements": null,
  "composition": null,
  "composition_reduced": null,
  "formula_pretty": "Bi7I2",
  "formula_anonymous": "A2B7",
  "chemsys": null,
  "volume": 696.0595391981133,
  "density": 8.190680044647321,
  "density_atomic": 38.66997439989518,
  "symmetry": null,
  "property_name": null,
  "material_id": "mp-1214175",
  "deprecated": null,
  "deprecation_reasons": null,
  "last_updated": null,
  "origins": null,
  "warnings": null,
  "structure": {
    "@module": "pymatgen.core.structure",
    "@class": "Structure",
    "charge": 0,
    "lattice": {
      "matrix": [
        [4.4517113, 0.0, 0.0],
        [0.0, 11.69692141, -0.06539456],
        [0.0, 0.7387729, 13.36329685]
      ],
      "pbc": [true, true, true],
      "a": 4.4517113,
      "b": 11.697104210880314,
      "c": 13.38370233152973,
      "alpha": 87.15601965310849,
      "beta": 90.0,
      "gamma": 90.0,
      "volume": 696.0595391981134
    },
    "properties": {},
    "sites": [
      {
        "species": [{ "element": "Bi", "occu": 1 }],
        "abc": [0.25, 0.12811168, 0.47530169],
        "properties": { "magmom": 0.0 },
        "label": "Bi",
        "xyz": [1.112927825, 1.8496522605592698, 6.343219769832215]
      },
      {
        "species": [{ "element": "Bi", "occu": 1 }],
        "abc": [0.75, 0.87188832, 0.52469831],
        "properties": { "magmom": 0.0 },
        "label": "Bi",
        "xyz": [3.3387834750000005, 10.58604204944073, 6.954682520167784]
      },
      {
        "species": [{ "element": "Bi", "occu": 1 }],
        "abc": [0.25, 0.19561972, 0.69303463],
        "properties": { "magmom": 0.0 },
        "label": "Bi",
        "xyz": [1.112927825, 2.800143694491732, 9.248435022503191]
      },
      {
        "species": [{ "element": "Bi", "occu": 1 }],
        "abc": [0.75, 0.8043802800000001, 0.30696537],
        "properties": { "magmom": 0.0 },
        "label": "Bi",
        "xyz": [3.3387834750000005, 9.635550615508269, 4.049467267496808]
      },
      {
        "species": [{ "element": "Bi", "occu": 1 }],
        "abc": [0.25, 0.9727759500000001, 0.2489446],
        "properties": { "magmom": -0.0 },
        "label": "Bi",
        "xyz": [1.112927825, 11.562397360769431, 3.2631063337756774]
      },
      {
        "species": [{ "element": "Bi", "occu": 1 }],
        "abc": [0.75, 0.02722405, 0.751055399999999],
        "properties": { "magmom": -0.0 },
        "label": "Bi",
        "xyz": [3.3387834750000005, 0.8732969492305698, 10.034795956224308]
      },
      {
        "species": [{ "element": "Bi", "occu": 1 }],
        "abc": [0.25, 0.76295617, 0.79657386],
        "properties": { "magmom": 0.0 },
        "label": "Bi",
        "xyz": [1.112927825, 9.512725540380993, 10.594959771093905]
      },
      {
        "species": [{ "element": "Bi", "occu": 1 }],
        "abc": [0.75, 0.23704383, 0.20342614],
        "properties": { "magmom": 0.0 },
        "label": "Bi",
        "xyz": [3.3387834750000005, 2.9229687696190063, 2.7029425189060943]
      },
      {
        "species": [{ "element": "Bi", "occu": 1 }],
        "abc": [0.25, 0.41134457, 0.1498019],
        "properties": { "magmom": -0.0 },
        "label": "Bi",
        "xyz": [1.112927825, 4.922134691808753, 1.9749475612304757]
      },
      {
        "species": [{ "element": "Bi", "occu": 1 }],
        "abc": [0.75, 0.58865543, 0.8501981],
        "properties": { "magmom": -0.0 },
        "label": "Bi",
        "xyz": [3.3387834750000005, 7.5135596181912465, 11.322954728769524]
      },
      {
        "species": [{ "element": "Bi", "occu": 1 }],
        "abc": [0.25, 0.70101709, 0.57940198],
        "properties": { "magmom": -0.0 },
        "label": "Bi",
        "xyz": [1.112927825, 8.62778828982724, 7.6968779500647315]
      },
      {
        "species": [{ "element": "Bi", "occu": 1 }],
        "abc": [0.75, 0.29898291, 0.42059802],
        "properties": { "magmom": -0.0 },
        "label": "Bi",
        "xyz": [3.3387834750000005, 3.807906020172761, 5.601024339935268]
      },
      {
        "species": [{ "element": "Bi", "occu": 1 }],
        "abc": [0.25, 0.91555849, 0.027318250000000002],
        "properties": { "magmom": 0.0 },
        "label": "Bi",
        "xyz": [1.112927825, 10.729397686563695, 0.3051893395646981]
      },
      {
        "species": [{ "element": "Bi", "occu": 1 }],
        "abc": [0.75, 0.08444151, 0.97268175],
        "properties": { "magmom": 0.0 },
        "label": "Bi",
        "xyz": [3.3387834750000005, 1.706296623436304, 12.992712950435301]
      },
      {
        "species": [{ "element": "I", "occu": 1 }],
        "abc": [0.25, 0.53996641, 0.34972456],
        "properties": { "magmom": 0.0 },
        "label": "I",
        "xyz": [1.112927825, 6.574311689202262, 4.638162245218907]
      },
      {
        "species": [{ "element": "I", "occu": 1 }],
        "abc": [0.75, 0.46003359, 0.65027544],
        "properties": { "magmom": 0.0 },
        "label": "I",
        "xyz": [3.3387834750000005, 5.8613826207977375, 8.659740044781094]
      },
      {
        "species": [{ "element": "I", "occu": 1 }],
        "abc": [0.25, 0.34849874000000003, 0.9292745],
        "properties": { "magmom": 0.0 },
        "label": "I",
        "xyz": [1.112927825, 4.762885190525074, 12.39538107687247]
      },
      {
        "species": [{ "element": "I", "occu": 1 }],
        "abc": [0.75, 0.65150126, 0.0707255],
        "properties": { "magmom": 0.0 },
        "label": "I",
        "xyz": [3.3387834750000005, 7.672809119474926, 0.9025212131275293]
      }
    ]
  },
  "task_ids": null,
  "uncorrected_energy_per_atom": null,
  "energy_per_atom": -3.549245411111106,
  "formation_energy_per_atom": -0.184993699999997,
  "energy_above_hull": 0.042083905185188,
  "is_stable": false,
  "equilibrium_reaction_energy_per_atom": null,
  "decomposes_to": null,
  "xas": null,
  "grain_boundaries": null,
  "band_gap": 0.0,
  "cbm": null,
  "vbm": null,
  "efermi": 4.09752886,
  "is_gap_direct": null,
  "is_metal": null,
  "es_source_calc_id": null,
  "bandstructure": null,
  "dos": null,
  "dos_energy_up": null,
  "dos_energy_down": null,
  "is_magnetic": null,
  "ordering": null,
  "total_magnetization": 2e-7,
  "total_magnetization_normalized_vol": null,
  "total_magnetization_normalized_formula_units": null,
  "num_magnetic_sites": null,
  "num_unique_magnetic_sites": null,
  "types_of_magnetic_species": null,
  "bulk_modulus": null,
  "shear_modulus": null,
  "universal_anisotropy": null,
  "homogeneous_poisson": null,
  "e_total": null,
  "e_ionic": null,
  "e_electronic": null,
  "n": null,
  "e_ij_max": null,
  "weighted_surface_energy_EV_PER_ANG2": null,
  "weighted_surface_energy": null,
  "weighted_work_function": null,
  "surface_anisotropy": null,
  "shape_factor": null,
  "has_reconstructed": null,
  "possible_species": null,
  "has_props": null,
  "theoretical": null,
  "database_IDs": null,
  "fields_not_requested": [
    "builder_meta",
    "nsites",
    "elements",
    "nelements",
    "composition",
    "composition_reduced",
    "chemsys",
    "symmetry",
    "property_name",
    "deprecated",
    "deprecation_reasons",
    "last_updated",
    "origins",
    "warnings",
    "task_ids",
    "uncorrected_energy_per_atom",
    "equilibrium_reaction_energy_per_atom",
    "decomposes_to",
    "xas",
    "grain_boundaries",
    "cbm",
    "vbm",
    "is_gap_direct",
    "is_metal",
    "es_source_calc_id",
    "bandstructure",
    "dos",
    "dos_energy_up",
    "dos_energy_down",
    "is_magnetic",
    "ordering",
    "total_magnetization_normalized_vol",
    "total_magnetization_normalized_formula_units",
    "num_magnetic_sites",
    "num_unique_magnetic_sites",
    "types_of_magnetic_species",
    "bulk_modulus",
    "shear_modulus",
    "universal_anisotropy",
    "homogeneous_poisson",
    "e_total",
    "e_ionic",
    "e_electronic",
    "n",
    "e_ij_max",
    "weighted_surface_energy_EV_PER_ANG2",
    "weighted_surface_energy",
    "weighted_work_function",
    "surface_anisotropy",
    "shape_factor",
    "has_reconstructed",
    "possible_species",
    "has_props",
    "theoretical",
    "database_IDs"
  ]
}
