{
  "builder_meta": null,
  "nsites": null,
  "elements": null,
  "nelements": null,
  "composition": null,
  "composition_reduced": null,
  "formula_pretty": "Bi8Mo3",
  "formula_anonymous": "A3B8",
  "chemsys": null,
  "volume": 601.5816408235933,
  "density": 10.818472772950178,
  "density_atomic": 27.34462003743606,
  "symmetry": null,
  "property_name": null,
  "material_id": "mp-1190719",
  "deprecated": null,
  "deprecation_reasons": null,
  "last_updated": null,
  "origins": null,
  "warnings": null,
  "structure": {
    "@module": "pymatgen.core.structure",
    "@class": "Structure",
    "charge": 0,
    "lattice": {
      "matrix": [
        [4.901327, 0.0, 0.0],
        [0.0, 7.318773, 0.0],
        [0.0, 3.584564, 16.770369]
      ],
      "pbc": [true, true, true],
      "a": 4.901327,
      "b": 7.318773,
      "c": 17.14918002314562,
      "alpha": 77.93492723778384,
      "beta": 90.0,
      "gamma": 90.0,
      "volume": 601.5816408235933
    },
    "properties": {},
    "sites": [
      {
        "species": [{ "element": "Bi", "occu": 1 }],
        "abc": [0.25, 0.16449000000000003, 0.48463199999999906],
        "properties": { "magmom": -0.0 },
        "label": "Bi",
        "xyz": [1.22533175, 2.9410593912179968, 8.127457469207984]
      },
      {
        "species": [{ "element": "Bi", "occu": 1 }],
        "abc": [0.75, 0.8355100000000001, 0.515367999999999],
        "properties": { "magmom": -0.0 },
        "label": "Bi",
        "xyz": [3.67599525, 7.962277608781997, 8.642911530791983]
      },
      {
        "species": [{ "element": "Bi", "occu": 1 }],
        "abc": [0.75, 0.145261, 0.634886],
        "properties": { "magmom": -0.0 },
        "label": "Bi",
        "xyz": [3.67599525, 3.338921784457, 10.647272492933999]
      },
      {
        "species": [{ "element": "Bi", "occu": 1 }],
        "abc": [0.25, 0.854738999999999, 0.365114],
        "properties": { "magmom": -0.0 },
        "label": "Bi",
        "xyz": [1.22533175, 7.564415215542993, 6.123096507065999]
      },
      {
        "species": [{ "element": "Bi", "occu": 1 }],
        "abc": [0.25, 0.172838, 0.764764999999999],
        "properties": { "magmom": -0.0 },
        "label": "Bi",
        "xyz": [1.22533175, 4.006311175233996, 12.825391248284983]
      },
      {
        "species": [{ "element": "Bi", "occu": 1 }],
        "abc": [0.75, 0.827162, 0.235235],
        "properties": { "magmom": -0.0 },
        "label": "Bi",
        "xyz": [3.67599525, 6.897025824766, 3.9449777517149998]
      },
      {
        "species": [{ "element": "Bi", "occu": 1 }],
        "abc": [0.75, 0.222274, 0.898085999999999],
        "properties": { "magmom": -0.0 },
        "label": "Bi",
        "xyz": [3.67599525, 4.846019694305996, 15.061233613733982]
      },
      {
        "species": [{ "element": "Bi", "occu": 1 }],
        "abc": [0.25, 0.777725999999999, 0.101913999999999],
        "properties": { "magmom": -0.0 },
        "label": "Bi",
        "xyz": [1.22533175, 6.0573173056939895, 1.7091353862659833]
      },
      {
        "species": [{ "element": "Bi", "occu": 1 }],
        "abc": [0.25, 0.263443, 0.033546],
        "properties": { "magmom": -0.0 },
        "label": "Bi",
        "xyz": [1.22533175, 2.048327299383, 0.5625787984739999]
      },
      {
        "species": [{ "element": "Bi", "occu": 1 }],
        "abc": [0.75, 0.736557, 0.966453999999999],
        "properties": { "magmom": -0.0 },
        "label": "Bi",
        "xyz": [3.67599525, 8.855009700616996, 16.20779020152598]
      },
      {
        "species": [{ "element": "Bi", "occu": 1 }],
        "abc": [0.75, 0.302865999999999, 0.16869],
        "properties": { "magmom": -0.0 },
        "label": "Bi",
        "xyz": [3.67599525, 2.821287604577993, 2.82899354661]
      },
      {
        "species": [{ "element": "Bi", "occu": 1 }],
        "abc": [0.25, 0.697133999999999, 0.8313100000000001],
        "properties": { "magmom": -0.0 },
        "label": "Bi",
        "xyz": [1.22533175, 8.082049395421993, 13.94137545339]
      },
      {
        "species": [{ "element": "Bi", "occu": 1 }],
        "abc": [0.25, 0.367568, 0.287116],
        "properties": { "magmom": -0.0 },
        "label": "Bi",
        "xyz": [1.22533175, 3.7193324314879996, 4.815041265803999]
      },
      {
        "species": [{ "element": "Bi", "occu": 1 }],
        "abc": [0.75, 0.632432, 0.712884],
        "properties": { "magmom": -0.0 },
        "label": "Bi",
        "xyz": [3.67599525, 7.184004568512, 11.955327734195999]
      },
      {
        "species": [{ "element": "Bi", "occu": 1 }],
        "abc": [0.75, 0.446913, 0.407616],
        "properties": { "magmom": -0.0 },
        "label": "Bi",
        "xyz": [3.67599525, 4.731980437173, 6.835870730303999]
      },
      {
        "species": [{ "element": "Bi", "occu": 1 }],
        "abc": [0.25, 0.553087, 0.592384],
        "properties": { "magmom": -0.0 },
        "label": "Bi",
        "xyz": [1.22533175, 6.171356562827, 9.934498269696]
      },
      {
        "species": [{ "element": "Mo", "occu": 1 }],
        "abc": [0.75, 0.016635999999999002, 0.065792999999999],
        "properties": { "magmom": -0.0 },
        "label": "Mo",
        "xyz": [3.67599525, 0.3575943268799891, 1.1033728876169833]
      },
      {
        "species": [{ "element": "Mo", "occu": 1 }],
        "abc": [0.25, 0.9833639999999991, 0.934207],
        "properties": { "magmom": -0.0 },
        "label": "Mo",
        "xyz": [1.22533175, 10.545742673119994, 15.666996112382998]
      },
      {
        "species": [{ "element": "Mo", "occu": 1 }],
        "abc": [0.25, 0.064210999999999, 0.20455399999999901],
        "properties": { "magmom": -0.0 },
        "label": "Mo",
        "xyz": [1.22533175, 1.2031826375589891, 3.430446060425983]
      },
      {
        "species": [{ "element": "Mo", "occu": 1 }],
        "abc": [0.75, 0.935789, 0.795446],
        "properties": { "magmom": -0.0 },
        "label": "Mo",
        "xyz": [3.67599525, 9.700154362441, 13.339922939573999]
      },
      {
        "species": [{ "element": "Mo", "occu": 1 }],
        "abc": [0.75, 0.108037, 0.348838],
        "properties": { "magmom": 0.001 },
        "label": "Mo",
        "xyz": [3.67599525, 2.041130415233, 5.8501419812219995]
      },
      {
        "species": [{ "element": "Mo", "occu": 1 }],
        "abc": [0.25, 0.891963, 0.651162],
        "properties": { "magmom": 0.001 },
        "label": "Mo",
        "xyz": [1.22533175, 8.862206584767, 10.920227018778]
      }
    ]
  },
  "task_ids": null,
  "uncorrected_energy_per_atom": null,
  "energy_per_atom": -49.30207485590909,
  "formation_energy_per_atom": 0.35557316954544704,
  "energy_above_hull": 0.35557316954545104,
  "is_stable": false,
  "equilibrium_reaction_energy_per_atom": null,
  "decomposes_to": null,
  "xas": null,
  "grain_boundaries": null,
  "band_gap": 0.0,
  "cbm": null,
  "vbm": null,
  "efermi": 6.56202488,
  "is_gap_direct": null,
  "is_metal": null,
  "es_source_calc_id": null,
  "bandstructure": null,
  "dos": null,
  "dos_energy_up": null,
  "dos_energy_down": null,
  "is_magnetic": null,
  "ordering": null,
  "total_magnetization": 0.014047899999999001,
  "total_magnetization_normalized_vol": null,
  "total_magnetization_normalized_formula_units": null,
  "num_magnetic_sites": null,
  "num_unique_magnetic_sites": null,
  "types_of_magnetic_species": null,
  "bulk_modulus": null,
  "shear_modulus": null,
  "universal_anisotropy": null,
  "homogeneous_poisson": null,
  "e_total": null,
  "e_ionic": null,
  "e_electronic": null,
  "n": null,
  "e_ij_max": null,
  "weighted_surface_energy_EV_PER_ANG2": null,
  "weighted_surface_energy": null,
  "weighted_work_function": null,
  "surface_anisotropy": null,
  "shape_factor": null,
  "has_reconstructed": null,
  "possible_species": null,
  "has_props": null,
  "theoretical": null,
  "database_IDs": null,
  "fields_not_requested": [
    "builder_meta",
    "nsites",
    "elements",
    "nelements",
    "composition",
    "composition_reduced",
    "chemsys",
    "symmetry",
    "property_name",
    "deprecated",
    "deprecation_reasons",
    "last_updated",
    "origins",
    "warnings",
    "task_ids",
    "uncorrected_energy_per_atom",
    "equilibrium_reaction_energy_per_atom",
    "decomposes_to",
    "xas",
    "grain_boundaries",
    "cbm",
    "vbm",
    "is_gap_direct",
    "is_metal",
    "es_source_calc_id",
    "bandstructure",
    "dos",
    "dos_energy_up",
    "dos_energy_down",
    "is_magnetic",
    "ordering",
    "total_magnetization_normalized_vol",
    "total_magnetization_normalized_formula_units",
    "num_magnetic_sites",
    "num_unique_magnetic_sites",
    "types_of_magnetic_species",
    "bulk_modulus",
    "shear_modulus",
    "universal_anisotropy",
    "homogeneous_poisson",
    "e_total",
    "e_ionic",
    "e_electronic",
    "n",
    "e_ij_max",
    "weighted_surface_energy_EV_PER_ANG2",
    "weighted_surface_energy",
    "weighted_work_function",
    "surface_anisotropy",
    "shape_factor",
    "has_reconstructed",
    "possible_species",
    "has_props",
    "theoretical",
    "database_IDs"
  ]
}
