{
  "builder_meta": null,
  "nsites": null,
  "elements": null,
  "nelements": null,
  "composition": null,
  "composition_reduced": null,
  "formula_pretty": "Bi8Se7",
  "formula_anonymous": "A7B8",
  "chemsys": null,
  "volume": 1411.1487927412097,
  "density": 7.853121057231019,
  "density_atomic": 31.358862060915772,
  "symmetry": null,
  "property_name": null,
  "material_id": "mp-680214",
  "deprecated": null,
  "deprecation_reasons": null,
  "last_updated": null,
  "origins": null,
  "warnings": null,
  "structure": {
    "@module": "pymatgen.core.structure",
    "@class": "Structure",
    "charge": 0,
    "lattice": {
      "matrix": [
        [2.143748, -3.71308, 0.0],
        [2.143748, 3.71308, 0.0],
        [0.0, 0.0, 88.641026]
      ],
      "pbc": [true, true, true],
      "a": 4.28749560628393,
      "b": 4.28749560628393,
      "c": 88.641026,
      "alpha": 90.0,
      "beta": 90.0,
      "gamma": 119.9999939246478,
      "volume": 1411.1487927412097
    },
    "properties": {},
    "sites": [
      {
        "species": [{ "element": "Bi", "occu": 1 }],
        "abc": [0.0, 0.0, 0.900292],
        "properties": { "magmom": 0.002 },
        "label": "Bi",
        "xyz": [0.0, 0.0, 79.802806579592]
      },
      {
        "species": [{ "element": "Bi", "occu": 1 }],
        "abc": [0.0, 0.0, 0.832819],
        "properties": { "magmom": -0.002 },
        "label": "Bi",
        "xyz": [0.0, 0.0, 73.821930632294]
      },
      {
        "species": [{ "element": "Bi", "occu": 1 }],
        "abc": [0.0, 0.0, 0.568226],
        "properties": { "magmom": 0.001 },
        "label": "Bi",
        "xyz": [0.0, 0.0, 50.368135639876]
      },
      {
        "species": [{ "element": "Bi", "occu": 1 }],
        "abc": [0.666667, 0.333333, 0.942948999999999],
        "properties": { "magmom": 0.001 },
        "label": "Bi",
        "xyz": [2.143748, -1.2376958087200003, 83.58396682567391]
      },
      {
        "species": [{ "element": "Bi", "occu": 1 }],
        "abc": [0.333333, 0.666667, 0.852862999999999],
        "properties": { "magmom": 0.002 },
        "label": "Bi",
        "xyz": [2.143748, 1.2376958087200003, 75.59865135743792]
      },
      {
        "species": [{ "element": "Bi", "occu": 1 }],
        "abc": [0.0, 0.0, 0.364269],
        "properties": { "magmom": -0.001 },
        "label": "Bi",
        "xyz": [0.0, 0.0, 32.289177899994]
      },
      {
        "species": [{ "element": "Bi", "occu": 1 }],
        "abc": [0.666667, 0.333333, 0.411757],
        "properties": { "magmom": -0.002 },
        "label": "Bi",
        "xyz": [2.143748, -1.2376958087200003, 36.498562942682]
      },
      {
        "species": [{ "element": "Bi", "occu": 1 }],
        "abc": [0.0, 0.0, 0.635730999999999],
        "properties": { "magmom": -0.001 },
        "label": "Bi",
        "xyz": [0.0, 0.0, 56.35184810000592]
      },
      {
        "species": [{ "element": "Bi", "occu": 1 }],
        "abc": [0.333333, 0.666667, 0.588243],
        "properties": { "magmom": -0.002 },
        "label": "Bi",
        "xyz": [2.143748, 1.2376958087200003, 52.142463057318]
      },
      {
        "species": [{ "element": "Bi", "occu": 1 }],
        "abc": [0.0, 0.0, 0.099707999999999],
        "properties": { "magmom": 0.002 },
        "label": "Bi",
        "xyz": [0.0, 0.0, 8.838219420407912]
      },
      {
        "species": [{ "element": "Bi", "occu": 1 }],
        "abc": [0.333333, 0.666667, 0.321814],
        "properties": { "magmom": -0.001 },
        "label": "Bi",
        "xyz": [2.143748, 1.2376958087200003, 28.525923141163997]
      },
      {
        "species": [{ "element": "Bi", "occu": 1 }],
        "abc": [0.666667, 0.333333, 0.743228],
        "properties": { "magmom": -0.001 },
        "label": "Bi",
        "xyz": [2.143748, -1.2376958087200003, 65.880492471928]
      },
      {
        "species": [{ "element": "Bi", "occu": 1 }],
        "abc": [0.666667, 0.333333, 0.478813],
        "properties": { "magmom": 0.003 },
        "label": "Bi",
        "xyz": [2.143748, -1.2376958087200003, 42.442475582137995]
      },
      {
        "species": [{ "element": "Bi", "occu": 1 }],
        "abc": [0.333333, 0.666667, 0.521187],
        "properties": { "magmom": 0.003 },
        "label": "Bi",
        "xyz": [2.143748, 1.2376958087200003, 46.198550417861995]
      },
      {
        "species": [{ "element": "Bi", "occu": 1 }],
        "abc": [0.0, 0.0, 0.431774],
        "properties": { "magmom": 0.001 },
        "label": "Bi",
        "xyz": [0.0, 0.0, 38.272890360123995]
      },
      {
        "species": [{ "element": "Bi", "occu": 1 }],
        "abc": [0.666667, 0.333333, 0.678186],
        "properties": { "magmom": -0.001 },
        "label": "Bi",
        "xyz": [2.143748, -1.2376958087200003, 60.115102858835996]
      },
      {
        "species": [{ "element": "Bi", "occu": 1 }],
        "abc": [0.666667, 0.333333, 0.009995],
        "properties": { "magmom": -0.0 },
        "label": "Bi",
        "xyz": [2.143748, -1.2376958087200003, 0.88596705487]
      },
      {
        "species": [{ "element": "Bi", "occu": 1 }],
        "abc": [0.333333, 0.666667, 0.057051],
        "properties": { "magmom": 0.001 },
        "label": "Bi",
        "xyz": [2.143748, 1.2376958087200003, 5.057059174326]
      },
      {
        "species": [{ "element": "Bi", "occu": 1 }],
        "abc": [0.333333, 0.666667, 0.990004999999999],
        "properties": { "magmom": -0.0 },
        "label": "Bi",
        "xyz": [2.143748, 1.2376958087200003, 87.7550589451299]
      },
      {
        "species": [{ "element": "Bi", "occu": 1 }],
        "abc": [0.0, 0.0, 0.167181],
        "properties": { "magmom": -0.002 },
        "label": "Bi",
        "xyz": [0.0, 0.0, 14.819095367706]
      },
      {
        "species": [{ "element": "Bi", "occu": 1 }],
        "abc": [0.666667, 0.333333, 0.214163],
        "properties": { "magmom": -0.001 },
        "label": "Bi",
        "xyz": [2.143748, -1.2376958087200003, 18.983628051238]
      },
      {
        "species": [{ "element": "Bi", "occu": 1 }],
        "abc": [0.333333, 0.666667, 0.785837],
        "properties": { "magmom": -0.001 },
        "label": "Bi",
        "xyz": [2.143748, 1.2376958087200003, 69.657397948762]
      },
      {
        "species": [{ "element": "Bi", "occu": 1 }],
        "abc": [0.333333, 0.666667, 0.256772],
        "properties": { "magmom": -0.001 },
        "label": "Bi",
        "xyz": [2.143748, 1.2376958087200003, 22.760533528072]
      },
      {
        "species": [{ "element": "Bi", "occu": 1 }],
        "abc": [0.666667, 0.333333, 0.147137],
        "properties": { "magmom": 0.002 },
        "label": "Bi",
        "xyz": [2.143748, -1.2376958087200003, 13.042374642561999]
      },
      {
        "species": [{ "element": "Se", "occu": 1 }],
        "abc": [0.333333, 0.666667, 0.196652],
        "properties": { "magmom": 0.001 },
        "label": "Se",
        "xyz": [2.143748, 1.2376958087200003, 17.431435044952]
      },
      {
        "species": [{ "element": "Se", "occu": 1 }],
        "abc": [0.0, 0.0, 0.039636],
        "properties": { "magmom": -0.001 },
        "label": "Se",
        "xyz": [0.0, 0.0, 3.513375706536]
      },
      {
        "species": [{ "element": "Se", "occu": 1 }],
        "abc": [0.666667, 0.333333, 0.273678],
        "properties": { "magmom": 0.002 },
        "label": "Se",
        "xyz": [2.143748, -1.2376958087200003, 24.259098713627996]
      },
      {
        "species": [{ "element": "Se", "occu": 1 }],
        "abc": [0.666667, 0.333333, 0.53854],
        "properties": { "magmom": -0.003 },
        "label": "Se",
        "xyz": [2.143748, -1.2376958087200003, 47.73673814204]
      },
      {
        "species": [{ "element": "Se", "occu": 1 }],
        "abc": [0.333333, 0.666667, 0.117063],
        "properties": { "magmom": -0.002 },
        "label": "Se",
        "xyz": [2.143748, 1.2376958087200003, 10.376584426637999]
      },
      {
        "species": [{ "element": "Se", "occu": 1 }],
        "abc": [0.333333, 0.666667, 0.46146000000000004],
        "properties": { "magmom": -0.003 },
        "label": "Se",
        "xyz": [2.143748, 1.2376958087200003, 40.90428785796]
      },
      {
        "species": [{ "element": "Se", "occu": 1 }],
        "abc": [0.333333, 0.666667, 0.9216900000000001],
        "properties": { "magmom": -0.001 },
        "label": "Se",
        "xyz": [2.143748, 1.2376958087200003, 81.69954725394001]
      },
      {
        "species": [{ "element": "Se", "occu": 1 }],
        "abc": [0.0, 0.0, 0.695074],
        "properties": { "magmom": 0.001 },
        "label": "Se",
        "xyz": [0.0, 0.0, 61.612072505924]
      },
      {
        "species": [{ "element": "Se", "occu": 1 }],
        "abc": [0.0, 0.0, 0.304926],
        "properties": { "magmom": 0.001 },
        "label": "Se",
        "xyz": [0.0, 0.0, 27.028953494075996]
      },
      {
        "species": [{ "element": "Se", "occu": 1 }],
        "abc": [0.333333, 0.666667, 0.726321999999999],
        "properties": { "magmom": 0.002 },
        "label": "Se",
        "xyz": [2.143748, 1.2376958087200003, 64.3819272863719]
      },
      {
        "species": [{ "element": "Se", "occu": 1 }],
        "abc": [0.666667, 0.333333, 0.618255999999999],
        "properties": { "magmom": 0.001 },
        "label": "Se",
        "xyz": [2.143748, -1.2376958087200003, 54.80284617065591]
      },
      {
        "species": [{ "element": "Se", "occu": 1 }],
        "abc": [0.666667, 0.333333, 0.343387999999999],
        "properties": { "magmom": 0.001 },
        "label": "Se",
        "xyz": [2.143748, -1.2376958087200003, 30.43826463608791]
      },
      {
        "species": [{ "element": "Se", "occu": 1 }],
        "abc": [0.0, 0.0, 0.960364],
        "properties": { "magmom": -0.001 },
        "label": "Se",
        "xyz": [0.0, 0.0, 85.127650293464]
      },
      {
        "species": [{ "element": "Se", "occu": 1 }],
        "abc": [0.0, 0.0, 0.764899],
        "properties": { "magmom": 0.002 },
        "label": "Se",
        "xyz": [0.0, 0.0, 67.801432146374]
      },
      {
        "species": [{ "element": "Se", "occu": 1 }],
        "abc": [0.333333, 0.666667, 0.656612],
        "properties": { "magmom": 0.001 },
        "label": "Se",
        "xyz": [2.143748, 1.2376958087200003, 58.202761363911996]
      },
      {
        "species": [{ "element": "Se", "occu": 1 }],
        "abc": [0.666667, 0.333333, 0.882937],
        "properties": { "magmom": -0.002 },
        "label": "Se",
        "xyz": [2.143748, -1.2376958087200003, 78.26444157336199]
      },
      {
        "species": [{ "element": "Se", "occu": 1 }],
        "abc": [0.666667, 0.333333, 0.803348],
        "properties": { "magmom": 0.001 },
        "label": "Se",
        "xyz": [2.143748, -1.2376958087200003, 71.20959095504799]
      },
      {
        "species": [{ "element": "Se", "occu": 1 }],
        "abc": [0.0, 0.0, 0.5],
        "properties": { "magmom": -0.002 },
        "label": "Se",
        "xyz": [0.0, 0.0, 44.320513]
      },
      {
        "species": [{ "element": "Se", "occu": 1 }],
        "abc": [0.0, 0.0, 0.235100999999999],
        "properties": { "magmom": 0.002 },
        "label": "Se",
        "xyz": [0.0, 0.0, 20.83959385362591]
      },
      {
        "species": [{ "element": "Se", "occu": 1 }],
        "abc": [0.666667, 0.333333, 0.07831],
        "properties": { "magmom": -0.001 },
        "label": "Se",
        "xyz": [2.143748, -1.2376958087200003, 6.9414787460600005]
      },
      {
        "species": [{ "element": "Se", "occu": 1 }],
        "abc": [0.333333, 0.666667, 0.38174399999999903],
        "properties": { "magmom": 0.001 },
        "label": "Se",
        "xyz": [2.143748, 1.2376958087200003, 33.838179829343915]
      }
    ]
  },
  "task_ids": null,
  "uncorrected_energy_per_atom": null,
  "energy_per_atom": -38.20787354955554,
  "formation_energy_per_atom": -0.32793277778471003,
  "energy_above_hull": 0.009682616444450001,
  "is_stable": false,
  "equilibrium_reaction_energy_per_atom": null,
  "decomposes_to": null,
  "xas": null,
  "grain_boundaries": null,
  "band_gap": 0.0,
  "cbm": null,
  "vbm": null,
  "efermi": 4.58782,
  "is_gap_direct": null,
  "is_metal": null,
  "es_source_calc_id": null,
  "bandstructure": null,
  "dos": null,
  "dos_energy_up": null,
  "dos_energy_down": null,
  "is_magnetic": null,
  "ordering": null,
  "total_magnetization": 0.0279236,
  "total_magnetization_normalized_vol": null,
  "total_magnetization_normalized_formula_units": null,
  "num_magnetic_sites": null,
  "num_unique_magnetic_sites": null,
  "types_of_magnetic_species": null,
  "bulk_modulus": null,
  "shear_modulus": null,
  "universal_anisotropy": null,
  "homogeneous_poisson": null,
  "e_total": null,
  "e_ionic": null,
  "e_electronic": null,
  "n": null,
  "e_ij_max": null,
  "weighted_surface_energy_EV_PER_ANG2": null,
  "weighted_surface_energy": null,
  "weighted_work_function": null,
  "surface_anisotropy": null,
  "shape_factor": null,
  "has_reconstructed": null,
  "possible_species": null,
  "has_props": null,
  "theoretical": null,
  "database_IDs": null,
  "fields_not_requested": [
    "builder_meta",
    "nsites",
    "elements",
    "nelements",
    "composition",
    "composition_reduced",
    "chemsys",
    "symmetry",
    "property_name",
    "deprecated",
    "deprecation_reasons",
    "last_updated",
    "origins",
    "warnings",
    "task_ids",
    "uncorrected_energy_per_atom",
    "equilibrium_reaction_energy_per_atom",
    "decomposes_to",
    "xas",
    "grain_boundaries",
    "cbm",
    "vbm",
    "is_gap_direct",
    "is_metal",
    "es_source_calc_id",
    "bandstructure",
    "dos",
    "dos_energy_up",
    "dos_energy_down",
    "is_magnetic",
    "ordering",
    "total_magnetization_normalized_vol",
    "total_magnetization_normalized_formula_units",
    "num_magnetic_sites",
    "num_unique_magnetic_sites",
    "types_of_magnetic_species",
    "bulk_modulus",
    "shear_modulus",
    "universal_anisotropy",
    "homogeneous_poisson",
    "e_total",
    "e_ionic",
    "e_electronic",
    "n",
    "e_ij_max",
    "weighted_surface_energy_EV_PER_ANG2",
    "weighted_surface_energy",
    "weighted_work_function",
    "surface_anisotropy",
    "shape_factor",
    "has_reconstructed",
    "possible_species",
    "has_props",
    "theoretical",
    "database_IDs"
  ]
}
