{
  "builder_meta": null,
  "nsites": null,
  "elements": null,
  "nelements": null,
  "composition": null,
  "composition_reduced": null,
  "formula_pretty": "BiB5",
  "formula_anonymous": "AB5",
  "chemsys": null,
  "volume": 1767.1667876837557,
  "density": 0.9886572351696361,
  "density_atomic": 73.63194948682316,
  "symmetry": null,
  "property_name": null,
  "material_id": "mp-1191193",
  "deprecated": null,
  "deprecation_reasons": null,
  "last_updated": null,
  "origins": null,
  "warnings": null,
  "structure": {
    "@module": "pymatgen.core.structure",
    "@class": "Structure",
    "charge": 0,
    "lattice": {
      "matrix": [
        [10.679691, 0.0, 0.0],
        [-0.758454, 11.704751, 0.0],
        [-4.753248, -1.106459, 14.136981]
      ],
      "pbc": [true, true, true],
      "a": 10.679691,
      "b": 11.729298719110064,
      "c": 14.955662802515509,
      "alpha": 93.05395581982559,
      "beta": 108.53129742443578,
      "gamma": 93.70751529530872,
      "volume": 1767.1667876837557
    },
    "properties": {},
    "sites": [
      {
        "species": [{ "element": "Bi", "occu": 1 }],
        "abc": [0.6418, 0.877151, 0.102080999999999],
        "properties": { "magmom": 0.429 },
        "label": "Bi",
        "xyz": [5.703730690158005, 10.153885603222001, 1.443117157460986]
      },
      {
        "species": [{ "element": "Bi", "occu": 1 }],
        "abc": [0.3582, 0.122849, 0.897918999999999],
        "properties": { "magmom": 0.429 },
        "label": "Bi",
        "xyz": [-0.5357416901579954, 0.44440639677800087, 12.693863842538986]
      },
      {
        "species": [{ "element": "Bi", "occu": 1 }],
        "abc": [0.570302, 0.9156400000000001, 0.393683],
        "properties": { "magmom": 0.037 },
        "label": "Bi",
        "xyz": [3.5249053837379996, 10.281744107143, 5.565489091023]
      },
      {
        "species": [{ "element": "Bi", "occu": 1 }],
        "abc": [0.429697999999999, 0.08436, 0.606317],
        "properties": { "magmom": 0.037 },
        "label": "Bi",
        "xyz": [1.6430836162619893, 0.316547892857, 8.571491908977]
      },
      {
        "species": [{ "element": "B", "occu": 1 }],
        "abc": [0.751776999999999, 0.004145999999999, 0.350752],
        "properties": { "magmom": -0.013000000000000001 },
        "label": "B",
        "xyz": [6.358390268126991, -0.33956480952201173, 4.958574359712]
      },
      {
        "species": [{ "element": "B", "occu": 1 }],
        "abc": [0.248223, 0.9958539999999991, 0.649247999999999],
        "properties": { "magmom": -0.013000000000000001 },
        "label": "B",
        "xyz": [-1.1904012681269946, 10.93785680952199, 9.178406640287987]
      },
      {
        "species": [{ "element": "B", "occu": 1 }],
        "abc": [0.777474999999999, 0.963936999999999, 0.250308],
        "properties": { "magmom": -0.005 },
        "label": "B",
        "xyz": [6.382314886442991, 11.005687025314987, 3.538599440148]
      },
      {
        "species": [{ "element": "B", "occu": 1 }],
        "abc": [0.222525, 0.036063, 0.749691999999999],
        "properties": { "magmom": -0.005 },
        "label": "B",
        "xyz": [-1.2143258864429956, -0.407395025314999, 10.598381559851987]
      },
      {
        "species": [{ "element": "B", "occu": 1 }],
        "abc": [0.669211999999999, 0.750501, 0.223634],
        "properties": { "magmom": -0.003 },
        "label": "B",
        "xyz": [5.5147690248059895, 8.536985478244999, 3.1615096089540002]
      },
      {
        "species": [{ "element": "B", "occu": 1 }],
        "abc": [0.330787999999999, 0.249499, 0.776366],
        "properties": { "magmom": -0.003 },
        "label": "B",
        "xyz": [-0.34678002480601, 2.061306521755, 10.975471391046]
      },
      {
        "species": [{ "element": "B", "occu": 1 }],
        "abc": [0.619867, 0.743999, 0.31793000000000005],
        "properties": { "magmom": -0.016 },
        "label": "B",
        "xyz": [4.544498866910999, 8.356546529378999, 4.494570369330001]
      },
      {
        "species": [{ "element": "B", "occu": 1 }],
        "abc": [0.380133, 0.256001, 0.6820700000000001],
        "properties": { "magmom": -0.016 },
        "label": "B",
        "xyz": [0.6234901330889997, 2.241745470621, 9.642410630670001]
      },
      {
        "species": [{ "element": "B", "occu": 1 }],
        "abc": [0.8157300000000001, 0.916485999999999, 0.438312999999999],
        "properties": { "magmom": 0.003 },
        "label": "B",
        "xyz": [5.933221476162006, 10.242265061318989, 6.196422553052987]
      },
      {
        "species": [{ "element": "B", "occu": 1 }],
        "abc": [0.18427000000000002, 0.083513999999999, 0.561686999999999],
        "properties": { "magmom": 0.003 },
        "label": "B",
        "xyz": [-0.7652324761619946, 0.35602693868098934, 7.940558446946987]
      },
      {
        "species": [{ "element": "B", "occu": 1 }],
        "abc": [0.886315, 0.9379869999999991, 0.352811999999999],
        "properties": { "magmom": 0.027 },
        "label": "B",
        "xyz": [7.077147403191004, 10.58853226352899, 4.987696540571986]
      },
      {
        "species": [{ "element": "B", "occu": 1 }],
        "abc": [0.113685, 0.062013, 0.647188],
        "properties": { "magmom": 0.027 },
        "label": "B",
        "xyz": [-1.9091584031910003, 0.009759736470999925, 9.149284459428]
      },
      {
        "species": [{ "element": "B", "occu": 1 }],
        "abc": [0.818846, 0.827712999999999, 0.27214000000000005],
        "properties": { "magmom": -0.014 },
        "label": "B",
        "xyz": [6.823691110163999, 9.387062812202988, 3.8472380093400007]
      },
      {
        "species": [{ "element": "B", "occu": 1 }],
        "abc": [0.181153999999999, 0.172287, 0.7278600000000001],
        "properties": { "magmom": -0.014 },
        "label": "B",
        "xyz": [-1.6557021101640108, 1.2112291877969998, 10.28974299066]
      },
      {
        "species": [{ "element": "B", "occu": 1 }],
        "abc": [0.774419, 0.717085, 0.325251],
        "properties": { "magmom": 0.025 },
        "label": "B",
        "xyz": [6.1806809726909995, 8.033424474625999, 4.598067207231001]
      },
      {
        "species": [{ "element": "B", "occu": 1 }],
        "abc": [0.225580999999999, 0.28291499999999903, 0.674748999999999],
        "properties": { "magmom": 0.025 },
        "label": "B",
        "xyz": [-1.0126919726910053, 2.5648675253739897, 9.538913792768987]
      },
      {
        "species": [{ "element": "B", "occu": 1 }],
        "abc": [0.746054, 0.7820100000000001, 0.420450999999999],
        "properties": { "magmom": 0.0 },
        "label": "B",
        "xyz": [5.3759997019260055, 8.688020536501002, 5.9439077984309865]
      },
      {
        "species": [{ "element": "B", "occu": 1 }],
        "abc": [0.253946, 0.21799000000000002, 0.579549],
        "properties": { "magmom": 0.0 },
        "label": "B",
        "xyz": [-0.2080107019259998, 1.9102714634990001, 8.193073201569]
      },
      {
        "species": [{ "element": "B", "occu": 1 }],
        "abc": [0.889164, 0.81159, 0.399026],
        "properties": { "magmom": -0.018000000000000002 },
        "label": "B",
        "xyz": [6.983773550016, 9.057952955156, 5.641022980506]
      },
      {
        "species": [{ "element": "B", "occu": 1 }],
        "abc": [0.110835999999999, 0.18841000000000002, 0.600974],
        "properties": { "magmom": -0.018000000000000002 },
        "label": "B",
        "xyz": [-1.8157845500160108, 1.540339044844, 8.495958019494001]
      }
    ]
  },
  "task_ids": null,
  "uncorrected_energy_per_atom": null,
  "energy_per_atom": -14.682051770555551,
  "formation_energy_per_atom": 1.190289018194448,
  "energy_above_hull": 1.190289018194445,
  "is_stable": false,
  "equilibrium_reaction_energy_per_atom": null,
  "decomposes_to": null,
  "xas": null,
  "grain_boundaries": null,
  "band_gap": 0.0,
  "cbm": null,
  "vbm": null,
  "efermi": -2.80049939,
  "is_gap_direct": null,
  "is_metal": null,
  "es_source_calc_id": null,
  "bandstructure": null,
  "dos": null,
  "dos_energy_up": null,
  "dos_energy_down": null,
  "is_magnetic": null,
  "ordering": null,
  "total_magnetization": 1.2975957,
  "total_magnetization_normalized_vol": null,
  "total_magnetization_normalized_formula_units": null,
  "num_magnetic_sites": null,
  "num_unique_magnetic_sites": null,
  "types_of_magnetic_species": null,
  "bulk_modulus": null,
  "shear_modulus": null,
  "universal_anisotropy": null,
  "homogeneous_poisson": null,
  "e_total": null,
  "e_ionic": null,
  "e_electronic": null,
  "n": null,
  "e_ij_max": null,
  "weighted_surface_energy_EV_PER_ANG2": null,
  "weighted_surface_energy": null,
  "weighted_work_function": null,
  "surface_anisotropy": null,
  "shape_factor": null,
  "has_reconstructed": null,
  "possible_species": null,
  "has_props": null,
  "theoretical": null,
  "database_IDs": null,
  "fields_not_requested": [
    "builder_meta",
    "nsites",
    "elements",
    "nelements",
    "composition",
    "composition_reduced",
    "chemsys",
    "symmetry",
    "property_name",
    "deprecated",
    "deprecation_reasons",
    "last_updated",
    "origins",
    "warnings",
    "task_ids",
    "uncorrected_energy_per_atom",
    "equilibrium_reaction_energy_per_atom",
    "decomposes_to",
    "xas",
    "grain_boundaries",
    "cbm",
    "vbm",
    "is_gap_direct",
    "is_metal",
    "es_source_calc_id",
    "bandstructure",
    "dos",
    "dos_energy_up",
    "dos_energy_down",
    "is_magnetic",
    "ordering",
    "total_magnetization_normalized_vol",
    "total_magnetization_normalized_formula_units",
    "num_magnetic_sites",
    "num_unique_magnetic_sites",
    "types_of_magnetic_species",
    "bulk_modulus",
    "shear_modulus",
    "universal_anisotropy",
    "homogeneous_poisson",
    "e_total",
    "e_ionic",
    "e_electronic",
    "n",
    "e_ij_max",
    "weighted_surface_energy_EV_PER_ANG2",
    "weighted_surface_energy",
    "weighted_work_function",
    "surface_anisotropy",
    "shape_factor",
    "has_reconstructed",
    "possible_species",
    "has_props",
    "theoretical",
    "database_IDs"
  ]
}
