{
  "builder_meta": null,
  "nsites": null,
  "elements": null,
  "nelements": null,
  "composition": null,
  "composition_reduced": null,
  "formula_pretty": "BiBr",
  "formula_anonymous": "AB",
  "chemsys": null,
  "volume": 588.9863500880214,
  "density": 6.515652960169437,
  "density_atomic": 36.811646880501335,
  "symmetry": null,
  "property_name": null,
  "material_id": "mp-568758",
  "deprecated": null,
  "deprecation_reasons": null,
  "last_updated": null,
  "origins": null,
  "warnings": null,
  "structure": {
    "@module": "pymatgen.core.structure",
    "@class": "Structure",
    "charge": 0,
    "lattice": {
      "matrix": [
        [4.22323389, -0.00148793, 0.48007503],
        [2.0852805, 7.00492276, 0.45484978000000004],
        [-0.11011007, 0.08448884, 19.8973555]
      ],
      "pbc": [true, true, true],
      "a": 4.250432770672854,
      "b": 7.322856407141432,
      "c": 19.897839543150916,
      "alpha": 86.29621889263261,
      "beta": 83.83196334723881,
      "gamma": 73.16468780369259,
      "volume": 588.9863500880215
    },
    "properties": {},
    "sites": [
      {
        "species": [{ "element": "Bi", "occu": 1 }],
        "abc": [0.82789299, 0.34800729, 0.99655976],
        "properties": { "magmom": -0.0 },
        "label": "Bi",
        "xyz": [4.112347283423493, 2.520730517663388, 20.384645613020616]
      },
      {
        "species": [{ "element": "Bi", "occu": 1 }],
        "abc": [0.17210701, 0.65199271, 0.0034402400000000002],
        "properties": { "magmom": -0.0 },
        "label": "Bi",
        "xyz": [2.0860570365765074, 4.567193152336612, 0.44763469697938413]
      },
      {
        "species": [{ "element": "Bi", "occu": 1 }],
        "abc": [0.82485781, 0.84734533, 0.50316528],
        "properties": { "magmom": -0.0 },
        "label": "Bi",
        "xyz": [5.195116586835877, 5.9768731078509525, 10.793066926233053]
      },
      {
        "species": [{ "element": "Bi", "occu": 1 }],
        "abc": [0.79346511, 0.26624768, 0.14951612],
        "properties": { "magmom": 0.0 },
        "label": "Bi",
        "xyz": [3.8897266079194894, 1.8764962564281755, 3.4770008777813737]
      },
      {
        "species": [{ "element": "Bi", "occu": 1 }],
        "abc": [0.20653489, 0.73375232, 0.85048288],
        "properties": { "magmom": 0.0 },
        "label": "Bi",
        "xyz": [2.308677822190581, 5.211427329082985, 17.355259534863126]
      },
      {
        "species": [{ "element": "Bi", "occu": 1 }],
        "abc": [0.17514219, 0.15265467, 0.49683472],
        "properties": { "magmom": -0.0 },
        "label": "Bi",
        "xyz": [1.003287733164124, 1.1110505621490472, 10.039213383766949]
      },
      {
        "species": [{ "element": "Bi", "occu": 1 }],
        "abc": [0.92692442, 0.80208322, 0.34973882],
        "properties": { "magmom": -0.0 },
        "label": "Bi",
        "xyz": [5.5486773561038865, 5.646700831744606, 7.768698278588435]
      },
      {
        "species": [{ "element": "Bi", "occu": 1 }],
        "abc": [0.07307558, 0.19791678000000001, 0.65026118],
        "properties": { "magmom": -0.0 },
        "label": "Bi",
        "xyz": [0.6497269638961136, 1.4412228382553947, 13.063582031411567]
      },
      {
        "species": [{ "element": "Br", "occu": 1 }],
        "abc": [0.85827808, 0.46646631, 0.81571777],
        "properties": { "magmom": 0.0 },
        "label": "Br",
        "xyz": [4.5076034338951425, 3.335202462143328, 16.85483643084249]
      },
      {
        "species": [{ "element": "Br", "occu": 1 }],
        "abc": [0.55112375, 0.52433708, 0.377427499999999],
        "properties": { "magmom": -0.0 },
        "label": "Br",
        "xyz": [3.379355818489903, 3.7040091237017037, 8.012884499275035]
      },
      {
        "species": [{ "element": "Br", "occu": 1 }],
        "abc": [0.55626869, 0.00147823, 0.8842078800000001],
        "properties": { "magmom": -0.0 },
        "label": "Br",
        "xyz": [2.2549751161860674, 0.0842328961996623, 17.861121604891444]
      },
      {
        "species": [{ "element": "Br", "occu": 1 }],
        "abc": [0.44373131, 0.99852177, 0.11579212],
        "properties": { "magmom": -0.0 },
        "label": "Br",
        "xyz": [3.943429203813933, 7.003690773800338, 2.97115870510856]
      },
      {
        "species": [{ "element": "Br", "occu": 1 }],
        "abc": [0.44887625000000003, 0.47566292, 0.6225725],
        "properties": { "magmom": -0.0 },
        "label": "Br",
        "xyz": [2.819048501510098, 3.383914546298297, 12.819395810724945]
      },
      {
        "species": [{ "element": "Br", "occu": 1 }],
        "abc": [0.30677277000000003, 0.07719005, 0.31567458],
        "properties": { "magmom": -0.0 },
        "label": "Br",
        "xyz": [1.42177711475118, 0.5669248607645592, 6.463473164594812]
      },
      {
        "species": [{ "element": "Br", "occu": 1 }],
        "abc": [0.69322723, 0.92280995, 0.68432542],
        "properties": { "magmom": -0.0 },
        "label": "Br",
        "xyz": [4.776627205248821, 6.520998809235441, 14.368807145405187]
      },
      {
        "species": [{ "element": "Br", "occu": 1 }],
        "abc": [0.14172192, 0.5335336900000001, 0.18428223],
        "properties": { "magmom": 0.0 },
        "label": "Br",
        "xyz": [1.690800886104858, 3.752721207856672, 3.977443879157511]
      }
    ]
  },
  "task_ids": null,
  "uncorrected_energy_per_atom": null,
  "energy_per_atom": -3.50645274875,
  "formation_energy_per_atom": -0.742962326250001,
  "energy_above_hull": 0.038713258749999,
  "is_stable": false,
  "equilibrium_reaction_energy_per_atom": null,
  "decomposes_to": null,
  "xas": null,
  "grain_boundaries": null,
  "band_gap": 0.7863999999999991,
  "cbm": null,
  "vbm": null,
  "efermi": 1.88260458,
  "is_gap_direct": null,
  "is_metal": null,
  "es_source_calc_id": null,
  "bandstructure": null,
  "dos": null,
  "dos_energy_up": null,
  "dos_energy_down": null,
  "is_magnetic": null,
  "ordering": null,
  "total_magnetization": 0.0,
  "total_magnetization_normalized_vol": null,
  "total_magnetization_normalized_formula_units": null,
  "num_magnetic_sites": null,
  "num_unique_magnetic_sites": null,
  "types_of_magnetic_species": null,
  "bulk_modulus": null,
  "shear_modulus": null,
  "universal_anisotropy": null,
  "homogeneous_poisson": null,
  "e_total": null,
  "e_ionic": null,
  "e_electronic": null,
  "n": null,
  "e_ij_max": null,
  "weighted_surface_energy_EV_PER_ANG2": null,
  "weighted_surface_energy": null,
  "weighted_work_function": null,
  "surface_anisotropy": null,
  "shape_factor": null,
  "has_reconstructed": null,
  "possible_species": null,
  "has_props": null,
  "theoretical": null,
  "database_IDs": null,
  "fields_not_requested": [
    "builder_meta",
    "nsites",
    "elements",
    "nelements",
    "composition",
    "composition_reduced",
    "chemsys",
    "symmetry",
    "property_name",
    "deprecated",
    "deprecation_reasons",
    "last_updated",
    "origins",
    "warnings",
    "task_ids",
    "uncorrected_energy_per_atom",
    "equilibrium_reaction_energy_per_atom",
    "decomposes_to",
    "xas",
    "grain_boundaries",
    "cbm",
    "vbm",
    "is_gap_direct",
    "is_metal",
    "es_source_calc_id",
    "bandstructure",
    "dos",
    "dos_energy_up",
    "dos_energy_down",
    "is_magnetic",
    "ordering",
    "total_magnetization_normalized_vol",
    "total_magnetization_normalized_formula_units",
    "num_magnetic_sites",
    "num_unique_magnetic_sites",
    "types_of_magnetic_species",
    "bulk_modulus",
    "shear_modulus",
    "universal_anisotropy",
    "homogeneous_poisson",
    "e_total",
    "e_ionic",
    "e_electronic",
    "n",
    "e_ij_max",
    "weighted_surface_energy_EV_PER_ANG2",
    "weighted_surface_energy",
    "weighted_work_function",
    "surface_anisotropy",
    "shape_factor",
    "has_reconstructed",
    "possible_species",
    "has_props",
    "theoretical",
    "database_IDs"
  ]
}
