{"builder_meta": null, "nsites": null, "elements": null, "nelements": null, "composition": null, "composition_reduced": null, "formula_pretty": "BiBr3", "formula_anonymous": "AB3", "chemsys": null, "volume": 691.496424150713, "density": 4.309906649201264, "density_atomic": 43.21852650941956, "symmetry": null, "property_name": null, "material_id": "mp-2913080", "deprecated": null, "deprecation_reasons": null, "last_updated": null, "origins": null, "warnings": null, "structure": {"@module": "pymatgen.core.structure", "@class": "Structure", "charge": 0.0, "lattice": {"matrix": [[12.795756560000001, 0.0, 0.0], [0.0, 7.40028827, -0.024725320000000002], [0.0, 2.37557759, 7.29462622]], "pbc": [true, true, true], "a": 12.795756560000001, "b": 7.400329575130333, "c": 7.6716973725259585, "alpha": 72.15300607866436, "beta": 90.0, "gamma": 90.0, "volume": 691.4964241507131}, "properties": {}, "sites": [{"species": [{"element": "Bi", "occu": 1}], "abc": [0.33327531, 0.49633146, 0.0015235700000000001], "properties": {"magmom": 0.0}, "label": "Bi", "xyz": [4.264509734218533, 3.6766152402187706, -0.001158080504561801]}, {"species": [{"element": "Bi", "occu": 1}], "abc": [0.83327531, 0.00366854, 0.99847643], "properties": {"magmom": 0.0}, "label": "Bi", "xyz": [10.662388014218534, 2.399106484781229, 7.283421640504561]}, {"species": [{"element": "Bi", "occu": 1}], "abc": [0.16672469, 0.9963314600000001, 0.0015235700000000001], "properties": {"magmom": 0.0}, "label": "Bi", "xyz": [2.1333685457814666, 7.376759375218771, -0.013520740504561804]}, {"species": [{"element": "Bi", "occu": 1}], "abc": [0.66672469, 0.50366854, 0.99847643], "properties": {"magmom": 0.0}, "label": "Bi", "xyz": [8.531246825781468, 6.0992506197812295, 7.271058980504561]}, {"species": [{"element": "Br", "occu": 1}], "abc": [0.18094147, 0.24207798, 0.23199482000000002], "properties": {"magmom": -0.0}, "label": "Br", "xyz": [2.315283001728543, 2.3425685312073785, 1.6863300413557267]}, {"species": [{"element": "Br", "occu": 1}], "abc": [0.50140336, 0.28829891, 0.23064162], "properties": {"magmom": -0.0}, "label": "Br", "xyz": [6.415835332926042, 2.681402105720082, 1.6753161258698752]}, {"species": [{"element": "Br", "occu": 1}], "abc": [0.32096759, 0.2483312, 0.773099499999999], "properties": {"magmom": -0.0}, "label": "Br", "xyz": [4.107023145289891, 3.6742803134752267, 5.633331814982898]}, {"species": [{"element": "Br", "occu": 1}], "abc": [0.82096759, 0.251668799999999, 0.226900499999999], "properties": {"magmom": -0.0}, "label": "Br", "xyz": [10.50490142528989, 2.4014414115247615, 1.6489317450170866]}, {"species": [{"element": "Br", "occu": 1}], "abc": [0.00140336, 0.21170109, 0.76935838], "properties": {"magmom": -0.0}, "label": "Br", "xyz": [0.017957052926041602, 3.3943196192799183, 5.606947434130125]}, {"species": [{"element": "Br", "occu": 1}], "abc": [0.31905853, 0.74207798, 0.23199482000000002], "properties": {"magmom": -0.0}, "label": "Br", "xyz": [4.082595278271457, 6.042712666207379, 1.6739673813557268]}, {"species": [{"element": "Br", "occu": 1}], "abc": [0.68094147, 0.25792202000000003, 0.7680051800000001], "properties": {"magmom": -0.0}, "label": "Br", "xyz": [8.713161281728544, 3.7331531937926217, 5.595933518644273]}, {"species": [{"element": "Br", "occu": 1}], "abc": [0.99859664, 0.78829891, 0.23064162], "properties": {"magmom": -0.0}, "label": "Br", "xyz": [12.77779950707396, 6.3815462407200805, 1.662953465869875]}, {"species": [{"element": "Br", "occu": 1}], "abc": [0.17903241, 0.7483312, 0.773099499999999], "properties": {"magmom": -0.0}, "label": "Br", "xyz": [2.29085513471011, 7.374424448475226, 5.620969154982898]}, {"species": [{"element": "Br", "occu": 1}], "abc": [0.67903241, 0.751668799999999, 0.226900499999999], "properties": {"magmom": -0.0}, "label": "Br", "xyz": [8.68873341471011, 6.1015855465247615, 1.6365690850170866]}, {"species": [{"element": "Br", "occu": 1}], "abc": [0.49859664000000004, 0.71170109, 0.76935838], "properties": {"magmom": -0.0}, "label": "Br", "xyz": [6.379921227073959, 7.094463754279919, 5.594584774130125]}, {"species": [{"element": "Br", "occu": 1}], "abc": [0.8190585300000001, 0.75792202, 0.7680051800000001], "properties": {"magmom": -0.0}, "label": "Br", "xyz": [10.48047355827146, 7.433297328792621, 5.583570858644273]}]}, "task_ids": null, "uncorrected_energy_per_atom": null, "energy_per_atom": -3.37273185625, "formation_energy_per_atom": -1.172513377500001, "energy_above_hull": 0.0, "is_stable": true, "equilibrium_reaction_energy_per_atom": null, "decomposes_to": null, "xas": null, "grain_boundaries": null, "band_gap": 2.8826, "cbm": null, "vbm": null, "efermi": -1.29781382, "is_gap_direct": null, "is_metal": null, "es_source_calc_id": null, "bandstructure": null, "dos": null, "dos_energy_up": null, "dos_energy_down": null, "is_magnetic": null, "ordering": null, "total_magnetization": 0.0, "total_magnetization_normalized_vol": null, "total_magnetization_normalized_formula_units": null, "num_magnetic_sites": null, "num_unique_magnetic_sites": null, "types_of_magnetic_species": null, "bulk_modulus": null, "shear_modulus": null, "universal_anisotropy": null, "homogeneous_poisson": null, "e_total": null, "e_ionic": null, "e_electronic": null, "n": null, "e_ij_max": null, "weighted_surface_energy_EV_PER_ANG2": null, "weighted_surface_energy": null, "weighted_work_function": null, "surface_anisotropy": null, "shape_factor": null, "has_reconstructed": null, "possible_species": null, "has_props": null, "theoretical": null, "database_IDs": null, "fields_not_requested": ["builder_meta", "nsites", "elements", "nelements", "composition", "composition_reduced", "chemsys", "symmetry", "property_name", "deprecated", "deprecation_reasons", "last_updated", "origins", "warnings", "task_ids", "uncorrected_energy_per_atom", "equilibrium_reaction_energy_per_atom", "decomposes_to", "xas", "grain_boundaries", "cbm", "vbm", "is_gap_direct", "is_metal", "es_source_calc_id", "bandstructure", "dos", "dos_energy_up", "dos_energy_down", "is_magnetic", "ordering", "total_magnetization_normalized_vol", "total_magnetization_normalized_formula_units", "num_magnetic_sites", "num_unique_magnetic_sites", "types_of_magnetic_species", "bulk_modulus", "shear_modulus", "universal_anisotropy", "homogeneous_poisson", "e_total", "e_ionic", "e_electronic", "n", "e_ij_max", "weighted_surface_energy_EV_PER_ANG2", "weighted_surface_energy", "weighted_work_function", "surface_anisotropy", "shape_factor", "has_reconstructed", "possible_species", "has_props", "theoretical", "database_IDs"]}