{
  "builder_meta": null,
  "nsites": null,
  "elements": null,
  "nelements": null,
  "composition": null,
  "composition_reduced": null,
  "formula_pretty": "BiCl3",
  "formula_anonymous": "AB3",
  "chemsys": null,
  "volume": 437.57415036155714,
  "density": 4.7866940266516025,
  "density_atomic": 27.34838439759732,
  "symmetry": null,
  "property_name": null,
  "material_id": "mp-22908",
  "deprecated": null,
  "deprecation_reasons": null,
  "last_updated": null,
  "origins": null,
  "warnings": null,
  "structure": {
    "@module": "pymatgen.core.structure",
    "@class": "Structure",
    "charge": 0,
    "lattice": {
      "matrix": [
        [6.39857488, 0.0, 0.0],
        [0.0, 7.70941014, 0.0],
        [0.0, 0.0, 8.87048265]
      ],
      "pbc": [true, true, true],
      "a": 6.39857488,
      "b": 7.70941014,
      "c": 8.87048265,
      "alpha": 90.0,
      "beta": 90.0,
      "gamma": 90.0,
      "volume": 437.57415036155714
    },
    "properties": {},
    "sites": [
      {
        "species": [{ "element": "Bi", "occu": 1 }],
        "abc": [0.50898753, 0.56136593, 0.7500946],
        "properties": { "magmom": -0.0 },
        "label": "Bi",
        "xyz": [3.256794823691246, 4.32780019299253, 6.653701135158689]
      },
      {
        "species": [{ "element": "Bi", "occu": 1 }],
        "abc": [0.49101247000000003, 0.43863407, 0.2500946],
        "properties": { "magmom": -0.0 },
        "label": "Bi",
        "xyz": [3.141780056308754, 3.38160994700747, 2.21845981015869]
      },
      {
        "species": [{ "element": "Bi", "occu": 1 }],
        "abc": [0.99101247, 0.06136593, 0.7500946],
        "properties": { "magmom": -0.0 },
        "label": "Bi",
        "xyz": [6.341067496308754, 0.4730951229925302, 6.653701135158689]
      },
      {
        "species": [{ "element": "Bi", "occu": 1 }],
        "abc": [0.00898753, 0.93863407, 0.2500946],
        "properties": { "magmom": -0.0 },
        "label": "Bi",
        "xyz": [0.0575073836912464, 7.2363150170074695, 2.21845981015869]
      },
      {
        "species": [{ "element": "Cl", "occu": 1 }],
        "abc": [0.64036762, 0.32737975, 0.93842527],
        "properties": { "magmom": 0.0 },
        "label": "Cl",
        "xyz": [4.0974401672973855, 2.5239047642806653, 8.324285075856565]
      },
      {
        "species": [{ "element": "Cl", "occu": 1 }],
        "abc": [0.35963238000000003, 0.67262025, 0.43842527000000003],
        "properties": { "magmom": 0.0 },
        "label": "Cl",
        "xyz": [2.3011347127026145, 5.185505375719336, 3.8890437508565654]
      },
      {
        "species": [{ "element": "Cl", "occu": 1 }],
        "abc": [0.85963238, 0.82737975, 0.93842527],
        "properties": { "magmom": 0.0 },
        "label": "Cl",
        "xyz": [5.5004221527026145, 6.378609834280665, 8.324285075856565]
      },
      {
        "species": [{ "element": "Cl", "occu": 1 }],
        "abc": [0.14036762, 0.17262025, 0.43842527000000003],
        "properties": { "magmom": 0.0 },
        "label": "Cl",
        "xyz": [0.8981527272973856, 1.330800305719335, 3.8890437508565654]
      },
      {
        "species": [{ "element": "Cl", "occu": 1 }],
        "abc": [0.64219702, 0.05294394, 0.25045128],
        "properties": { "magmom": -0.0 },
        "label": "Cl",
        "xyz": [4.109145720182858, 0.40816654788755163, 2.2216237339102918]
      },
      {
        "species": [{ "element": "Cl", "occu": 1 }],
        "abc": [0.35780298, 0.94705606, 0.75045128],
        "properties": { "magmom": -0.0 },
        "label": "Cl",
        "xyz": [2.2894291598171423, 7.301243592112448, 6.6568650589102925]
      },
      {
        "species": [{ "element": "Cl", "occu": 1 }],
        "abc": [0.85780298, 0.55294394, 0.25045128],
        "properties": { "magmom": -0.0 },
        "label": "Cl",
        "xyz": [5.488716599817142, 4.262871617887551, 2.2216237339102918]
      },
      {
        "species": [{ "element": "Cl", "occu": 1 }],
        "abc": [0.14219702, 0.44705606000000003, 0.75045128],
        "properties": { "magmom": -0.0 },
        "label": "Cl",
        "xyz": [0.9098582801828576, 3.4465385221124487, 6.6568650589102925]
      },
      {
        "species": [{ "element": "Cl", "occu": 1 }],
        "abc": [0.14039554, 0.17279369, 0.06242886],
        "properties": { "magmom": -0.0 },
        "label": "Cl",
        "xyz": [0.8983313755080353, 1.3321374258140166, 0.553774119489279]
      },
      {
        "species": [{ "element": "Cl", "occu": 1 }],
        "abc": [0.85960446, 0.82720631, 0.56242886],
        "properties": { "magmom": -0.0 },
        "label": "Cl",
        "xyz": [5.500243504491965, 6.377272714185984, 4.989015444489279]
      },
      {
        "species": [{ "element": "Cl", "occu": 1 }],
        "abc": [0.35960446, 0.67279369, 0.06242886],
        "properties": { "magmom": -0.0 },
        "label": "Cl",
        "xyz": [2.300956064491965, 5.186842495814017, 0.553774119489279]
      },
      {
        "species": [{ "element": "Cl", "occu": 1 }],
        "abc": [0.64039554, 0.32720631, 0.56242886],
        "properties": { "magmom": -0.0 },
        "label": "Cl",
        "xyz": [4.097618815508035, 2.5225676441859832, 4.989015444489279]
      }
    ]
  },
  "task_ids": null,
  "uncorrected_energy_per_atom": null,
  "energy_per_atom": -20.28415926875,
  "formation_energy_per_atom": -1.044261659374999,
  "energy_above_hull": 0.0,
  "is_stable": true,
  "equilibrium_reaction_energy_per_atom": null,
  "decomposes_to": null,
  "xas": null,
  "grain_boundaries": null,
  "band_gap": 3.3934,
  "cbm": null,
  "vbm": null,
  "efermi": 0.03249917,
  "is_gap_direct": null,
  "is_metal": null,
  "es_source_calc_id": null,
  "bandstructure": null,
  "dos": null,
  "dos_energy_up": null,
  "dos_energy_down": null,
  "is_magnetic": null,
  "ordering": null,
  "total_magnetization": 0.0,
  "total_magnetization_normalized_vol": null,
  "total_magnetization_normalized_formula_units": null,
  "num_magnetic_sites": null,
  "num_unique_magnetic_sites": null,
  "types_of_magnetic_species": null,
  "bulk_modulus": null,
  "shear_modulus": null,
  "universal_anisotropy": null,
  "homogeneous_poisson": null,
  "e_total": null,
  "e_ionic": null,
  "e_electronic": null,
  "n": null,
  "e_ij_max": null,
  "weighted_surface_energy_EV_PER_ANG2": null,
  "weighted_surface_energy": null,
  "weighted_work_function": null,
  "surface_anisotropy": null,
  "shape_factor": null,
  "has_reconstructed": null,
  "possible_species": null,
  "has_props": null,
  "theoretical": null,
  "database_IDs": null,
  "fields_not_requested": [
    "builder_meta",
    "nsites",
    "elements",
    "nelements",
    "composition",
    "composition_reduced",
    "chemsys",
    "symmetry",
    "property_name",
    "deprecated",
    "deprecation_reasons",
    "last_updated",
    "origins",
    "warnings",
    "task_ids",
    "uncorrected_energy_per_atom",
    "equilibrium_reaction_energy_per_atom",
    "decomposes_to",
    "xas",
    "grain_boundaries",
    "cbm",
    "vbm",
    "is_gap_direct",
    "is_metal",
    "es_source_calc_id",
    "bandstructure",
    "dos",
    "dos_energy_up",
    "dos_energy_down",
    "is_magnetic",
    "ordering",
    "total_magnetization_normalized_vol",
    "total_magnetization_normalized_formula_units",
    "num_magnetic_sites",
    "num_unique_magnetic_sites",
    "types_of_magnetic_species",
    "bulk_modulus",
    "shear_modulus",
    "universal_anisotropy",
    "homogeneous_poisson",
    "e_total",
    "e_ionic",
    "e_electronic",
    "n",
    "e_ij_max",
    "weighted_surface_energy_EV_PER_ANG2",
    "weighted_surface_energy",
    "weighted_work_function",
    "surface_anisotropy",
    "shape_factor",
    "has_reconstructed",
    "possible_species",
    "has_props",
    "theoretical",
    "database_IDs"
  ]
}
