{"builder_meta": null, "nsites": null, "elements": null, "nelements": null, "composition": null, "composition_reduced": null, "formula_pretty": "BiF3", "formula_anonymous": "AB3", "chemsys": null, "volume": 216.35545643697458, "density": 8.16550500323912, "density_atomic": 13.522216027310911, "symmetry": null, "property_name": null, "material_id": "mp-23237", "deprecated": null, "deprecation_reasons": null, "last_updated": null, "origins": null, "warnings": null, "structure": {"@module": "pymatgen.core.structure", "@class": "Structure", "charge": 0, "lattice": {"matrix": [[4.6748227, 0.0, 0.0], [0.0, 6.54764764, 0.0], [0.0, 0.0, 7.06833962]], "pbc": [true, true, true], "a": 4.6748227, "b": 6.54764764, "c": 7.06833962, "alpha": 90.0, "beta": 90.0, "gamma": 90.0, "volume": 216.35545643697458}, "properties": {}, "sites": [{"species": [{"element": "Bi", "occu": 1}], "abc": [0.95624922, 0.63533704, 0.75], "properties": {"magmom": 0.0}, "label": "Bi", "xyz": [4.470295560513294, 4.159963070560586, 5.301254715]}, {"species": [{"element": "Bi", "occu": 1}], "abc": [0.45624922, 0.86466296, 0.25], "properties": {"magmom": 0.0}, "label": "Bi", "xyz": [2.132884210513294, 5.6615083894394145, 1.767084905]}, {"species": [{"element": "Bi", "occu": 1}], "abc": [0.54375078, 0.13533704, 0.75], "properties": {"magmom": 0.0}, "label": "Bi", "xyz": [2.541938489486706, 0.8861392505605855, 5.301254715]}, {"species": [{"element": "Bi", "occu": 1}], "abc": [0.04375078, 0.36466296, 0.25], "properties": {"magmom": 0.0}, "label": "Bi", "xyz": [0.204527139486706, 2.3876845694394144, 1.767084905]}, {"species": [{"element": "F", "occu": 1}], "abc": [0.36853215, 0.16554226, 0.43870344], "properties": {"magmom": -0.0}, "label": "F", "xyz": [1.722822460499805, 1.0839123880092665, 3.1009049063822927]}, {"species": [{"element": "F", "occu": 1}], "abc": [0.8685321500000001, 0.33445774, 0.56129656], "properties": {"magmom": -0.0}, "label": "F", "xyz": [4.060233810499805, 2.189911431990734, 3.9674347136177075]}, {"species": [{"element": "F", "occu": 1}], "abc": [0.13146785, 0.66554226, 0.06129656], "properties": {"magmom": -0.0}, "label": "F", "xyz": [0.614588889500195, 4.357736208009267, 0.4332649036177072]}, {"species": [{"element": "F", "occu": 1}], "abc": [0.63146785, 0.8344577400000001, 0.9387034400000001], "properties": {"magmom": -0.0}, "label": "F", "xyz": [2.952000239500195, 5.463735251990734, 6.6350747163822925]}, {"species": [{"element": "F", "occu": 1}], "abc": [0.60815297, 0.529921499999999, 0.25], "properties": {"magmom": -0.0}, "label": "F", "xyz": [2.843007309228419, 3.469739258860254, 1.767084905]}, {"species": [{"element": "F", "occu": 1}], "abc": [0.10815297, 0.9700785, 0.75], "properties": {"magmom": -0.0}, "label": "F", "xyz": [0.505595959228419, 6.35173220113974, 5.301254715]}, {"species": [{"element": "F", "occu": 1}], "abc": [0.89184703, 0.0299215, 0.25], "properties": {"magmom": -0.0}, "label": "F", "xyz": [4.169226740771581, 0.19591543886026, 1.767084905]}, {"species": [{"element": "F", "occu": 1}], "abc": [0.39184703, 0.470078499999999, 0.75], "properties": {"magmom": -0.0}, "label": "F", "xyz": [1.8318153907715808, 3.0779083811397334, 5.301254715]}, {"species": [{"element": "F", "occu": 1}], "abc": [0.36853215, 0.16554226, 0.06129656], "properties": {"magmom": -0.0}, "label": "F", "xyz": [1.722822460499805, 1.0839123880092665, 0.4332649036177072]}, {"species": [{"element": "F", "occu": 1}], "abc": [0.8685321500000001, 0.33445774, 0.9387034400000001], "properties": {"magmom": -0.0}, "label": "F", "xyz": [4.060233810499805, 2.189911431990734, 6.6350747163822925]}, {"species": [{"element": "F", "occu": 1}], "abc": [0.13146785, 0.66554226, 0.43870344], "properties": {"magmom": -0.0}, "label": "F", "xyz": [0.614588889500195, 4.357736208009267, 3.1009049063822927]}, {"species": [{"element": "F", "occu": 1}], "abc": [0.63146785, 0.8344577400000001, 0.56129656], "properties": {"magmom": -0.0}, "label": "F", "xyz": [2.952000239500195, 5.463735251990734, 3.9674347136177075]}]}, "task_ids": null, "uncorrected_energy_per_atom": null, "energy_per_atom": -19.59161532125, "formation_energy_per_atom": -2.621525922500002, "energy_above_hull": 0.0, "is_stable": true, "equilibrium_reaction_energy_per_atom": null, "decomposes_to": null, "xas": null, "grain_boundaries": null, "band_gap": 4.6808, "cbm": null, "vbm": null, "efermi": 1.35565211, "is_gap_direct": null, "is_metal": null, "es_source_calc_id": null, "bandstructure": null, "dos": null, "dos_energy_up": null, "dos_energy_down": null, "is_magnetic": null, "ordering": null, "total_magnetization": 0.0, "total_magnetization_normalized_vol": null, "total_magnetization_normalized_formula_units": null, "num_magnetic_sites": null, "num_unique_magnetic_sites": null, "types_of_magnetic_species": null, "bulk_modulus": null, "shear_modulus": null, "universal_anisotropy": null, "homogeneous_poisson": null, "e_total": null, "e_ionic": null, "e_electronic": null, "n": null, "e_ij_max": null, "weighted_surface_energy_EV_PER_ANG2": null, "weighted_surface_energy": null, "weighted_work_function": null, "surface_anisotropy": null, "shape_factor": null, "has_reconstructed": null, "possible_species": null, "has_props": null, "theoretical": null, "database_IDs": null, "fields_not_requested": ["builder_meta", "nsites", "elements", "nelements", "composition", "composition_reduced", "chemsys", "symmetry", "property_name", "deprecated", "deprecation_reasons", "last_updated", "origins", "warnings", "task_ids", "uncorrected_energy_per_atom", "equilibrium_reaction_energy_per_atom", "decomposes_to", "xas", "grain_boundaries", "cbm", "vbm", "is_gap_direct", "is_metal", "es_source_calc_id", "bandstructure", "dos", "dos_energy_up", "dos_energy_down", "is_magnetic", "ordering", "total_magnetization_normalized_vol", "total_magnetization_normalized_formula_units", "num_magnetic_sites", "num_unique_magnetic_sites", "types_of_magnetic_species", "bulk_modulus", "shear_modulus", "universal_anisotropy", "homogeneous_poisson", "e_total", "e_ionic", "e_electronic", "n", "e_ij_max", "weighted_surface_energy_EV_PER_ANG2", "weighted_surface_energy", "weighted_work_function", "surface_anisotropy", "shape_factor", "has_reconstructed", "possible_species", "has_props", "theoretical", "database_IDs"]}