{"builder_meta": null, "nsites": null, "elements": null, "nelements": null, "composition": null, "composition_reduced": null, "formula_pretty": "BiF4", "formula_anonymous": "AB4", "chemsys": null, "volume": 158.98251188538623, "density": 5.952987855183915, "density_atomic": 15.898251188538623, "symmetry": null, "property_name": null, "material_id": "mp-1396980", "deprecated": null, "deprecation_reasons": null, "last_updated": null, "origins": null, "warnings": null, "structure": {"@module": "pymatgen.core.structure", "@class": "Structure", "charge": 0, "lattice": {"matrix": [[-2.7045500000000002, 2.7045500000000002, 5.433746], [2.7045500000000002, -2.7045500000000002, 5.433746], [2.7045500000000002, 2.7045500000000002, -5.433746]], "pbc": [true, true, true], "a": 6.644906093957687, "b": 6.644906093957687, "c": 6.644906093957687, "alpha": 131.96558106701573, "beta": 131.96558106701573, "gamma": 70.28339328210716, "volume": 158.9825118853863}, "properties": {}, "sites": [{"species": [{"element": "Bi", "occu": 1}], "abc": [0.0, 0.0, 0.0], "properties": {"magmom": -0.0}, "label": "Bi", "xyz": [0.0, 0.0, 0.0]}, {"species": [{"element": "Bi", "occu": 1}], "abc": [0.5, 0.5, 0.0], "properties": {"magmom": 0.0}, "label": "Bi", "xyz": [0.0, 0.0, 5.433746]}, {"species": [{"element": "F", "occu": 1}], "abc": [0.873850999999999, 0.873850999999999, 0.525667], "properties": {"magmom": 0.0}, "label": "F", "xyz": [1.42169268485, 1.42169268485, 6.6402277931099905]}, {"species": [{"element": "F", "occu": 1}], "abc": [0.651816, 0.651816, 0.525667], "properties": {"magmom": 0.0}, "label": "F", "xyz": [1.42169268485, 1.42169268485, 4.22726420689]}, {"species": [{"element": "F", "occu": 1}], "abc": [0.126148999999999, 0.126148999999999, 0.474333], "properties": {"magmom": 0.0}, "label": "F", "xyz": [1.2828573151500002, 1.2828573151500002, -1.206481793110011]}, {"species": [{"element": "F", "occu": 1}], "abc": [0.651816, 0.126148999999999, 0.0], "properties": {"magmom": 0.0}, "label": "F", "xyz": [-1.4216926848500027, 1.4216926848500027, 4.227264206889995]}, {"species": [{"element": "F", "occu": 1}], "abc": [0.348184, 0.348184, 0.474333], "properties": {"magmom": 0.0}, "label": "F", "xyz": [1.2828573151500002, 1.2828573151500002, 1.2064817931099996]}, {"species": [{"element": "F", "occu": 1}], "abc": [0.873850999999999, 0.348184, 0.0], "properties": {"magmom": 0.0}, "label": "F", "xyz": [-1.4216926848499978, 1.4216926848499978, 6.640227793109995]}, {"species": [{"element": "F", "occu": 1}], "abc": [0.348184, 0.873850999999999, 0.0], "properties": {"magmom": 0.0}, "label": "F", "xyz": [1.4216926848499978, -1.4216926848499978, 6.640227793109995]}, {"species": [{"element": "F", "occu": 1}], "abc": [0.126148999999999, 0.651816, 0.0], "properties": {"magmom": 0.0}, "label": "F", "xyz": [1.4216926848500027, -1.4216926848500027, 4.227264206889995]}]}, "task_ids": null, "uncorrected_energy_per_atom": null, "energy_per_atom": -16.296806287499994, "formation_energy_per_atom": -2.095529178499993, "energy_above_hull": 0.075870751, "is_stable": false, "equilibrium_reaction_energy_per_atom": null, "decomposes_to": null, "xas": null, "grain_boundaries": null, "band_gap": 0.6554, "cbm": null, "vbm": null, "efermi": -0.60878679, "is_gap_direct": null, "is_metal": null, "es_source_calc_id": null, "bandstructure": null, "dos": null, "dos_energy_up": null, "dos_energy_down": null, "is_magnetic": null, "ordering": null, "total_magnetization": 4.1100000000000016e-05, "total_magnetization_normalized_vol": null, "total_magnetization_normalized_formula_units": null, "num_magnetic_sites": null, "num_unique_magnetic_sites": null, "types_of_magnetic_species": null, "bulk_modulus": null, "shear_modulus": null, "universal_anisotropy": null, "homogeneous_poisson": null, "e_total": null, "e_ionic": null, "e_electronic": null, "n": null, "e_ij_max": null, "weighted_surface_energy_EV_PER_ANG2": null, "weighted_surface_energy": null, "weighted_work_function": null, "surface_anisotropy": null, "shape_factor": null, "has_reconstructed": null, "possible_species": null, "has_props": null, "theoretical": null, "database_IDs": null, "fields_not_requested": ["builder_meta", "nsites", "elements", "nelements", "composition", "composition_reduced", "chemsys", "symmetry", "property_name", "deprecated", "deprecation_reasons", "last_updated", "origins", "warnings", "task_ids", "uncorrected_energy_per_atom", "equilibrium_reaction_energy_per_atom", "decomposes_to", "xas", "grain_boundaries", "cbm", "vbm", "is_gap_direct", "is_metal", "es_source_calc_id", "bandstructure", "dos", "dos_energy_up", "dos_energy_down", "is_magnetic", "ordering", "total_magnetization_normalized_vol", "total_magnetization_normalized_formula_units", "num_magnetic_sites", "num_unique_magnetic_sites", "types_of_magnetic_species", "bulk_modulus", "shear_modulus", "universal_anisotropy", "homogeneous_poisson", "e_total", "e_ionic", "e_electronic", "n", "e_ij_max", "weighted_surface_energy_EV_PER_ANG2", "weighted_surface_energy", "weighted_work_function", "surface_anisotropy", "shape_factor", "has_reconstructed", "possible_species", "has_props", "theoretical", "database_IDs"]}