{
  "builder_meta": null,
  "nsites": null,
  "elements": null,
  "nelements": null,
  "composition": null,
  "composition_reduced": null,
  "formula_pretty": "BiF5",
  "formula_anonymous": "AB5",
  "chemsys": null,
  "volume": 87.48976145342537,
  "density": 5.769338760918803,
  "density_atomic": 14.581626908904228,
  "symmetry": null,
  "property_name": null,
  "material_id": "mp-27743",
  "deprecated": null,
  "deprecation_reasons": null,
  "last_updated": null,
  "origins": null,
  "warnings": null,
  "structure": {
    "@module": "pymatgen.core.structure",
    "@class": "Structure",
    "charge": 0,
    "lattice": {
      "matrix": [
        [3.89707887, 1e-8, 1.7708028900000001],
        [1.94845885, 4.52095028, 0.88557767],
        [0.07828047, -0.00019324, 5.00135955]
      ],
      "pbc": [true, true, true],
      "a": 4.280533447390971,
      "b": 5.001972724233712,
      "c": 5.001972132839339,
      "alpha": 79.45047708877318,
      "beta": 64.66660398074809,
      "gamma": 64.66662422561969,
      "volume": 87.48976145342536
    },
    "properties": {},
    "sites": [
      {
        "species": [{ "element": "Bi", "occu": 1 }],
        "abc": [0.0, -0.0, -0.0],
        "properties": { "magmom": -0.0 },
        "label": "Bi",
        "xyz": [0.0, 0.0, 0.0]
      },
      {
        "species": [{ "element": "F", "occu": 1 }],
        "abc": [0.7056114, 0.19388137, 0.39489582],
        "properties": { "magmom": 0.0 },
        "label": "F",
        "xyz": [3.158505778988378, 0.8764517313761409, 3.396211698850035]
      },
      {
        "species": [{ "element": "F", "occu": 1 }],
        "abc": [0.5, -0.0, -0.0],
        "properties": { "magmom": -0.0 },
        "label": "F",
        "xyz": [1.948539435, 5e-9, 0.8854014450000001]
      },
      {
        "species": [{ "element": "F", "occu": 1 }],
        "abc": [0.2943886, 0.8061186300000001, 0.60510418],
        "properties": { "magmom": 0.0 },
        "label": "F",
        "xyz": [2.7653124110116223, 3.64430531862386, 4.261528411149965]
      },
      {
        "species": [{ "element": "F", "occu": 1 }],
        "abc": [0.89949378, 0.39489582, 0.8061186300000001],
        "properties": { "magmom": 0.0 },
        "label": "F",
        "xyz": [4.337939804273592, 1.7851486026307064, 5.974226213912781]
      },
      {
        "species": [{ "element": "F", "occu": 1 }],
        "abc": [0.10050622000000001, 0.60510418, 0.19388137],
        "properties": { "magmom": 0.0 },
        "label": "F",
        "xyz": [1.5858783857264083, 2.7356084473692936, 1.68351389608722]
      }
    ]
  },
  "task_ids": null,
  "uncorrected_energy_per_atom": null,
  "energy_per_atom": -14.226718183333332,
  "formation_energy_per_atom": -1.871315934166666,
  "energy_above_hull": 0.0,
  "is_stable": true,
  "equilibrium_reaction_energy_per_atom": null,
  "decomposes_to": null,
  "xas": null,
  "grain_boundaries": null,
  "band_gap": 1.8137999999999992,
  "cbm": null,
  "vbm": null,
  "efermi": -3.29028788,
  "is_gap_direct": null,
  "is_metal": null,
  "es_source_calc_id": null,
  "bandstructure": null,
  "dos": null,
  "dos_energy_up": null,
  "dos_energy_down": null,
  "is_magnetic": null,
  "ordering": null,
  "total_magnetization": 0.0,
  "total_magnetization_normalized_vol": null,
  "total_magnetization_normalized_formula_units": null,
  "num_magnetic_sites": null,
  "num_unique_magnetic_sites": null,
  "types_of_magnetic_species": null,
  "bulk_modulus": null,
  "shear_modulus": null,
  "universal_anisotropy": null,
  "homogeneous_poisson": null,
  "e_total": null,
  "e_ionic": null,
  "e_electronic": null,
  "n": null,
  "e_ij_max": null,
  "weighted_surface_energy_EV_PER_ANG2": null,
  "weighted_surface_energy": null,
  "weighted_work_function": null,
  "surface_anisotropy": null,
  "shape_factor": null,
  "has_reconstructed": null,
  "possible_species": null,
  "has_props": null,
  "theoretical": null,
  "database_IDs": null,
  "fields_not_requested": [
    "builder_meta",
    "nsites",
    "elements",
    "nelements",
    "composition",
    "composition_reduced",
    "chemsys",
    "symmetry",
    "property_name",
    "deprecated",
    "deprecation_reasons",
    "last_updated",
    "origins",
    "warnings",
    "task_ids",
    "uncorrected_energy_per_atom",
    "equilibrium_reaction_energy_per_atom",
    "decomposes_to",
    "xas",
    "grain_boundaries",
    "cbm",
    "vbm",
    "is_gap_direct",
    "is_metal",
    "es_source_calc_id",
    "bandstructure",
    "dos",
    "dos_energy_up",
    "dos_energy_down",
    "is_magnetic",
    "ordering",
    "total_magnetization_normalized_vol",
    "total_magnetization_normalized_formula_units",
    "num_magnetic_sites",
    "num_unique_magnetic_sites",
    "types_of_magnetic_species",
    "bulk_modulus",
    "shear_modulus",
    "universal_anisotropy",
    "homogeneous_poisson",
    "e_total",
    "e_ionic",
    "e_electronic",
    "n",
    "e_ij_max",
    "weighted_surface_energy_EV_PER_ANG2",
    "weighted_surface_energy",
    "weighted_work_function",
    "surface_anisotropy",
    "shape_factor",
    "has_reconstructed",
    "possible_species",
    "has_props",
    "theoretical",
    "database_IDs"
  ]
}
