{"builder_meta": null, "nsites": null, "elements": null, "nelements": null, "composition": null, "composition_reduced": null, "formula_pretty": "BiI", "formula_anonymous": "AB", "chemsys": null, "volume": 350.20151876721263, "density": 6.3706171289978, "density_atomic": 43.77518984590158, "symmetry": null, "property_name": null, "material_id": "mp-568388", "deprecated": null, "deprecation_reasons": null, "last_updated": null, "origins": null, "warnings": null, "structure": {"@module": "pymatgen.core.structure", "@class": "Structure", "charge": 0, "lattice": {"matrix": [[4.39489467, -1e-08, -0.0], [-2.19744786, 7.30070601, -2.16562258], [-0.0, 0.11425636, 10.88062925]], "pbc": [true, true, true], "a": 4.39489467, "b": 7.925844213765153, "c": 10.88122913056039, "alpha": 105.28071555324141, "beta": 90.0000000013689, "gamma": 106.096201400709, "volume": 350.20151876721263}, "properties": {}, "sites": [{"species": [{"element": "Bi", "occu": 1}], "abc": [0.17938765, 0.35877729, 0.99037191], "properties": {"magmom": -0.0}, "label": "Bi", "xyz": [-4.561278273862435e-06, 2.732483805043484, 9.99889337190916]}, {"species": [{"element": "Bi", "occu": 1}], "abc": [0.80457099, 0.60914299, 0.72150048], "properties": {"magmom": 0.0}, "label": "Bi", "xyz": [2.1974447957781216, 4.5296098985797135, 6.531205412984326]}, {"species": [{"element": "Bi", "occu": 1}], "abc": [0.19542901000000001, 0.39085701, 0.27849952], "properties": {"magmom": 0.0}, "label": "Bi", "xyz": [2.014221878177125e-06, 2.8853524614202875, 2.1838012570156744]}, {"species": [{"element": "Bi", "occu": 1}], "abc": [0.82061235, 0.64122271, 0.00962809], "properties": {"magmom": -0.0}, "label": "Bi", "xyz": [2.197451371278274, 4.682478554956515, -1.283886701909159]}, {"species": [{"element": "I", "occu": 1}], "abc": [0.45541566, 0.91083032, 0.78205522], "properties": {"magmom": -0.0}, "label": "I", "xyz": [1.7192614167882425e-06, 6.739059169516266, 6.53673819430656]}, {"species": [{"element": "I", "occu": 1}], "abc": [0.54458434, 0.08916968, 0.21794478], "properties": {"magmom": -0.0}, "label": "I", "xyz": [2.1974450907385834, 0.6759031904837342, 2.1782684756934407]}, {"species": [{"element": "I", "occu": 1}], "abc": [0.8455571900000001, 0.6911153800000001, 0.37272991], "properties": {"magmom": -0.0}, "label": "I", "xyz": [2.197444774717091, 5.088216962693589, 2.558840888782587]}, {"species": [{"element": "I", "occu": 1}], "abc": [0.15444281, 0.30888462, 0.62727009], "properties": {"magmom": -0.0}, "label": "I", "xyz": [2.03528290954047e-06, 2.3267453973064103, 6.156165781217413]}]}, "task_ids": null, "uncorrected_energy_per_atom": null, "energy_per_atom": -3.1909479925, "formation_energy_per_atom": -0.483924530000001, "energy_above_hull": 0.027000081666666002, "is_stable": false, "equilibrium_reaction_energy_per_atom": null, "decomposes_to": null, "xas": null, "grain_boundaries": null, "band_gap": 0.8279000000000001, "cbm": null, "vbm": null, "efermi": 2.55686347, "is_gap_direct": null, "is_metal": null, "es_source_calc_id": null, "bandstructure": null, "dos": null, "dos_energy_up": null, "dos_energy_down": null, "is_magnetic": null, "ordering": null, "total_magnetization": 0.0, "total_magnetization_normalized_vol": null, "total_magnetization_normalized_formula_units": null, "num_magnetic_sites": null, "num_unique_magnetic_sites": null, "types_of_magnetic_species": null, "bulk_modulus": null, "shear_modulus": null, "universal_anisotropy": null, "homogeneous_poisson": null, "e_total": null, "e_ionic": null, "e_electronic": null, "n": null, "e_ij_max": null, "weighted_surface_energy_EV_PER_ANG2": null, "weighted_surface_energy": null, "weighted_work_function": null, "surface_anisotropy": null, "shape_factor": null, "has_reconstructed": null, "possible_species": null, "has_props": null, "theoretical": null, "database_IDs": null, "fields_not_requested": ["builder_meta", "nsites", "elements", "nelements", "composition", "composition_reduced", "chemsys", "symmetry", "property_name", "deprecated", "deprecation_reasons", "last_updated", "origins", "warnings", "task_ids", "uncorrected_energy_per_atom", "equilibrium_reaction_energy_per_atom", "decomposes_to", "xas", "grain_boundaries", "cbm", "vbm", "is_gap_direct", "is_metal", "es_source_calc_id", "bandstructure", "dos", "dos_energy_up", "dos_energy_down", "is_magnetic", "ordering", "total_magnetization_normalized_vol", "total_magnetization_normalized_formula_units", "num_magnetic_sites", "num_unique_magnetic_sites", "types_of_magnetic_species", "bulk_modulus", "shear_modulus", "universal_anisotropy", "homogeneous_poisson", "e_total", "e_ionic", "e_electronic", "n", "e_ij_max", "weighted_surface_energy_EV_PER_ANG2", "weighted_surface_energy", "weighted_work_function", "surface_anisotropy", "shape_factor", "has_reconstructed", "possible_species", "has_props", "theoretical", "database_IDs"]}