{"builder_meta": null, "nsites": null, "elements": null, "nelements": null, "composition": null, "composition_reduced": null, "formula_pretty": "BiI3", "formula_anonymous": "AB3", "chemsys": null, "volume": 367.81189633263233, "density": 5.324512983950062, "density_atomic": 45.97648704157904, "symmetry": null, "property_name": null, "material_id": "mp-22849", "deprecated": null, "deprecation_reasons": null, "last_updated": null, "origins": null, "warnings": null, "structure": {"@module": "pymatgen.core.structure", "@class": "Structure", "charge": 0, "lattice": {"matrix": [[6.88098193, 0.04773492, 4.92970271], [2.55828526, 6.38788529, 4.9297330200000005], [0.06999205, 0.04768138, 8.46433611]], "pbc": [true, true, true], "a": 8.464759875658332, "b": 8.464760457225589, "c": 8.464759783012855, "alpha": 53.90656508333764, "beta": 53.90657138850828, "gamma": 53.90656748225013, "volume": 367.81189633263233}, "properties": {}, "sites": [{"species": [{"element": "Bi", "occu": 1}], "abc": [0.66688537, 0.66688537, 0.66688537], "properties": {"magmom": -0.0}, "label": "Bi", "xyz": [6.341585866693319, 4.323618979668738, 12.219855363313982]}, {"species": [{"element": "Bi", "occu": 1}], "abc": [0.33311463, 0.33311463, 0.33311463], "properties": {"magmom": -0.0}, "label": "Bi", "xyz": [3.1676733733066817, 2.159682610331262, 6.103916476686019]}, {"species": [{"element": "I", "occu": 1}], "abc": [0.91696412, 0.26048317, 0.5714629800000001], "properties": {"magmom": 0.0}, "label": "I", "xyz": [7.016001659936735, 1.7349559623519522, 10.641527728782247]}, {"species": [{"element": "I", "occu": 1}], "abc": [0.26048317, 0.5714629800000001, 0.91696412], "properties": {"magmom": 0.0}, "label": "I", "xyz": [3.318525502744039, 3.706596221654946, 11.862757023762363]}, {"species": [{"element": "I", "occu": 1}], "abc": [0.42853702, 0.08303588, 0.73951683], "properties": {"magmom": 0.0}, "label": "I", "xyz": [3.2129452577523785, 0.5861410397485689, 8.781423836431813]}, {"species": [{"element": "I", "occu": 1}], "abc": [0.73951683, 0.42853702, 0.08303588], "properties": {"magmom": 0.0}, "label": "I", "xyz": [6.190733737255961, 2.7767053683450533, 6.461014816237636]}, {"species": [{"element": "I", "occu": 1}], "abc": [0.08303588, 0.73951683, 0.42853702], "properties": {"magmom": 0.0}, "label": "I", "xyz": [2.4932575800632653, 4.748345627648048, 7.682244111217754]}, {"species": [{"element": "I", "occu": 1}], "abc": [0.5714629800000001, 0.91696412, 0.26048317], "properties": {"magmom": 0.0}, "label": "I", "xyz": [6.2963139822476215, 5.8971605502514315, 9.542348003568186]}]}, "task_ids": null, "uncorrected_energy_per_atom": null, "energy_per_atom": -2.88190495625, "formation_energy_per_atom": -0.7663869175000011, "energy_above_hull": 0.0, "is_stable": true, "equilibrium_reaction_energy_per_atom": null, "decomposes_to": null, "xas": null, "grain_boundaries": null, "band_gap": 2.5349, "cbm": null, "vbm": null, "efermi": 0.56637604, "is_gap_direct": null, "is_metal": null, "es_source_calc_id": null, "bandstructure": null, "dos": null, "dos_energy_up": null, "dos_energy_down": null, "is_magnetic": null, "ordering": null, "total_magnetization": 0.0, "total_magnetization_normalized_vol": null, "total_magnetization_normalized_formula_units": null, "num_magnetic_sites": null, "num_unique_magnetic_sites": null, "types_of_magnetic_species": null, "bulk_modulus": null, "shear_modulus": null, "universal_anisotropy": null, "homogeneous_poisson": null, "e_total": null, "e_ionic": null, "e_electronic": null, "n": null, "e_ij_max": null, "weighted_surface_energy_EV_PER_ANG2": null, "weighted_surface_energy": null, "weighted_work_function": null, "surface_anisotropy": null, "shape_factor": null, "has_reconstructed": null, "possible_species": null, "has_props": null, "theoretical": null, "database_IDs": null, "fields_not_requested": ["builder_meta", "nsites", "elements", "nelements", "composition", "composition_reduced", "chemsys", "symmetry", "property_name", "deprecated", "deprecation_reasons", "last_updated", "origins", "warnings", "task_ids", "uncorrected_energy_per_atom", "equilibrium_reaction_energy_per_atom", "decomposes_to", "xas", "grain_boundaries", "cbm", "vbm", "is_gap_direct", "is_metal", "es_source_calc_id", "bandstructure", "dos", "dos_energy_up", "dos_energy_down", "is_magnetic", "ordering", "total_magnetization_normalized_vol", "total_magnetization_normalized_formula_units", "num_magnetic_sites", "num_unique_magnetic_sites", "types_of_magnetic_species", "bulk_modulus", "shear_modulus", "universal_anisotropy", "homogeneous_poisson", "e_total", "e_ionic", "e_electronic", "n", "e_ij_max", "weighted_surface_energy_EV_PER_ANG2", "weighted_surface_energy", "weighted_work_function", "surface_anisotropy", "shape_factor", "has_reconstructed", "possible_species", "has_props", "theoretical", "database_IDs"]}