{
  "builder_meta": null,
  "nsites": null,
  "elements": null,
  "nelements": null,
  "composition": null,
  "composition_reduced": null,
  "formula_pretty": "BiI4",
  "formula_anonymous": "AB4",
  "chemsys": null,
  "volume": 533.722532834078,
  "density": 4.459018931352819,
  "density_atomic": 53.3722532834078,
  "symmetry": null,
  "property_name": null,
  "material_id": "mp-950217",
  "deprecated": null,
  "deprecation_reasons": null,
  "last_updated": null,
  "origins": null,
  "warnings": null,
  "structure": {
    "@module": "pymatgen.core.structure",
    "@class": "Structure",
    "charge": 0,
    "lattice": {
      "matrix": [
        [-4.353471, 4.549535, 6.736788],
        [4.353471, -4.549535, 6.736788],
        [4.353471, 4.549535, -6.736788]
      ],
      "pbc": [true, true, true],
      "a": 9.221458183010428,
      "b": 9.221458183010428,
      "c": 9.221458183010428,
      "alpha": 123.65831243889308,
      "beta": 120.87615028996117,
      "gamma": 86.13401406253239,
      "volume": 533.722532834078
    },
    "properties": {},
    "sites": [
      {
        "species": [{ "element": "Bi", "occu": 1 }],
        "abc": [0.0, 0.0, 0.5],
        "properties": { "magmom": -0.011 },
        "label": "Bi",
        "xyz": [2.1767355, 2.2747675, -3.368394]
      },
      {
        "species": [{ "element": "Bi", "occu": 1 }],
        "abc": [0.0, 0.5, 0.0],
        "properties": { "magmom": -0.011 },
        "label": "Bi",
        "xyz": [2.1767355, -2.2747675, 3.368394]
      },
      {
        "species": [{ "element": "I", "occu": 1 }],
        "abc": [0.227293, 0.790887999999999, 0.063595],
        "properties": { "magmom": 0.306 },
        "label": "I",
        "xyz": [2.7304534764899957, -2.274767499999996, 6.430843509767993]
      },
      {
        "species": [{ "element": "I", "occu": 1 }],
        "abc": [0.227293, 0.163696999999999, 0.436405],
        "properties": { "magmom": 0.306 },
        "label": "I",
        "xyz": [1.6230131700389956, 2.274772049535004, -0.30595122702000666]
      },
      {
        "species": [{ "element": "I", "occu": 1 }],
        "abc": [0.212134, 0.719785999999999, 0.49234799999999906],
        "properties": { "magmom": 0.018000000000000002 },
        "label": "I",
        "xyz": [4.353470999999992, -0.06962608363999978, 2.961303374735999]
      },
      {
        "species": [{ "element": "I", "occu": 1 }],
        "abc": [0.727437, 0.719785999999999, 0.007652],
        "properties": { "magmom": 0.018000000000000002 },
        "label": "I",
        "xyz": [4.353470996129594e-6, 0.06962153410500471, 9.698084637947993]
      },
      {
        "species": [{ "element": "I", "occu": 1 }],
        "abc": [0.272563, 0.280213999999999, 0.992348],
        "properties": { "magmom": 0.018000000000000002 },
        "label": "I",
        "xyz": [4.353466646528996, 4.479913465895004, -2.9612966379480063]
      },
      {
        "species": [{ "element": "I", "occu": 1 }],
        "abc": [0.772706999999999, 0.836302999999999, 0.563595],
        "properties": { "magmom": 0.306 },
        "label": "I",
        "xyz": [2.7304578299609994, 2.274762950465, 7.042739227019988]
      },
      {
        "species": [{ "element": "I", "occu": 1 }],
        "abc": [0.787866, 0.280213999999999, 0.507652],
        "properties": { "magmom": 0.018000000000000002 },
        "label": "I",
        "xyz": [-3.9968028886505635e-15, 4.619161083640004, 3.7754846252639926]
      },
      {
        "species": [{ "element": "I", "occu": 1 }],
        "abc": [0.772706999999999, 0.209112, 0.936404999999999],
        "properties": { "magmom": 0.306 },
        "label": "I",
        "xyz": [1.6230175235100002, 6.824302499999991, 0.3059444902319992]
      }
    ]
  },
  "task_ids": null,
  "uncorrected_energy_per_atom": null,
  "energy_per_atom": -2.562742964,
  "formation_energy_per_atom": -0.56552601,
  "energy_above_hull": 0.047583524,
  "is_stable": false,
  "equilibrium_reaction_energy_per_atom": null,
  "decomposes_to": null,
  "xas": null,
  "grain_boundaries": null,
  "band_gap": 0.47100000000000003,
  "cbm": null,
  "vbm": null,
  "efermi": 0.74923319,
  "is_gap_direct": null,
  "is_metal": null,
  "es_source_calc_id": null,
  "bandstructure": null,
  "dos": null,
  "dos_energy_up": null,
  "dos_energy_down": null,
  "is_magnetic": null,
  "ordering": null,
  "total_magnetization": 1.998361,
  "total_magnetization_normalized_vol": null,
  "total_magnetization_normalized_formula_units": null,
  "num_magnetic_sites": null,
  "num_unique_magnetic_sites": null,
  "types_of_magnetic_species": null,
  "bulk_modulus": null,
  "shear_modulus": null,
  "universal_anisotropy": null,
  "homogeneous_poisson": null,
  "e_total": null,
  "e_ionic": null,
  "e_electronic": null,
  "n": null,
  "e_ij_max": null,
  "weighted_surface_energy_EV_PER_ANG2": null,
  "weighted_surface_energy": null,
  "weighted_work_function": null,
  "surface_anisotropy": null,
  "shape_factor": null,
  "has_reconstructed": null,
  "possible_species": null,
  "has_props": null,
  "theoretical": null,
  "database_IDs": null,
  "fields_not_requested": [
    "builder_meta",
    "nsites",
    "elements",
    "nelements",
    "composition",
    "composition_reduced",
    "chemsys",
    "symmetry",
    "property_name",
    "deprecated",
    "deprecation_reasons",
    "last_updated",
    "origins",
    "warnings",
    "task_ids",
    "uncorrected_energy_per_atom",
    "equilibrium_reaction_energy_per_atom",
    "decomposes_to",
    "xas",
    "grain_boundaries",
    "cbm",
    "vbm",
    "is_gap_direct",
    "is_metal",
    "es_source_calc_id",
    "bandstructure",
    "dos",
    "dos_energy_up",
    "dos_energy_down",
    "is_magnetic",
    "ordering",
    "total_magnetization_normalized_vol",
    "total_magnetization_normalized_formula_units",
    "num_magnetic_sites",
    "num_unique_magnetic_sites",
    "types_of_magnetic_species",
    "bulk_modulus",
    "shear_modulus",
    "universal_anisotropy",
    "homogeneous_poisson",
    "e_total",
    "e_ionic",
    "e_electronic",
    "n",
    "e_ij_max",
    "weighted_surface_energy_EV_PER_ANG2",
    "weighted_surface_energy",
    "weighted_work_function",
    "surface_anisotropy",
    "shape_factor",
    "has_reconstructed",
    "possible_species",
    "has_props",
    "theoretical",
    "database_IDs"
  ]
}
