{
  "builder_meta": null,
  "nsites": null,
  "elements": null,
  "nelements": null,
  "composition": null,
  "composition_reduced": null,
  "formula_pretty": "BiI5",
  "formula_anonymous": "AB5",
  "chemsys": null,
  "volume": 1885.6851776041551,
  "density": 2.9711624947683872,
  "density_atomic": 78.57021573350646,
  "symmetry": null,
  "property_name": null,
  "material_id": "mp-1214795",
  "deprecated": null,
  "deprecation_reasons": null,
  "last_updated": null,
  "origins": null,
  "warnings": null,
  "structure": {
    "@module": "pymatgen.core.structure",
    "@class": "Structure",
    "charge": 0,
    "lattice": {
      "matrix": [
        [10.73139, 0.0, 0.0],
        [-4.456536, 9.784466, 0.0],
        [-2.280325, -2.009192, 17.958749]
      ],
      "pbc": [true, true, true],
      "a": 10.73139,
      "b": 10.751580722128816,
      "c": 18.214098941300666,
      "alpha": 92.77956918458227,
      "beta": 97.19205142698786,
      "gamma": 114.48786695931459,
      "volume": 1885.6851776041551
    },
    "properties": {},
    "sites": [
      {
        "species": [{ "element": "Bi", "occu": 1 }],
        "abc": [0.9184329999999991, 0.948749, 0.849367],
        "properties": { "magmom": -0.0 },
        "label": "Bi",
        "xyz": [3.6910958341309885, 7.5764609515700005, 15.253568761883]
      },
      {
        "species": [{ "element": "Bi", "occu": 1 }],
        "abc": [0.294936, 0.302655, 0.818241999999999],
        "properties": { "magmom": -0.0 },
        "label": "Bi",
        "xyz": [-0.049577350689998134, 1.317312276766002, 14.694602699257983]
      },
      {
        "species": [{ "element": "Bi", "occu": 1 }],
        "abc": [0.794107999999999, 0.813936, 0.322457],
        "properties": { "magmom": 0.0 },
        "label": "Bi",
        "xyz": [4.15924080589899, 7.316051093432, 5.790924326293]
      },
      {
        "species": [{ "element": "Bi", "occu": 1 }],
        "abc": [0.428251, 0.447115, 0.355259],
        "properties": { "magmom": 0.0 },
        "label": "Bi",
        "xyz": [1.7930384260750003, 3.6609979748619996, 6.380007210991]
      },
      {
        "species": [{ "element": "I", "occu": 1 }],
        "abc": [0.46617000000000003, 0.480255999999999, 0.512848],
        "properties": { "magmom": 0.0 },
        "label": "I",
        "xyz": [1.692913807484005, 3.66863840447999, 9.210108507152]
      },
      {
        "species": [{ "element": "I", "occu": 1 }],
        "abc": [0.364226, 0.137285, 0.328530999999999],
        "properties": { "magmom": 0.002 },
        "label": "I",
        "xyz": [2.547678256805002, 0.683178557858002, 5.900005767718983]
      },
      {
        "species": [{ "element": "I", "occu": 1 }],
        "abc": [0.592096, 0.351595, 0.8471700000000001],
        "properties": { "magmom": 0.0 },
        "label": "I",
        "xyz": [2.855294388269999, 1.7380421366299998, 15.214113390330002]
      },
      {
        "species": [{ "element": "I", "occu": 1 }],
        "abc": [0.734982999999999, 0.507869, 0.33839],
        "properties": { "magmom": 0.0 },
        "label": "I",
        "xyz": [4.852413557835989, 4.289336482074, 6.07706107411]
      },
      {
        "species": [{ "element": "I", "occu": 1 }],
        "abc": [0.848278, 0.644809, 0.80286],
        "properties": { "magmom": 0.0 },
        "label": "I",
        "xyz": [4.398805795296, 4.696011847874, 14.418361222140001]
      },
      {
        "species": [{ "element": "I", "occu": 1 }],
        "abc": [0.120092999999999, 0.382836, 0.325163],
        "properties": { "magmom": -0.002 },
        "label": "I",
        "xyz": [-1.1588349148010106, 3.0925309272800003, 5.839520701087]
      },
      {
        "species": [{ "element": "I", "occu": 1 }],
        "abc": [0.600386, 0.881968, 0.827982999999999],
        "properties": { "magmom": -0.0 },
        "label": "I",
        "xyz": [0.6243838392170018, 6.966009089352002, 14.869538873266983]
      },
      {
        "species": [{ "element": "I", "occu": 1 }],
        "abc": [0.985464, 0.255123, 0.835611999999999],
        "properties": { "magmom": -0.0 },
        "label": "I",
        "xyz": [7.5329667471320025, 0.817337373814002, 15.006546169387983]
      },
      {
        "species": [{ "element": "I", "occu": 1 }],
        "abc": [0.412751, 0.428363, 0.029264],
        "properties": { "magmom": 0.0 },
        "label": "I",
        "xyz": [2.4536453925219996, 4.13250621447, 0.525544830736]
      },
      {
        "species": [{ "element": "I", "occu": 1 }],
        "abc": [0.302031, 0.313956, 0.149152999999999],
        "properties": { "magmom": 0.0 },
        "label": "I",
        "xyz": [1.501938921949002, 2.772214793120002, 2.6786012895969824]
      },
      {
        "species": [{ "element": "I", "occu": 1 }],
        "abc": [0.103833, 0.8737400000000001, 0.349228],
        "properties": { "magmom": 0.002 },
        "label": "I",
        "xyz": [-3.5759346858700005, 7.847413219064001, 6.271697995772]
      },
      {
        "species": [{ "element": "I", "occu": 1 }],
        "abc": [0.888425999999999, 0.939585999999999, 0.530832],
        "properties": { "magmom": -0.0 },
        "label": "I",
        "xyz": [4.136277577643995, 8.126803863331991, 9.533078649168]
      },
      {
        "species": [{ "element": "I", "occu": 1 }],
        "abc": [0.953534, 0.961708999999999, 0.006928999999999],
        "properties": { "magmom": -0.0 },
        "label": "I",
        "xyz": [5.9310540803110054, 9.395887321025993, 0.12443617182098206]
      },
      {
        "species": [{ "element": "I", "occu": 1 }],
        "abc": [0.254789, 0.273003999999999, 0.660961999999999],
        "properties": { "magmom": 0.0 },
        "label": "I",
        "xyz": [0.010379799916006238, 1.3431987931599925, 11.870050656537984]
      },
      {
        "species": [{ "element": "I", "occu": 1 }],
        "abc": [0.221183, 0.999452999999999, 0.837769],
        "properties": { "magmom": 0.0 },
        "label": "I",
        "xyz": [-3.9908828353629957, 8.095875124449991, 15.045283190981001]
      },
      {
        "species": [{ "element": "I", "occu": 1 }],
        "abc": [0.361132, 0.61785, 0.848816999999999],
        "properties": { "magmom": -0.0 },
        "label": "I",
        "xyz": [-0.8136010596449978, 4.339895992236002, 15.243691449932983]
      },
      {
        "species": [{ "element": "I", "occu": 1 }],
        "abc": [0.851630999999999, 0.116746999999999, 0.355763],
        "properties": { "magmom": -0.002 },
        "label": "I",
        "xyz": [7.8076419257229945, 0.42751087860599024, 6.389058420487]
      },
      {
        "species": [{ "element": "I", "occu": 1 }],
        "abc": [0.758648, 0.79027, 0.164262],
        "properties": { "magmom": 0.0 },
        "label": "I",
        "xyz": [4.24491011085, 7.402336049516, 2.949940028238]
      },
      {
        "species": [{ "element": "I", "occu": 1 }],
        "abc": [0.850208, 0.790207, 0.654683],
        "properties": { "magmom": -0.0 },
        "label": "I",
        "xyz": [4.109437674192999, 6.416369678326, 11.757287671567001]
      },
      {
        "species": [{ "element": "I", "occu": 1 }],
        "abc": [0.485612, 0.749521, 0.334754999999999],
        "properties": { "magmom": -0.0 },
        "label": "I",
        "xyz": [1.1076742460490017, 6.661075672826001, 6.011781021494983]
      }
    ]
  },
  "task_ids": null,
  "uncorrected_energy_per_atom": null,
  "energy_per_atom": -2.416046990416666,
  "formation_energy_per_atom": -0.497697426249999,
  "energy_above_hull": 0.013227185416666001,
  "is_stable": false,
  "equilibrium_reaction_energy_per_atom": null,
  "decomposes_to": null,
  "xas": null,
  "grain_boundaries": null,
  "band_gap": 0.06819999999999901,
  "cbm": null,
  "vbm": null,
  "efermi": -1.36545422,
  "is_gap_direct": null,
  "is_metal": null,
  "es_source_calc_id": null,
  "bandstructure": null,
  "dos": null,
  "dos_energy_up": null,
  "dos_energy_down": null,
  "is_magnetic": null,
  "ordering": null,
  "total_magnetization": 0.0001686,
  "total_magnetization_normalized_vol": null,
  "total_magnetization_normalized_formula_units": null,
  "num_magnetic_sites": null,
  "num_unique_magnetic_sites": null,
  "types_of_magnetic_species": null,
  "bulk_modulus": null,
  "shear_modulus": null,
  "universal_anisotropy": null,
  "homogeneous_poisson": null,
  "e_total": null,
  "e_ionic": null,
  "e_electronic": null,
  "n": null,
  "e_ij_max": null,
  "weighted_surface_energy_EV_PER_ANG2": null,
  "weighted_surface_energy": null,
  "weighted_work_function": null,
  "surface_anisotropy": null,
  "shape_factor": null,
  "has_reconstructed": null,
  "possible_species": null,
  "has_props": null,
  "theoretical": null,
  "database_IDs": null,
  "fields_not_requested": [
    "builder_meta",
    "nsites",
    "elements",
    "nelements",
    "composition",
    "composition_reduced",
    "chemsys",
    "symmetry",
    "property_name",
    "deprecated",
    "deprecation_reasons",
    "last_updated",
    "origins",
    "warnings",
    "task_ids",
    "uncorrected_energy_per_atom",
    "equilibrium_reaction_energy_per_atom",
    "decomposes_to",
    "xas",
    "grain_boundaries",
    "cbm",
    "vbm",
    "is_gap_direct",
    "is_metal",
    "es_source_calc_id",
    "bandstructure",
    "dos",
    "dos_energy_up",
    "dos_energy_down",
    "is_magnetic",
    "ordering",
    "total_magnetization_normalized_vol",
    "total_magnetization_normalized_formula_units",
    "num_magnetic_sites",
    "num_unique_magnetic_sites",
    "types_of_magnetic_species",
    "bulk_modulus",
    "shear_modulus",
    "universal_anisotropy",
    "homogeneous_poisson",
    "e_total",
    "e_ionic",
    "e_electronic",
    "n",
    "e_ij_max",
    "weighted_surface_energy_EV_PER_ANG2",
    "weighted_surface_energy",
    "weighted_work_function",
    "surface_anisotropy",
    "shape_factor",
    "has_reconstructed",
    "possible_species",
    "has_props",
    "theoretical",
    "database_IDs"
  ]
}
