{"builder_meta": null, "nsites": null, "elements": null, "nelements": null, "composition": null, "composition_reduced": null, "formula_pretty": "BiN", "formula_anonymous": "AB", "chemsys": null, "volume": 74.82746707021785, "density": 9.896868232900959, "density_atomic": 18.706866767554462, "symmetry": null, "property_name": null, "material_id": "mp-1445941", "deprecated": null, "deprecation_reasons": null, "last_updated": null, "origins": null, "warnings": null, "structure": {"@module": "pymatgen.core.structure", "@class": "Structure", "charge": 0, "lattice": {"matrix": [[5.43684, 0.0, 0.0], [0.0, 3.694279, 0.0], [0.0, 0.353635, 3.725502]], "pbc": [true, true, true], "a": 5.43684, "b": 3.694279, "c": 3.742248370328859, "alpha": 84.57757244317007, "beta": 90.0, "gamma": 90.0, "volume": 74.82746707021785}, "properties": {}, "sites": [{"species": [{"element": "Bi", "occu": 1}], "abc": [0.038805, 0.725668, 0.723804], "properties": {"magmom": -0.0}, "label": "Bi", "xyz": [0.2109765762, 2.936782480912, 2.696533249608]}, {"species": [{"element": "Bi", "occu": 1}], "abc": [0.538805, 0.274331999999999, 0.276196], "properties": {"magmom": -0.0}, "label": "Bi", "xyz": [2.9293965762, 1.1111315190879965, 1.028968750392]}, {"species": [{"element": "N", "occu": 1}], "abc": [0.454325, 0.682298, 0.678223999999999], "properties": {"magmom": 0.0}, "label": "N", "xyz": [2.4700923329999998, 2.760442917381999, 2.5267248684479964]}, {"species": [{"element": "N", "occu": 1}], "abc": [0.954325, 0.317702, 0.321776], "properties": {"magmom": 0.0}, "label": "N", "xyz": [5.188512333, 1.287471082618, 1.1987771315520002]}]}, "task_ids": null, "uncorrected_energy_per_atom": null, "energy_per_atom": -33.320547865624995, "formation_energy_per_atom": 0.49496434250000404, "energy_above_hull": 0.49496434250000404, "is_stable": false, "equilibrium_reaction_energy_per_atom": null, "decomposes_to": null, "xas": null, "grain_boundaries": null, "band_gap": 0.8527, "cbm": null, "vbm": null, "efermi": 6.42093934, "is_gap_direct": null, "is_metal": null, "es_source_calc_id": null, "bandstructure": null, "dos": null, "dos_energy_up": null, "dos_energy_down": null, "is_magnetic": null, "ordering": null, "total_magnetization": 0.0, "total_magnetization_normalized_vol": null, "total_magnetization_normalized_formula_units": null, "num_magnetic_sites": null, "num_unique_magnetic_sites": null, "types_of_magnetic_species": null, "bulk_modulus": null, "shear_modulus": null, "universal_anisotropy": null, "homogeneous_poisson": null, "e_total": null, "e_ionic": null, "e_electronic": null, "n": null, "e_ij_max": null, "weighted_surface_energy_EV_PER_ANG2": null, "weighted_surface_energy": null, "weighted_work_function": null, "surface_anisotropy": null, "shape_factor": null, "has_reconstructed": null, "possible_species": null, "has_props": null, "theoretical": null, "database_IDs": null, "fields_not_requested": ["builder_meta", "nsites", "elements", "nelements", "composition", "composition_reduced", "chemsys", "symmetry", "property_name", "deprecated", "deprecation_reasons", "last_updated", "origins", "warnings", "task_ids", "uncorrected_energy_per_atom", "equilibrium_reaction_energy_per_atom", "decomposes_to", "xas", "grain_boundaries", "cbm", "vbm", "is_gap_direct", "is_metal", "es_source_calc_id", "bandstructure", "dos", "dos_energy_up", "dos_energy_down", "is_magnetic", "ordering", "total_magnetization_normalized_vol", "total_magnetization_normalized_formula_units", "num_magnetic_sites", "num_unique_magnetic_sites", "types_of_magnetic_species", "bulk_modulus", "shear_modulus", "universal_anisotropy", "homogeneous_poisson", "e_total", "e_ionic", "e_electronic", "n", "e_ij_max", "weighted_surface_energy_EV_PER_ANG2", "weighted_surface_energy", "weighted_work_function", "surface_anisotropy", "shape_factor", "has_reconstructed", "possible_species", "has_props", "theoretical", "database_IDs"]}