{"builder_meta": null, "nsites": null, "elements": null, "nelements": null, "composition": null, "composition_reduced": null, "formula_pretty": "BiPd3", "formula_anonymous": "AB3", "chemsys": null, "volume": 277.33741253818795, "density": 12.651215178343522, "density_atomic": 17.333588283636747, "symmetry": null, "property_name": null, "material_id": "mp-30463", "deprecated": null, "deprecation_reasons": null, "last_updated": null, "origins": null, "warnings": null, "structure": {"@module": "pymatgen.core.structure", "@class": "Structure", "charge": 0, "lattice": {"matrix": [[5.04773216, 0.0, 3.915e-05], [0.0, 5.80359109, 0.0], [7.328e-05, 0.0, 9.46706484]], "pbc": [true, true, true], "a": 5.047732160151822, "b": 5.80359109, "c": 9.467064840283614, "alpha": 90.0, "beta": 89.9991121172264, "gamma": 90.0, "volume": 277.3374125381879}, "properties": {}, "sites": [{"species": [{"element": "Bi", "occu": 1}], "abc": [0.15107024, 0.5, 0.25000431], "properties": {"magmom": 0.0}, "label": "Bi", "xyz": [0.7625804291827551, 2.901795545, 2.366812927449357]}, {"species": [{"element": "Bi", "occu": 1}], "abc": [0.84892976, 0.5, 0.74999569], "properties": {"magmom": 0.0}, "label": "Bi", "xyz": [4.2852250108172445, 2.901795545, 7.100291062550644]}, {"species": [{"element": "Bi", "occu": 1}], "abc": [0.5, -0.0, 0.500001], "properties": {"magmom": 0.0}, "label": "Bi", "xyz": [2.5239027200732798, 0.0, 4.7335614620648405]}, {"species": [{"element": "Bi", "occu": 1}], "abc": [0.5, -0.0, 0.999999], "properties": {"magmom": 0.0}, "label": "Bi", "xyz": [2.52393935992672, 0.0, 9.46707494793516]}, {"species": [{"element": "Pd", "occu": 1}], "abc": [0.66281481, 0.25052334, 0.25002646], "properties": {"magmom": -0.0}, "label": "Pd", "xyz": [3.345729954500278, 1.4539350238610407, 2.367042657735478]}, {"species": [{"element": "Pd", "occu": 1}], "abc": [0.66281481, 0.74947666, 0.25002646], "properties": {"magmom": -0.0}, "label": "Pd", "xyz": [3.345729954500278, 4.34965606613896, 2.367042657735478]}, {"species": [{"element": "Pd", "occu": 1}], "abc": [0.33718419, 0.25052434, 0.74997354], "properties": {"magmom": -0.0}, "label": "Pd", "xyz": [1.7020704377675615, 1.4539408274521308, 7.100061332225373]}, {"species": [{"element": "Pd", "occu": 1}], "abc": [0.33718419, 0.74947566, 0.74997354], "properties": {"magmom": -0.0}, "label": "Pd", "xyz": [1.7020704377675615, 4.349650262547869, 7.100061332225373]}, {"species": [{"element": "Pd", "occu": 1}], "abc": [0.5, 0.5, 1e-06], "properties": {"magmom": -0.0}, "label": "Pd", "xyz": [2.52386608007328, 2.901795545, 2.904206484e-05]}, {"species": [{"element": "Pd", "occu": 1}], "abc": [0.5, 0.5, 0.499998999999999], "properties": {"magmom": -0.0}, "label": "Pd", "xyz": [2.52390271992672, 2.901795545, 4.733542527935151]}, {"species": [{"element": "Pd", "occu": 1}], "abc": [0.85047278, -0.0, 0.74997938], "properties": {"magmom": -0.0}, "label": "Pd", "xyz": [4.293013761299571, 0.0, 7.1001367151323365]}, {"species": [{"element": "Pd", "occu": 1}], "abc": [0.14952822, -0.0, 0.25002062], "properties": {"magmom": -0.0}, "label": "Pd", "xyz": [0.7547967264325888, 0.0, 2.366967274906814]}, {"species": [{"element": "Pd", "occu": 1}], "abc": [-0.0, 0.74925778, 0.0], "properties": {"magmom": -0.0}, "label": "Pd", "xyz": [0.0, 4.34838577612118, 0.0]}, {"species": [{"element": "Pd", "occu": 1}], "abc": [-0.0, 0.25072392, 0.5], "properties": {"magmom": -0.0}, "label": "Pd", "xyz": [3.664e-05, 1.4550991081618727, 4.73353242]}, {"species": [{"element": "Pd", "occu": 1}], "abc": [-0.0, 0.25074222, 0.0], "properties": {"magmom": -0.0}, "label": "Pd", "xyz": [0.0, 1.45520531387882, 0.0]}, {"species": [{"element": "Pd", "occu": 1}], "abc": [-0.0, 0.74927608, 0.5], "properties": {"magmom": -0.0}, "label": "Pd", "xyz": [3.664e-05, 4.348491981838127, 4.73353242]}]}, "task_ids": null, "uncorrected_energy_per_atom": null, "energy_per_atom": -32.0793012575, "formation_energy_per_atom": -0.233392613749998, "energy_above_hull": 0.0, "is_stable": true, "equilibrium_reaction_energy_per_atom": null, "decomposes_to": null, "xas": null, "grain_boundaries": null, "band_gap": 0.0, "cbm": null, "vbm": null, "efermi": 5.85893105, "is_gap_direct": null, "is_metal": null, "es_source_calc_id": null, "bandstructure": null, "dos": null, "dos_energy_up": null, "dos_energy_down": null, "is_magnetic": null, "ordering": null, "total_magnetization": 1e-07, "total_magnetization_normalized_vol": null, "total_magnetization_normalized_formula_units": null, "num_magnetic_sites": null, "num_unique_magnetic_sites": null, "types_of_magnetic_species": null, "bulk_modulus": null, "shear_modulus": null, "universal_anisotropy": null, "homogeneous_poisson": null, "e_total": null, "e_ionic": null, "e_electronic": null, "n": null, "e_ij_max": null, "weighted_surface_energy_EV_PER_ANG2": null, "weighted_surface_energy": null, "weighted_work_function": null, "surface_anisotropy": null, "shape_factor": null, "has_reconstructed": null, "possible_species": null, "has_props": null, "theoretical": null, "database_IDs": null, "fields_not_requested": ["builder_meta", "nsites", "elements", "nelements", "composition", "composition_reduced", "chemsys", "symmetry", "property_name", "deprecated", "deprecation_reasons", "last_updated", "origins", "warnings", "task_ids", "uncorrected_energy_per_atom", "equilibrium_reaction_energy_per_atom", "decomposes_to", "xas", "grain_boundaries", "cbm", "vbm", "is_gap_direct", "is_metal", "es_source_calc_id", "bandstructure", "dos", "dos_energy_up", "dos_energy_down", "is_magnetic", "ordering", "total_magnetization_normalized_vol", "total_magnetization_normalized_formula_units", "num_magnetic_sites", "num_unique_magnetic_sites", "types_of_magnetic_species", "bulk_modulus", "shear_modulus", "universal_anisotropy", "homogeneous_poisson", "e_total", "e_ionic", "e_electronic", "n", "e_ij_max", "weighted_surface_energy_EV_PER_ANG2", "weighted_surface_energy", "weighted_work_function", "surface_anisotropy", "shape_factor", "has_reconstructed", "possible_species", "has_props", "theoretical", "database_IDs"]}