{
  "builder_meta": null,
  "nsites": null,
  "elements": null,
  "nelements": null,
  "composition": null,
  "composition_reduced": null,
  "formula_pretty": "BiPd",
  "formula_anonymous": "AB",
  "chemsys": null,
  "volume": 90.43155709596122,
  "density": 11.583007141312558,
  "density_atomic": 22.607889273990306,
  "symmetry": null,
  "property_name": null,
  "material_id": "mp-1008488",
  "deprecated": null,
  "deprecation_reasons": null,
  "last_updated": null,
  "origins": null,
  "warnings": null,
  "structure": {
    "@module": "pymatgen.core.structure",
    "@class": "Structure",
    "charge": 0,
    "lattice": {
      "matrix": [
        [4.28038814, 0.0, 0.0],
        [-2.14019407, 3.707914579999999, 0.0],
        [0.0, -0.0, 5.69779915]
      ],
      "pbc": [true, true, true],
      "a": 4.28038814,
      "b": 4.28124528494219,
      "c": 5.69779915,
      "alpha": 90.0,
      "beta": 90.0,
      "gamma": 119.9933773520169,
      "volume": 90.43155709596118
    },
    "properties": {},
    "sites": [
      {
        "species": [{ "element": "Bi", "occu": 1 }],
        "abc": [0.33327465, 0.6665483, 0.25],
        "properties": { "magmom": 0.0 },
        "label": "Bi",
        "xyz": [2.140194069966128e-6, 2.4715041598442133, 1.4244497875]
      },
      {
        "species": [{ "element": "Bi", "occu": 1 }],
        "abc": [0.66672535, 0.333451699999999, 0.75],
        "properties": { "magmom": 0.0 },
        "label": "Bi",
        "xyz": [2.1401919298059324, 1.236410420155782, 4.273349362499999]
      },
      {
        "species": [{ "element": "Pd", "occu": 1 }],
        "abc": [0.0, 0.0, 0.5],
        "properties": { "magmom": 0.0 },
        "label": "Pd",
        "xyz": [0.0, 0.0, 2.848899575]
      },
      {
        "species": [{ "element": "Pd", "occu": 1 }],
        "abc": [0.0, -0.0, 0.0],
        "properties": { "magmom": 0.0 },
        "label": "Pd",
        "xyz": [0.0, 0.0, 0.0]
      }
    ]
  },
  "task_ids": null,
  "uncorrected_energy_per_atom": null,
  "energy_per_atom": -41.03082202,
  "formation_energy_per_atom": -0.299458342500003,
  "energy_above_hull": 0.0,
  "is_stable": true,
  "equilibrium_reaction_energy_per_atom": null,
  "decomposes_to": null,
  "xas": null,
  "grain_boundaries": null,
  "band_gap": 0.0,
  "cbm": null,
  "vbm": null,
  "efermi": 6.21619573,
  "is_gap_direct": null,
  "is_metal": null,
  "es_source_calc_id": null,
  "bandstructure": null,
  "dos": null,
  "dos_energy_up": null,
  "dos_energy_down": null,
  "is_magnetic": null,
  "ordering": null,
  "total_magnetization": 2e-7,
  "total_magnetization_normalized_vol": null,
  "total_magnetization_normalized_formula_units": null,
  "num_magnetic_sites": null,
  "num_unique_magnetic_sites": null,
  "types_of_magnetic_species": null,
  "bulk_modulus": null,
  "shear_modulus": null,
  "universal_anisotropy": null,
  "homogeneous_poisson": null,
  "e_total": null,
  "e_ionic": null,
  "e_electronic": null,
  "n": null,
  "e_ij_max": null,
  "weighted_surface_energy_EV_PER_ANG2": null,
  "weighted_surface_energy": null,
  "weighted_work_function": null,
  "surface_anisotropy": null,
  "shape_factor": null,
  "has_reconstructed": null,
  "possible_species": null,
  "has_props": null,
  "theoretical": null,
  "database_IDs": null,
  "fields_not_requested": [
    "builder_meta",
    "nsites",
    "elements",
    "nelements",
    "composition",
    "composition_reduced",
    "chemsys",
    "symmetry",
    "property_name",
    "deprecated",
    "deprecation_reasons",
    "last_updated",
    "origins",
    "warnings",
    "task_ids",
    "uncorrected_energy_per_atom",
    "equilibrium_reaction_energy_per_atom",
    "decomposes_to",
    "xas",
    "grain_boundaries",
    "cbm",
    "vbm",
    "is_gap_direct",
    "is_metal",
    "es_source_calc_id",
    "bandstructure",
    "dos",
    "dos_energy_up",
    "dos_energy_down",
    "is_magnetic",
    "ordering",
    "total_magnetization_normalized_vol",
    "total_magnetization_normalized_formula_units",
    "num_magnetic_sites",
    "num_unique_magnetic_sites",
    "types_of_magnetic_species",
    "bulk_modulus",
    "shear_modulus",
    "universal_anisotropy",
    "homogeneous_poisson",
    "e_total",
    "e_ionic",
    "e_electronic",
    "n",
    "e_ij_max",
    "weighted_surface_energy_EV_PER_ANG2",
    "weighted_surface_energy",
    "weighted_work_function",
    "surface_anisotropy",
    "shape_factor",
    "has_reconstructed",
    "possible_species",
    "has_props",
    "theoretical",
    "database_IDs"
  ]
}
