{"builder_meta": null, "nsites": null, "elements": null, "nelements": null, "composition": null, "composition_reduced": null, "formula_pretty": "BIr", "formula_anonymous": "AB", "chemsys": null, "volume": 21.663818158451388, "density": 15.562165595548212, "density_atomic": 10.831909079225694, "symmetry": null, "property_name": null, "material_id": "mp-1183252", "deprecated": null, "deprecation_reasons": null, "last_updated": null, "origins": null, "warnings": null, "structure": {"@module": "pymatgen.core.structure", "@class": "Structure", "charge": 0, "lattice": {"matrix": [[3.04209401, 7.045e-05, -2.029999999999998e-06], [-1.52098029, 2.6346017, 2.029999999999998e-06], [-1.009e-05, 6.06e-06, 2.70297231]], "pbc": [true, true, true], "a": 3.042094010816432, "b": 3.0421221474844655, "c": 2.7029723100256255, "alpha": 89.99974358391917, "beta": 90.0002521116977, "gamma": 119.9969162687964, "volume": 21.663818158451388}, "properties": {}, "sites": [{"species": [{"element": "B", "occu": 1}], "abc": [0.66666831, 0.33333069, 0.749999], "properties": {"magmom": -0.0}, "label": "B", "xyz": [1.521070695475813, 0.8782451143125526, 2.0272258528523213]}, {"species": [{"element": "Ir", "occu": 1}], "abc": [0.33333169, 0.66667031, 0.25], "properties": {"magmom": 0.0}, "label": "Ir", "xyz": [3.141355398716026e-05, 1.7564357302830875, 0.6757437541773985]}]}, "task_ids": null, "uncorrected_energy_per_atom": null, "energy_per_atom": -30.067901265, "formation_energy_per_atom": -0.21504744125000003, "energy_above_hull": 0.0, "is_stable": true, "equilibrium_reaction_energy_per_atom": null, "decomposes_to": null, "xas": null, "grain_boundaries": null, "band_gap": 0.0, "cbm": null, "vbm": null, "efermi": 8.99016396, "is_gap_direct": null, "is_metal": null, "es_source_calc_id": null, "bandstructure": null, "dos": null, "dos_energy_up": null, "dos_energy_down": null, "is_magnetic": null, "ordering": null, "total_magnetization": 0.0, "total_magnetization_normalized_vol": null, "total_magnetization_normalized_formula_units": null, "num_magnetic_sites": null, "num_unique_magnetic_sites": null, "types_of_magnetic_species": null, "bulk_modulus": null, "shear_modulus": null, "universal_anisotropy": null, "homogeneous_poisson": null, "e_total": null, "e_ionic": null, "e_electronic": null, "n": null, "e_ij_max": null, "weighted_surface_energy_EV_PER_ANG2": null, "weighted_surface_energy": null, "weighted_work_function": null, "surface_anisotropy": null, "shape_factor": null, "has_reconstructed": null, "possible_species": null, "has_props": null, "theoretical": null, "database_IDs": null, "fields_not_requested": ["builder_meta", "nsites", "elements", "nelements", "composition", "composition_reduced", "chemsys", "symmetry", "property_name", "deprecated", "deprecation_reasons", "last_updated", "origins", "warnings", "task_ids", "uncorrected_energy_per_atom", "equilibrium_reaction_energy_per_atom", "decomposes_to", "xas", "grain_boundaries", "cbm", "vbm", "is_gap_direct", "is_metal", "es_source_calc_id", "bandstructure", "dos", "dos_energy_up", "dos_energy_down", "is_magnetic", "ordering", "total_magnetization_normalized_vol", "total_magnetization_normalized_formula_units", "num_magnetic_sites", "num_unique_magnetic_sites", "types_of_magnetic_species", "bulk_modulus", "shear_modulus", "universal_anisotropy", "homogeneous_poisson", "e_total", "e_ionic", "e_electronic", "n", "e_ij_max", "weighted_surface_energy_EV_PER_ANG2", "weighted_surface_energy", "weighted_work_function", "surface_anisotropy", "shape_factor", "has_reconstructed", "possible_species", "has_props", "theoretical", "database_IDs"]}