{"builder_meta": null, "nsites": null, "elements": null, "nelements": null, "composition": null, "composition_reduced": null, "formula_pretty": "BiRh", "formula_anonymous": "AB", "chemsys": null, "volume": 84.17634928359531, "density": 12.305088678219295, "density_atomic": 21.04408732089883, "symmetry": null, "property_name": null, "material_id": "mp-1064554", "deprecated": null, "deprecation_reasons": null, "last_updated": null, "origins": null, "warnings": null, "structure": {"@module": "pymatgen.core.structure", "@class": "Structure", "charge": 0, "lattice": {"matrix": [[-2.06706093, -3.58036295, -3.0000000000000004e-08], [-2.06706093, 3.58036295, 3.0000000000000004e-08], [0.0, -5e-08, -5.68695456]], "pbc": [true, true, true], "a": 4.134215734823857, "b": 4.134215734823857, "c": 5.68695456, "alpha": 90.00000085202912, "beta": 89.9999991479709, "gamma": 120.00150226433453, "volume": 84.17634928359533}, "properties": {}, "sites": [{"species": [{"element": "Bi", "occu": 1}], "abc": [0.66666872, 0.33333128, 0.75000298], "properties": {"magmom": -0.0}, "label": "Bi", "xyz": [-2.06706093, -1.193469057523997, -4.2652328771247126]}, {"species": [{"element": "Bi", "occu": 1}], "abc": [0.33333128, 0.66666872, 0.24999702000000001], "properties": {"magmom": -0.0}, "label": "Bi", "xyz": [-2.06706093, 1.193469007523997, -1.421721682875288]}, {"species": [{"element": "Rh", "occu": 1}], "abc": [-0.0, -0.0, 0.5], "properties": {"magmom": 0.0}, "label": "Rh", "xyz": [0.0, -2.5e-08, -2.84347728]}, {"species": [{"element": "Rh", "occu": 1}], "abc": [-0.0, -0.0, 0.0], "properties": {"magmom": -0.0}, "label": "Rh", "xyz": [0.0, 0.0, 0.0]}]}, "task_ids": null, "uncorrected_energy_per_atom": null, "energy_per_atom": -41.5125219975, "formation_energy_per_atom": -0.19327081000000101, "energy_above_hull": 0.0, "is_stable": true, "equilibrium_reaction_energy_per_atom": null, "decomposes_to": null, "xas": null, "grain_boundaries": null, "band_gap": 0.0, "cbm": null, "vbm": null, "efermi": 6.91557123, "is_gap_direct": null, "is_metal": null, "es_source_calc_id": null, "bandstructure": null, "dos": null, "dos_energy_up": null, "dos_energy_down": null, "is_magnetic": null, "ordering": null, "total_magnetization": 2.499999999999999e-06, "total_magnetization_normalized_vol": null, "total_magnetization_normalized_formula_units": null, "num_magnetic_sites": null, "num_unique_magnetic_sites": null, "types_of_magnetic_species": null, "bulk_modulus": null, "shear_modulus": null, "universal_anisotropy": null, "homogeneous_poisson": null, "e_total": null, "e_ionic": null, "e_electronic": null, "n": null, "e_ij_max": null, "weighted_surface_energy_EV_PER_ANG2": null, "weighted_surface_energy": null, "weighted_work_function": null, "surface_anisotropy": null, "shape_factor": null, "has_reconstructed": null, "possible_species": null, "has_props": null, "theoretical": null, "database_IDs": null, "fields_not_requested": ["builder_meta", "nsites", "elements", "nelements", "composition", "composition_reduced", "chemsys", "symmetry", "property_name", "deprecated", "deprecation_reasons", "last_updated", "origins", "warnings", "task_ids", "uncorrected_energy_per_atom", "equilibrium_reaction_energy_per_atom", "decomposes_to", "xas", "grain_boundaries", "cbm", "vbm", "is_gap_direct", "is_metal", "es_source_calc_id", "bandstructure", "dos", "dos_energy_up", "dos_energy_down", "is_magnetic", "ordering", "total_magnetization_normalized_vol", "total_magnetization_normalized_formula_units", "num_magnetic_sites", "num_unique_magnetic_sites", "types_of_magnetic_species", "bulk_modulus", "shear_modulus", "universal_anisotropy", "homogeneous_poisson", "e_total", "e_ionic", "e_electronic", "n", "e_ij_max", "weighted_surface_energy_EV_PER_ANG2", "weighted_surface_energy", "weighted_work_function", "surface_anisotropy", "shape_factor", "has_reconstructed", "possible_species", "has_props", "theoretical", "database_IDs"]}