{"builder_meta": null, "nsites": null, "elements": null, "nelements": null, "composition": null, "composition_reduced": null, "formula_pretty": "BiS", "formula_anonymous": "AB", "chemsys": null, "volume": 1025.2834449554955, "density": 3.903947786278729, "density_atomic": 51.26417224777477, "symmetry": null, "property_name": null, "material_id": "mp-28677", "deprecated": null, "deprecation_reasons": null, "last_updated": null, "origins": null, "warnings": null, "structure": {"@module": "pymatgen.core.structure", "@class": "Structure", "charge": 0, "lattice": {"matrix": [[2.826807, -11.896857, 0.0], [2.826807, 11.896857, 0.0], [0.0, 0.0, 15.24353]], "pbc": [true, true, true], "a": 12.228084244627121, "b": 12.228084244627121, "c": 15.24353, "alpha": 90.0, "beta": 90.0, "gamma": 153.26767871029782, "volume": 1025.2834449554955}, "properties": {}, "sites": [{"species": [{"element": "Bi", "occu": 1}], "abc": [0.7906200000000001, 0.15889, 0.10005000000000001], "properties": {"magmom": 0.024}, "label": "Bi", "xyz": [2.6840815145700003, -7.515601472610002, 1.5251151765000002]}, {"species": [{"element": "Bi", "occu": 1}], "abc": [0.15889, 0.7906200000000001, 0.89995], "properties": {"magmom": 0.024}, "label": "Bi", "xyz": [2.6840815145700003, 7.515601472610002, 13.7184148235]}, {"species": [{"element": "Bi", "occu": 1}], "abc": [0.7906200000000001, 0.15889, 0.89995], "properties": {"magmom": 0.024}, "label": "Bi", "xyz": [2.6840815145700003, -7.515601472610002, 13.7184148235]}, {"species": [{"element": "Bi", "occu": 1}], "abc": [0.15889, 0.7906200000000001, 0.10005000000000001], "properties": {"magmom": 0.024}, "label": "Bi", "xyz": [2.6840815145700003, 7.515601472610002, 1.5251151765000002]}, {"species": [{"element": "Bi", "occu": 1}], "abc": [0.667675999999999, 0.295879, 0.301493], "properties": {"magmom": 0.018000000000000002}, "label": "Bi", "xyz": [2.7237840188849973, -4.423215742028988, 4.59581759029]}, {"species": [{"element": "Bi", "occu": 1}], "abc": [0.295879, 0.667675999999999, 0.698507], "properties": {"magmom": 0.018000000000000002}, "label": "Bi", "xyz": [2.7237840188849973, 4.423215742028988, 10.64771240971]}, {"species": [{"element": "Bi", "occu": 1}], "abc": [0.667675999999999, 0.295879, 0.698507], "properties": {"magmom": 0.018000000000000002}, "label": "Bi", "xyz": [2.7237840188849973, -4.423215742028988, 10.64771240971]}, {"species": [{"element": "Bi", "occu": 1}], "abc": [0.295879, 0.667675999999999, 0.301493], "properties": {"magmom": 0.018000000000000002}, "label": "Bi", "xyz": [2.7237840188849973, 4.423215742028988, 4.59581759029]}, {"species": [{"element": "Bi", "occu": 1}], "abc": [0.799221, 0.170169, 0.5], "properties": {"magmom": 0.065}, "label": "Bi", "xyz": [2.74027843773, -7.483741689564001, 7.621765]}, {"species": [{"element": "Bi", "occu": 1}], "abc": [0.170169, 0.799221, 0.5], "properties": {"magmom": 0.065}, "label": "Bi", "xyz": [2.74027843773, 7.483741689564001, 7.621765]}, {"species": [{"element": "S", "occu": 1}], "abc": [0.673211, 0.275916, 0.122782999999999], "properties": {"magmom": 0.006}, "label": "S", "xyz": [2.6829988474890003, -4.726561801815, 1.8716463439899849]}, {"species": [{"element": "S", "occu": 1}], "abc": [0.275916, 0.673211, 0.877216999999999], "properties": {"magmom": 0.006}, "label": "S", "xyz": [2.6829988474890003, 4.726561801815, 13.371883656009985]}, {"species": [{"element": "S", "occu": 1}], "abc": [0.673211, 0.275916, 0.877216999999999], "properties": {"magmom": 0.006}, "label": "S", "xyz": [2.6829988474890003, -4.726561801815, 13.371883656009985]}, {"species": [{"element": "S", "occu": 1}], "abc": [0.275916, 0.673211, 0.122782999999999], "properties": {"magmom": 0.006}, "label": "S", "xyz": [2.6829988474890003, 4.726561801815, 1.8716463439899849]}, {"species": [{"element": "S", "occu": 1}], "abc": [0.789411, 0.185218, 0.315448], "properties": {"magmom": 0.002}, "label": "S", "xyz": [2.755088079603, -7.1879977214010005, 4.80854105144]}, {"species": [{"element": "S", "occu": 1}], "abc": [0.185218, 0.789411, 0.684551999999999], "properties": {"magmom": 0.002}, "label": "S", "xyz": [2.755088079603, 7.1879977214010005, 10.434988948559985]}, {"species": [{"element": "S", "occu": 1}], "abc": [0.789411, 0.185218, 0.684551999999999], "properties": {"magmom": 0.002}, "label": "S", "xyz": [2.755088079603, -7.1879977214010005, 10.434988948559985]}, {"species": [{"element": "S", "occu": 1}], "abc": [0.185218, 0.789411, 0.315448], "properties": {"magmom": 0.002}, "label": "S", "xyz": [2.755088079603, 7.1879977214010005, 4.80854105144]}, {"species": [{"element": "S", "occu": 1}], "abc": [0.675786999999999, 0.283180999999999, 0.5], "properties": {"magmom": 0.01}, "label": "S", "xyz": [2.7108174551759943, -4.670777439342, 7.621765]}, {"species": [{"element": "S", "occu": 1}], "abc": [0.283180999999999, 0.675786999999999, 0.5], "properties": {"magmom": 0.01}, "label": "S", "xyz": [2.7108174551759943, 4.670777439342, 7.621765]}]}, "task_ids": null, "uncorrected_energy_per_atom": null, "energy_per_atom": -33.385634464583326, "formation_energy_per_atom": -0.11699805098957002, "energy_above_hull": 0.22803391250000202, "is_stable": false, "equilibrium_reaction_energy_per_atom": null, "decomposes_to": null, "xas": null, "grain_boundaries": null, "band_gap": 0.0, "cbm": null, "vbm": null, "efermi": 1.29009701, "is_gap_direct": null, "is_metal": null, "es_source_calc_id": null, "bandstructure": null, "dos": null, "dos_energy_up": null, "dos_energy_down": null, "is_magnetic": null, "ordering": null, "total_magnetization": 0.6012533, "total_magnetization_normalized_vol": null, "total_magnetization_normalized_formula_units": null, "num_magnetic_sites": null, "num_unique_magnetic_sites": null, "types_of_magnetic_species": null, "bulk_modulus": null, "shear_modulus": null, "universal_anisotropy": null, "homogeneous_poisson": null, "e_total": null, "e_ionic": null, "e_electronic": null, "n": null, "e_ij_max": null, "weighted_surface_energy_EV_PER_ANG2": null, "weighted_surface_energy": null, "weighted_work_function": null, "surface_anisotropy": null, "shape_factor": null, "has_reconstructed": null, "possible_species": null, "has_props": null, "theoretical": null, "database_IDs": null, "fields_not_requested": ["builder_meta", "nsites", "elements", "nelements", "composition", "composition_reduced", "chemsys", "symmetry", "property_name", "deprecated", "deprecation_reasons", "last_updated", "origins", "warnings", "task_ids", "uncorrected_energy_per_atom", "equilibrium_reaction_energy_per_atom", "decomposes_to", "xas", "grain_boundaries", "cbm", "vbm", "is_gap_direct", "is_metal", "es_source_calc_id", "bandstructure", "dos", "dos_energy_up", "dos_energy_down", "is_magnetic", "ordering", "total_magnetization_normalized_vol", "total_magnetization_normalized_formula_units", "num_magnetic_sites", "num_unique_magnetic_sites", "types_of_magnetic_species", "bulk_modulus", "shear_modulus", "universal_anisotropy", "homogeneous_poisson", "e_total", "e_ionic", "e_electronic", "n", "e_ij_max", "weighted_surface_energy_EV_PER_ANG2", "weighted_surface_energy", "weighted_work_function", "surface_anisotropy", "shape_factor", "has_reconstructed", "possible_species", "has_props", "theoretical", "database_IDs"]}