{"builder_meta": null, "nsites": null, "elements": null, "nelements": null, "composition": null, "composition_reduced": null, "formula_pretty": "BiS2", "formula_anonymous": "AB2", "chemsys": null, "volume": 298.2536256622672, "density": 6.082212582499074, "density_atomic": 24.854468805188933, "symmetry": null, "property_name": null, "material_id": "mp-971673", "deprecated": null, "deprecation_reasons": null, "last_updated": null, "origins": null, "warnings": null, "structure": {"@module": "pymatgen.core.structure", "@class": "Structure", "charge": 0, "lattice": {"matrix": [[-1.2336020300000001, 3.85136748, 0.00096051], [-6.62109039, 0.00238017, -4.8184013], [-6.67551938, -0.01207228, 6.8360632599999995]], "pbc": [true, true, true], "a": 4.044107609473459, "b": 8.188762709078905, "c": 9.55481374111614, "alpha": 81.72548635234989, "beta": 77.75559453488859, "gamma": 75.71312036886991, "volume": 298.2536256622672}, "properties": {}, "sites": [{"species": [{"element": "Bi", "occu": 1}], "abc": [0.29973687, 0.30165886000000003, 0.09883325], "properties": {"magmom": 0.0}, "label": "Bi", "xyz": [-3.0268298660655866, 1.1539216903764837, -0.7775951937281195]}, {"species": [{"element": "Bi", "occu": 1}], "abc": [0.39096881, 0.82345531, 0.39378443], "properties": {"magmom": 0.0}, "label": "Bi", "xyz": [-8.56318755132541, 1.5029706482549012, -1.275427332461168]}, {"species": [{"element": "Bi", "occu": 1}], "abc": [0.60899179, 0.17654257, 0.6062824], "properties": {"magmom": 0.0}, "label": "Bi", "xyz": [-5.967407733003148, 2.338552166029954, 3.294516833735496]}, {"species": [{"element": "Bi", "occu": 1}], "abc": [0.70032573, 0.69833806, 0.90110324], "properties": {"magmom": -0.0}, "label": "Bi", "xyz": [-11.503014802227266, 2.6879955346073436, 2.795798406154406]}, {"species": [{"element": "S", "occu": 1}], "abc": [0.34176794, 0.471441799999999, 0.84449914], "properties": {"magmom": -0.0}, "label": "S", "xyz": [-9.180534771460547, 1.307201011373858, 3.501782033585311]}, {"species": [{"element": "S", "occu": 1}], "abc": [0.78876785, 0.07254683, 0.34981905], "properties": {"magmom": 0.0}, "label": "S", "xyz": [-3.788588587664888, 3.0337844070269453, 2.0425830347778273]}, {"species": [{"element": "S", "occu": 1}], "abc": [0.9218768700000001, 0.61704858, 0.53835568], "properties": {"magmom": -0.0}, "label": "S", "xyz": [-8.816567376616272, 3.545456097692296, 0.7079312767775665]}, {"species": [{"element": "S", "occu": 1}], "abc": [0.21120926, 0.92742914, 0.6502337300000001], "properties": {"magmom": 0.0}, "label": "S", "xyz": [-10.74178820429545, 0.8078021108010142, -0.023483993161798722]}, {"species": [{"element": "S", "occu": 1}], "abc": [0.03501284, 0.878092299999999, 0.05065399], "properties": {"magmom": 0.0}, "label": "S", "xyz": [-6.195262091482382, 0.136325813157737, -3.8846935696456293]}, {"species": [{"element": "S", "occu": 1}], "abc": [0.07805618, 0.38295831, 0.46173014], "properties": {"magmom": -0.0}, "label": "S", "xyz": [-5.7141803461138, 0.29596040361121995, 1.3112446010803052]}, {"species": [{"element": "S", "occu": 1}], "abc": [0.65826357, 0.52855461, 0.15545372], "properties": {"magmom": -0.0}, "label": "S", "xyz": [-5.3493774456413385, 2.534596275757906, -1.4834644872810456]}, {"species": [{"element": "S", "occu": 1}], "abc": [0.96502429, 0.12192263, 0.9492632200000001], "properties": {"magmom": 0.0}, "label": "S", "xyz": [-8.334541698791039, 3.7054935931167945, 5.902678178900666]}]}, "task_ids": null, "uncorrected_energy_per_atom": null, "energy_per_atom": -25.183829812499997, "formation_energy_per_atom": -0.326405842708335, "energy_above_hull": 0.018626120781256, "is_stable": false, "equilibrium_reaction_energy_per_atom": null, "decomposes_to": null, "xas": null, "grain_boundaries": null, "band_gap": 1.066599999999999, "cbm": null, "vbm": null, "efermi": 4.79604174, "is_gap_direct": null, "is_metal": null, "es_source_calc_id": null, "bandstructure": null, "dos": null, "dos_energy_up": null, "dos_energy_down": null, "is_magnetic": null, "ordering": null, "total_magnetization": 0.0, "total_magnetization_normalized_vol": null, "total_magnetization_normalized_formula_units": null, "num_magnetic_sites": null, "num_unique_magnetic_sites": null, "types_of_magnetic_species": null, "bulk_modulus": null, "shear_modulus": null, "universal_anisotropy": null, "homogeneous_poisson": null, "e_total": null, "e_ionic": null, "e_electronic": null, "n": null, "e_ij_max": null, "weighted_surface_energy_EV_PER_ANG2": null, "weighted_surface_energy": null, "weighted_work_function": null, "surface_anisotropy": null, "shape_factor": null, "has_reconstructed": null, "possible_species": null, "has_props": null, "theoretical": null, "database_IDs": null, "fields_not_requested": ["builder_meta", "nsites", "elements", "nelements", "composition", "composition_reduced", "chemsys", "symmetry", "property_name", "deprecated", "deprecation_reasons", "last_updated", "origins", "warnings", "task_ids", "uncorrected_energy_per_atom", "equilibrium_reaction_energy_per_atom", "decomposes_to", "xas", "grain_boundaries", "cbm", "vbm", "is_gap_direct", "is_metal", "es_source_calc_id", "bandstructure", "dos", "dos_energy_up", "dos_energy_down", "is_magnetic", "ordering", "total_magnetization_normalized_vol", "total_magnetization_normalized_formula_units", "num_magnetic_sites", "num_unique_magnetic_sites", "types_of_magnetic_species", "bulk_modulus", "shear_modulus", "universal_anisotropy", "homogeneous_poisson", "e_total", "e_ionic", "e_electronic", "n", "e_ij_max", "weighted_surface_energy_EV_PER_ANG2", "weighted_surface_energy", "weighted_work_function", "surface_anisotropy", "shape_factor", "has_reconstructed", "possible_species", "has_props", "theoretical", "database_IDs"]}