{"builder_meta": null, "nsites": null, "elements": null, "nelements": null, "composition": null, "composition_reduced": null, "formula_pretty": "BiS3", "formula_anonymous": "AB3", "chemsys": null, "volume": 170.13249144582247, "density": 5.9571886540749865, "density_atomic": 21.26656143072781, "symmetry": null, "property_name": null, "material_id": "mp-1183481", "deprecated": null, "deprecation_reasons": null, "last_updated": null, "origins": null, "warnings": null, "structure": {"@module": "pymatgen.core.structure", "@class": "Structure", "charge": 0, "lattice": {"matrix": [[3.539932, -6.131343, 0.0], [3.539932, 6.131343, 0.0], [0.0, 0.0, 3.919284]], "pbc": [true, true, true], "a": 7.079864797315906, "b": 7.079864797315906, "c": 3.919284, "alpha": 90.0, "beta": 90.0, "gamma": 120.00000745070653, "volume": 170.13249144582247}, "properties": {}, "sites": [{"species": [{"element": "Bi", "occu": 1}], "abc": [0.333333, 0.666667, 0.75], "properties": {"magmom": 0.0}, "label": "Bi", "xyz": [3.539932, 2.0437850875620005, 2.939463]}, {"species": [{"element": "Bi", "occu": 1}], "abc": [0.666667, 0.333333, 0.25], "properties": {"magmom": 0.0}, "label": "Bi", "xyz": [3.539932, -2.0437850875620005, 0.979821]}, {"species": [{"element": "S", "occu": 1}], "abc": [0.160489, 0.320978999999999, 0.25], "properties": {"magmom": -0.0}, "label": "S", "xyz": [1.7043639801759964, 0.984019238069994, 0.979821]}, {"species": [{"element": "S", "occu": 1}], "abc": [0.679021, 0.839511, 0.25], "properties": {"magmom": -0.0}, "label": "S", "xyz": [5.375500019824, 0.9840192380700001, 0.979821]}, {"species": [{"element": "S", "occu": 1}], "abc": [0.160489, 0.839511, 0.25], "properties": {"magmom": -0.0}, "label": "S", "xyz": [3.539932, 4.163316786546001, 0.979821]}, {"species": [{"element": "S", "occu": 1}], "abc": [0.839511, 0.679021, 0.75], "properties": {"magmom": -0.0}, "label": "S", "xyz": [5.375500019824, -0.9840192380700001, 2.939463]}, {"species": [{"element": "S", "occu": 1}], "abc": [0.320978999999999, 0.160489, 0.75], "properties": {"magmom": -0.0}, "label": "S", "xyz": [1.7043639801759964, -0.984019238069994, 2.939463]}, {"species": [{"element": "S", "occu": 1}], "abc": [0.839511, 0.160489, 0.75], "properties": {"magmom": -0.0}, "label": "S", "xyz": [3.539932, -4.163316786546001, 2.939463]}]}, "task_ids": null, "uncorrected_energy_per_atom": null, "energy_per_atom": -20.446325815664064, "formation_energy_per_atom": 0.205491932226561, "energy_above_hull": 0.464265904843749, "is_stable": false, "equilibrium_reaction_energy_per_atom": null, "decomposes_to": null, "xas": null, "grain_boundaries": null, "band_gap": 0.0, "cbm": null, "vbm": null, "efermi": 5.99556642, "is_gap_direct": null, "is_metal": null, "es_source_calc_id": null, "bandstructure": null, "dos": null, "dos_energy_up": null, "dos_energy_down": null, "is_magnetic": null, "ordering": null, "total_magnetization": 0.0008286999999990001, "total_magnetization_normalized_vol": null, "total_magnetization_normalized_formula_units": null, "num_magnetic_sites": null, "num_unique_magnetic_sites": null, "types_of_magnetic_species": null, "bulk_modulus": null, "shear_modulus": null, "universal_anisotropy": null, "homogeneous_poisson": null, "e_total": null, "e_ionic": null, "e_electronic": null, "n": null, "e_ij_max": null, "weighted_surface_energy_EV_PER_ANG2": null, "weighted_surface_energy": null, "weighted_work_function": null, "surface_anisotropy": null, "shape_factor": null, "has_reconstructed": null, "possible_species": null, "has_props": null, "theoretical": null, "database_IDs": null, "fields_not_requested": ["builder_meta", "nsites", "elements", "nelements", "composition", "composition_reduced", "chemsys", "symmetry", "property_name", "deprecated", "deprecation_reasons", "last_updated", "origins", "warnings", "task_ids", "uncorrected_energy_per_atom", "equilibrium_reaction_energy_per_atom", "decomposes_to", "xas", "grain_boundaries", "cbm", "vbm", "is_gap_direct", "is_metal", "es_source_calc_id", "bandstructure", "dos", "dos_energy_up", "dos_energy_down", "is_magnetic", "ordering", "total_magnetization_normalized_vol", "total_magnetization_normalized_formula_units", "num_magnetic_sites", "num_unique_magnetic_sites", "types_of_magnetic_species", "bulk_modulus", "shear_modulus", "universal_anisotropy", "homogeneous_poisson", "e_total", "e_ionic", "e_electronic", "n", "e_ij_max", "weighted_surface_energy_EV_PER_ANG2", "weighted_surface_energy", "weighted_work_function", "surface_anisotropy", "shape_factor", "has_reconstructed", "possible_species", "has_props", "theoretical", "database_IDs"]}