{"builder_meta": null, "nsites": null, "elements": null, "nelements": null, "composition": null, "composition_reduced": null, "formula_pretty": "BiSe2", "formula_anonymous": "AB2", "chemsys": null, "volume": 348.0593196046974, "density": 7.001708196673084, "density_atomic": 29.00494330039145, "symmetry": null, "property_name": null, "material_id": "mp-1095302", "deprecated": null, "deprecation_reasons": null, "last_updated": null, "origins": null, "warnings": null, "structure": {"@module": "pymatgen.core.structure", "@class": "Structure", "charge": 0, "lattice": {"matrix": [[2.09624525, 8.39741599, 0.00287077], [-2.09624525, 8.39741599, 0.00287077], [-0.0, 7.45530717, 9.88888801]], "pbc": [true, true, true], "a": 8.65510529679308, "b": 8.65510529679308, "c": 12.384333291436208, "alpha": 54.24386028750185, "beta": 54.24386028750185, "gamma": 28.032555180804653, "volume": 348.05931960469735}, "properties": {}, "sites": [{"species": [{"element": "Bi", "occu": 1}], "abc": [0.6957892800000001, 0.6957892800000001, 0.91212136], "properties": {"magmom": -0.0}, "label": "Bi", "xyz": [0.0, 18.48580896620333, 9.023860882551586]}, {"species": [{"element": "Bi", "occu": 1}], "abc": [0.30421072, 0.30421072, 0.08787864000000001], "properties": {"magmom": -0.0}, "label": "Bi", "xyz": [0.0, 5.764330183796675, 0.8707686674484153]}, {"species": [{"element": "Bi", "occu": 1}], "abc": [0.3860247, 0.3860247, 0.40488962], "properties": {"magmom": -0.0}, "label": "Bi", "xyz": [0.0, 9.501796463674482, 4.006124484847494]}, {"species": [{"element": "Bi", "occu": 1}], "abc": [0.6139753, 0.6139753, 0.59511038], "properties": {"magmom": -0.0}, "label": "Bi", "xyz": [0.0, 14.748342686325522, 5.888505065152507]}, {"species": [{"element": "Se", "occu": 1}], "abc": [0.03598558, 0.03598558, 0.058173699999999], "properties": {"magmom": 0.0}, "label": "Se", "xyz": [0.0, 1.03807457251827, 0.5754798170743204]}, {"species": [{"element": "Se", "occu": 1}], "abc": [0.96401442, 0.96401442, 0.9418263], "properties": {"magmom": 0.0}, "label": "Se", "xyz": [0.0, 23.212064577481723, 9.319149732925672]}, {"species": [{"element": "Se", "occu": 1}], "abc": [0.9144219, 0.9144219, 0.54768529], "properties": {"magmom": 0.0}, "label": "Se", "xyz": [0.0, 19.440724238772894, 5.421248687450099]}, {"species": [{"element": "Se", "occu": 1}], "abc": [0.085578099999999, 0.085578099999999, 0.45231471], "properties": {"magmom": 0.0}, "label": "Se", "xyz": [0.0, 4.809414911227092, 4.473380862549901]}, {"species": [{"element": "Se", "occu": 1}], "abc": [0.65725614, 0.65725614, 0.15907754], "properties": {"magmom": -0.0}, "label": "Se", "xyz": [0.0, 12.22447836367132, 1.5768736403843508]}, {"species": [{"element": "Se", "occu": 1}], "abc": [0.34274386, 0.34274386, 0.84092246], "properties": {"magmom": -0.0}, "label": "Se", "xyz": [0.0, 12.025660786328682, 8.317755909615649]}, {"species": [{"element": "Se", "occu": 1}], "abc": [0.20777549, 0.20777549, 0.65466402], "properties": {"magmom": 0.0}, "label": "Se", "xyz": [0.0, 8.370275806359194, 6.475092129243255]}, {"species": [{"element": "Se", "occu": 1}], "abc": [0.79222451, 0.79222451, 0.34533598], "properties": {"magmom": 0.0}, "label": "Se", "xyz": [0.0, 15.879863343640809, 3.4195374207567455]}]}, "task_ids": null, "uncorrected_energy_per_atom": null, "energy_per_atom": -29.3823897125, "formation_energy_per_atom": -0.34059164354166604, "energy_above_hull": 0.021139135989585, "is_stable": false, "equilibrium_reaction_energy_per_atom": null, "decomposes_to": null, "xas": null, "grain_boundaries": null, "band_gap": 0.6721, "cbm": null, "vbm": null, "efermi": 3.84534036, "is_gap_direct": null, "is_metal": null, "es_source_calc_id": null, "bandstructure": null, "dos": null, "dos_energy_up": null, "dos_energy_down": null, "is_magnetic": null, "ordering": null, "total_magnetization": 0.0, "total_magnetization_normalized_vol": null, "total_magnetization_normalized_formula_units": null, "num_magnetic_sites": null, "num_unique_magnetic_sites": null, "types_of_magnetic_species": null, "bulk_modulus": null, "shear_modulus": null, "universal_anisotropy": null, "homogeneous_poisson": null, "e_total": null, "e_ionic": null, "e_electronic": null, "n": null, "e_ij_max": null, "weighted_surface_energy_EV_PER_ANG2": null, "weighted_surface_energy": null, "weighted_work_function": null, "surface_anisotropy": null, "shape_factor": null, "has_reconstructed": null, "possible_species": null, "has_props": null, "theoretical": null, "database_IDs": null, "fields_not_requested": ["builder_meta", "nsites", "elements", "nelements", "composition", "composition_reduced", "chemsys", "symmetry", "property_name", "deprecated", "deprecation_reasons", "last_updated", "origins", "warnings", "task_ids", "uncorrected_energy_per_atom", "equilibrium_reaction_energy_per_atom", "decomposes_to", "xas", "grain_boundaries", "cbm", "vbm", "is_gap_direct", "is_metal", "es_source_calc_id", "bandstructure", "dos", "dos_energy_up", "dos_energy_down", "is_magnetic", "ordering", "total_magnetization_normalized_vol", "total_magnetization_normalized_formula_units", "num_magnetic_sites", "num_unique_magnetic_sites", "types_of_magnetic_species", "bulk_modulus", "shear_modulus", "universal_anisotropy", "homogeneous_poisson", "e_total", "e_ionic", "e_electronic", "n", "e_ij_max", "weighted_surface_energy_EV_PER_ANG2", "weighted_surface_energy", "weighted_work_function", "surface_anisotropy", "shape_factor", "has_reconstructed", "possible_species", "has_props", "theoretical", "database_IDs"]}