{"builder_meta": null, "nsites": null, "elements": null, "nelements": null, "composition": null, "composition_reduced": null, "formula_pretty": "BiTe3", "formula_anonymous": "AB3", "chemsys": null, "volume": 133.8100647375016, "density": 7.343800894020271, "density_atomic": 33.4525161843754, "symmetry": null, "property_name": null, "material_id": "mp-35216", "deprecated": null, "deprecation_reasons": null, "last_updated": null, "origins": null, "warnings": null, "structure": {"@module": "pymatgen.core.structure", "@class": "Structure", "charge": 0, "lattice": {"matrix": [[8.384649, -2.158399, 0.0], [8.384649, 2.158399, 0.0], [7.829028, 0.0, 3.696938]], "pbc": [true, true, true], "a": 8.658003528320025, "b": 8.658003528320025, "c": 8.65800381153924, "alpha": 28.87162787175871, "beta": 28.87162787175871, "gamma": 28.871623176392642, "volume": 133.8100647375016}, "properties": {}, "sites": [{"species": [{"element": "Bi", "occu": 1}], "abc": [0.607435, 0.607435, 0.607435], "properties": {"magmom": -0.001}, "label": "Bi", "xyz": [14.941884153809998, 0.0, 2.2456495340299996]}, {"species": [{"element": "Te", "occu": 1}], "abc": [0.776523, 0.776523, 0.776523], "properties": {"magmom": 0.001}, "label": "Te", "xyz": [19.101165900497996, 0.0, 2.8707573865739997]}, {"species": [{"element": "Te", "occu": 1}], "abc": [0.022723, 0.022723, 0.022723], "properties": {"magmom": 0.0}, "label": "Te", "xyz": [0.558947761698, 0.0, 0.084005522174]}, {"species": [{"element": "Te", "occu": 1}], "abc": [0.19482000000000002, 0.19482000000000002, 0.19482000000000002], "properties": {"magmom": 0.0}, "label": "Te", "xyz": [4.7922458713200005, 0.0, 0.7202374611600001]}]}, "task_ids": null, "uncorrected_energy_per_atom": null, "energy_per_atom": -33.822222905000004, "formation_energy_per_atom": -0.133736236250001, "energy_above_hull": 0.037764391249993, "is_stable": false, "equilibrium_reaction_energy_per_atom": null, "decomposes_to": null, "xas": null, "grain_boundaries": null, "band_gap": 0.0, "cbm": null, "vbm": null, "efermi": 5.96835026, "is_gap_direct": null, "is_metal": null, "es_source_calc_id": null, "bandstructure": null, "dos": null, "dos_energy_up": null, "dos_energy_down": null, "is_magnetic": null, "ordering": null, "total_magnetization": 0.0043132, "total_magnetization_normalized_vol": null, "total_magnetization_normalized_formula_units": null, "num_magnetic_sites": null, "num_unique_magnetic_sites": null, "types_of_magnetic_species": null, "bulk_modulus": null, "shear_modulus": null, "universal_anisotropy": null, "homogeneous_poisson": null, "e_total": null, "e_ionic": null, "e_electronic": null, "n": null, "e_ij_max": null, "weighted_surface_energy_EV_PER_ANG2": null, "weighted_surface_energy": null, "weighted_work_function": null, "surface_anisotropy": null, "shape_factor": null, "has_reconstructed": null, "possible_species": null, "has_props": null, "theoretical": null, "database_IDs": null, "fields_not_requested": ["builder_meta", "nsites", "elements", "nelements", "composition", "composition_reduced", "chemsys", "symmetry", "property_name", "deprecated", "deprecation_reasons", "last_updated", "origins", "warnings", "task_ids", "uncorrected_energy_per_atom", "equilibrium_reaction_energy_per_atom", "decomposes_to", "xas", "grain_boundaries", "cbm", "vbm", "is_gap_direct", "is_metal", "es_source_calc_id", "bandstructure", "dos", "dos_energy_up", "dos_energy_down", "is_magnetic", "ordering", "total_magnetization_normalized_vol", "total_magnetization_normalized_formula_units", "num_magnetic_sites", "num_unique_magnetic_sites", "types_of_magnetic_species", "bulk_modulus", "shear_modulus", "universal_anisotropy", "homogeneous_poisson", "e_total", "e_ionic", "e_electronic", "n", "e_ij_max", "weighted_surface_energy_EV_PER_ANG2", "weighted_surface_energy", "weighted_work_function", "surface_anisotropy", "shape_factor", "has_reconstructed", "possible_species", "has_props", "theoretical", "database_IDs"]}