{"builder_meta": null, "nsites": null, "elements": null, "nelements": null, "composition": null, "composition_reduced": null, "formula_pretty": "BiTe", "formula_anonymous": "AB", "chemsys": null, "volume": 430.94973280310643, "density": 7.78148624828885, "density_atomic": 35.912477733592205, "symmetry": null, "property_name": null, "material_id": "mp-23224", "deprecated": null, "deprecation_reasons": null, "last_updated": null, "origins": null, "warnings": null, "structure": {"@module": "pymatgen.core.structure", "@class": "Structure", "charge": 0, "lattice": {"matrix": [[4.44665846, -1e-08, 0.0], [-2.22333074, 3.85091937, -0.0], [-0.0, 0.0, 25.16682432]], "pbc": [true, true, true], "a": 4.44665846, "b": 4.446659372345732, "c": 25.16682432, "alpha": 90.0, "beta": 90.0, "gamma": 120.00001580818305, "volume": 430.94973280310643}, "properties": {}, "sites": [{"species": [{"element": "Bi", "occu": 1}], "abc": [0.333333, 0.666667, 0.29057202], "properties": {"magmom": -0.0}, "label": "Bi", "xyz": [-3.229996400122559e-06, 2.56728086030646, 7.312774979647526]}, {"species": [{"element": "Bi", "occu": 1}], "abc": [0.666667, 0.333333, 0.7094279800000001], "properties": {"magmom": -0.0}, "label": "Bi", "xyz": [2.2233309499964, 1.28363849969354, 17.854049340352475]}, {"species": [{"element": "Bi", "occu": 1}], "abc": [-0.0, 0.0, 0.87078411], "properties": {"magmom": 0.0}, "label": "Bi", "xyz": [0.0, 0.0, 21.914870717017553]}, {"species": [{"element": "Bi", "occu": 1}], "abc": [0.0, -0.0, 0.12921589], "properties": {"magmom": 0.0}, "label": "Bi", "xyz": [0.0, 0.0, 3.2519536029824447]}, {"species": [{"element": "Bi", "occu": 1}], "abc": [0.666667, 0.333333, 0.46711053], "properties": {"magmom": -0.0}, "label": "Bi", "xyz": [2.2233309499964, 1.28363849969354, 11.75568864653209]}, {"species": [{"element": "Bi", "occu": 1}], "abc": [0.333333, 0.666667, 0.53288947], "properties": {"magmom": -0.0}, "label": "Bi", "xyz": [-3.229996400122559e-06, 2.56728086030646, 13.41113567346791]}, {"species": [{"element": "Te", "occu": 1}], "abc": [0.333333, 0.666667, 0.0621266], "properties": {"magmom": -0.0}, "label": "Te", "xyz": [-3.229996400122559e-06, 2.56728086030646, 1.563529227798912]}, {"species": [{"element": "Te", "occu": 1}], "abc": [0.666667, 0.333333, 0.9378734], "properties": {"magmom": -0.0}, "label": "Te", "xyz": [2.2233309499964, 1.28363849969354, 23.603295092201087]}, {"species": [{"element": "Te", "occu": 1}], "abc": [0.0, -0.0, 0.64133715], "properties": {"magmom": 0.0}, "label": "Te", "xyz": [0.0, 0.0, 16.140419383939488]}, {"species": [{"element": "Te", "occu": 1}], "abc": [-0.0, 0.0, 0.35866285000000003], "properties": {"magmom": 0.0}, "label": "Te", "xyz": [0.0, 0.0, 9.026404936060512]}, {"species": [{"element": "Te", "occu": 1}], "abc": [0.666667, 0.333333, 0.21043369], "properties": {"magmom": 0.0}, "label": "Te", "xyz": [2.2233309499964, 1.28363849969354, 5.295947707239341]}, {"species": [{"element": "Te", "occu": 1}], "abc": [0.333333, 0.666667, 0.78956631], "properties": {"magmom": 0.0}, "label": "Te", "xyz": [-3.229996400122559e-06, 2.56728086030646, 19.870876612760657]}]}, "task_ids": null, "uncorrected_energy_per_atom": null, "energy_per_atom": -42.18808335333333, "formation_energy_per_atom": -0.22833432583333502, "energy_above_hull": 0.00033317749999600005, "is_stable": false, "equilibrium_reaction_energy_per_atom": null, "decomposes_to": null, "xas": null, "grain_boundaries": null, "band_gap": 0.0, "cbm": null, "vbm": null, "efermi": 5.21147221, "is_gap_direct": null, "is_metal": null, "es_source_calc_id": null, "bandstructure": null, "dos": null, "dos_energy_up": null, "dos_energy_down": null, "is_magnetic": null, "ordering": null, "total_magnetization": 0.0, "total_magnetization_normalized_vol": null, "total_magnetization_normalized_formula_units": null, "num_magnetic_sites": null, "num_unique_magnetic_sites": null, "types_of_magnetic_species": null, "bulk_modulus": null, "shear_modulus": null, "universal_anisotropy": null, "homogeneous_poisson": null, "e_total": null, "e_ionic": null, "e_electronic": null, "n": null, "e_ij_max": null, "weighted_surface_energy_EV_PER_ANG2": null, "weighted_surface_energy": null, "weighted_work_function": null, "surface_anisotropy": null, "shape_factor": null, "has_reconstructed": null, "possible_species": null, "has_props": null, "theoretical": null, "database_IDs": null, "fields_not_requested": ["builder_meta", "nsites", "elements", "nelements", "composition", "composition_reduced", "chemsys", "symmetry", "property_name", "deprecated", "deprecation_reasons", "last_updated", "origins", "warnings", "task_ids", "uncorrected_energy_per_atom", "equilibrium_reaction_energy_per_atom", "decomposes_to", "xas", "grain_boundaries", "cbm", "vbm", "is_gap_direct", "is_metal", "es_source_calc_id", "bandstructure", "dos", "dos_energy_up", "dos_energy_down", "is_magnetic", "ordering", "total_magnetization_normalized_vol", "total_magnetization_normalized_formula_units", "num_magnetic_sites", "num_unique_magnetic_sites", "types_of_magnetic_species", "bulk_modulus", "shear_modulus", "universal_anisotropy", "homogeneous_poisson", "e_total", "e_ionic", "e_electronic", "n", "e_ij_max", "weighted_surface_energy_EV_PER_ANG2", "weighted_surface_energy", "weighted_work_function", "surface_anisotropy", "shape_factor", "has_reconstructed", "possible_species", "has_props", "theoretical", "database_IDs"]}