{"builder_meta": null, "nsites": null, "elements": null, "nelements": null, "composition": null, "composition_reduced": null, "formula_pretty": "BMo", "formula_anonymous": "AB", "chemsys": null, "volume": 82.49057964821426, "density": 8.595609663773478, "density_atomic": 10.311322456026783, "symmetry": null, "property_name": null, "material_id": "mp-1890", "deprecated": null, "deprecation_reasons": null, "last_updated": null, "origins": null, "warnings": null, "structure": {"@module": "pymatgen.core.structure", "@class": "Structure", "charge": 0, "lattice": {"matrix": [[3.06664442, -0.00038134000000000003, -0.55373681], [-0.10025803, 3.065003169999999, -0.55373626], [-0.00026793, -0.00027625, 8.77640622]], "pbc": [true, true, true], "a": 3.116236929196223, "b": 3.1162348997353058, "c": 8.776406228437427, "alpha": 100.23721615172401, "beta": 100.23722329873402, "gamma": 90.01180255047167, "volume": 82.49057964821422}, "properties": {}, "sites": [{"species": [{"element": "B", "occu": 1}], "abc": [0.46953659000000003, 0.71955242, 0.43932981], "properties": {"magmom": -0.0}, "label": "B", "xyz": [1.367643145962402, 2.2051300303379278, 3.197294917665791]}, {"species": [{"element": "B", "occu": 1}], "abc": [0.2195595, 0.96954297, 0.93934429], "properties": {"magmom": -0.0}, "label": "B", "xyz": [0.5758547688448211, 2.9713090558213713, 7.585617794225197]}, {"species": [{"element": "B", "occu": 1}], "abc": [0.53045977, 0.28044325000000003, 0.56066121], "properties": {"magmom": 0.0}, "label": "B", "xyz": [1.5984645879751904, 0.859202282067148, 4.471563833486348]}, {"species": [{"element": "B", "occu": 1}], "abc": [0.78044672, 0.03046257, 0.06066847], "properties": {"magmom": -0.0}, "label": "B", "xyz": [2.3902822068351983, 0.09305349839930457, 0.08342083077633206]}, {"species": [{"element": "Mo", "occu": 1}], "abc": [0.32170548, 0.57176868, 0.14366857], "properties": {"magmom": -0.0}, "label": "Mo", "xyz": [0.9291934205329611, 1.7523104490965093, 0.7661445146634498]}, {"species": [{"element": "Mo", "occu": 1}], "abc": [0.07176437000000001, 0.82170183, 0.643660599999999], "properties": {"magmom": 0.0}, "label": "Mo", "xyz": [0.1375211421075625, 2.5183135358791944, 5.154282221914109]}, {"species": [{"element": "Mo", "occu": 1}], "abc": [0.67831043, 0.42824793, 0.85636391], "properties": {"magmom": 0.0}, "label": "Mo", "xyz": [2.0369721557915166, 1.312086025566424, 6.90305568549865]}, {"species": [{"element": "Mo", "occu": 1}], "abc": [0.92821716, 0.17828036, 0.35630315], "properties": {"magmom": 0.0}, "label": "Mo", "xyz": [2.8285424722779764, 0.5459774734717591, 2.51435287292208]}]}, "task_ids": null, "uncorrected_energy_per_atom": null, "energy_per_atom": -17.23313005625, "formation_energy_per_atom": -0.5239632375000021, "energy_above_hull": 0.0, "is_stable": true, "equilibrium_reaction_energy_per_atom": null, "decomposes_to": null, "xas": null, "grain_boundaries": null, "band_gap": 0.0, "cbm": null, "vbm": null, "efermi": 9.71915682, "is_gap_direct": null, "is_metal": null, "es_source_calc_id": null, "bandstructure": null, "dos": null, "dos_energy_up": null, "dos_energy_down": null, "is_magnetic": null, "ordering": null, "total_magnetization": 0.0, "total_magnetization_normalized_vol": null, "total_magnetization_normalized_formula_units": null, "num_magnetic_sites": null, "num_unique_magnetic_sites": null, "types_of_magnetic_species": null, "bulk_modulus": null, "shear_modulus": null, "universal_anisotropy": null, "homogeneous_poisson": null, "e_total": null, "e_ionic": null, "e_electronic": null, "n": null, "e_ij_max": null, "weighted_surface_energy_EV_PER_ANG2": null, "weighted_surface_energy": null, "weighted_work_function": null, "surface_anisotropy": null, "shape_factor": null, "has_reconstructed": null, "possible_species": null, "has_props": null, "theoretical": null, "database_IDs": null, "fields_not_requested": ["builder_meta", "nsites", "elements", "nelements", "composition", "composition_reduced", "chemsys", "symmetry", "property_name", "deprecated", "deprecation_reasons", "last_updated", "origins", "warnings", "task_ids", "uncorrected_energy_per_atom", "equilibrium_reaction_energy_per_atom", "decomposes_to", "xas", "grain_boundaries", "cbm", "vbm", "is_gap_direct", "is_metal", "es_source_calc_id", "bandstructure", "dos", "dos_energy_up", "dos_energy_down", "is_magnetic", "ordering", "total_magnetization_normalized_vol", "total_magnetization_normalized_formula_units", "num_magnetic_sites", "num_unique_magnetic_sites", "types_of_magnetic_species", "bulk_modulus", "shear_modulus", "universal_anisotropy", "homogeneous_poisson", "e_total", "e_ionic", "e_electronic", "n", "e_ij_max", "weighted_surface_energy_EV_PER_ANG2", "weighted_surface_energy", "weighted_work_function", "surface_anisotropy", "shape_factor", "has_reconstructed", "possible_species", "has_props", "theoretical", "database_IDs"]}