{"builder_meta": null, "nsites": null, "elements": null, "nelements": null, "composition": null, "composition_reduced": null, "formula_pretty": "BMo2", "formula_anonymous": "AB2", "chemsys": null, "volume": 73.02688124414423, "density": 9.217874793885146, "density_atomic": 12.17114687402404, "symmetry": null, "property_name": null, "material_id": "mp-2501", "deprecated": null, "deprecation_reasons": null, "last_updated": null, "origins": null, "warnings": null, "structure": {"@module": "pymatgen.core.structure", "@class": "Structure", "charge": 0, "lattice": {"matrix": [[4.41698913, 0.00356734, -1.22750193], [-2.55042574, 3.60626414, -1.22750192], [-0.0018447700000000001, -0.00356735, 4.58438201]], "pbc": [true, true, true], "a": 4.584382912520131, "b": 4.584383651736422, "c": 4.5843837691421525, "alpha": 105.55393691522832, "beta": 105.55394300521014, "gamma": 117.62671602430888, "volume": 73.02688124414423}, "properties": {}, "sites": [{"species": [{"element": "B", "occu": 1}], "abc": [0.75, 0.75, -0.0], "properties": {"magmom": -0.0}, "label": "B", "xyz": [1.3999225424999997, 2.70737361, -1.8412528875]}, {"species": [{"element": "B", "occu": 1}], "abc": [0.25, 0.25, -0.0], "properties": {"magmom": -0.0}, "label": "B", "xyz": [0.4666408475, 0.90245787, -0.6137509624999999]}, {"species": [{"element": "Mo", "occu": 1}], "abc": [0.830027499999999, 0.6699725, 0.5], "properties": {"magmom": 0.0}, "label": "Mo", "xyz": [1.956584951008921, 2.4172751168380002, 0.45093811669972594]}, {"species": [{"element": "Mo", "occu": 1}], "abc": [0.3300275, 0.830027499999999, 0.160054], "properties": {"magmom": 0.0}, "label": "Mo", "xyz": [-0.6594908836243526, 2.9939047601287965, -0.6902210648773338]}, {"species": [{"element": "Mo", "occu": 1}], "abc": [0.1699725, 0.3300275, 0.5], "properties": {"magmom": 0.0}, "label": "Mo", "xyz": [-0.09186633100892486, 1.188989013162, 1.6784400433002749]}, {"species": [{"element": "Mo", "occu": 1}], "abc": [0.6699725, 0.1699725, 0.839946], "properties": {"magmom": 0.0}, "label": "Mo", "xyz": [2.524209503624355, 0.6123593698712, 2.8195992248773343]}]}, "task_ids": null, "uncorrected_energy_per_atom": null, "energy_per_atom": -20.152267473333335, "formation_energy_per_atom": -0.32216311416666804, "energy_above_hull": 0.027145710833330002, "is_stable": false, "equilibrium_reaction_energy_per_atom": null, "decomposes_to": null, "xas": null, "grain_boundaries": null, "band_gap": 0.0, "cbm": null, "vbm": null, "efermi": 8.6262136, "is_gap_direct": null, "is_metal": null, "es_source_calc_id": null, "bandstructure": null, "dos": null, "dos_energy_up": null, "dos_energy_down": null, "is_magnetic": null, "ordering": null, "total_magnetization": 1e-07, "total_magnetization_normalized_vol": null, "total_magnetization_normalized_formula_units": null, "num_magnetic_sites": null, "num_unique_magnetic_sites": null, "types_of_magnetic_species": null, "bulk_modulus": null, "shear_modulus": null, "universal_anisotropy": null, "homogeneous_poisson": null, "e_total": null, "e_ionic": null, "e_electronic": null, "n": null, "e_ij_max": null, "weighted_surface_energy_EV_PER_ANG2": null, "weighted_surface_energy": null, "weighted_work_function": null, "surface_anisotropy": null, "shape_factor": null, "has_reconstructed": null, "possible_species": null, "has_props": null, "theoretical": null, "database_IDs": null, "fields_not_requested": ["builder_meta", "nsites", "elements", "nelements", "composition", "composition_reduced", "chemsys", "symmetry", "property_name", "deprecated", "deprecation_reasons", "last_updated", "origins", "warnings", "task_ids", "uncorrected_energy_per_atom", "equilibrium_reaction_energy_per_atom", "decomposes_to", "xas", "grain_boundaries", "cbm", "vbm", "is_gap_direct", "is_metal", "es_source_calc_id", "bandstructure", "dos", "dos_energy_up", "dos_energy_down", "is_magnetic", "ordering", "total_magnetization_normalized_vol", "total_magnetization_normalized_formula_units", "num_magnetic_sites", "num_unique_magnetic_sites", "types_of_magnetic_species", "bulk_modulus", "shear_modulus", "universal_anisotropy", "homogeneous_poisson", "e_total", "e_ionic", "e_electronic", "n", "e_ij_max", "weighted_surface_energy_EV_PER_ANG2", "weighted_surface_energy", "weighted_work_function", "surface_anisotropy", "shape_factor", "has_reconstructed", "possible_species", "has_props", "theoretical", "database_IDs"]}