{
  "builder_meta": null,
  "nsites": null,
  "elements": null,
  "nelements": null,
  "composition": null,
  "composition_reduced": null,
  "formula_pretty": "BO3",
  "formula_anonymous": "AB3",
  "chemsys": null,
  "volume": 227.4055016308825,
  "density": 1.717724037020057,
  "density_atomic": 14.212843851930156,
  "symmetry": null,
  "property_name": null,
  "material_id": "mp-1214764",
  "deprecated": null,
  "deprecation_reasons": null,
  "last_updated": null,
  "origins": null,
  "warnings": null,
  "structure": {
    "@module": "pymatgen.core.structure",
    "@class": "Structure",
    "charge": 0,
    "lattice": {
      "matrix": [
        [6.18336, -0.09413, -0.257037],
        [-1.529742999999999, 5.478667, -3.38769],
        [0.029637, -0.033672, 6.761206]
      ],
      "pbc": [true, true, true],
      "a": 6.189415914758759,
      "b": 6.620600371494868,
      "c": 6.761354799874726,
      "alpha": 121.11864025884233,
      "beta": 92.12460287359566,
      "gamma": 102.83636553363256,
      "volume": 227.4055016308825
    },
    "properties": {},
    "sites": [
      {
        "species": [{ "element": "B", "occu": 1 }],
        "abc": [0.749657999999999, 0.347842999999999, 0.077473],
        "properties": { "magmom": -0.085 },
        "label": "B",
        "xyz": [4.105590963831996, 1.8325419868849946, -0.8472631835779967]
      },
      {
        "species": [{ "element": "B", "occu": 1 }],
        "abc": [0.250342, 0.652157, 0.922527],
        "properties": { "magmom": -0.085 },
        "label": "B",
        "xyz": [0.5776630361680007, 3.518323013115, 3.9637421835779993]
      },
      {
        "species": [{ "element": "B", "occu": 1 }],
        "abc": [0.241877999999999, 0.298145999999999, 0.251865],
        "properties": { "magmom": -0.085 },
        "label": "B",
        "xyz": [1.0469965166069957, 1.6021938769619948, 0.6307133309640034]
      },
      {
        "species": [{ "element": "B", "occu": 1 }],
        "abc": [0.758122, 0.701854, 0.748135],
        "properties": { "magmom": -0.085 },
        "label": "B",
        "xyz": [3.636257483393001, 3.748671123038, 2.4857656690359993]
      },
      {
        "species": [{ "element": "O", "occu": 1 }],
        "abc": [0.251627, 0.410045999999999, 0.792694],
        "properties": { "magmom": 0.891 },
        "label": "O",
        "xyz": [0.9521284006200019, 2.1961282468039944, 3.9057812460250028]
      },
      {
        "species": [{ "element": "O", "occu": 1 }],
        "abc": [0.748373, 0.589954, 0.207306],
        "properties": { "magmom": 0.891 },
        "label": "O",
        "xyz": [3.7311255993800003, 3.1547367531959996, -0.7893022460250003]
      },
      {
        "species": [{ "element": "O", "occu": 1 }],
        "abc": [0.243284, 0.540667, 0.384978],
        "properties": { "magmom": 0.872 },
        "label": "O",
        "xyz": [0.6886405886450008, 2.9262711487529995, 0.7087703847299995]
      },
      {
        "species": [{ "element": "O", "occu": 1 }],
        "abc": [0.7567159999999991, 0.459333, 0.615022],
        "properties": { "magmom": 0.872 },
        "label": "O",
        "xyz": [3.994613411354995, 2.424593851247, 2.4077086152699994]
      },
      {
        "species": [{ "element": "O", "occu": 1 }],
        "abc": [0.245051, 0.754178999999999, 0.158805],
        "properties": { "magmom": 0.888 },
        "label": "O",
        "xyz": [0.36624500914800223, 4.103481666802995, -1.544198511566997]
      },
      {
        "species": [{ "element": "O", "occu": 1 }],
        "abc": [0.754949, 0.245820999999999, 0.841194999999999],
        "properties": { "magmom": 0.888 },
        "label": "O",
        "xyz": [4.317008990852002, 1.2473833331969948, 4.6606775115669965]
      },
      {
        "species": [{ "element": "O", "occu": 1 }],
        "abc": [0.247116, 0.191825, 0.016554],
        "properties": { "magmom": 0.8140000000000001 },
        "label": "O",
        "xyz": [1.2350548496830003, 1.027126861907, -0.601436585418]
      },
      {
        "species": [{ "element": "O", "occu": 1 }],
        "abc": [0.752884, 0.808175, 0.983445999999999],
        "properties": { "magmom": 0.8140000000000001 },
        "label": "O",
        "xyz": [3.448199150317001, 4.323738138093, 3.7179155854179933]
      },
      {
        "species": [{ "element": "O", "occu": 1 }],
        "abc": [0.753556999999999, 0.219752, 0.183701],
        "properties": { "magmom": 0.812 },
        "label": "O",
        "xyz": [4.328794474320994, 1.126830130102, 0.3038966199170001]
      },
      {
        "species": [{ "element": "O", "occu": 1 }],
        "abc": [0.246443, 0.780247999999999, 0.816299],
        "properties": { "magmom": 0.812 },
        "label": "O",
        "xyz": [0.35445952567900224, 4.224034869897995, 2.8125823800830023]
      },
      {
        "species": [{ "element": "O", "occu": 1 }],
        "abc": [0.245446, 0.171634999999999, 0.361585],
        "properties": { "magmom": 0.9 },
        "label": "O",
        "xyz": [1.2658398334000016, 0.9050518884449946, 1.8002157948580029]
      },
      {
        "species": [{ "element": "O", "occu": 1 }],
        "abc": [0.754554, 0.828365, 0.638415],
        "properties": { "magmom": 0.9 },
        "label": "O",
        "xyz": [3.4174141666000004, 4.445813111554999, 1.3162632051419987]
      }
    ]
  },
  "task_ids": null,
  "uncorrected_energy_per_atom": null,
  "energy_per_atom": -6.29554822,
  "formation_energy_per_atom": -0.914729523541666,
  "energy_above_hull": 0.834055670208333,
  "is_stable": false,
  "equilibrium_reaction_energy_per_atom": null,
  "decomposes_to": null,
  "xas": null,
  "grain_boundaries": null,
  "band_gap": 0.0,
  "cbm": null,
  "vbm": null,
  "efermi": -2.85999203,
  "is_gap_direct": null,
  "is_metal": null,
  "es_source_calc_id": null,
  "bandstructure": null,
  "dos": null,
  "dos_energy_up": null,
  "dos_energy_down": null,
  "is_magnetic": null,
  "ordering": null,
  "total_magnetization": 12.0008587,
  "total_magnetization_normalized_vol": null,
  "total_magnetization_normalized_formula_units": null,
  "num_magnetic_sites": null,
  "num_unique_magnetic_sites": null,
  "types_of_magnetic_species": null,
  "bulk_modulus": null,
  "shear_modulus": null,
  "universal_anisotropy": null,
  "homogeneous_poisson": null,
  "e_total": null,
  "e_ionic": null,
  "e_electronic": null,
  "n": null,
  "e_ij_max": null,
  "weighted_surface_energy_EV_PER_ANG2": null,
  "weighted_surface_energy": null,
  "weighted_work_function": null,
  "surface_anisotropy": null,
  "shape_factor": null,
  "has_reconstructed": null,
  "possible_species": null,
  "has_props": null,
  "theoretical": null,
  "database_IDs": null,
  "fields_not_requested": [
    "builder_meta",
    "nsites",
    "elements",
    "nelements",
    "composition",
    "composition_reduced",
    "chemsys",
    "symmetry",
    "property_name",
    "deprecated",
    "deprecation_reasons",
    "last_updated",
    "origins",
    "warnings",
    "task_ids",
    "uncorrected_energy_per_atom",
    "equilibrium_reaction_energy_per_atom",
    "decomposes_to",
    "xas",
    "grain_boundaries",
    "cbm",
    "vbm",
    "is_gap_direct",
    "is_metal",
    "es_source_calc_id",
    "bandstructure",
    "dos",
    "dos_energy_up",
    "dos_energy_down",
    "is_magnetic",
    "ordering",
    "total_magnetization_normalized_vol",
    "total_magnetization_normalized_formula_units",
    "num_magnetic_sites",
    "num_unique_magnetic_sites",
    "types_of_magnetic_species",
    "bulk_modulus",
    "shear_modulus",
    "universal_anisotropy",
    "homogeneous_poisson",
    "e_total",
    "e_ionic",
    "e_electronic",
    "n",
    "e_ij_max",
    "weighted_surface_energy_EV_PER_ANG2",
    "weighted_surface_energy",
    "weighted_work_function",
    "surface_anisotropy",
    "shape_factor",
    "has_reconstructed",
    "possible_species",
    "has_props",
    "theoretical",
    "database_IDs"
  ]
}
