{"builder_meta": null, "nsites": null, "elements": null, "nelements": null, "composition": null, "composition_reduced": null, "formula_pretty": "BPb3", "formula_anonymous": "AB3", "chemsys": null, "volume": 215.22457188740466, "density": 9.75858065311388, "density_atomic": 26.903071485925583, "symmetry": null, "property_name": null, "material_id": "mp-1183296", "deprecated": null, "deprecation_reasons": null, "last_updated": null, "origins": null, "warnings": null, "structure": {"@module": "pymatgen.core.structure", "@class": "Structure", "charge": 0, "lattice": {"matrix": [[6.497065, -0.009344, 0.0], [-3.256619, 5.619527, 0.0], [0.0, 0.0, 5.899796]], "pbc": [true, true, true], "a": 6.497071719210201, "b": 6.494971209704474, "c": 5.899796, "alpha": 90.0, "beta": 90.0, "gamma": 120.17548086949661, "volume": 215.22457188740466}, "properties": {}, "sites": [{"species": [{"element": "B", "occu": 1}], "abc": [0.333261, 0.666724, 0.750000999999999], "properties": {"magmom": 0.007}, "label": "B", "xyz": [-0.006047667191000361, 3.7435595287639996, 4.424852899795995]}, {"species": [{"element": "B", "occu": 1}], "abc": [0.666743, 0.33327, 0.250001], "properties": {"magmom": 0.007}, "label": "B", "xyz": [3.246539195165, 1.866589716698, 1.4749548997959998]}, {"species": [{"element": "Pb", "occu": 1}], "abc": [0.169656, 0.339486, 0.250001], "properties": {"magmom": -0.002}, "label": "Pb", "xyz": [-0.003310498193999978, 1.906165477458, 1.4749548997959998]}, {"species": [{"element": "Pb", "occu": 1}], "abc": [0.660517, 0.830345, 0.250001], "properties": {"magmom": -0.002}, "label": "Pb", "xyz": [1.5873045790500004, 4.6599742759669995, 1.4749548997959998]}, {"species": [{"element": "Pb", "occu": 1}], "abc": [0.169851, 0.830210999999999, 0.250001], "properties": {"magmom": -0.0}, "label": "Pb", "xyz": [-1.600147929293997, 4.663806042452994, 1.4749548997959998]}, {"species": [{"element": "Pb", "occu": 1}], "abc": [0.8303400000000001, 0.660513, 0.750000999999999], "properties": {"magmom": -0.002}, "label": "Pb", "xyz": [3.243733766553, 3.704011940391, 4.424852899795995]}, {"species": [{"element": "Pb", "occu": 1}], "abc": [0.339484, 0.169656, 0.750000999999999], "properties": {"magmom": -0.002}, "label": "Pb", "xyz": [1.653144661396, 0.950214334216, 4.424852899795995]}, {"species": [{"element": "Pb", "occu": 1}], "abc": [0.830148999999999, 0.169792, 0.750000999999999], "properties": {"magmom": -0.0}, "label": "Pb", "xyz": [4.840584159436994, 0.946393816128, 4.424852899795995]}]}, "task_ids": null, "uncorrected_energy_per_atom": null, "energy_per_atom": -43.06466994916667, "formation_energy_per_atom": 0.985769182708331, "energy_above_hull": 0.985769182708331, "is_stable": false, "equilibrium_reaction_energy_per_atom": null, "decomposes_to": null, "xas": null, "grain_boundaries": null, "band_gap": 0.0, "cbm": null, "vbm": null, "efermi": 6.17950256, "is_gap_direct": null, "is_metal": null, "es_source_calc_id": null, "bandstructure": null, "dos": null, "dos_energy_up": null, "dos_energy_down": null, "is_magnetic": null, "ordering": null, "total_magnetization": 0.0129889, "total_magnetization_normalized_vol": null, "total_magnetization_normalized_formula_units": null, "num_magnetic_sites": null, "num_unique_magnetic_sites": null, "types_of_magnetic_species": null, "bulk_modulus": null, "shear_modulus": null, "universal_anisotropy": null, "homogeneous_poisson": null, "e_total": null, "e_ionic": null, "e_electronic": null, "n": null, "e_ij_max": null, "weighted_surface_energy_EV_PER_ANG2": null, "weighted_surface_energy": null, "weighted_work_function": null, "surface_anisotropy": null, "shape_factor": null, "has_reconstructed": null, "possible_species": null, "has_props": null, "theoretical": null, "database_IDs": null, "fields_not_requested": ["builder_meta", "nsites", "elements", "nelements", "composition", "composition_reduced", "chemsys", "symmetry", "property_name", "deprecated", "deprecation_reasons", "last_updated", "origins", "warnings", "task_ids", "uncorrected_energy_per_atom", "equilibrium_reaction_energy_per_atom", "decomposes_to", "xas", "grain_boundaries", "cbm", "vbm", "is_gap_direct", "is_metal", "es_source_calc_id", "bandstructure", "dos", "dos_energy_up", "dos_energy_down", "is_magnetic", "ordering", "total_magnetization_normalized_vol", "total_magnetization_normalized_formula_units", "num_magnetic_sites", "num_unique_magnetic_sites", "types_of_magnetic_species", "bulk_modulus", "shear_modulus", "universal_anisotropy", "homogeneous_poisson", "e_total", "e_ionic", "e_electronic", "n", "e_ij_max", "weighted_surface_energy_EV_PER_ANG2", "weighted_surface_energy", "weighted_work_function", "surface_anisotropy", "shape_factor", "has_reconstructed", "possible_species", "has_props", "theoretical", "database_IDs"]}