{"builder_meta": null, "nsites": null, "elements": null, "nelements": null, "composition": null, "composition_reduced": null, "formula_pretty": "BPd2", "formula_anonymous": "AB2", "chemsys": null, "volume": 76.42365101236882, "density": 9.719012841300927, "density_atomic": 12.737275168728138, "symmetry": null, "property_name": null, "material_id": "mp-7424", "deprecated": null, "deprecation_reasons": null, "last_updated": null, "origins": null, "warnings": null, "structure": {"@module": "pymatgen.core.structure", "@class": "Structure", "charge": 0, "lattice": {"matrix": [[3.15134992, 0.0, 0.0], [0.0, 4.71785566, 0.0], [0.0, -0.0, 5.14027676]], "pbc": [true, true, true], "a": 3.15134992, "b": 4.71785566, "c": 5.14027676, "alpha": 90.0, "beta": 90.0, "gamma": 90.0, "volume": 76.42365101236882}, "properties": {}, "sites": [{"species": [{"element": "B", "occu": 1}], "abc": [0.5, 0.5, 0.5], "properties": {"magmom": -0.0}, "label": "B", "xyz": [1.57567496, 2.35892783, 2.57013838]}, {"species": [{"element": "B", "occu": 1}], "abc": [-0.0, 0.0, -0.0], "properties": {"magmom": -0.0}, "label": "B", "xyz": [0.0, 0.0, 0.0]}, {"species": [{"element": "Pd", "occu": 1}], "abc": [0.5, 0.75476279, 0.15577763], "properties": {"magmom": -0.0}, "label": "Pd", "xyz": [1.57567496, 3.560861900758891, 0.8007401312168788]}, {"species": [{"element": "Pd", "occu": 1}], "abc": [0.5, 0.24523721, 0.84422237], "properties": {"magmom": -0.0}, "label": "Pd", "xyz": [1.57567496, 1.1569937592411086, 4.339536628783121]}, {"species": [{"element": "Pd", "occu": 1}], "abc": [0.0, 0.74523721, 0.65577763], "properties": {"magmom": -0.0}, "label": "Pd", "xyz": [0.0, 3.5159215892411084, 3.370878511216879]}, {"species": [{"element": "Pd", "occu": 1}], "abc": [-0.0, 0.25476279, 0.34422237], "properties": {"magmom": -0.0}, "label": "Pd", "xyz": [0.0, 1.2019340707588915, 1.7693982487831212]}]}, "task_ids": null, "uncorrected_energy_per_atom": null, "energy_per_atom": -18.031091901666667, "formation_energy_per_atom": -0.275338095833333, "energy_above_hull": 0.0, "is_stable": true, "equilibrium_reaction_energy_per_atom": null, "decomposes_to": null, "xas": null, "grain_boundaries": null, "band_gap": 0.0, "cbm": null, "vbm": null, "efermi": 5.2143708, "is_gap_direct": null, "is_metal": null, "es_source_calc_id": null, "bandstructure": null, "dos": null, "dos_energy_up": null, "dos_energy_down": null, "is_magnetic": null, "ordering": null, "total_magnetization": 0.0, "total_magnetization_normalized_vol": null, "total_magnetization_normalized_formula_units": null, "num_magnetic_sites": null, "num_unique_magnetic_sites": null, "types_of_magnetic_species": null, "bulk_modulus": null, "shear_modulus": null, "universal_anisotropy": null, "homogeneous_poisson": null, "e_total": null, "e_ionic": null, "e_electronic": null, "n": null, "e_ij_max": null, "weighted_surface_energy_EV_PER_ANG2": null, "weighted_surface_energy": null, "weighted_work_function": null, "surface_anisotropy": null, "shape_factor": null, "has_reconstructed": null, "possible_species": null, "has_props": null, "theoretical": null, "database_IDs": null, "fields_not_requested": ["builder_meta", "nsites", "elements", "nelements", "composition", "composition_reduced", "chemsys", "symmetry", "property_name", "deprecated", "deprecation_reasons", "last_updated", "origins", "warnings", "task_ids", "uncorrected_energy_per_atom", "equilibrium_reaction_energy_per_atom", "decomposes_to", "xas", "grain_boundaries", "cbm", "vbm", "is_gap_direct", "is_metal", "es_source_calc_id", "bandstructure", "dos", "dos_energy_up", "dos_energy_down", "is_magnetic", "ordering", "total_magnetization_normalized_vol", "total_magnetization_normalized_formula_units", "num_magnetic_sites", "num_unique_magnetic_sites", "types_of_magnetic_species", "bulk_modulus", "shear_modulus", "universal_anisotropy", "homogeneous_poisson", "e_total", "e_ionic", "e_electronic", "n", "e_ij_max", "weighted_surface_energy_EV_PER_ANG2", "weighted_surface_energy", "weighted_work_function", "surface_anisotropy", "shape_factor", "has_reconstructed", "possible_species", "has_props", "theoretical", "database_IDs"]}