{
  "builder_meta": null,
  "nsites": null,
  "elements": null,
  "nelements": null,
  "composition": null,
  "composition_reduced": null,
  "formula_pretty": "BPd3",
  "formula_anonymous": "AB3",
  "chemsys": null,
  "volume": 204.0753734951198,
  "density": 10.743006975603265,
  "density_atomic": 12.754710843444988,
  "symmetry": null,
  "property_name": null,
  "material_id": "mp-20517",
  "deprecated": null,
  "deprecation_reasons": null,
  "last_updated": null,
  "origins": null,
  "warnings": null,
  "structure": {
    "@module": "pymatgen.core.structure",
    "@class": "Structure",
    "charge": 0,
    "lattice": {
      "matrix": [
        [4.87056165, -0.0, 0.0],
        [0.0, 5.48635381, 0.0],
        [0.0, 0.0, 7.6370871000000005]
      ],
      "pbc": [true, true, true],
      "a": 4.87056165,
      "b": 5.48635381,
      "c": 7.6370871000000005,
      "alpha": 90.0,
      "beta": 90.0,
      "gamma": 90.0,
      "volume": 204.07537349511983
    },
    "properties": {},
    "sites": [
      {
        "species": [{ "element": "B", "occu": 1 }],
        "abc": [0.56451547, 0.11182056, 0.75],
        "properties": { "magmom": 0.0 },
        "label": "B",
        "xyz": [2.7495073990137255, 0.6134871553923336, 5.727815325]
      },
      {
        "species": [{ "element": "B", "occu": 1 }],
        "abc": [0.06451547, 0.38817944, 0.25],
        "properties": { "magmom": 0.0 },
        "label": "B",
        "xyz": [0.3142265740137255, 2.129689749607666, 1.9092717750000001]
      },
      {
        "species": [{ "element": "B", "occu": 1 }],
        "abc": [0.93548453, 0.61182056, 0.75],
        "properties": { "magmom": 0.0 },
        "label": "B",
        "xyz": [4.556335075986274, 3.3566640603923332, 5.727815325]
      },
      {
        "species": [{ "element": "B", "occu": 1 }],
        "abc": [0.43548453000000004, 0.88817944, 0.25],
        "properties": { "magmom": 0.0 },
        "label": "B",
        "xyz": [2.121054250986275, 4.872866654607666, 1.9092717750000001]
      },
      {
        "species": [{ "element": "Pd", "occu": 1 }],
        "abc": [0.67507103, 0.820693999999999, 0.92821184],
        "properties": { "magmom": 0.0 },
        "label": "Pd",
        "xyz": [3.2879750697439993, 4.502617653744134, 7.0888346693312645]
      },
      {
        "species": [{ "element": "Pd", "occu": 1 }],
        "abc": [0.17507103000000002, 0.679306, 0.07178816],
        "properties": { "magmom": 0.0 },
        "label": "Pd",
        "xyz": [0.8526942447439996, 3.7269130612558596, 0.5482524306687361]
      },
      {
        "species": [{ "element": "Pd", "occu": 1 }],
        "abc": [0.82492897, 0.320694, 0.57178816],
        "properties": { "magmom": 0.0 },
        "label": "Pd",
        "xyz": [4.017867405256, 1.75944074874414, 4.366795980668736]
      },
      {
        "species": [{ "element": "Pd", "occu": 1 }],
        "abc": [0.32492897, 0.179306, 0.42821184],
        "properties": { "magmom": 0.0 },
        "label": "Pd",
        "xyz": [1.5825865802560004, 0.98373615625586, 3.2702911193312643]
      },
      {
        "species": [{ "element": "Pd", "occu": 1 }],
        "abc": [0.84191684, 0.03896273, 0.25],
        "properties": { "magmom": 0.0 },
        "label": "Pd",
        "xyz": [4.100607873393186, 0.2137633221835013, 1.9092717750000001]
      },
      {
        "species": [{ "element": "Pd", "occu": 1 }],
        "abc": [0.34191684, 0.46103727, 0.75],
        "properties": { "magmom": 0.0 },
        "label": "Pd",
        "xyz": [1.665327048393186, 2.5294135828164985, 5.727815325]
      },
      {
        "species": [{ "element": "Pd", "occu": 1 }],
        "abc": [0.65808316, 0.5389627300000001, 0.25],
        "properties": { "magmom": 0.0 },
        "label": "Pd",
        "xyz": [3.205234601606814, 2.9569402271835017, 1.9092717750000001]
      },
      {
        "species": [{ "element": "Pd", "occu": 1 }],
        "abc": [0.15808316, 0.96103727, 0.75],
        "properties": { "magmom": 0.0 },
        "label": "Pd",
        "xyz": [0.769953776606814, 5.272590487816498, 5.727815325]
      },
      {
        "species": [{ "element": "Pd", "occu": 1 }],
        "abc": [0.67507103, 0.820693999999999, 0.57178816],
        "properties": { "magmom": 0.0 },
        "label": "Pd",
        "xyz": [3.2879750697439993, 4.502617653744134, 4.366795980668736]
      },
      {
        "species": [{ "element": "Pd", "occu": 1 }],
        "abc": [0.17507103000000002, 0.679306, 0.42821184],
        "properties": { "magmom": 0.0 },
        "label": "Pd",
        "xyz": [0.8526942447439996, 3.7269130612558596, 3.2702911193312643]
      },
      {
        "species": [{ "element": "Pd", "occu": 1 }],
        "abc": [0.82492897, 0.320694, 0.92821184],
        "properties": { "magmom": 0.0 },
        "label": "Pd",
        "xyz": [4.017867405256, 1.75944074874414, 7.0888346693312645]
      },
      {
        "species": [{ "element": "Pd", "occu": 1 }],
        "abc": [0.32492897, 0.179306, 0.07178816],
        "properties": { "magmom": 0.0 },
        "label": "Pd",
        "xyz": [1.5825865802560004, 0.98373615625586, 0.5482524306687361]
      }
    ]
  },
  "task_ids": null,
  "uncorrected_energy_per_atom": null,
  "energy_per_atom": -19.32015738625,
  "formation_energy_per_atom": -0.263228629374996,
  "energy_above_hull": 0.0,
  "is_stable": true,
  "equilibrium_reaction_energy_per_atom": null,
  "decomposes_to": null,
  "xas": null,
  "grain_boundaries": null,
  "band_gap": 0.0,
  "cbm": null,
  "vbm": null,
  "efermi": 5.08191203,
  "is_gap_direct": null,
  "is_metal": null,
  "es_source_calc_id": null,
  "bandstructure": null,
  "dos": null,
  "dos_energy_up": null,
  "dos_energy_down": null,
  "is_magnetic": null,
  "ordering": null,
  "total_magnetization": 0.0,
  "total_magnetization_normalized_vol": null,
  "total_magnetization_normalized_formula_units": null,
  "num_magnetic_sites": null,
  "num_unique_magnetic_sites": null,
  "types_of_magnetic_species": null,
  "bulk_modulus": null,
  "shear_modulus": null,
  "universal_anisotropy": null,
  "homogeneous_poisson": null,
  "e_total": null,
  "e_ionic": null,
  "e_electronic": null,
  "n": null,
  "e_ij_max": null,
  "weighted_surface_energy_EV_PER_ANG2": null,
  "weighted_surface_energy": null,
  "weighted_work_function": null,
  "surface_anisotropy": null,
  "shape_factor": null,
  "has_reconstructed": null,
  "possible_species": null,
  "has_props": null,
  "theoretical": null,
  "database_IDs": null,
  "fields_not_requested": [
    "builder_meta",
    "nsites",
    "elements",
    "nelements",
    "composition",
    "composition_reduced",
    "chemsys",
    "symmetry",
    "property_name",
    "deprecated",
    "deprecation_reasons",
    "last_updated",
    "origins",
    "warnings",
    "task_ids",
    "uncorrected_energy_per_atom",
    "equilibrium_reaction_energy_per_atom",
    "decomposes_to",
    "xas",
    "grain_boundaries",
    "cbm",
    "vbm",
    "is_gap_direct",
    "is_metal",
    "es_source_calc_id",
    "bandstructure",
    "dos",
    "dos_energy_up",
    "dos_energy_down",
    "is_magnetic",
    "ordering",
    "total_magnetization_normalized_vol",
    "total_magnetization_normalized_formula_units",
    "num_magnetic_sites",
    "num_unique_magnetic_sites",
    "types_of_magnetic_species",
    "bulk_modulus",
    "shear_modulus",
    "universal_anisotropy",
    "homogeneous_poisson",
    "e_total",
    "e_ionic",
    "e_electronic",
    "n",
    "e_ij_max",
    "weighted_surface_energy_EV_PER_ANG2",
    "weighted_surface_energy",
    "weighted_work_function",
    "surface_anisotropy",
    "shape_factor",
    "has_reconstructed",
    "possible_species",
    "has_props",
    "theoretical",
    "database_IDs"
  ]
}
