{
  "builder_meta": null,
  "nsites": null,
  "elements": null,
  "nelements": null,
  "composition": null,
  "composition_reduced": null,
  "formula_pretty": "BPd5",
  "formula_anonymous": "AB5",
  "chemsys": null,
  "volume": 333.6658466981147,
  "density": 10.807518169547993,
  "density_atomic": 13.902743612421446,
  "symmetry": null,
  "property_name": null,
  "material_id": "mp-1190529",
  "deprecated": null,
  "deprecation_reasons": null,
  "last_updated": null,
  "origins": null,
  "warnings": null,
  "structure": {
    "@module": "pymatgen.core.structure",
    "@class": "Structure",
    "charge": 0.0,
    "lattice": {
      "matrix": [
        [-6.35450053, 0.0, -0.01752931],
        [-0.0174658, 0.0, -6.42394059],
        [0.0, -8.17395188, 0.0]
      ],
      "pbc": [true, true, true],
      "a": 6.354524707834517,
      "b": 6.423964333495259,
      "c": 8.17395188,
      "alpha": 90.0,
      "beta": 90.0,
      "gamma": 89.68616734074095,
      "volume": 333.6658466981147
    },
    "properties": {},
    "sites": [
      {
        "species": [{ "element": "B", "occu": 1 }],
        "abc": [0.55556396, 0.65925595, 0.36669113000000003],
        "properties": { "magmom": 0.0 },
        "label": "B",
        "xyz": [-3.541845910840409, -2.997315651442825, -4.244759709283678]
      },
      {
        "species": [{ "element": "B", "occu": 1 }],
        "abc": [0.05556396, 0.15925595, 0.13330887],
        "properties": { "magmom": 0.0 },
        "label": "B",
        "xyz": [-0.3558627458404088, -1.0896602885571756, -1.0240247592836782]
      },
      {
        "species": [{ "element": "B", "occu": 1 }],
        "abc": [0.44443604000000003, 0.34074405, 0.63330887],
        "properties": { "magmom": 0.0 },
        "label": "B",
        "xyz": [-2.8301204191595914, -5.176636228557176, -2.196710190716322]
      },
      {
        "species": [{ "element": "B", "occu": 1 }],
        "abc": [0.94443604, 0.84074405, 0.86669113],
        "properties": { "magmom": 0.0 },
        "label": "B",
        "xyz": [-6.016103584159591, -7.084291591442825, -5.417445140716322]
      },
      {
        "species": [{ "element": "Pd", "occu": 1 }],
        "abc": [0.55030433, 0.65080238, 0.11670943],
        "properties": { "magmom": -0.0 },
        "label": "Pd",
        "xyz": [-3.508275940854899, -0.9539772647622285, -4.190362280145516]
      },
      {
        "species": [{ "element": "Pd", "occu": 1 }],
        "abc": [0.05030433, 0.15080238, 0.38329057],
        "properties": { "magmom": -0.0 },
        "label": "Pd",
        "xyz": [-0.3222927758548989, -3.1329986752377716, -0.9696273301455166]
      },
      {
        "species": [{ "element": "Pd", "occu": 1 }],
        "abc": [0.44969567, 0.34919762, 0.88329057],
        "properties": { "magmom": -0.0 },
        "label": "Pd",
        "xyz": [-2.863690389145101, -7.219974615237772, -2.251107619854483]
      },
      {
        "species": [{ "element": "Pd", "occu": 1 }],
        "abc": [0.94969567, 0.84919762, 0.61670943],
        "properties": { "magmom": -0.0 },
        "label": "Pd",
        "xyz": [-6.049673554145101, -5.0409532047622285, -5.471842569854483]
      },
      {
        "species": [{ "element": "Pd", "occu": 1 }],
        "abc": [0.55163458, 0.65140999, 0.62648885],
        "properties": { "magmom": -0.0 },
        "label": "Pd",
        "xyz": [-3.5167396275796694, -5.120889713256538, -4.194288849052033]
      },
      {
        "species": [{ "element": "Pd", "occu": 1 }],
        "abc": [0.05163458, 0.15140999, 0.87351115],
        "properties": { "magmom": -0.0 },
        "label": "Pd",
        "xyz": [-0.3307564625796694, -7.140038106743463, -0.9735538990520338]
      },
      {
        "species": [{ "element": "Pd", "occu": 1 }],
        "abc": [0.44836542, 0.34859001, 0.37351115],
        "properties": { "magmom": -0.0 },
        "label": "Pd",
        "xyz": [-2.855226702420331, -3.0530621667434623, -2.247181050947966]
      },
      {
        "species": [{ "element": "Pd", "occu": 1 }],
        "abc": [0.94836542, 0.84859001, 0.12648885],
        "properties": { "magmom": -0.0 },
        "label": "Pd",
        "xyz": [-6.041209867420331, -1.0339137732565382, -5.467916000947966]
      },
      {
        "species": [{ "element": "Pd", "occu": 1 }],
        "abc": [0.6532710700000001, 0.95999864, 0.37510642],
        "properties": { "magmom": 0.0 },
        "label": "Pd",
        "xyz": [-4.16797850479518, -3.06610182695907, -6.1784256209408595]
      },
      {
        "species": [{ "element": "Pd", "occu": 1 }],
        "abc": [0.15327107, 0.45999864, 0.12489358],
        "properties": { "magmom": 0.0 },
        "label": "Pd",
        "xyz": [-0.9819953397951792, -1.0208741130409305, -2.9576906709408592]
      },
      {
        "species": [{ "element": "Pd", "occu": 1 }],
        "abc": [0.34672893, 0.04000136, 0.6248935800000001],
        "properties": { "magmom": 0.0 },
        "label": "Pd",
        "xyz": [-2.2039878252048206, -5.107850053040932, -0.2630442790591407]
      },
      {
        "species": [{ "element": "Pd", "occu": 1 }],
        "abc": [0.84672893, 0.54000136, 0.87510642],
        "properties": { "magmom": 0.0 },
        "label": "Pd",
        "xyz": [-5.389970990204821, -7.15307776695907, -3.4837792290591407]
      },
      {
        "species": [{ "element": "Pd", "occu": 1 }],
        "abc": [0.64072077, 0.95157696, 0.873800999999999],
        "properties": { "magmom": 0.0 },
        "label": "Pd",
        "xyz": [-4.088080525414977, -7.1424073266958725, -6.1241052508535745]
      },
      {
        "species": [{ "element": "Pd", "occu": 1 }],
        "abc": [0.14072077, 0.45157696, 0.626199],
        "properties": { "magmom": 0.0 },
        "label": "Pd",
        "xyz": [-0.9020973604149761, -5.11852049330412, -2.903370300853575]
      },
      {
        "species": [{ "element": "Pd", "occu": 1 }],
        "abc": [0.35927923, 0.04842304, 0.126199],
        "properties": { "magmom": 0.0 },
        "label": "Pd",
        "xyz": [-2.2838858045850237, -1.03154455330412, -0.3173646491464249]
      },
      {
        "species": [{ "element": "Pd", "occu": 1 }],
        "abc": [0.8592792300000001, 0.54842304, 0.373801],
        "properties": { "magmom": 0.0 },
        "label": "Pd",
        "xyz": [-5.469868969585025, -3.05543138669588, -3.538099599146425]
      },
      {
        "species": [{ "element": "Pd", "occu": 1 }],
        "abc": [0.74450363, 0.25398896, 0.12594051],
        "properties": { "magmom": 0.0 },
        "label": "Pd",
        "xyz": [-4.735384831799491, -1.029431668482659, -1.6446606244822815]
      },
      {
        "species": [{ "element": "Pd", "occu": 1 }],
        "abc": [0.24450363, 0.75398896, 0.37405949],
        "properties": { "magmom": 0.0 },
        "label": "Pd",
        "xyz": [-1.566867466799492, -3.0575442715173415, -4.847866264482282]
      },
      {
        "species": [{ "element": "Pd", "occu": 1 }],
        "abc": [0.25549637000000003, 0.7460110400000001, 0.87405949],
        "properties": { "magmom": 0.0 },
        "label": "Pd",
        "xyz": [-1.6365814982005085, -7.144520211517342, -4.7968092755177185]
      },
      {
        "species": [{ "element": "Pd", "occu": 1 }],
        "abc": [0.75549637, 0.24601104000000001, 0.6259405100000001],
        "properties": { "magmom": 0.0 },
        "label": "Pd",
        "xyz": [-4.805098863200508, -5.1164076084826595, -1.5936036355177186]
      }
    ]
  },
  "task_ids": null,
  "uncorrected_energy_per_atom": null,
  "energy_per_atom": -20.578810220833333,
  "formation_energy_per_atom": -0.22070651291666302,
  "energy_above_hull": 0.0,
  "is_stable": true,
  "equilibrium_reaction_energy_per_atom": null,
  "decomposes_to": null,
  "xas": null,
  "grain_boundaries": null,
  "band_gap": 0.0,
  "cbm": null,
  "vbm": null,
  "efermi": 4.63012109,
  "is_gap_direct": null,
  "is_metal": null,
  "es_source_calc_id": null,
  "bandstructure": null,
  "dos": null,
  "dos_energy_up": null,
  "dos_energy_down": null,
  "is_magnetic": null,
  "ordering": null,
  "total_magnetization": 0.0,
  "total_magnetization_normalized_vol": null,
  "total_magnetization_normalized_formula_units": null,
  "num_magnetic_sites": null,
  "num_unique_magnetic_sites": null,
  "types_of_magnetic_species": null,
  "bulk_modulus": null,
  "shear_modulus": null,
  "universal_anisotropy": null,
  "homogeneous_poisson": null,
  "e_total": null,
  "e_ionic": null,
  "e_electronic": null,
  "n": null,
  "e_ij_max": null,
  "weighted_surface_energy_EV_PER_ANG2": null,
  "weighted_surface_energy": null,
  "weighted_work_function": null,
  "surface_anisotropy": null,
  "shape_factor": null,
  "has_reconstructed": null,
  "possible_species": null,
  "has_props": null,
  "theoretical": null,
  "database_IDs": null,
  "fields_not_requested": [
    "builder_meta",
    "nsites",
    "elements",
    "nelements",
    "composition",
    "composition_reduced",
    "chemsys",
    "symmetry",
    "property_name",
    "deprecated",
    "deprecation_reasons",
    "last_updated",
    "origins",
    "warnings",
    "task_ids",
    "uncorrected_energy_per_atom",
    "equilibrium_reaction_energy_per_atom",
    "decomposes_to",
    "xas",
    "grain_boundaries",
    "cbm",
    "vbm",
    "is_gap_direct",
    "is_metal",
    "es_source_calc_id",
    "bandstructure",
    "dos",
    "dos_energy_up",
    "dos_energy_down",
    "is_magnetic",
    "ordering",
    "total_magnetization_normalized_vol",
    "total_magnetization_normalized_formula_units",
    "num_magnetic_sites",
    "num_unique_magnetic_sites",
    "types_of_magnetic_species",
    "bulk_modulus",
    "shear_modulus",
    "universal_anisotropy",
    "homogeneous_poisson",
    "e_total",
    "e_ionic",
    "e_electronic",
    "n",
    "e_ij_max",
    "weighted_surface_energy_EV_PER_ANG2",
    "weighted_surface_energy",
    "weighted_work_function",
    "surface_anisotropy",
    "shape_factor",
    "has_reconstructed",
    "possible_species",
    "has_props",
    "theoretical",
    "database_IDs"
  ]
}
