{"builder_meta": null, "nsites": null, "elements": null, "nelements": null, "composition": null, "composition_reduced": null, "formula_pretty": "BPd6", "formula_anonymous": "AB6", "chemsys": null, "volume": 196.95360784263397, "density": 10.949172289506455, "density_atomic": 14.068114845902427, "symmetry": null, "property_name": null, "material_id": "mp-1214755", "deprecated": null, "deprecation_reasons": null, "last_updated": null, "origins": null, "warnings": null, "structure": {"@module": "pymatgen.core.structure", "@class": "Structure", "charge": 0, "lattice": {"matrix": [[-2.43769137, -4.27613549, 0.42919915000000003], [-2.43769137, 4.27613549, 0.42919915000000003], [-0.00164867, 0.0, -9.44692404]], "pbc": [true, true, true], "a": 4.9408385780726265, "b": 4.9408385780726265, "c": 9.446924183862317, "alpha": 94.97847983163145, "beta": 94.97847983163145, "gamma": 119.87227402908688, "volume": 196.95360784263397}, "properties": {}, "sites": [{"species": [{"element": "B", "occu": 1}], "abc": [0.91761388, 0.08238512, 0.749999], "properties": {"magmom": -0.0}, "label": "B", "xyz": [-2.43892543315996, -3.571551342904692, -6.655984862275111]}, {"species": [{"element": "B", "occu": 1}], "abc": [0.08238512, 0.91761388, 0.249999], "properties": {"magmom": -0.0}, "label": "B", "xyz": [-2.43810109815996, 3.571551342904692, -1.9325228422751102]}, {"species": [{"element": "Pd", "occu": 1}], "abc": [0.78454589, 0.959496399999999, 0.3778561], "properties": {"magmom": 0.0}, "label": "Pd", "xyz": [-4.252059799264422, 0.7481120848045961, -2.821036406318591]}, {"species": [{"element": "Pd", "occu": 1}], "abc": [0.21545411, 0.040504599999999, 0.6221439], "properties": {"magmom": 0.0}, "label": "Pd", "xyz": [-0.6249740484269433, -0.7481078086691142, -5.767488904482261]}, {"species": [{"element": "Pd", "occu": 1}], "abc": [0.040504599999999, 0.21545411, 0.1221439], "properties": {"magmom": 0.0}, "label": "Pd", "xyz": [-0.6241497134269433, 0.7481078086691142, -1.04402688448226]}, {"species": [{"element": "Pd", "occu": 1}], "abc": [0.959496399999999, 0.78454589, 0.877856099999999], "properties": {"magmom": 0.0}, "label": "Pd", "xyz": [-4.252884134264422, -0.7481120848045961, -7.544498426318581]}, {"species": [{"element": "Pd", "occu": 1}], "abc": [0.53362859, 0.69939364, 0.6225642], "properties": {"magmom": 0.0}, "label": "Pd", "xyz": [-3.006754052008769, 0.708833813306625, -5.352104614376264]}, {"species": [{"element": "Pd", "occu": 1}], "abc": [0.46637141, 0.30060736, 0.3774358], "properties": {"magmom": 0.0}, "label": "Pd", "xyz": [-1.870279795682601, -0.7088295371711346, -3.2364206964245863]}, {"species": [{"element": "Pd", "occu": 1}], "abc": [0.30060736, 0.46637141, 0.8774358], "properties": {"magmom": 0.0}, "label": "Pd", "xyz": [-1.871104130682601, 0.7088295371711346, -7.959882716424587]}, {"species": [{"element": "Pd", "occu": 1}], "abc": [0.69939364, 0.53362859, 0.1225642], "properties": {"magmom": 0.0}, "label": "Pd", "xyz": [-3.0059297170087693, -0.708833813306625, -0.6286425943762637]}, {"species": [{"element": "Pd", "occu": 1}], "abc": [0.61757709, 0.12499921, 0.87751357], "properties": {"magmom": -0.0}, "label": "Pd", "xyz": [-1.811618568373983, -2.106329754256961, -7.971090923089078]}, {"species": [{"element": "Pd", "occu": 1}], "abc": [0.38242291, 0.87500079, 0.12248643000000001], "properties": {"magmom": -0.0}, "label": "Pd", "xyz": [-3.0654128416260167, 2.106329754256961, -0.6174348169109223]}, {"species": [{"element": "Pd", "occu": 1}], "abc": [0.87500079, 0.38242291, 0.62248643], "properties": {"magmom": -0.0}, "label": "Pd", "xyz": [-3.066237176626017, -2.106329754256961, -5.3408968369109235]}, {"species": [{"element": "Pd", "occu": 1}], "abc": [0.12499921, 0.61757709, 0.37751357], "properties": {"magmom": -0.0}, "label": "Pd", "xyz": [-1.810794233373983, 2.106329754256961, -3.2476289030890784]}]}, "task_ids": null, "uncorrected_energy_per_atom": null, "energy_per_atom": -20.925112872142854, "formation_energy_per_atom": -0.19524489249999502, "energy_above_hull": 0.0, "is_stable": true, "equilibrium_reaction_energy_per_atom": null, "decomposes_to": null, "xas": null, "grain_boundaries": null, "band_gap": 0.0, "cbm": null, "vbm": null, "efermi": 3.9564266, "is_gap_direct": null, "is_metal": null, "es_source_calc_id": null, "bandstructure": null, "dos": null, "dos_energy_up": null, "dos_energy_down": null, "is_magnetic": null, "ordering": null, "total_magnetization": 2e-07, "total_magnetization_normalized_vol": null, "total_magnetization_normalized_formula_units": null, "num_magnetic_sites": null, "num_unique_magnetic_sites": null, "types_of_magnetic_species": null, "bulk_modulus": null, "shear_modulus": null, "universal_anisotropy": null, "homogeneous_poisson": null, "e_total": null, "e_ionic": null, "e_electronic": null, "n": null, "e_ij_max": null, "weighted_surface_energy_EV_PER_ANG2": null, "weighted_surface_energy": null, "weighted_work_function": null, "surface_anisotropy": null, "shape_factor": null, "has_reconstructed": null, "possible_species": null, "has_props": null, "theoretical": null, "database_IDs": null, "fields_not_requested": ["builder_meta", "nsites", "elements", "nelements", "composition", "composition_reduced", "chemsys", "symmetry", "property_name", "deprecated", "deprecation_reasons", "last_updated", "origins", "warnings", "task_ids", "uncorrected_energy_per_atom", "equilibrium_reaction_energy_per_atom", "decomposes_to", "xas", "grain_boundaries", "cbm", "vbm", "is_gap_direct", "is_metal", "es_source_calc_id", "bandstructure", "dos", "dos_energy_up", "dos_energy_down", "is_magnetic", "ordering", "total_magnetization_normalized_vol", "total_magnetization_normalized_formula_units", "num_magnetic_sites", "num_unique_magnetic_sites", "types_of_magnetic_species", "bulk_modulus", "shear_modulus", "universal_anisotropy", "homogeneous_poisson", "e_total", "e_ionic", "e_electronic", "n", "e_ij_max", "weighted_surface_energy_EV_PER_ANG2", "weighted_surface_energy", "weighted_work_function", "surface_anisotropy", "shape_factor", "has_reconstructed", "possible_species", "has_props", "theoretical", "database_IDs"]}