{"builder_meta": null, "nsites": null, "elements": null, "nelements": null, "composition": null, "composition_reduced": null, "formula_pretty": "BPt", "formula_anonymous": "AB", "chemsys": null, "volume": 47.51957797898967, "density": 14.38971917085515, "density_atomic": 11.879894494747418, "symmetry": null, "property_name": null, "material_id": "mp-1096829", "deprecated": null, "deprecation_reasons": null, "last_updated": null, "origins": null, "warnings": null, "structure": {"@module": "pymatgen.core.structure", "@class": "Structure", "charge": 0, "lattice": {"matrix": [[1.614714, -2.796766, 0.0], [1.614714, 2.796766, 0.0], [0.0, 0.0, 5.261273]], "pbc": [true, true, true], "a": 3.2294274044406075, "b": 3.2294274044406075, "c": 5.261273, "alpha": 90.0, "beta": 90.0, "gamma": 119.99998779910848, "volume": 47.51957797898967}, "properties": {}, "sites": [{"species": [{"element": "B", "occu": 1}], "abc": [0.333333, 0.666667, 0.25], "properties": {"magmom": -0.0}, "label": "B", "xyz": [1.6147139999999998, 0.9322571978440001, 1.31531825]}, {"species": [{"element": "B", "occu": 1}], "abc": [0.666667, 0.333333, 0.75], "properties": {"magmom": -0.0}, "label": "B", "xyz": [1.6147139999999998, -0.9322571978440001, 3.9459547500000003]}, {"species": [{"element": "Pt", "occu": 1}], "abc": [0.0, 0.0, 0.5], "properties": {"magmom": 0.0}, "label": "Pt", "xyz": [0.0, 0.0, 2.6306365]}, {"species": [{"element": "Pt", "occu": 1}], "abc": [0.0, 0.0, 0.0], "properties": {"magmom": 0.0}, "label": "Pt", "xyz": [0.0, 0.0, 0.0]}]}, "task_ids": null, "uncorrected_energy_per_atom": null, "energy_per_atom": -29.377273894166667, "formation_energy_per_atom": 0.039761654583333, "energy_above_hull": 0.193704607708333, "is_stable": false, "equilibrium_reaction_energy_per_atom": null, "decomposes_to": null, "xas": null, "grain_boundaries": null, "band_gap": 0.0, "cbm": null, "vbm": null, "efermi": 7.4629343200000005, "is_gap_direct": null, "is_metal": null, "es_source_calc_id": null, "bandstructure": null, "dos": null, "dos_energy_up": null, "dos_energy_down": null, "is_magnetic": null, "ordering": null, "total_magnetization": 0.0015126999999990002, "total_magnetization_normalized_vol": null, "total_magnetization_normalized_formula_units": null, "num_magnetic_sites": null, "num_unique_magnetic_sites": null, "types_of_magnetic_species": null, "bulk_modulus": null, "shear_modulus": null, "universal_anisotropy": null, "homogeneous_poisson": null, "e_total": null, "e_ionic": null, "e_electronic": null, "n": null, "e_ij_max": null, "weighted_surface_energy_EV_PER_ANG2": null, "weighted_surface_energy": null, "weighted_work_function": null, "surface_anisotropy": null, "shape_factor": null, "has_reconstructed": null, "possible_species": null, "has_props": null, "theoretical": null, "database_IDs": null, "fields_not_requested": ["builder_meta", "nsites", "elements", "nelements", "composition", "composition_reduced", "chemsys", "symmetry", "property_name", "deprecated", "deprecation_reasons", "last_updated", "origins", "warnings", "task_ids", "uncorrected_energy_per_atom", "equilibrium_reaction_energy_per_atom", "decomposes_to", "xas", "grain_boundaries", "cbm", "vbm", "is_gap_direct", "is_metal", "es_source_calc_id", "bandstructure", "dos", "dos_energy_up", "dos_energy_down", "is_magnetic", "ordering", "total_magnetization_normalized_vol", "total_magnetization_normalized_formula_units", "num_magnetic_sites", "num_unique_magnetic_sites", "types_of_magnetic_species", "bulk_modulus", "shear_modulus", "universal_anisotropy", "homogeneous_poisson", "e_total", "e_ionic", "e_electronic", "n", "e_ij_max", "weighted_surface_energy_EV_PER_ANG2", "weighted_surface_energy", "weighted_work_function", "surface_anisotropy", "shape_factor", "has_reconstructed", "possible_species", "has_props", "theoretical", "database_IDs"]}