{"builder_meta": null, "nsites": null, "elements": null, "nelements": null, "composition": null, "composition_reduced": null, "formula_pretty": "BPt2", "formula_anonymous": "AB2", "chemsys": null, "volume": 76.83250096037813, "density": 17.332282199939584, "density_atomic": 12.805416826729688, "symmetry": null, "property_name": null, "material_id": "mp-2049185", "deprecated": null, "deprecation_reasons": null, "last_updated": null, "origins": null, "warnings": null, "structure": {"@module": "pymatgen.core.structure", "@class": "Structure", "charge": 0, "lattice": {"matrix": [[-1.5018816400000001, -2.4714155, -0.0], [-1.5018816400000001, 2.4714155, 0.0], [0.0, 0.0, -10.34983676]], "pbc": [true, true, true], "a": 2.891979086060157, "b": 2.891979086060157, "c": 10.34983676, "alpha": 90.0, "beta": 90.0, "gamma": 117.42581722664993, "volume": 76.83250096037814}, "properties": {}, "sites": [{"species": [{"element": "B", "occu": 1}], "abc": [0.6714876200000001, 0.32851238, 0.749996999999999], "properties": {"magmom": 0.0}, "label": "B", "xyz": [-1.5018816400000004, -0.8476343242522202, -7.76234652048971]}, {"species": [{"element": "B", "occu": 1}], "abc": [0.32851238, 0.6714876200000001, 0.249997], "properties": {"magmom": 0.0}, "label": "B", "xyz": [-1.5018816400000004, 0.8476343242522202, -2.58742814048972]}, {"species": [{"element": "Pt", "occu": 1}], "abc": [0.66964656, 0.33035344, 0.11609455], "properties": {"magmom": -0.0}, "label": "Pt", "xyz": [-1.5018816400000001, -0.8385342758113601, -1.2015596412256582]}, {"species": [{"element": "Pt", "occu": 1}], "abc": [0.33035344, 0.66964656, 0.8839084500000001], "properties": {"magmom": -0.0}, "label": "Pt", "xyz": [-1.5018816400000001, 0.8385342758113601, -9.148308168284624]}, {"species": [{"element": "Pt", "occu": 1}], "abc": [0.33035344, 0.66964656, 0.61609455], "properties": {"magmom": -0.0}, "label": "Pt", "xyz": [-1.5018816400000001, 0.8385342758113601, -6.376478021225658]}, {"species": [{"element": "Pt", "occu": 1}], "abc": [0.66964656, 0.33035344, 0.38390845], "properties": {"magmom": -0.0}, "label": "Pt", "xyz": [-1.5018816400000001, -0.8385342758113601, -3.9733897882846225]}]}, "task_ids": null, "uncorrected_energy_per_atom": null, "energy_per_atom": -36.97918660333333, "formation_energy_per_atom": -0.205257270833328, "energy_above_hull": 0.0, "is_stable": true, "equilibrium_reaction_energy_per_atom": null, "decomposes_to": null, "xas": null, "grain_boundaries": null, "band_gap": 0.0, "cbm": null, "vbm": null, "efermi": 10.02842386, "is_gap_direct": null, "is_metal": null, "es_source_calc_id": null, "bandstructure": null, "dos": null, "dos_energy_up": null, "dos_energy_down": null, "is_magnetic": null, "ordering": null, "total_magnetization": 0.0, "total_magnetization_normalized_vol": null, "total_magnetization_normalized_formula_units": null, "num_magnetic_sites": null, "num_unique_magnetic_sites": null, "types_of_magnetic_species": null, "bulk_modulus": null, "shear_modulus": null, "universal_anisotropy": null, "homogeneous_poisson": null, "e_total": null, "e_ionic": null, "e_electronic": null, "n": null, "e_ij_max": null, "weighted_surface_energy_EV_PER_ANG2": null, "weighted_surface_energy": null, "weighted_work_function": null, "surface_anisotropy": null, "shape_factor": null, "has_reconstructed": null, "possible_species": null, "has_props": null, "theoretical": null, "database_IDs": null, "fields_not_requested": ["builder_meta", "nsites", "elements", "nelements", "composition", "composition_reduced", "chemsys", "symmetry", "property_name", "deprecated", "deprecation_reasons", "last_updated", "origins", "warnings", "task_ids", "uncorrected_energy_per_atom", "equilibrium_reaction_energy_per_atom", "decomposes_to", "xas", "grain_boundaries", "cbm", "vbm", "is_gap_direct", "is_metal", "es_source_calc_id", "bandstructure", "dos", "dos_energy_up", "dos_energy_down", "is_magnetic", "ordering", "total_magnetization_normalized_vol", "total_magnetization_normalized_formula_units", "num_magnetic_sites", "num_unique_magnetic_sites", "types_of_magnetic_species", "bulk_modulus", "shear_modulus", "universal_anisotropy", "homogeneous_poisson", "e_total", "e_ionic", "e_electronic", "n", "e_ij_max", "weighted_surface_energy_EV_PER_ANG2", "weighted_surface_energy", "weighted_work_function", "surface_anisotropy", "shape_factor", "has_reconstructed", "possible_species", "has_props", "theoretical", "database_IDs"]}