{
  "builder_meta": null,
  "nsites": null,
  "elements": null,
  "nelements": null,
  "composition": null,
  "composition_reduced": null,
  "formula_pretty": "Br2O",
  "formula_anonymous": "AB2",
  "chemsys": null,
  "volume": 285.75215638902927,
  "density": 4.086549121259138,
  "density_atomic": 23.812679699085773,
  "symmetry": null,
  "property_name": null,
  "material_id": "mp-28460",
  "deprecated": null,
  "deprecation_reasons": null,
  "last_updated": null,
  "origins": null,
  "warnings": null,
  "structure": {
    "@module": "pymatgen.core.structure",
    "@class": "Structure",
    "charge": 0,
    "lattice": {
      "matrix": [
        [3.98991338, 0.0, 0.0],
        [0.0, 6.97427077, 0.0],
        [0.0, 0.0, 10.2689785]
      ],
      "pbc": [true, true, true],
      "a": 3.98991338,
      "b": 6.97427077,
      "c": 10.2689785,
      "alpha": 90.0,
      "beta": 90.0,
      "gamma": 90.0,
      "volume": 285.75215638902927
    },
    "properties": {},
    "sites": [
      {
        "species": [{ "element": "Br", "occu": 1 }],
        "abc": [0.6275770900000001, 0.31954501, 0.5058682800000001],
        "properties": { "magmom": -0.0 },
        "label": "Br",
        "xyz": [2.5039782283724645, 2.228593422942358, 5.19475049115198]
      },
      {
        "species": [{ "element": "Br", "occu": 1 }],
        "abc": [0.37242291, 0.81954501, 0.49413172],
        "properties": { "magmom": -0.0 },
        "label": "Br",
        "xyz": [1.4859351516275359, 5.715728807942358, 5.07422800884802]
      },
      {
        "species": [{ "element": "Br", "occu": 1 }],
        "abc": [0.87242291, 0.31954501, 0.00586828],
        "properties": { "magmom": -0.0 },
        "label": "Br",
        "xyz": [3.480891841627536, 2.228593422942358, 0.06026124115198]
      },
      {
        "species": [{ "element": "Br", "occu": 1 }],
        "abc": [0.12757709, 0.81954501, 0.99413172],
        "properties": { "magmom": -0.0 },
        "label": "Br",
        "xyz": [0.5090215383724642, 5.715728807942358, 10.20871725884802]
      },
      {
        "species": [{ "element": "Br", "occu": 1 }],
        "abc": [0.07964678, 0.50178461, 0.22120195],
        "properties": { "magmom": 0.0 },
        "label": "Br",
        "xyz": [0.3177837531959164, 3.4995817383588497, 2.271518068708075]
      },
      {
        "species": [{ "element": "Br", "occu": 1 }],
        "abc": [0.92035322, 0.00178461, 0.77879805],
        "properties": { "magmom": 0.0 },
        "label": "Br",
        "xyz": [3.6721296268040833, 0.012446353358849702, 7.997460431291925]
      },
      {
        "species": [{ "element": "Br", "occu": 1 }],
        "abc": [0.42035322, 0.50178461, 0.72120195],
        "properties": { "magmom": 0.0 },
        "label": "Br",
        "xyz": [1.6771729368040837, 3.4995817383588497, 7.406007318708074]
      },
      {
        "species": [{ "element": "Br", "occu": 1 }],
        "abc": [0.57964678, 0.00178461, 0.27879805],
        "properties": { "magmom": 0.0 },
        "label": "Br",
        "xyz": [2.3127404431959167, 0.012446353358849702, 2.862971181291925]
      },
      {
        "species": [{ "element": "O", "occu": 1 }],
        "abc": [0.32238189, 0.70057038, 0.14832494000000002],
        "properties": { "magmom": 0.0 },
        "label": "O",
        "xyz": [1.2862758163806882, 4.885967523561793, 1.52314561987379]
      },
      {
        "species": [{ "element": "O", "occu": 1 }],
        "abc": [0.67761811, 0.20057038, 0.85167506],
        "properties": { "magmom": 0.0 },
        "label": "O",
        "xyz": [2.703637563619312, 1.3988321385617926, 8.74583288012621]
      },
      {
        "species": [{ "element": "O", "occu": 1 }],
        "abc": [0.17761811, 0.70057038, 0.64832494],
        "properties": { "magmom": 0.0 },
        "label": "O",
        "xyz": [0.7086808736193118, 4.885967523561793, 6.657634869873789]
      },
      {
        "species": [{ "element": "O", "occu": 1 }],
        "abc": [0.8223818900000001, 0.20057038, 0.35167506],
        "properties": { "magmom": 0.0 },
        "label": "O",
        "xyz": [3.281232506380688, 1.3988321385617926, 3.6113436301262096]
      }
    ]
  },
  "task_ids": null,
  "uncorrected_energy_per_atom": null,
  "energy_per_atom": -2.80672111,
  "formation_energy_per_atom": -0.066103085,
  "energy_above_hull": 0.044283101944444,
  "is_stable": false,
  "equilibrium_reaction_energy_per_atom": null,
  "decomposes_to": null,
  "xas": null,
  "grain_boundaries": null,
  "band_gap": 1.3935,
  "cbm": null,
  "vbm": null,
  "efermi": -0.17644432000000002,
  "is_gap_direct": null,
  "is_metal": null,
  "es_source_calc_id": null,
  "bandstructure": null,
  "dos": null,
  "dos_energy_up": null,
  "dos_energy_down": null,
  "is_magnetic": null,
  "ordering": null,
  "total_magnetization": 0.0,
  "total_magnetization_normalized_vol": null,
  "total_magnetization_normalized_formula_units": null,
  "num_magnetic_sites": null,
  "num_unique_magnetic_sites": null,
  "types_of_magnetic_species": null,
  "bulk_modulus": null,
  "shear_modulus": null,
  "universal_anisotropy": null,
  "homogeneous_poisson": null,
  "e_total": null,
  "e_ionic": null,
  "e_electronic": null,
  "n": null,
  "e_ij_max": null,
  "weighted_surface_energy_EV_PER_ANG2": null,
  "weighted_surface_energy": null,
  "weighted_work_function": null,
  "surface_anisotropy": null,
  "shape_factor": null,
  "has_reconstructed": null,
  "possible_species": null,
  "has_props": null,
  "theoretical": null,
  "database_IDs": null,
  "fields_not_requested": [
    "builder_meta",
    "nsites",
    "elements",
    "nelements",
    "composition",
    "composition_reduced",
    "chemsys",
    "symmetry",
    "property_name",
    "deprecated",
    "deprecation_reasons",
    "last_updated",
    "origins",
    "warnings",
    "task_ids",
    "uncorrected_energy_per_atom",
    "equilibrium_reaction_energy_per_atom",
    "decomposes_to",
    "xas",
    "grain_boundaries",
    "cbm",
    "vbm",
    "is_gap_direct",
    "is_metal",
    "es_source_calc_id",
    "bandstructure",
    "dos",
    "dos_energy_up",
    "dos_energy_down",
    "is_magnetic",
    "ordering",
    "total_magnetization_normalized_vol",
    "total_magnetization_normalized_formula_units",
    "num_magnetic_sites",
    "num_unique_magnetic_sites",
    "types_of_magnetic_species",
    "bulk_modulus",
    "shear_modulus",
    "universal_anisotropy",
    "homogeneous_poisson",
    "e_total",
    "e_ionic",
    "e_electronic",
    "n",
    "e_ij_max",
    "weighted_surface_energy_EV_PER_ANG2",
    "weighted_surface_energy",
    "weighted_work_function",
    "surface_anisotropy",
    "shape_factor",
    "has_reconstructed",
    "possible_species",
    "has_props",
    "theoretical",
    "database_IDs"
  ]
}
