{
  "builder_meta": null,
  "nsites": null,
  "elements": null,
  "nelements": null,
  "composition": null,
  "composition_reduced": null,
  "formula_pretty": "BrF3",
  "formula_anonymous": "AB3",
  "chemsys": null,
  "volume": 125.08250317300545,
  "density": 3.634824695074091,
  "density_atomic": 15.635312896625681,
  "symmetry": null,
  "property_name": null,
  "material_id": "mp-23297",
  "deprecated": null,
  "deprecation_reasons": null,
  "last_updated": null,
  "origins": null,
  "warnings": null,
  "structure": {
    "@module": "pymatgen.core.structure",
    "@class": "Structure",
    "charge": 0,
    "lattice": {
      "matrix": [
        [4.62248022, -0.07634148, 0.0],
        [-1.50109861, 4.37262579, 0.0],
        [0.0, 0.0, 6.22369746]
      ],
      "pbc": [true, true, true],
      "a": 4.623110576858381,
      "b": 4.623110785641747,
      "c": 6.22369746,
      "alpha": 90.0,
      "beta": 90.0,
      "gamma": 109.8932358308071,
      "volume": 125.08250317300545
    },
    "properties": {},
    "sites": [
      {
        "species": [{ "element": "Br", "occu": 1 }],
        "abc": [0.83880454, 0.16119546, 0.25736027],
        "properties": { "magmom": 0.0 },
        "label": "Br",
        "xyz": [3.635387113651888, 0.6408118456125942, 1.6017324587039143]
      },
      {
        "species": [{ "element": "Br", "occu": 1 }],
        "abc": [0.16119546, 0.83880454, 0.7573602700000001],
        "properties": { "magmom": 0.0 },
        "label": "Br",
        "xyz": [-0.5140055036518884, 3.655472464387406, 4.713581188703915]
      },
      {
        "species": [{ "element": "F", "occu": 1 }],
        "abc": [0.07097323, 0.92902677, 0.09074423],
        "properties": { "magmom": 0.0 },
        "label": "F",
        "xyz": [-1.0664884412752793, 4.056868212683818, 0.5647646337606558]
      },
      {
        "species": [{ "element": "F", "occu": 1 }],
        "abc": [0.92902677, 0.07097323, 0.59074423],
        "properties": { "magmom": 0.0 },
        "label": "F",
        "xyz": [4.187870051275279, 0.23941609731618207, 3.676613363760656]
      },
      {
        "species": [{ "element": "F", "occu": 1 }],
        "abc": [0.26493775, 0.73506225, 0.50169156],
        "properties": { "magmom": -0.0 },
        "label": "F",
        "xyz": [0.12126858716783251, 3.1939264116625576, 3.122376487675438]
      },
      {
        "species": [{ "element": "F", "occu": 1 }],
        "abc": [0.73506225, 0.26493775, 0.00169156],
        "properties": { "magmom": -0.0 },
        "label": "F",
        "xyz": [3.0001130228321675, 1.1023578983374427, 0.0105277576754376]
      },
      {
        "species": [{ "element": "F", "occu": 1 }],
        "abc": [0.37600987, 0.62399013, 0.88020394],
        "properties": { "magmom": 0.0 },
        "label": "F",
        "xyz": [0.8014274698030521, 2.699770185173045, 5.478123025659992]
      },
      {
        "species": [{ "element": "F", "occu": 1 }],
        "abc": [0.62399013, 0.37600987, 0.38020394],
        "properties": { "magmom": 0.0 },
        "label": "F",
        "xyz": [2.319954140196948, 1.596514124826955, 2.3662742956599927]
      }
    ]
  },
  "task_ids": null,
  "uncorrected_energy_per_atom": null,
  "energy_per_atom": -3.08527277625,
  "formation_energy_per_atom": -1.2406468612500001,
  "energy_above_hull": 0.0,
  "is_stable": true,
  "equilibrium_reaction_energy_per_atom": null,
  "decomposes_to": null,
  "xas": null,
  "grain_boundaries": null,
  "band_gap": 2.211,
  "cbm": null,
  "vbm": null,
  "efermi": -1.38251485,
  "is_gap_direct": null,
  "is_metal": null,
  "es_source_calc_id": null,
  "bandstructure": null,
  "dos": null,
  "dos_energy_up": null,
  "dos_energy_down": null,
  "is_magnetic": null,
  "ordering": null,
  "total_magnetization": 0.0,
  "total_magnetization_normalized_vol": null,
  "total_magnetization_normalized_formula_units": null,
  "num_magnetic_sites": null,
  "num_unique_magnetic_sites": null,
  "types_of_magnetic_species": null,
  "bulk_modulus": null,
  "shear_modulus": null,
  "universal_anisotropy": null,
  "homogeneous_poisson": null,
  "e_total": null,
  "e_ionic": null,
  "e_electronic": null,
  "n": null,
  "e_ij_max": null,
  "weighted_surface_energy_EV_PER_ANG2": null,
  "weighted_surface_energy": null,
  "weighted_work_function": null,
  "surface_anisotropy": null,
  "shape_factor": null,
  "has_reconstructed": null,
  "possible_species": null,
  "has_props": null,
  "theoretical": null,
  "database_IDs": null,
  "fields_not_requested": [
    "builder_meta",
    "nsites",
    "elements",
    "nelements",
    "composition",
    "composition_reduced",
    "chemsys",
    "symmetry",
    "property_name",
    "deprecated",
    "deprecation_reasons",
    "last_updated",
    "origins",
    "warnings",
    "task_ids",
    "uncorrected_energy_per_atom",
    "equilibrium_reaction_energy_per_atom",
    "decomposes_to",
    "xas",
    "grain_boundaries",
    "cbm",
    "vbm",
    "is_gap_direct",
    "is_metal",
    "es_source_calc_id",
    "bandstructure",
    "dos",
    "dos_energy_up",
    "dos_energy_down",
    "is_magnetic",
    "ordering",
    "total_magnetization_normalized_vol",
    "total_magnetization_normalized_formula_units",
    "num_magnetic_sites",
    "num_unique_magnetic_sites",
    "types_of_magnetic_species",
    "bulk_modulus",
    "shear_modulus",
    "universal_anisotropy",
    "homogeneous_poisson",
    "e_total",
    "e_ionic",
    "e_electronic",
    "n",
    "e_ij_max",
    "weighted_surface_energy_EV_PER_ANG2",
    "weighted_surface_energy",
    "weighted_work_function",
    "surface_anisotropy",
    "shape_factor",
    "has_reconstructed",
    "possible_species",
    "has_props",
    "theoretical",
    "database_IDs"
  ]
}
