{"builder_meta": null, "nsites": null, "elements": null, "nelements": null, "composition": null, "composition_reduced": null, "formula_pretty": "BrF5", "formula_anonymous": "AB5", "chemsys": null, "volume": 177.0242604240604, "density": 3.281151029412528, "density_atomic": 14.752021702005033, "symmetry": null, "property_name": null, "material_id": "mp-27987", "deprecated": null, "deprecation_reasons": null, "last_updated": null, "origins": null, "warnings": null, "structure": {"@module": "pymatgen.core.structure", "@class": "Structure", "charge": 0, "lattice": {"matrix": [[4.8020772, 0.00176894, 0.0], [-0.57449667, 4.76758855, 0.0], [0.0, 0.0, 7.73188891]], "pbc": [true, true, true], "a": 4.8020775258119865, "b": 4.802077363592989, "c": 7.73188891, "alpha": 90.0, "beta": 90.0, "gamma": 96.84993357469351, "volume": 177.0242604240604}, "properties": {}, "sites": [{"species": [{"element": "Br", "occu": 1}], "abc": [0.83067583, 0.16932417, 0.253232299999999], "properties": {"magmom": -0.0}, "label": "Br", "xyz": [3.8916932920185623, 0.8087373898329737, 1.9579640120237856]}, {"species": [{"element": "Br", "occu": 1}], "abc": [0.16932417, 0.83067583, 0.7532323], "properties": {"magmom": -0.0}, "label": "Br", "xyz": [0.3358872379814379, 3.9606201001670267, 5.823908467023793]}, {"species": [{"element": "F", "occu": 1}], "abc": [0.09345969999999901, 0.46807501, 0.24179682], "properties": {"magmom": -0.0}, "label": "F", "xyz": [0.17989315993361854, 2.2317543828188535, 1.8695461510312663]}, {"species": [{"element": "F", "occu": 1}], "abc": [0.9065403, 0.53192499, 0.74179682], "properties": {"magmom": -0.0}, "label": "F", "xyz": [4.0476873700663765, 2.537603107181147, 5.7354906060312665]}, {"species": [{"element": "F", "occu": 1}], "abc": [0.34524206, 0.65475794, 0.60076405], "properties": {"magmom": 0.0}, "label": "F", "xyz": [1.2817227686209722, 3.1222271702552034, 4.645040895721686]}, {"species": [{"element": "F", "occu": 1}], "abc": [0.65475794, 0.34524206, 0.10076405000000001], "properties": {"magmom": 0.0}, "label": "F", "xyz": [2.9458577613790276, 1.6471303197447968, 0.7790964407216856]}, {"species": [{"element": "F", "occu": 1}], "abc": [0.35133977, 0.6486602300000001, 0.90940091], "properties": {"magmom": 0.0}, "label": "F", "xyz": [1.31450755687381, 3.0931665843611107, 7.031386810772909]}, {"species": [{"element": "F", "occu": 1}], "abc": [0.6486602300000001, 0.35133977, 0.40940091], "properties": {"magmom": 0.0}, "label": "F", "xyz": [2.9130729731261904, 1.6761909056388897, 3.165442355772908]}, {"species": [{"element": "F", "occu": 1}], "abc": [0.01604397, 0.98395603, 0.56301109], "properties": {"magmom": 0.0}, "label": "F", "xyz": [-0.48823508012693617, 4.691125883151749, 4.353139202978013]}, {"species": [{"element": "F", "occu": 1}], "abc": [0.98395603, 0.01604397, 0.06301109], "properties": {"magmom": 0.0}, "label": "F", "xyz": [4.715815610126937, 0.0782316068482517, 0.487194747978012]}, {"species": [{"element": "F", "occu": 1}], "abc": [0.46807501, 0.09345969999999901, 0.74179682], "properties": {"magmom": -0.0}, "label": "F", "xyz": [2.194040046981574, 0.44640539221461967, 5.7354906060312665]}, {"species": [{"element": "F", "occu": 1}], "abc": [0.53192499, 0.9065403, 0.24179682], "properties": {"magmom": -0.0}, "label": "F", "xyz": [2.0335404830184274, 4.322952097785376, 1.8695461510312663]}]}, "task_ids": null, "uncorrected_energy_per_atom": null, "energy_per_atom": -3.194552247499999, "formation_energy_per_atom": -1.326850845833333, "energy_above_hull": 0.0, "is_stable": true, "equilibrium_reaction_energy_per_atom": null, "decomposes_to": null, "xas": null, "grain_boundaries": null, "band_gap": 3.4507, "cbm": null, "vbm": null, "efermi": -3.49906028, "is_gap_direct": null, "is_metal": null, "es_source_calc_id": null, "bandstructure": null, "dos": null, "dos_energy_up": null, "dos_energy_down": null, "is_magnetic": null, "ordering": null, "total_magnetization": 0.0, "total_magnetization_normalized_vol": null, "total_magnetization_normalized_formula_units": null, "num_magnetic_sites": null, "num_unique_magnetic_sites": null, "types_of_magnetic_species": null, "bulk_modulus": null, "shear_modulus": null, "universal_anisotropy": null, "homogeneous_poisson": null, "e_total": null, "e_ionic": null, "e_electronic": null, "n": null, "e_ij_max": null, "weighted_surface_energy_EV_PER_ANG2": null, "weighted_surface_energy": null, "weighted_work_function": null, "surface_anisotropy": null, "shape_factor": null, "has_reconstructed": null, "possible_species": null, "has_props": null, "theoretical": null, "database_IDs": null, "fields_not_requested": ["builder_meta", "nsites", "elements", "nelements", "composition", "composition_reduced", "chemsys", "symmetry", "property_name", "deprecated", "deprecation_reasons", "last_updated", "origins", "warnings", "task_ids", "uncorrected_energy_per_atom", "equilibrium_reaction_energy_per_atom", "decomposes_to", "xas", "grain_boundaries", "cbm", "vbm", "is_gap_direct", "is_metal", "es_source_calc_id", "bandstructure", "dos", "dos_energy_up", "dos_energy_down", "is_magnetic", "ordering", "total_magnetization_normalized_vol", "total_magnetization_normalized_formula_units", "num_magnetic_sites", "num_unique_magnetic_sites", "types_of_magnetic_species", "bulk_modulus", "shear_modulus", "universal_anisotropy", "homogeneous_poisson", "e_total", "e_ionic", "e_electronic", "n", "e_ij_max", "weighted_surface_energy_EV_PER_ANG2", "weighted_surface_energy", "weighted_work_function", "surface_anisotropy", "shape_factor", "has_reconstructed", "possible_species", "has_props", "theoretical", "database_IDs"]}