{"builder_meta": null, "nsites": null, "elements": null, "nelements": null, "composition": null, "composition_reduced": null, "formula_pretty": "BRh", "formula_anonymous": "AB", "chemsys": null, "volume": 40.451435447855424, "density": 9.336167613158457, "density_atomic": 10.112858861963856, "symmetry": null, "property_name": null, "material_id": "mp-567164", "deprecated": null, "deprecation_reasons": null, "last_updated": null, "origins": null, "warnings": null, "structure": {"@module": "pymatgen.core.structure", "@class": "Structure", "charge": 0, "lattice": {"matrix": [[3.37705805, -0.009217050000000001, -0.0], [-1.68058649, 2.92920303, 0.0], [-0.0, 0.0, 4.09568486]], "pbc": [true, true, true], "a": 3.3770706280859017, "b": 3.377069934326457, "c": 4.09568486, "alpha": 90.0, "beta": 90.0, "gamma": 120.00078259416472, "volume": 40.451435447855424}, "properties": {}, "sites": [{"species": [{"element": "B", "occu": 1}], "abc": [0.5, 0.5, -0.0], "properties": {"magmom": 0.0}, "label": "B", "xyz": [0.84823578, 1.45999299, 0.0]}, {"species": [{"element": "B", "occu": 1}], "abc": [0.5, 0.5, 0.5], "properties": {"magmom": 0.0}, "label": "B", "xyz": [0.84823578, 1.45999299, 2.04784243]}, {"species": [{"element": "Rh", "occu": 1}], "abc": [0.16667244, 0.83332756, 0.75], "properties": {"magmom": -0.0}, "label": "Rh", "xyz": [-0.8376165338655223, 2.439449385521405, 3.0717636450000003]}, {"species": [{"element": "Rh", "occu": 1}], "abc": [0.83332756, 0.16667244, 0.25], "properties": {"magmom": -0.0}, "label": "Rh", "xyz": [2.534088093865522, 0.4805365944785952, 1.023921215]}]}, "task_ids": null, "uncorrected_energy_per_atom": null, "energy_per_atom": -16.1703464975, "formation_energy_per_atom": -0.429055083749998, "energy_above_hull": 0.0, "is_stable": true, "equilibrium_reaction_energy_per_atom": null, "decomposes_to": null, "xas": null, "grain_boundaries": null, "band_gap": 0.0, "cbm": null, "vbm": null, "efermi": 7.39308391, "is_gap_direct": null, "is_metal": null, "es_source_calc_id": null, "bandstructure": null, "dos": null, "dos_energy_up": null, "dos_energy_down": null, "is_magnetic": null, "ordering": null, "total_magnetization": 1e-07, "total_magnetization_normalized_vol": null, "total_magnetization_normalized_formula_units": null, "num_magnetic_sites": null, "num_unique_magnetic_sites": null, "types_of_magnetic_species": null, "bulk_modulus": null, "shear_modulus": null, "universal_anisotropy": null, "homogeneous_poisson": null, "e_total": null, "e_ionic": null, "e_electronic": null, "n": null, "e_ij_max": null, "weighted_surface_energy_EV_PER_ANG2": null, "weighted_surface_energy": null, "weighted_work_function": null, "surface_anisotropy": null, "shape_factor": null, "has_reconstructed": null, "possible_species": null, "has_props": null, "theoretical": null, "database_IDs": null, "fields_not_requested": ["builder_meta", "nsites", "elements", "nelements", "composition", "composition_reduced", "chemsys", "symmetry", "property_name", "deprecated", "deprecation_reasons", "last_updated", "origins", "warnings", "task_ids", "uncorrected_energy_per_atom", "equilibrium_reaction_energy_per_atom", "decomposes_to", "xas", "grain_boundaries", "cbm", "vbm", "is_gap_direct", "is_metal", "es_source_calc_id", "bandstructure", "dos", "dos_energy_up", "dos_energy_down", "is_magnetic", "ordering", "total_magnetization_normalized_vol", "total_magnetization_normalized_formula_units", "num_magnetic_sites", "num_unique_magnetic_sites", "types_of_magnetic_species", "bulk_modulus", "shear_modulus", "universal_anisotropy", "homogeneous_poisson", "e_total", "e_ionic", "e_electronic", "n", "e_ij_max", "weighted_surface_energy_EV_PER_ANG2", "weighted_surface_energy", "weighted_work_function", "surface_anisotropy", "shape_factor", "has_reconstructed", "possible_species", "has_props", "theoretical", "database_IDs"]}