{
  "builder_meta": null,
  "nsites": null,
  "elements": null,
  "nelements": null,
  "composition": null,
  "composition_reduced": null,
  "formula_pretty": "BRh2",
  "formula_anonymous": "AB2",
  "chemsys": null,
  "volume": 140.9667256754271,
  "density": 10.206927683437812,
  "density_atomic": 11.747227139618927,
  "symmetry": null,
  "property_name": null,
  "material_id": "mp-21502",
  "deprecated": null,
  "deprecation_reasons": null,
  "last_updated": null,
  "origins": null,
  "warnings": null,
  "structure": {
    "@module": "pymatgen.core.structure",
    "@class": "Structure",
    "charge": 0,
    "lattice": {
      "matrix": [
        [3.845644, 0.0, 0.0],
        [0.0, 5.399878, 0.0],
        [0.0, 0.0, 6.78834]
      ],
      "pbc": [true, true, true],
      "a": 3.845644,
      "b": 5.399878,
      "c": 6.78834,
      "alpha": 90.0,
      "beta": 90.0,
      "gamma": 90.0,
      "volume": 140.9667256754271
    },
    "properties": {},
    "sites": [
      {
        "species": [{ "element": "B", "occu": 1 }],
        "abc": [0.25, 0.232744999999999, 0.100846999999999],
        "properties": { "magmom": -0.0 },
        "label": "B",
        "xyz": [0.961411, 1.2567946051099947, 0.6845837239799932]
      },
      {
        "species": [{ "element": "B", "occu": 1 }],
        "abc": [0.25, 0.732745, 0.399153],
        "properties": { "magmom": -0.0 },
        "label": "B",
        "xyz": [0.961411, 3.95673360511, 2.7095862760199996]
      },
      {
        "species": [{ "element": "B", "occu": 1 }],
        "abc": [0.75, 0.267254999999999, 0.600847],
        "properties": { "magmom": -0.0 },
        "label": "B",
        "xyz": [2.884233, 1.4431443948899947, 4.07875372398]
      },
      {
        "species": [{ "element": "B", "occu": 1 }],
        "abc": [0.75, 0.767255, 0.899153],
        "properties": { "magmom": -0.0 },
        "label": "B",
        "xyz": [2.884233, 4.1430833948900005, 6.1037562760199995]
      },
      {
        "species": [{ "element": "Rh", "occu": 1 }],
        "abc": [0.25, 0.006916999999999, 0.850683],
        "properties": { "magmom": 0.001 },
        "label": "Rh",
        "xyz": [0.961411, 0.0373509561259946, 5.77472543622]
      },
      {
        "species": [{ "element": "Rh", "occu": 1 }],
        "abc": [0.25, 0.124926, 0.403485999999999],
        "properties": { "magmom": 0.0 },
        "label": "Rh",
        "xyz": [0.961411, 0.674585159028, 2.739000153239993]
      },
      {
        "species": [{ "element": "Rh", "occu": 1 }],
        "abc": [0.75, 0.875073999999999, 0.596514],
        "properties": { "magmom": 0.0 },
        "label": "Rh",
        "xyz": [2.884233, 4.725292840971995, 4.04933984676]
      },
      {
        "species": [{ "element": "Rh", "occu": 1 }],
        "abc": [0.25, 0.506917, 0.649316999999999],
        "properties": { "magmom": -0.0 },
        "label": "Rh",
        "xyz": [0.961411, 2.737289956126, 4.407784563779994]
      },
      {
        "species": [{ "element": "Rh", "occu": 1 }],
        "abc": [0.75, 0.993082999999999, 0.149317],
        "properties": { "magmom": 0.001 },
        "label": "Rh",
        "xyz": [2.884233, 5.362527043873995, 1.01361456378]
      },
      {
        "species": [{ "element": "Rh", "occu": 1 }],
        "abc": [0.75, 0.493083, 0.350682999999999],
        "properties": { "magmom": -0.0 },
        "label": "Rh",
        "xyz": [2.884233, 2.662588043874, 2.380555436219993]
      },
      {
        "species": [{ "element": "Rh", "occu": 1 }],
        "abc": [0.75, 0.375073999999999, 0.903486],
        "properties": { "magmom": 0.0 },
        "label": "Rh",
        "xyz": [2.884233, 2.0253538409719947, 6.13317015324]
      },
      {
        "species": [{ "element": "Rh", "occu": 1 }],
        "abc": [0.25, 0.624926, 0.096514],
        "properties": { "magmom": 0.0 },
        "label": "Rh",
        "xyz": [0.961411, 3.374524159028, 0.65516984676]
      }
    ]
  },
  "task_ids": null,
  "uncorrected_energy_per_atom": null,
  "energy_per_atom": -18.771398639166666,
  "formation_energy_per_atom": -0.231794819999999,
  "energy_above_hull": 0.074466955833333,
  "is_stable": false,
  "equilibrium_reaction_energy_per_atom": null,
  "decomposes_to": null,
  "xas": null,
  "grain_boundaries": null,
  "band_gap": 0.0,
  "cbm": null,
  "vbm": null,
  "efermi": 7.00154612,
  "is_gap_direct": null,
  "is_metal": null,
  "es_source_calc_id": null,
  "bandstructure": null,
  "dos": null,
  "dos_energy_up": null,
  "dos_energy_down": null,
  "is_magnetic": null,
  "ordering": null,
  "total_magnetization": 0.0018983,
  "total_magnetization_normalized_vol": null,
  "total_magnetization_normalized_formula_units": null,
  "num_magnetic_sites": null,
  "num_unique_magnetic_sites": null,
  "types_of_magnetic_species": null,
  "bulk_modulus": null,
  "shear_modulus": null,
  "universal_anisotropy": null,
  "homogeneous_poisson": null,
  "e_total": null,
  "e_ionic": null,
  "e_electronic": null,
  "n": null,
  "e_ij_max": null,
  "weighted_surface_energy_EV_PER_ANG2": null,
  "weighted_surface_energy": null,
  "weighted_work_function": null,
  "surface_anisotropy": null,
  "shape_factor": null,
  "has_reconstructed": null,
  "possible_species": null,
  "has_props": null,
  "theoretical": null,
  "database_IDs": null,
  "fields_not_requested": [
    "builder_meta",
    "nsites",
    "elements",
    "nelements",
    "composition",
    "composition_reduced",
    "chemsys",
    "symmetry",
    "property_name",
    "deprecated",
    "deprecation_reasons",
    "last_updated",
    "origins",
    "warnings",
    "task_ids",
    "uncorrected_energy_per_atom",
    "equilibrium_reaction_energy_per_atom",
    "decomposes_to",
    "xas",
    "grain_boundaries",
    "cbm",
    "vbm",
    "is_gap_direct",
    "is_metal",
    "es_source_calc_id",
    "bandstructure",
    "dos",
    "dos_energy_up",
    "dos_energy_down",
    "is_magnetic",
    "ordering",
    "total_magnetization_normalized_vol",
    "total_magnetization_normalized_formula_units",
    "num_magnetic_sites",
    "num_unique_magnetic_sites",
    "types_of_magnetic_species",
    "bulk_modulus",
    "shear_modulus",
    "universal_anisotropy",
    "homogeneous_poisson",
    "e_total",
    "e_ionic",
    "e_electronic",
    "n",
    "e_ij_max",
    "weighted_surface_energy_EV_PER_ANG2",
    "weighted_surface_energy",
    "weighted_work_function",
    "surface_anisotropy",
    "shape_factor",
    "has_reconstructed",
    "possible_species",
    "has_props",
    "theoretical",
    "database_IDs"
  ]
}
