{"builder_meta": null, "nsites": null, "elements": null, "nelements": null, "composition": null, "composition_reduced": null, "formula_pretty": "BrN3", "formula_anonymous": "AB3", "chemsys": null, "volume": 811.1863477064139, "density": 1.996677895603042, "density_atomic": 25.349573365825435, "symmetry": null, "property_name": null, "material_id": "mp-1198478", "deprecated": null, "deprecation_reasons": null, "last_updated": null, "origins": null, "warnings": null, "structure": {"@module": "pymatgen.core.structure", "@class": "Structure", "charge": 0, "lattice": {"matrix": [[-7.03842, 7.03842, 4.093646], [7.03842, -7.03842, 4.093646], [7.03842, 7.03842, -4.093646]], "pbc": [true, true, true], "a": 10.762743598456483, "b": 10.762743598456483, "c": 10.762743598456483, "alpha": 98.3180948350701, "beta": 98.3180948350701, "gamma": 135.28885183065177, "volume": 811.1863477064139}, "properties": {}, "sites": [{"species": [{"element": "Br", "occu": 1}], "abc": [0.451042, 0.45217, 0.76861], "properties": {"magmom": -0.0}, "label": "Br", "xyz": [5.41773933396, 5.40186065844, 0.5510129388919998]}, {"species": [{"element": "Br", "occu": 1}], "abc": [0.951041999999999, 0.182431999999999, 0.9988729999999991], "properties": {"magmom": -0.0}, "label": "Br", "xyz": [1.6206877044599937, 12.440287696859993, 0.5510088452459962]}, {"species": [{"element": "Br", "occu": 1}], "abc": [0.932431999999999, 0.201042, 0.498872999999999], "properties": {"magmom": -0.0}, "label": "Br", "xyz": [-1.6365523031399998, 8.659107704459986, 2.5978318452459996]}, {"species": [{"element": "Br", "occu": 1}], "abc": [0.20217000000000002, 0.701041999999999, 0.26861], "properties": {"magmom": -0.0}, "label": "Br", "xyz": [5.401860658439994, -1.620680666039994, 2.597835938891996]}, {"species": [{"element": "Br", "occu": 1}], "abc": [0.683558999999999, 0.682431999999999, 0.23139], "properties": {"magmom": -0.0}, "label": "Br", "xyz": [1.62068770446, 1.6365523031400004, 4.644654845245992]}, {"species": [{"element": "Br", "occu": 1}], "abc": [0.183559, 0.9521700000000001, 0.001127], "properties": {"magmom": -0.0}, "label": "Br", "xyz": [5.41773933396, -5.40187473528, 4.644658938891999]}, {"species": [{"element": "Br", "occu": 1}], "abc": [0.7021700000000001, 0.43355899999999903, 0.501127], "properties": {"magmom": -0.0}, "label": "Br", "xyz": [1.636545264719992, 5.417739333960007, 2.5978359388919965]}, {"species": [{"element": "Br", "occu": 1}], "abc": [0.432432, 0.933558999999999, 0.7313900000000001], "properties": {"magmom": -0.0}, "label": "Br", "xyz": [8.674972303139995, 1.6206877044600079, 2.5978318452459956]}, {"species": [{"element": "N", "occu": 1}], "abc": [0.644238, 0.469869, 0.79266], "properties": {"magmom": -0.0}, "label": "N", "xyz": [4.3517917402199995, 6.806356254180001, 1.3158902257619993]}, {"species": [{"element": "N", "occu": 1}], "abc": [0.144238, 0.351578, 0.174368], "properties": {"magmom": -0.0}, "label": "N", "xyz": [2.6866212213600003, -0.23207078424000005, 1.3158943194080002]}, {"species": [{"element": "N", "occu": 1}], "abc": [0.101578, 0.394238, 0.674368], "properties": {"magmom": -0.0}, "label": "N", "xyz": [6.80634921576, 2.6866212213600003, -0.7309286805920001]}, {"species": [{"element": "N", "occu": 1}], "abc": [0.219868999999999, 0.894238, 0.29266000000000003], "properties": {"magmom": -0.0}, "label": "N", "xyz": [6.806356254180008, -2.6866282597800066, 3.3627132257619956]}, {"species": [{"element": "N", "occu": 1}], "abc": [0.6772100000000001, 0.851578, 0.20734000000000002], "properties": {"magmom": -0.0}, "label": "N", "xyz": [2.6866212213599994, 0.23207078424000116, 5.409540319407999]}, {"species": [{"element": "N", "occu": 1}], "abc": [0.17721, 0.969869, 0.825631999999999], "properties": {"magmom": -0.0}, "label": "N", "xyz": [11.390211740219993, 0.23207782265999288, 1.3158902257620042]}, {"species": [{"element": "N", "occu": 1}], "abc": [0.719869, 0.42721000000000003, 0.325632], "properties": {"magmom": -0.0}, "label": "N", "xyz": [0.23207782265999954, 4.3517917402199995, 3.362713225762]}, {"species": [{"element": "N", "occu": 1}], "abc": [0.601578, 0.9272100000000001, 0.7073400000000001], "properties": {"magmom": -0.0}, "label": "N", "xyz": [7.2704907842400015, 2.6866212213599994, 3.3627173194079996]}, {"species": [{"element": "N", "occu": 1}], "abc": [0.668821999999999, 0.439266999999999, 0.895212999999999], "properties": {"magmom": 0.0}, "label": "N", "xyz": [4.685180580359994, 7.916589586559994, 0.8714389858959954]}, {"species": [{"element": "N", "occu": 1}], "abc": [0.168822, 0.273609, 0.229554999999999], "properties": {"magmom": 0.0}, "label": "N", "xyz": [2.3532394196399933, 0.878169586559993, 0.8714389858960038]}, {"species": [{"element": "N", "occu": 1}], "abc": [0.023608999999999002, 0.41882199999999903, 0.729555], "properties": {"magmom": 0.0}, "label": "N", "xyz": [7.916589586560001, 2.35323941964, -1.1753840141040077]}, {"species": [{"element": "N", "occu": 1}], "abc": [0.189267, 0.918821999999999, 0.395213], "properties": {"magmom": 0.0}, "label": "N", "xyz": [7.916589586559994, -2.353239419639993, 2.9182619858959957]}, {"species": [{"element": "N", "occu": 1}], "abc": [0.544053999999999, 0.773609, 0.104786999999999], "properties": {"magmom": 0.0}, "label": "N", "xyz": [2.35323941964, -0.878169586560014, 4.965084985896]}, {"species": [{"element": "N", "occu": 1}], "abc": [0.044053999999999004, 0.939267, 0.770444999999999], "properties": {"magmom": 0.0}, "label": "N", "xyz": [11.72360058036, -0.8781695865600136, 0.8714389858959999]}, {"species": [{"element": "N", "occu": 1}], "abc": [0.689267, 0.294054, 0.270445], "properties": {"magmom": 0.0}, "label": "N", "xyz": [-0.8781695865599997, 4.68518058036, 2.9182619858959997]}, {"species": [{"element": "N", "occu": 1}], "abc": [0.523609, 0.794053999999999, 0.604787], "properties": {"magmom": 0.0}, "label": "N", "xyz": [6.160250413439993, 2.353239419640006, 2.9182619858959957]}, {"species": [{"element": "N", "occu": 1}], "abc": [0.706287, 0.414186, 0.986799], "properties": {"magmom": 0.0}, "label": "N", "xyz": [4.88957629716, 9.001435338, 0.547214035404]}, {"species": [{"element": "N", "occu": 1}], "abc": [0.206287, 0.219488, 0.292101], "properties": {"magmom": 0.0}, "label": "N", "xyz": [2.14884370284, 1.963015338, 0.5472140354039998]}, {"species": [{"element": "N", "occu": 1}], "abc": [0.9694879999999991, 0.456287, 0.7921009999999991], "properties": {"magmom": 0.0}, "label": "N", "xyz": [1.963015337999999, 9.187263702839989, 2.594037035404]}, {"species": [{"element": "N", "occu": 1}], "abc": [0.164186, 0.956287, 0.486799], "properties": {"magmom": 0.0}, "label": "N", "xyz": [9.001435338, -2.1488437028400003, 2.594037035404]}, {"species": [{"element": "N", "occu": 1}], "abc": [0.427386999999999, 0.719488, 0.013201], "properties": {"magmom": 0.0}, "label": "N", "xyz": [2.148843702840007, -1.963015338000007, 4.640860035403996]}, {"species": [{"element": "N", "occu": 1}], "abc": [0.927387, 0.914185999999999, 0.707899], "properties": {"magmom": 0.0}, "label": "N", "xyz": [4.889576297159993, 5.075404662000007, 4.640860035403996]}, {"species": [{"element": "N", "occu": 1}], "abc": [0.664185999999999, 0.177387, 0.207899], "properties": {"magmom": 0.0}, "label": "N", "xyz": [-1.9630153379999935, 4.889576297159993, 2.5940370354039963]}, {"species": [{"element": "N", "occu": 1}], "abc": [0.469487999999999, 0.677387, 0.513201], "properties": {"magmom": 0.0}, "label": "N", "xyz": [5.0754046620000075, 2.148843702839993, 2.594037035403995]}]}, "task_ids": null, "uncorrected_energy_per_atom": null, "energy_per_atom": -6.1727669578125, "formation_energy_per_atom": 0.490177984687499, "energy_above_hull": 0.490177984687499, "is_stable": false, "equilibrium_reaction_energy_per_atom": null, "decomposes_to": null, "xas": null, "grain_boundaries": null, "band_gap": 2.0113, "cbm": null, "vbm": null, "efermi": -1.997544309999999, "is_gap_direct": null, "is_metal": null, "es_source_calc_id": null, "bandstructure": null, "dos": null, "dos_energy_up": null, "dos_energy_down": null, "is_magnetic": null, "ordering": null, "total_magnetization": 0.0008914, "total_magnetization_normalized_vol": null, "total_magnetization_normalized_formula_units": null, "num_magnetic_sites": null, "num_unique_magnetic_sites": null, "types_of_magnetic_species": null, "bulk_modulus": null, "shear_modulus": null, "universal_anisotropy": null, "homogeneous_poisson": null, "e_total": null, "e_ionic": null, "e_electronic": null, "n": null, "e_ij_max": null, "weighted_surface_energy_EV_PER_ANG2": null, "weighted_surface_energy": null, "weighted_work_function": null, "surface_anisotropy": null, "shape_factor": null, "has_reconstructed": null, "possible_species": null, "has_props": null, "theoretical": null, "database_IDs": null, "fields_not_requested": ["builder_meta", "nsites", "elements", "nelements", "composition", "composition_reduced", "chemsys", "symmetry", "property_name", "deprecated", "deprecation_reasons", "last_updated", "origins", "warnings", "task_ids", "uncorrected_energy_per_atom", "equilibrium_reaction_energy_per_atom", "decomposes_to", "xas", "grain_boundaries", "cbm", "vbm", "is_gap_direct", "is_metal", "es_source_calc_id", "bandstructure", "dos", "dos_energy_up", "dos_energy_down", "is_magnetic", "ordering", "total_magnetization_normalized_vol", "total_magnetization_normalized_formula_units", "num_magnetic_sites", "num_unique_magnetic_sites", "types_of_magnetic_species", "bulk_modulus", "shear_modulus", "universal_anisotropy", "homogeneous_poisson", "e_total", "e_ionic", "e_electronic", "n", "e_ij_max", "weighted_surface_energy_EV_PER_ANG2", "weighted_surface_energy", "weighted_work_function", "surface_anisotropy", "shape_factor", "has_reconstructed", "possible_species", "has_props", "theoretical", "database_IDs"]}