{"builder_meta": null, "nsites": null, "elements": null, "nelements": null, "composition": null, "composition_reduced": null, "formula_pretty": "BrN4", "formula_anonymous": "AB4", "chemsys": null, "volume": 320.92144609110585, "density": 2.8133788689224892, "density_atomic": 16.04607230455529, "symmetry": null, "property_name": null, "material_id": "mp-1106142", "deprecated": null, "deprecation_reasons": null, "last_updated": null, "origins": null, "warnings": null, "structure": {"@module": "pymatgen.core.structure", "@class": "Structure", "charge": 0, "lattice": {"matrix": [[6.599258, 0.0, 0.0], [0.0, 6.71963, 0.0], [0.0, 0.0, 7.236995]], "pbc": [true, true, true], "a": 6.599258, "b": 6.71963, "c": 7.236995, "alpha": 90.0, "beta": 90.0, "gamma": 90.0, "volume": 320.92144609110585}, "properties": {}, "sites": [{"species": [{"element": "Br", "occu": 1}], "abc": [0.177347, 0.210031, 0.016704], "properties": {"magmom": 0.0}, "label": "Br", "xyz": [1.170358608526, 1.4113306085300001, 0.12088676448]}, {"species": [{"element": "Br", "occu": 1}], "abc": [0.322652999999999, 0.789968999999999, 0.516703999999999], "properties": {"magmom": 0.0}, "label": "Br", "xyz": [2.1292703914739937, 5.308299391469994, 3.7393842644799933]}, {"species": [{"element": "Br", "occu": 1}], "abc": [0.822653, 0.710031, 0.483296], "properties": {"magmom": 0.0}, "label": "Br", "xyz": [5.428899391473999, 4.77114560853, 3.4976107355200003]}, {"species": [{"element": "Br", "occu": 1}], "abc": [0.677346999999999, 0.289969, 0.983296], "properties": {"magmom": 0.0}, "label": "Br", "xyz": [4.469987608525994, 1.94848439147, 7.11610823552]}, {"species": [{"element": "N", "occu": 1}], "abc": [0.148423, 0.171327999999999, 0.510155999999999], "properties": {"magmom": 0.0}, "label": "N", "xyz": [0.979481670134, 1.1512607686399934, 3.691996421219993]}, {"species": [{"element": "N", "occu": 1}], "abc": [0.351577, 0.828672, 0.010156], "properties": {"magmom": 0.0}, "label": "N", "xyz": [2.320147329866, 5.56836923136, 0.07349892122]}, {"species": [{"element": "N", "occu": 1}], "abc": [0.851576999999999, 0.671327999999999, 0.989844], "properties": {"magmom": 0.0}, "label": "N", "xyz": [5.619776329865993, 4.511075768639993, 7.16349607878]}, {"species": [{"element": "N", "occu": 1}], "abc": [0.648423, 0.328671999999999, 0.489844], "properties": {"magmom": 0.0}, "label": "N", "xyz": [4.279110670134, 2.2085542313599937, 3.54499857878]}, {"species": [{"element": "N", "occu": 1}], "abc": [0.316835, 0.293658, 0.502888], "properties": {"magmom": -0.0}, "label": "N", "xyz": [2.0908759084299997, 1.97327310654, 3.63939794156]}, {"species": [{"element": "N", "occu": 1}], "abc": [0.183165, 0.706341999999999, 0.002888], "properties": {"magmom": -0.0}, "label": "N", "xyz": [1.20875309157, 4.746356893459994, 0.02090044156]}, {"species": [{"element": "N", "occu": 1}], "abc": [0.683165, 0.793658, 0.997112], "properties": {"magmom": -0.0}, "label": "N", "xyz": [4.50838209157, 5.33308810654, 7.21609455844]}, {"species": [{"element": "N", "occu": 1}], "abc": [0.816835, 0.206342, 0.497112], "properties": {"magmom": -0.0}, "label": "N", "xyz": [5.39050490843, 1.38654189346, 3.5975970584400003]}, {"species": [{"element": "N", "occu": 1}], "abc": [0.983796999999999, 0.303213, 0.503791], "properties": {"magmom": -0.0}, "label": "N", "xyz": [6.492330222625993, 2.03747917119, 3.645932948045]}, {"species": [{"element": "N", "occu": 1}], "abc": [0.516203, 0.696786999999999, 0.0037909999999990005], "properties": {"magmom": -0.0}, "label": "N", "xyz": [3.4065567773739995, 4.682150828809994, 0.027435448044992768]}, {"species": [{"element": "N", "occu": 1}], "abc": [0.016203, 0.803213, 0.9962089999999991], "properties": {"magmom": -0.0}, "label": "N", "xyz": [0.10692777737399999, 5.39729417119, 7.209559551954994]}, {"species": [{"element": "N", "occu": 1}], "abc": [0.483797, 0.196787, 0.496208999999999], "properties": {"magmom": -0.0}, "label": "N", "xyz": [3.192701222626, 1.32233582881, 3.591062051954993]}, {"species": [{"element": "N", "occu": 1}], "abc": [0.114671, 0.981501, 0.521573], "properties": {"magmom": -0.0}, "label": "N", "xyz": [0.756743514118, 6.59532356463, 3.7746211931349998]}, {"species": [{"element": "N", "occu": 1}], "abc": [0.385329, 0.018498999999999002, 0.021573], "properties": {"magmom": -0.0}, "label": "N", "xyz": [2.5428854858819996, 0.1243064353699933, 0.156123693135]}, {"species": [{"element": "N", "occu": 1}], "abc": [0.885328999999999, 0.481500999999999, 0.978426999999999], "properties": {"magmom": -0.0}, "label": "N", "xyz": [5.842514485881994, 3.2355085646299937, 7.080871306864993]}, {"species": [{"element": "N", "occu": 1}], "abc": [0.614671, 0.518498999999999, 0.478427], "properties": {"magmom": -0.0}, "label": "N", "xyz": [4.056372514117999, 3.484121435369994, 3.462373806865]}]}, "task_ids": null, "uncorrected_energy_per_atom": null, "energy_per_atom": -6.2206457655, "formation_energy_per_atom": 0.777365737499999, "energy_above_hull": 0.777365737499999, "is_stable": false, "equilibrium_reaction_energy_per_atom": null, "decomposes_to": null, "xas": null, "grain_boundaries": null, "band_gap": 0.260399999999999, "cbm": null, "vbm": null, "efermi": 1.31614216, "is_gap_direct": null, "is_metal": null, "es_source_calc_id": null, "bandstructure": null, "dos": null, "dos_energy_up": null, "dos_energy_down": null, "is_magnetic": null, "ordering": null, "total_magnetization": 0.0036606, "total_magnetization_normalized_vol": null, "total_magnetization_normalized_formula_units": null, "num_magnetic_sites": null, "num_unique_magnetic_sites": null, "types_of_magnetic_species": null, "bulk_modulus": null, "shear_modulus": null, "universal_anisotropy": null, "homogeneous_poisson": null, "e_total": null, "e_ionic": null, "e_electronic": null, "n": null, "e_ij_max": null, "weighted_surface_energy_EV_PER_ANG2": null, "weighted_surface_energy": null, "weighted_work_function": null, "surface_anisotropy": null, "shape_factor": null, "has_reconstructed": null, "possible_species": null, "has_props": null, "theoretical": null, "database_IDs": null, "fields_not_requested": ["builder_meta", "nsites", "elements", "nelements", "composition", "composition_reduced", "chemsys", "symmetry", "property_name", "deprecated", "deprecation_reasons", "last_updated", "origins", "warnings", "task_ids", "uncorrected_energy_per_atom", "equilibrium_reaction_energy_per_atom", "decomposes_to", "xas", "grain_boundaries", "cbm", "vbm", "is_gap_direct", "is_metal", "es_source_calc_id", "bandstructure", "dos", "dos_energy_up", "dos_energy_down", "is_magnetic", "ordering", "total_magnetization_normalized_vol", "total_magnetization_normalized_formula_units", "num_magnetic_sites", "num_unique_magnetic_sites", "types_of_magnetic_species", "bulk_modulus", "shear_modulus", "universal_anisotropy", "homogeneous_poisson", "e_total", "e_ionic", "e_electronic", "n", "e_ij_max", "weighted_surface_energy_EV_PER_ANG2", "weighted_surface_energy", "weighted_work_function", "surface_anisotropy", "shape_factor", "has_reconstructed", "possible_species", "has_props", "theoretical", "database_IDs"]}