{"builder_meta": null, "nsites": null, "elements": null, "nelements": null, "composition": null, "composition_reduced": null, "formula_pretty": "BrO2", "formula_anonymous": "AB2", "chemsys": null, "volume": 250.0005322790057, "density": 2.9730972069219233, "density_atomic": 20.833377689917143, "symmetry": null, "property_name": null, "material_id": "mp-1182474", "deprecated": null, "deprecation_reasons": null, "last_updated": null, "origins": null, "warnings": null, "structure": {"@module": "pymatgen.core.structure", "@class": "Structure", "charge": 0, "lattice": {"matrix": [[11.298888, 0.0, 0.0], [0.0, 4.43197, 0.0], [0.0, 0.481236, 4.992389]], "pbc": [true, true, true], "a": 11.298888, "b": 4.43197, "c": 5.015529485011228, "alpha": 84.49404593093978, "beta": 90.0, "gamma": 90.0, "volume": 250.0005322790057}, "properties": {}, "sites": [{"species": [{"element": "Br", "occu": 1}], "abc": [0.846085, 0.843363, 0.874363999999999], "properties": {"magmom": 0.068}, "label": "Br", "xyz": [9.55981965348, 4.158534949013999, 4.3651652155959955]}, {"species": [{"element": "Br", "occu": 1}], "abc": [0.346085, 0.156637, 0.625636], "properties": {"magmom": 0.068}, "label": "Br", "xyz": [3.9103756534799996, 0.995289050986, 3.123418284404]}, {"species": [{"element": "Br", "occu": 1}], "abc": [0.153915, 0.156637, 0.125636], "properties": {"magmom": 0.068}, "label": "Br", "xyz": [1.7390683465199999, 0.754671050986, 0.6272237844040001]}, {"species": [{"element": "Br", "occu": 1}], "abc": [0.653915, 0.843363, 0.374364], "properties": {"magmom": 0.068}, "label": "Br", "xyz": [7.38851234652, 3.917916949014, 1.868970715596]}, {"species": [{"element": "O", "occu": 1}], "abc": [0.667497, 0.455864999999999, 0.435838], "properties": {"magmom": 0.107}, "label": "O", "xyz": [7.541973843336, 2.2301209398179958, 2.175872836982]}, {"species": [{"element": "O", "occu": 1}], "abc": [0.167496999999999, 0.544134999999999, 0.064162], "properties": {"magmom": 0.107}, "label": "O", "xyz": [1.8925298433359887, 2.4424670601819956, 0.32032166301799997]}, {"species": [{"element": "O", "occu": 1}], "abc": [0.332503, 0.544134999999999, 0.564161999999999], "properties": {"magmom": 0.107}, "label": "O", "xyz": [3.756914156664, 2.683085060181995, 2.8165161630179956]}, {"species": [{"element": "O", "occu": 1}], "abc": [0.832503, 0.455864999999999, 0.935838], "properties": {"magmom": 0.107}, "label": "O", "xyz": [9.406358156664, 2.4707389398179957, 4.672067336982]}, {"species": [{"element": "O", "occu": 1}], "abc": [0.496722, 0.637436, 0.967816999999999], "properties": {"magmom": 0.606}, "label": "O", "xyz": [5.6124062451359995, 3.290845610731999, 4.831718944812995]}, {"species": [{"element": "O", "occu": 1}], "abc": [0.996722, 0.362564, 0.532183], "properties": {"magmom": 0.606}, "label": "O", "xyz": [11.261850245136, 1.8629783892679999, 2.656864555187]}, {"species": [{"element": "O", "occu": 1}], "abc": [0.503278, 0.362564, 0.032182999999999004], "properties": {"magmom": 0.606}, "label": "O", "xyz": [5.686481754864, 1.6223603892679994, 0.16067005518699504]}, {"species": [{"element": "O", "occu": 1}], "abc": [0.0032779999999990005, 0.637436, 0.467817], "properties": {"magmom": 0.606}, "label": "O", "xyz": [0.037037754863988706, 3.0502276107319997, 2.335524444813]}]}, "task_ids": null, "uncorrected_energy_per_atom": null, "energy_per_atom": -3.638735093333333, "formation_energy_per_atom": 0.20555442166666602, "energy_above_hull": 0.371133702083333, "is_stable": false, "equilibrium_reaction_energy_per_atom": null, "decomposes_to": null, "xas": null, "grain_boundaries": null, "band_gap": 0.0, "cbm": null, "vbm": null, "efermi": -0.37790631, "is_gap_direct": null, "is_metal": null, "es_source_calc_id": null, "bandstructure": null, "dos": null, "dos_energy_up": null, "dos_energy_down": null, "is_magnetic": null, "ordering": null, "total_magnetization": 4.1039078, "total_magnetization_normalized_vol": null, "total_magnetization_normalized_formula_units": null, "num_magnetic_sites": null, "num_unique_magnetic_sites": null, "types_of_magnetic_species": null, "bulk_modulus": null, "shear_modulus": null, "universal_anisotropy": null, "homogeneous_poisson": null, "e_total": null, "e_ionic": null, "e_electronic": null, "n": null, "e_ij_max": null, "weighted_surface_energy_EV_PER_ANG2": null, "weighted_surface_energy": null, "weighted_work_function": null, "surface_anisotropy": null, "shape_factor": null, "has_reconstructed": null, "possible_species": null, "has_props": null, "theoretical": null, "database_IDs": null, "fields_not_requested": ["builder_meta", "nsites", "elements", "nelements", "composition", "composition_reduced", "chemsys", "symmetry", "property_name", "deprecated", "deprecation_reasons", "last_updated", "origins", "warnings", "task_ids", "uncorrected_energy_per_atom", "equilibrium_reaction_energy_per_atom", "decomposes_to", "xas", "grain_boundaries", "cbm", "vbm", "is_gap_direct", "is_metal", "es_source_calc_id", "bandstructure", "dos", "dos_energy_up", "dos_energy_down", "is_magnetic", "ordering", "total_magnetization_normalized_vol", "total_magnetization_normalized_formula_units", "num_magnetic_sites", "num_unique_magnetic_sites", "types_of_magnetic_species", "bulk_modulus", "shear_modulus", "universal_anisotropy", "homogeneous_poisson", "e_total", "e_ionic", "e_electronic", "n", "e_ij_max", "weighted_surface_energy_EV_PER_ANG2", "weighted_surface_energy", "weighted_work_function", "surface_anisotropy", "shape_factor", "has_reconstructed", "possible_species", "has_props", "theoretical", "database_IDs"]}