{"builder_meta": null, "nsites": null, "elements": null, "nelements": null, "composition": null, "composition_reduced": null, "formula_pretty": "BrO3", "formula_anonymous": "AB3", "chemsys": null, "volume": 165.80944530266854, "density": 2.5618154552823693, "density_atomic": 20.726180662833567, "symmetry": null, "property_name": null, "material_id": "mp-1182120", "deprecated": null, "deprecation_reasons": null, "last_updated": null, "origins": null, "warnings": null, "structure": {"@module": "pymatgen.core.structure", "@class": "Structure", "charge": 0, "lattice": {"matrix": [[3.501802999999999, -6.62599, 0.0], [3.501802999999999, 6.62599, 0.0], [0.0, 0.0, 3.573031]], "pbc": [true, true, true], "a": 7.494422441449974, "b": 7.494422441449974, "c": 3.573031, "alpha": 90.0, "beta": 90.0, "gamma": 124.28753873203378, "volume": 165.80944530266848}, "properties": {}, "sites": [{"species": [{"element": "Br", "occu": 1}], "abc": [0.524208, 0.475792, 0.5], "properties": {"magmom": 0.111}, "label": "Br", "xyz": [3.501802999999999, -0.32080393184000044, 1.7865155]}, {"species": [{"element": "Br", "occu": 1}], "abc": [0.024208, 0.975792, 0.0], "properties": {"magmom": 0.111}, "label": "Br", "xyz": [3.501802999999999, 6.305186068159999, 0.0]}, {"species": [{"element": "O", "occu": 1}], "abc": [0.081803, 0.918196999999999, 0.5], "properties": {"magmom": 0.185}, "label": "O", "xyz": [3.5018029999999953, 5.541938280059994, 1.7865155]}, {"species": [{"element": "O", "occu": 1}], "abc": [0.581803, 0.418197, 0.0], "properties": {"magmom": 0.186}, "label": "O", "xyz": [3.501802999999999, -1.0840517199400002, 0.0]}, {"species": [{"element": "O", "occu": 1}], "abc": [0.230468999999999, 0.631981, 0.892763], "properties": {"magmom": -0.803}, "label": "O", "xyz": [3.0201299973499958, 2.6604144968800068, 3.1898698746529996]}, {"species": [{"element": "O", "occu": 1}], "abc": [0.368019, 0.769531, 0.107237], "properties": {"magmom": -0.803}, "label": "O", "xyz": [3.9834760026499985, 2.6604144968799996, 0.383161125347]}, {"species": [{"element": "O", "occu": 1}], "abc": [0.730468999999999, 0.131981, 0.607237], "properties": {"magmom": -0.803}, "label": "O", "xyz": [3.0201299973499958, -3.965575503119993, 2.169676625347]}, {"species": [{"element": "O", "occu": 1}], "abc": [0.868019, 0.269530999999999, 0.392763], "properties": {"magmom": -0.804}, "label": "O", "xyz": [3.9834760026499954, -3.9655755031200064, 1.403354374653]}]}, "task_ids": null, "uncorrected_energy_per_atom": null, "energy_per_atom": -4.00745214875, "formation_energy_per_atom": 0.11275523875000001, "energy_above_hull": 0.2369396990625, "is_stable": false, "equilibrium_reaction_energy_per_atom": null, "decomposes_to": null, "xas": null, "grain_boundaries": null, "band_gap": 0.0, "cbm": null, "vbm": null, "efermi": -0.43429763, "is_gap_direct": null, "is_metal": null, "es_source_calc_id": null, "bandstructure": null, "dos": null, "dos_energy_up": null, "dos_energy_down": null, "is_magnetic": null, "ordering": null, "total_magnetization": 3.220071, "total_magnetization_normalized_vol": null, "total_magnetization_normalized_formula_units": null, "num_magnetic_sites": null, "num_unique_magnetic_sites": null, "types_of_magnetic_species": null, "bulk_modulus": null, "shear_modulus": null, "universal_anisotropy": null, "homogeneous_poisson": null, "e_total": null, "e_ionic": null, "e_electronic": null, "n": null, "e_ij_max": null, "weighted_surface_energy_EV_PER_ANG2": null, "weighted_surface_energy": null, "weighted_work_function": null, "surface_anisotropy": null, "shape_factor": null, "has_reconstructed": null, "possible_species": null, "has_props": null, "theoretical": null, "database_IDs": null, "fields_not_requested": ["builder_meta", "nsites", "elements", "nelements", "composition", "composition_reduced", "chemsys", "symmetry", "property_name", "deprecated", "deprecation_reasons", "last_updated", "origins", "warnings", "task_ids", "uncorrected_energy_per_atom", "equilibrium_reaction_energy_per_atom", "decomposes_to", "xas", "grain_boundaries", "cbm", "vbm", "is_gap_direct", "is_metal", "es_source_calc_id", "bandstructure", "dos", "dos_energy_up", "dos_energy_down", "is_magnetic", "ordering", "total_magnetization_normalized_vol", "total_magnetization_normalized_formula_units", "num_magnetic_sites", "num_unique_magnetic_sites", "types_of_magnetic_species", "bulk_modulus", "shear_modulus", "universal_anisotropy", "homogeneous_poisson", "e_total", "e_ionic", "e_electronic", "n", "e_ij_max", "weighted_surface_energy_EV_PER_ANG2", "weighted_surface_energy", "weighted_work_function", "surface_anisotropy", "shape_factor", "has_reconstructed", "possible_species", "has_props", "theoretical", "database_IDs"]}