{
  "builder_meta": null,
  "nsites": null,
  "elements": null,
  "nelements": null,
  "composition": null,
  "composition_reduced": null,
  "formula_pretty": "BrO4",
  "formula_anonymous": "AB4",
  "chemsys": null,
  "volume": 350.31843608836715,
  "density": 2.7284231022996552,
  "density_atomic": 17.515921804418358,
  "symmetry": null,
  "property_name": null,
  "material_id": "mp-1182418",
  "deprecated": null,
  "deprecation_reasons": null,
  "last_updated": null,
  "origins": null,
  "warnings": null,
  "structure": {
    "@module": "pymatgen.core.structure",
    "@class": "Structure",
    "charge": 0,
    "lattice": {
      "matrix": [
        [9.808001, 0.0, 0.0],
        [0.0, 5.8346, 0.0],
        [0.0, 2.154506, 6.121691]
      ],
      "pbc": [true, true, true],
      "a": 9.808001,
      "b": 5.8346,
      "c": 6.4897609203665585,
      "alpha": 70.61067326140477,
      "beta": 90.0,
      "gamma": 90.0,
      "volume": 350.31843608836715
    },
    "properties": {},
    "sites": [
      {
        "species": [{ "element": "Br", "occu": 1 }],
        "abc": [0.440905, 0.134778999999999, 0.722217999999999],
        "properties": { "magmom": -0.211 },
        "label": "Br",
        "xyz": [4.324396680905, 2.342404567707992, 4.421195430637995]
      },
      {
        "species": [{ "element": "Br", "occu": 1 }],
        "abc": [0.940905, 0.865220999999999, 0.277782],
        "properties": { "magmom": -0.211 },
        "label": "Br",
        "xyz": [9.228397180905, 5.646701432291994, 1.7004955693619999]
      },
      {
        "species": [{ "element": "Br", "occu": 1 }],
        "abc": [0.600217999999999, 0.439685, 0.152927999999999],
        "properties": { "magmom": -0.15 },
        "label": "Br",
        "xyz": [5.886938744217991, 2.894870394567998, 0.936177961247994]
      },
      {
        "species": [{ "element": "Br", "occu": 1 }],
        "abc": [0.100218, 0.560315, 0.847071999999999],
        "properties": { "magmom": -0.15 },
        "label": "Br",
        "xyz": [0.9829382442180001, 5.094235605431998, 5.185513038751995]
      },
      {
        "species": [{ "element": "O", "occu": 1 }],
        "abc": [0.682910999999999, 0.662658, 0.963266],
        "properties": { "magmom": -0.148 },
        "label": "O",
        "xyz": [6.697991770910991, 5.941706743396, 5.896816802806]
      },
      {
        "species": [{ "element": "O", "occu": 1 }],
        "abc": [0.182911, 0.337342, 0.036733999999999004],
        "properties": { "magmom": -0.148 },
        "label": "O",
        "xyz": [1.793991270911, 2.0473992566039976, 0.2248741971939939]
      },
      {
        "species": [{ "element": "O", "occu": 1 }],
        "abc": [0.742748, 0.178034, 0.964128],
        "properties": { "magmom": 0.599 },
        "label": "O",
        "xyz": [7.284873126748001, 3.1159767371680003, 5.902093700448]
      },
      {
        "species": [{ "element": "O", "occu": 1 }],
        "abc": [0.242748, 0.821966, 0.035872],
        "properties": { "magmom": 0.599 },
        "label": "O",
        "xyz": [2.3808726267480003, 4.873129262832, 0.21959729955200002]
      },
      {
        "species": [{ "element": "O", "occu": 1 }],
        "abc": [0.796848, 0.352083, 0.822433],
        "properties": { "magmom": 0.6910000000000001 },
        "label": "O",
        "xyz": [7.815485980848001, 3.8262003048979993, 5.034680694203]
      },
      {
        "species": [{ "element": "O", "occu": 1 }],
        "abc": [0.296848, 0.647917, 0.177567],
        "properties": { "magmom": 0.6910000000000001 },
        "label": "O",
        "xyz": [2.9114854808480004, 4.162905695102, 1.087010305797]
      },
      {
        "species": [{ "element": "O", "occu": 1 }],
        "abc": [0.676325, 0.357466, 0.39709000000000005],
        "properties": { "magmom": -0.178 },
        "label": "O",
        "xyz": [6.6333962763250005, 2.94120391114, 2.4308622791900003]
      },
      {
        "species": [{ "element": "O", "occu": 1 }],
        "abc": [0.176324999999999, 0.642533999999999, 0.6029100000000001],
        "properties": { "magmom": -0.178 },
        "label": "O",
        "xyz": [1.7293957763249905, 5.047902088859995, 3.6908287208100004]
      },
      {
        "species": [{ "element": "O", "occu": 1 }],
        "abc": [0.854175999999999, 0.825631999999999, 0.508205999999999],
        "properties": { "magmom": -0.225 },
        "label": "O",
        "xyz": [8.377759062175992, 5.912165343435992, 3.111080096345994]
      },
      {
        "species": [{ "element": "O", "occu": 1 }],
        "abc": [0.354176, 0.174368, 0.49179399999999907],
        "properties": { "magmom": -0.225 },
        "label": "O",
        "xyz": [3.473758562176, 2.0769406565639983, 3.0106109036539945]
      },
      {
        "species": [{ "element": "O", "occu": 1 }],
        "abc": [0.572854, 0.818570999999999, 0.45902000000000004],
        "properties": { "magmom": 0.795 },
        "label": "O",
        "xyz": [5.618552604854, 5.764995700719994, 2.8099786028200002]
      },
      {
        "species": [{ "element": "O", "occu": 1 }],
        "abc": [0.072854, 0.181428999999999, 0.54098],
        "properties": { "magmom": 0.795 },
        "label": "O",
        "xyz": [0.7145521048540001, 2.224110299279994, 3.3117123971800004]
      },
      {
        "species": [{ "element": "O", "occu": 1 }],
        "abc": [0.460259, 0.395126, 0.775223999999999],
        "properties": { "magmom": -0.23900000000000002 },
        "label": "O",
        "xyz": [4.514220732259, 3.9756269189439974, 4.745681783783994]
      },
      {
        "species": [{ "element": "O", "occu": 1 }],
        "abc": [0.960259, 0.604874, 0.224776],
        "properties": { "magmom": -0.23900000000000002 },
        "label": "O",
        "xyz": [9.418221232259, 4.013479081056, 1.376009216216]
      },
      {
        "species": [{ "element": "O", "occu": 1 }],
        "abc": [0.516656999999999, 0.916014999999999, 0.281495999999999],
        "properties": { "magmom": 0.734 },
        "label": "O",
        "xyz": [5.067372372656991, 5.951065939975992, 1.7232315297359941]
      },
      {
        "species": [{ "element": "O", "occu": 1 }],
        "abc": [0.016656999999999002, 0.083984999999999, 0.718503999999999],
        "properties": { "magmom": 0.734 },
        "label": "O",
        "xyz": [0.16337187265699024, 2.038040060023992, 4.398459470263994]
      }
    ]
  },
  "task_ids": null,
  "uncorrected_energy_per_atom": null,
  "energy_per_atom": -4.1875544515,
  "formation_energy_per_atom": 0.09820365950000001,
  "energy_above_hull": 0.197551227749999,
  "is_stable": false,
  "equilibrium_reaction_energy_per_atom": null,
  "decomposes_to": null,
  "xas": null,
  "grain_boundaries": null,
  "band_gap": 0.7772999999999991,
  "cbm": null,
  "vbm": null,
  "efermi": -0.53966174,
  "is_gap_direct": null,
  "is_metal": null,
  "es_source_calc_id": null,
  "bandstructure": null,
  "dos": null,
  "dos_energy_up": null,
  "dos_energy_down": null,
  "is_magnetic": null,
  "ordering": null,
  "total_magnetization": 3.9994394,
  "total_magnetization_normalized_vol": null,
  "total_magnetization_normalized_formula_units": null,
  "num_magnetic_sites": null,
  "num_unique_magnetic_sites": null,
  "types_of_magnetic_species": null,
  "bulk_modulus": null,
  "shear_modulus": null,
  "universal_anisotropy": null,
  "homogeneous_poisson": null,
  "e_total": null,
  "e_ionic": null,
  "e_electronic": null,
  "n": null,
  "e_ij_max": null,
  "weighted_surface_energy_EV_PER_ANG2": null,
  "weighted_surface_energy": null,
  "weighted_work_function": null,
  "surface_anisotropy": null,
  "shape_factor": null,
  "has_reconstructed": null,
  "possible_species": null,
  "has_props": null,
  "theoretical": null,
  "database_IDs": null,
  "fields_not_requested": [
    "builder_meta",
    "nsites",
    "elements",
    "nelements",
    "composition",
    "composition_reduced",
    "chemsys",
    "symmetry",
    "property_name",
    "deprecated",
    "deprecation_reasons",
    "last_updated",
    "origins",
    "warnings",
    "task_ids",
    "uncorrected_energy_per_atom",
    "equilibrium_reaction_energy_per_atom",
    "decomposes_to",
    "xas",
    "grain_boundaries",
    "cbm",
    "vbm",
    "is_gap_direct",
    "is_metal",
    "es_source_calc_id",
    "bandstructure",
    "dos",
    "dos_energy_up",
    "dos_energy_down",
    "is_magnetic",
    "ordering",
    "total_magnetization_normalized_vol",
    "total_magnetization_normalized_formula_units",
    "num_magnetic_sites",
    "num_unique_magnetic_sites",
    "types_of_magnetic_species",
    "bulk_modulus",
    "shear_modulus",
    "universal_anisotropy",
    "homogeneous_poisson",
    "e_total",
    "e_ionic",
    "e_electronic",
    "n",
    "e_ij_max",
    "weighted_surface_energy_EV_PER_ANG2",
    "weighted_surface_energy",
    "weighted_work_function",
    "surface_anisotropy",
    "shape_factor",
    "has_reconstructed",
    "possible_species",
    "has_props",
    "theoretical",
    "database_IDs"
  ]
}
