{
  "builder_meta": null,
  "nsites": null,
  "elements": null,
  "nelements": null,
  "composition": null,
  "composition_reduced": null,
  "formula_pretty": "BRu",
  "formula_anonymous": "AB",
  "chemsys": null,
  "volume": 97.14753070783864,
  "density": 7.649510798951646,
  "density_atomic": 12.14344133847983,
  "symmetry": null,
  "property_name": null,
  "material_id": "mp-1214978",
  "deprecated": null,
  "deprecation_reasons": null,
  "last_updated": null,
  "origins": null,
  "warnings": null,
  "structure": {
    "@module": "pymatgen.core.structure",
    "@class": "Structure",
    "charge": 0,
    "lattice": {
      "matrix": [
        [-2.607819, 0.0, 0.0],
        [0.0, 0.0, -4.568953],
        [0.0, -8.153379, 0.0]
      ],
      "pbc": [true, true, true],
      "a": 2.607819,
      "b": 4.568953,
      "c": 8.153379,
      "alpha": 90.0,
      "beta": 90.0,
      "gamma": 90.0,
      "volume": 97.14753070783864
    },
    "properties": {},
    "sites": [
      {
        "species": [{ "element": "B", "occu": 1 }],
        "abc": [0.5, 0.7543700000000001, 0.901316],
        "properties": { "magmom": 0.0 },
        "label": "B",
        "xyz": [-1.3039095, -7.348770946764, -3.4466810746100003]
      },
      {
        "species": [{ "element": "B", "occu": 1 }],
        "abc": [0.5, 0.7543700000000001, 0.098684],
        "properties": { "magmom": 0.0 },
        "label": "B",
        "xyz": [-1.3039095, -0.8046080532359999, -3.4466810746100003]
      },
      {
        "species": [{ "element": "B", "occu": 1 }],
        "abc": [0.5, 0.24563000000000001, 0.401316],
        "properties": { "magmom": 0.0 },
        "label": "B",
        "xyz": [-1.3039095, -3.2720814467639996, -1.12227192539]
      },
      {
        "species": [{ "element": "B", "occu": 1 }],
        "abc": [0.5, 0.24563000000000001, 0.598684],
        "properties": { "magmom": 0.0 },
        "label": "B",
        "xyz": [-1.3039095, -4.881297553235999, -1.12227192539]
      },
      {
        "species": [{ "element": "Ru", "occu": 1 }],
        "abc": [0.5, 0.252423, 0.836869],
        "properties": { "magmom": 0.0 },
        "label": "Ru",
        "xyz": [-1.3039095, -6.8233101303509995, -1.1533088231189998]
      },
      {
        "species": [{ "element": "Ru", "occu": 1 }],
        "abc": [0.5, 0.252423, 0.163131],
        "properties": { "magmom": 0.0 },
        "label": "Ru",
        "xyz": [-1.3039095, -1.330068869649, -1.1533088231189998]
      },
      {
        "species": [{ "element": "Ru", "occu": 1 }],
        "abc": [0.5, 0.747576999999999, 0.336869],
        "properties": { "magmom": 0.0 },
        "label": "Ru",
        "xyz": [-1.3039095, -2.7466206303509995, -3.4156441768809955]
      },
      {
        "species": [{ "element": "Ru", "occu": 1 }],
        "abc": [0.5, 0.747576999999999, 0.663130999999999],
        "properties": { "magmom": 0.0 },
        "label": "Ru",
        "xyz": [-1.3039095, -5.406758369648991, -3.4156441768809955]
      }
    ]
  },
  "task_ids": null,
  "uncorrected_energy_per_atom": null,
  "energy_per_atom": -15.584570593333334,
  "formation_energy_per_atom": 0.8008741529166641,
  "energy_above_hull": 1.094621408333333,
  "is_stable": false,
  "equilibrium_reaction_energy_per_atom": null,
  "decomposes_to": null,
  "xas": null,
  "grain_boundaries": null,
  "band_gap": 0.0,
  "cbm": null,
  "vbm": null,
  "efermi": 6.09691514,
  "is_gap_direct": null,
  "is_metal": null,
  "es_source_calc_id": null,
  "bandstructure": null,
  "dos": null,
  "dos_energy_up": null,
  "dos_energy_down": null,
  "is_magnetic": null,
  "ordering": null,
  "total_magnetization": 0.006525899999999,
  "total_magnetization_normalized_vol": null,
  "total_magnetization_normalized_formula_units": null,
  "num_magnetic_sites": null,
  "num_unique_magnetic_sites": null,
  "types_of_magnetic_species": null,
  "bulk_modulus": null,
  "shear_modulus": null,
  "universal_anisotropy": null,
  "homogeneous_poisson": null,
  "e_total": null,
  "e_ionic": null,
  "e_electronic": null,
  "n": null,
  "e_ij_max": null,
  "weighted_surface_energy_EV_PER_ANG2": null,
  "weighted_surface_energy": null,
  "weighted_work_function": null,
  "surface_anisotropy": null,
  "shape_factor": null,
  "has_reconstructed": null,
  "possible_species": null,
  "has_props": null,
  "theoretical": null,
  "database_IDs": null,
  "fields_not_requested": [
    "builder_meta",
    "nsites",
    "elements",
    "nelements",
    "composition",
    "composition_reduced",
    "chemsys",
    "symmetry",
    "property_name",
    "deprecated",
    "deprecation_reasons",
    "last_updated",
    "origins",
    "warnings",
    "task_ids",
    "uncorrected_energy_per_atom",
    "equilibrium_reaction_energy_per_atom",
    "decomposes_to",
    "xas",
    "grain_boundaries",
    "cbm",
    "vbm",
    "is_gap_direct",
    "is_metal",
    "es_source_calc_id",
    "bandstructure",
    "dos",
    "dos_energy_up",
    "dos_energy_down",
    "is_magnetic",
    "ordering",
    "total_magnetization_normalized_vol",
    "total_magnetization_normalized_formula_units",
    "num_magnetic_sites",
    "num_unique_magnetic_sites",
    "types_of_magnetic_species",
    "bulk_modulus",
    "shear_modulus",
    "universal_anisotropy",
    "homogeneous_poisson",
    "e_total",
    "e_ionic",
    "e_electronic",
    "n",
    "e_ij_max",
    "weighted_surface_energy_EV_PER_ANG2",
    "weighted_surface_energy",
    "weighted_work_function",
    "surface_anisotropy",
    "shape_factor",
    "has_reconstructed",
    "possible_species",
    "has_props",
    "theoretical",
    "database_IDs"
  ]
}
