{
  "builder_meta": null,
  "nsites": null,
  "elements": null,
  "nelements": null,
  "composition": null,
  "composition_reduced": null,
  "formula_pretty": "BRu3",
  "formula_anonymous": "AB3",
  "chemsys": null,
  "volume": 99.650175888847,
  "density": 10.46549358456595,
  "density_atomic": 12.456271986105875,
  "symmetry": null,
  "property_name": null,
  "material_id": "mp-1183231",
  "deprecated": null,
  "deprecation_reasons": null,
  "last_updated": null,
  "origins": null,
  "warnings": null,
  "structure": {
    "@module": "pymatgen.core.structure",
    "@class": "Structure",
    "charge": 0,
    "lattice": {
      "matrix": [
        [2.661136, -4.609223, 0.0],
        [2.661136, 4.609223, 0.0],
        [0.0, 0.0, 4.062125]
      ],
      "pbc": [true, true, true],
      "a": 5.322272209707523,
      "b": 5.322272209707523,
      "c": 4.062125,
      "alpha": 90.0,
      "beta": 90.0,
      "gamma": 120.0000026068073,
      "volume": 99.650175888847
    },
    "properties": {},
    "sites": [
      {
        "species": [{ "element": "B", "occu": 1 }],
        "abc": [0.333333, 0.666667, 0.75],
        "properties": { "magmom": -0.001 },
        "label": "B",
        "xyz": [2.661136, 1.5364107394820001, 3.04659375]
      },
      {
        "species": [{ "element": "B", "occu": 1 }],
        "abc": [0.666667, 0.333333, 0.25],
        "properties": { "magmom": -0.001 },
        "label": "B",
        "xyz": [2.661136, -1.5364107394820001, 1.01553125]
      },
      {
        "species": [{ "element": "Ru", "occu": 1 }],
        "abc": [0.174641, 0.349281, 0.25],
        "properties": { "magmom": 0.038 },
        "label": "Ru",
        "xyz": [1.3942276953919999, 0.8049547047200001, 1.01553125]
      },
      {
        "species": [{ "element": "Ru", "occu": 1 }],
        "abc": [0.650718999999999, 0.825359, 0.25],
        "properties": { "magmom": 0.03 },
        "label": "Ru",
        "xyz": [3.9280443046079974, 0.8049547047200041, 1.01553125]
      },
      {
        "species": [{ "element": "Ru", "occu": 1 }],
        "abc": [0.174641, 0.825359, 0.25],
        "properties": { "magmom": 0.042 },
        "label": "Ru",
        "xyz": [2.661136, 2.9993043721139996, 1.01553125]
      },
      {
        "species": [{ "element": "Ru", "occu": 1 }],
        "abc": [0.825359, 0.650718999999999, 0.75],
        "properties": { "magmom": 0.038 },
        "label": "Ru",
        "xyz": [3.9280443046079974, -0.8049547047200041, 3.04659375]
      },
      {
        "species": [{ "element": "Ru", "occu": 1 }],
        "abc": [0.349281, 0.174641, 0.75],
        "properties": { "magmom": 0.03 },
        "label": "Ru",
        "xyz": [1.3942276953919999, -0.8049547047200001, 3.04659375]
      },
      {
        "species": [{ "element": "Ru", "occu": 1 }],
        "abc": [0.825359, 0.174641, 0.75],
        "properties": { "magmom": 0.042 },
        "label": "Ru",
        "xyz": [2.661136, -2.9993043721139996, 3.04659375]
      }
    ]
  },
  "task_ids": null,
  "uncorrected_energy_per_atom": null,
  "energy_per_atom": -20.447648230416664,
  "formation_energy_per_atom": 0.45734179020833504,
  "energy_above_hull": 0.604215417916666,
  "is_stable": false,
  "equilibrium_reaction_energy_per_atom": null,
  "decomposes_to": null,
  "xas": null,
  "grain_boundaries": null,
  "band_gap": 0.0,
  "cbm": null,
  "vbm": null,
  "efermi": 8.19646587,
  "is_gap_direct": null,
  "is_metal": null,
  "es_source_calc_id": null,
  "bandstructure": null,
  "dos": null,
  "dos_energy_up": null,
  "dos_energy_down": null,
  "is_magnetic": null,
  "ordering": null,
  "total_magnetization": 0.20996,
  "total_magnetization_normalized_vol": null,
  "total_magnetization_normalized_formula_units": null,
  "num_magnetic_sites": null,
  "num_unique_magnetic_sites": null,
  "types_of_magnetic_species": null,
  "bulk_modulus": null,
  "shear_modulus": null,
  "universal_anisotropy": null,
  "homogeneous_poisson": null,
  "e_total": null,
  "e_ionic": null,
  "e_electronic": null,
  "n": null,
  "e_ij_max": null,
  "weighted_surface_energy_EV_PER_ANG2": null,
  "weighted_surface_energy": null,
  "weighted_work_function": null,
  "surface_anisotropy": null,
  "shape_factor": null,
  "has_reconstructed": null,
  "possible_species": null,
  "has_props": null,
  "theoretical": null,
  "database_IDs": null,
  "fields_not_requested": [
    "builder_meta",
    "nsites",
    "elements",
    "nelements",
    "composition",
    "composition_reduced",
    "chemsys",
    "symmetry",
    "property_name",
    "deprecated",
    "deprecation_reasons",
    "last_updated",
    "origins",
    "warnings",
    "task_ids",
    "uncorrected_energy_per_atom",
    "equilibrium_reaction_energy_per_atom",
    "decomposes_to",
    "xas",
    "grain_boundaries",
    "cbm",
    "vbm",
    "is_gap_direct",
    "is_metal",
    "es_source_calc_id",
    "bandstructure",
    "dos",
    "dos_energy_up",
    "dos_energy_down",
    "is_magnetic",
    "ordering",
    "total_magnetization_normalized_vol",
    "total_magnetization_normalized_formula_units",
    "num_magnetic_sites",
    "num_unique_magnetic_sites",
    "types_of_magnetic_species",
    "bulk_modulus",
    "shear_modulus",
    "universal_anisotropy",
    "homogeneous_poisson",
    "e_total",
    "e_ionic",
    "e_electronic",
    "n",
    "e_ij_max",
    "weighted_surface_energy_EV_PER_ANG2",
    "weighted_surface_energy",
    "weighted_work_function",
    "surface_anisotropy",
    "shape_factor",
    "has_reconstructed",
    "possible_species",
    "has_props",
    "theoretical",
    "database_IDs"
  ]
}
