{"builder_meta": null, "nsites": null, "elements": null, "nelements": null, "composition": null, "composition_reduced": null, "formula_pretty": "BS2", "formula_anonymous": "AB2", "chemsys": null, "volume": 1081.3151571176138, "density": 1.841349691563198, "density_atomic": 22.527399106616954, "symmetry": null, "property_name": null, "material_id": "mp-540668", "deprecated": null, "deprecation_reasons": null, "last_updated": null, "origins": null, "warnings": null, "structure": {"@module": "pymatgen.core.structure", "@class": "Structure", "charge": 0, "lattice": {"matrix": [[4.20685091, 0.0, 0.0], [0.0, 11.92234603, -3.11421569], [0.0, -0.00690318, 21.56104317]], "pbc": [true, true, true], "a": 4.20685091, "b": 12.322364798320933, "c": 21.56104427509247, "alpha": 104.65738805741083, "beta": 90.0, "gamma": 90.0, "volume": 1081.3151571176138}, "properties": {}, "sites": [{"species": [{"element": "B", "occu": 1}], "abc": [0.62963568, 0.21979446, 0.13336317], "properties": {"magmom": 0.0}, "label": "B", "xyz": [2.648783433376469, 2.619544977629113, 2.190961709750972]}, {"species": [{"element": "B", "occu": 1}], "abc": [0.12963568, 0.28020554000000003, 0.36663683], "properties": {"magmom": 0.0}, "label": "B", "xyz": [0.5453579783764688, 3.3381764473708873, 7.032452030249029]}, {"species": [{"element": "B", "occu": 1}], "abc": [0.37036432, 0.78020554, 0.86663683], "properties": {"magmom": 0.0}, "label": "B", "xyz": [1.5580674766235314, 9.295897872370887, 16.25586577024903]}, {"species": [{"element": "B", "occu": 1}], "abc": [0.87036432, 0.71979446, 0.63336317], "properties": {"magmom": 0.0}, "label": "B", "xyz": [3.661492931623531, 8.577266402629114, 11.414375449750972]}, {"species": [{"element": "B", "occu": 1}], "abc": [0.81204739, 0.30755223, 0.03380115], "properties": {"magmom": 0.0}, "label": "B", "xyz": [3.416162301584625, 3.6665107729354895, -0.22899592581484296]}, {"species": [{"element": "B", "occu": 1}], "abc": [0.31204739, 0.19244777, 0.46619885], "properties": {"magmom": 0.0}, "label": "B", "xyz": [1.3127368465846248, 2.29121065206451, 9.452409665814843]}, {"species": [{"element": "B", "occu": 1}], "abc": [0.18795261, 0.69244777, 0.96619885], "properties": {"magmom": 0.0}, "label": "B", "xyz": [0.790688608415375, 8.24893207706451, 18.675823405814846]}, {"species": [{"element": "B", "occu": 1}], "abc": [0.68795261, 0.80755223, 0.5338011500000001], "properties": {"magmom": 0.0}, "label": "B", "xyz": [2.894114063415375, 9.62423219793549, 8.994417814185159]}, {"species": [{"element": "B", "occu": 1}], "abc": [0.88382025, 0.78492871, 0.09563657], "properties": {"magmom": 0.0}, "label": "B", "xyz": [3.7181000229889274, 9.357531493044227, -0.3824130898127329]}, {"species": [{"element": "B", "occu": 1}], "abc": [0.38382025000000003, 0.71507129, 0.40436343], "properties": {"magmom": 0.0}, "label": "B", "xyz": [1.6146745679889276, 8.522535961955771, 6.4916111398127345]}, {"species": [{"element": "B", "occu": 1}], "abc": [0.11617975, 0.21507129, 0.90436343], "properties": {"magmom": 0.0}, "label": "B", "xyz": [0.4887508870110725, 2.557911356955771, 18.829240569812733]}, {"species": [{"element": "B", "occu": 1}], "abc": [0.61617975, 0.28492871000000003, 0.59563657], "properties": {"magmom": 0.0}, "label": "B", "xyz": [2.5921763420110726, 3.3929068880442292, 11.955216340187269]}, {"species": [{"element": "B", "occu": 1}], "abc": [0.65795984, 0.99164029, 0.16049429], "properties": {"magmom": -0.0}, "label": "B", "xyz": [2.767938951647454, 11.821570753696706, 0.37224256527434996]}, {"species": [{"element": "B", "occu": 1}], "abc": [0.15795984, 0.50835971, 0.33950571], "properties": {"magmom": -0.0}, "label": "B", "xyz": [0.6645134966474544, 6.0584967013032935, 5.736955484725652]}, {"species": [{"element": "B", "occu": 1}], "abc": [0.34204016, 0.00835971, 0.8395057100000001], "properties": {"magmom": -0.0}, "label": "B", "xyz": [1.4389119583525456, 0.09387209630329349, 18.074584914725655]}, {"species": [{"element": "B", "occu": 1}], "abc": [0.84204016, 0.49164029000000004, 0.66049429], "properties": {"magmom": -0.0}, "label": "B", "xyz": [3.542337413352546, 5.856946148696707, 12.709871995274352]}, {"species": [{"element": "S", "occu": 1}], "abc": [0.51832037, 0.364296, 0.16384637], "properties": {"magmom": -0.0}, "label": "S", "xyz": [2.1804965202060367, 4.3421319083604235, 2.3982023378135526]}, {"species": [{"element": "S", "occu": 1}], "abc": [0.01832037, 0.135704, 0.33615363], "properties": {"magmom": -0.0}, "label": "S", "xyz": [0.0770710652060367, 1.6155895166395764, 6.825211402186447]}, {"species": [{"element": "S", "occu": 1}], "abc": [0.48167963, 0.635703999999999, 0.83615363], "properties": {"magmom": -0.0}, "label": "S", "xyz": [2.0263543897939633, 7.573310941639565, 16.048625142186452]}, {"species": [{"element": "S", "occu": 1}], "abc": [0.98167963, 0.864296, 0.66384637], "properties": {"magmom": -0.0}, "label": "S", "xyz": [4.129779844793964, 10.299853333360423, 11.621616077813554]}, {"species": [{"element": "S", "occu": 1}], "abc": [0.65941932, 0.43045637000000003, 0.08964599000000001], "properties": {"magmom": 0.0}, "label": "S", "xyz": [2.7740787664135813, 5.131430951552463, 0.5923270790929431]}, {"species": [{"element": "S", "occu": 1}], "abc": [0.15941932, 0.06954363, 0.41035401], "properties": {"magmom": 0.0}, "label": "S", "xyz": [0.6706533114135812, 0.826290473447537, 8.631086660907057]}, {"species": [{"element": "S", "occu": 1}], "abc": [0.34058068, 0.56954363, 0.91035401], "properties": {"magmom": 0.0}, "label": "S", "xyz": [1.432772143586419, 6.784011898447536, 17.85450040090706]}, {"species": [{"element": "S", "occu": 1}], "abc": [0.84058068, 0.93045637, 0.5896459900000001], "properties": {"magmom": 0.0}, "label": "S", "xyz": [3.5361975985864187, 11.089152376552464, 9.815740819092944]}, {"species": [{"element": "S", "occu": 1}], "abc": [0.8089709900000001, 0.17481958, 0.054995010000000004], "properties": {"magmom": -0.0}, "label": "S", "xyz": [3.403220345445101, 2.0838798851261355, 0.6413239057893717]}, {"species": [{"element": "S", "occu": 1}], "abc": [0.30897099, 0.32518042, 0.44500499], "properties": {"magmom": -0.0}, "label": "S", "xyz": [1.2997948904451009, 3.873841539873865, 8.58208983421063]}, {"species": [{"element": "S", "occu": 1}], "abc": [0.19102901, 0.82518042, 0.94500499], "properties": {"magmom": -0.0}, "label": "S", "xyz": [0.8036305645548991, 9.831562964873864, 17.805503574210633]}, {"species": [{"element": "S", "occu": 1}], "abc": [0.69102901, 0.67481958, 0.5549950100000001], "properties": {"magmom": -0.0}, "label": "S", "xyz": [2.9070560195548993, 8.041601310126135, 9.864737645789374]}, {"species": [{"element": "S", "occu": 1}], "abc": [0.94618598, 0.3372495, 0.959722699999999], "properties": {"magmom": -0.0}, "label": "S", "xyz": [3.980463350992242, 4.014180098896299, 19.642354881584286]}, {"species": [{"element": "S", "occu": 1}], "abc": [0.44618598, 0.1627505, 0.5402773], "properties": {"magmom": -0.0}, "label": "S", "xyz": [1.8770378959922418, 1.9366381461037008, 11.142102028415696]}, {"species": [{"element": "S", "occu": 1}], "abc": [0.053814020000000004, 0.6627505, 0.040277299999999], "properties": {"magmom": -0.0}, "label": "S", "xyz": [0.22638755900775823, 7.901262751103701, -1.1955274015843256]}, {"species": [{"element": "S", "occu": 1}], "abc": [0.55381402, 0.8372495, 0.4597227], "properties": {"magmom": -0.0}, "label": "S", "xyz": [2.329813014007758, 9.978804703896298, 7.304725451584305]}, {"species": [{"element": "S", "occu": 1}], "abc": [0.74688789, 0.75565987, 0.16883981], "properties": {"magmom": -0.0}, "label": "S", "xyz": [3.14204599971448, 9.008072919525219, 1.2870746087672376]}, {"species": [{"element": "S", "occu": 1}], "abc": [0.24688789, 0.74434013, 0.33116019], "properties": {"magmom": -0.0}, "label": "S", "xyz": [1.0386205447144798, 8.87199453547478, 4.822123441232764]}, {"species": [{"element": "S", "occu": 1}], "abc": [0.25311211, 0.24434013000000002, 0.83116019], "properties": {"magmom": -0.0}, "label": "S", "xyz": [1.0648049102855202, 2.9073699304747795, 17.15975287123276]}, {"species": [{"element": "S", "occu": 1}], "abc": [0.75311211, 0.25565987, 0.66883981], "properties": {"magmom": -0.0}, "label": "S", "xyz": [3.16823036528552, 3.0434483145252202, 13.62470403876724]}, {"species": [{"element": "S", "occu": 1}], "abc": [0.57638363, 0.9106860800000001, 0.21729871], "properties": {"magmom": -0.0}, "label": "S", "xyz": [2.4247599983746033, 10.856014518355364, 1.8491139880947154]}, {"species": [{"element": "S", "occu": 1}], "abc": [0.07638363000000001, 0.58931392, 0.28270129], "properties": {"magmom": -0.0}, "label": "S", "xyz": [0.3213345433746033, 7.024052936644636, 4.260084061905285]}, {"species": [{"element": "S", "occu": 1}], "abc": [0.42361637, 0.08931392, 0.78270129], "properties": {"magmom": -0.0}, "label": "S", "xyz": [1.7820909116253967, 1.0594283316446353, 16.597713491905285]}, {"species": [{"element": "S", "occu": 1}], "abc": [0.92361637, 0.41068608, 0.71729871], "properties": {"magmom": -0.0}, "label": "S", "xyz": [3.8855163666253967, 4.891389913355365, 14.186743418094716]}, {"species": [{"element": "S", "occu": 1}], "abc": [0.84149079, 0.92472913, 0.084853699999999], "properties": {"magmom": 0.0}, "label": "S", "xyz": [3.540026295668119, 11.024354911516088, -1.0502716768118419]}, {"species": [{"element": "S", "occu": 1}], "abc": [0.34149079, 0.57527087, 0.415146299999999], "properties": {"magmom": 0.0}, "label": "S", "xyz": [1.4366008406681188, 6.855712543483912, 7.159469726811801]}, {"species": [{"element": "S", "occu": 1}], "abc": [0.15850921, 0.07527087, 0.9151463], "properties": {"magmom": 0.0}, "label": "S", "xyz": [0.6668246143318811, 0.8910879384839121, 19.497099156811824]}, {"species": [{"element": "S", "occu": 1}], "abc": [0.6585092100000001, 0.42472913, 0.584853699999999], "properties": {"magmom": 0.0}, "label": "S", "xyz": [2.7702500693318814, 5.059730306516088, 11.287357753188159]}, {"species": [{"element": "S", "occu": 1}], "abc": [0.53550021, 0.13683171, 0.18956147], "properties": {"magmom": 0.0}, "label": "S", "xyz": [2.2527695457436914, 1.6300464175481366, 3.661019579867131]}, {"species": [{"element": "S", "occu": 1}], "abc": [0.03550021, 0.36316829, 0.31043853], "properties": {"magmom": 0.0}, "label": "S", "xyz": [0.1493440907436911, 4.327675007451863, 5.56239416013287]}, {"species": [{"element": "S", "occu": 1}], "abc": [0.46449979, 0.8631682900000001, 0.81043853], "properties": {"magmom": 0.0}, "label": "S", "xyz": [1.954081364256309, 10.285396432451863, 14.78580790013287]}, {"species": [{"element": "S", "occu": 1}], "abc": [0.96449979, 0.63683171, 0.68956147], "properties": {"magmom": 0.0}, "label": "S", "xyz": [4.057506819256309, 7.587767842548137, 12.88443331986713]}]}, "task_ids": null, "uncorrected_energy_per_atom": null, "energy_per_atom": -5.713698593541667, "formation_energy_per_atom": -0.728328291597221, "energy_above_hull": 0.0, "is_stable": true, "equilibrium_reaction_energy_per_atom": null, "decomposes_to": null, "xas": null, "grain_boundaries": null, "band_gap": 2.5677, "cbm": null, "vbm": null, "efermi": 0.31678882, "is_gap_direct": null, "is_metal": null, "es_source_calc_id": null, "bandstructure": null, "dos": null, "dos_energy_up": null, "dos_energy_down": null, "is_magnetic": null, "ordering": null, "total_magnetization": 0.0, "total_magnetization_normalized_vol": null, "total_magnetization_normalized_formula_units": null, "num_magnetic_sites": null, "num_unique_magnetic_sites": null, "types_of_magnetic_species": null, "bulk_modulus": null, "shear_modulus": null, "universal_anisotropy": null, "homogeneous_poisson": null, "e_total": null, "e_ionic": null, "e_electronic": null, "n": null, "e_ij_max": null, "weighted_surface_energy_EV_PER_ANG2": null, "weighted_surface_energy": null, "weighted_work_function": null, "surface_anisotropy": null, "shape_factor": null, "has_reconstructed": null, "possible_species": null, "has_props": null, "theoretical": null, "database_IDs": null, "fields_not_requested": ["builder_meta", "nsites", "elements", "nelements", "composition", "composition_reduced", "chemsys", "symmetry", "property_name", "deprecated", "deprecation_reasons", "last_updated", "origins", "warnings", "task_ids", "uncorrected_energy_per_atom", "equilibrium_reaction_energy_per_atom", "decomposes_to", "xas", "grain_boundaries", "cbm", "vbm", "is_gap_direct", "is_metal", "es_source_calc_id", "bandstructure", "dos", "dos_energy_up", "dos_energy_down", "is_magnetic", "ordering", "total_magnetization_normalized_vol", "total_magnetization_normalized_formula_units", "num_magnetic_sites", "num_unique_magnetic_sites", "types_of_magnetic_species", "bulk_modulus", "shear_modulus", "universal_anisotropy", "homogeneous_poisson", "e_total", "e_ionic", "e_electronic", "n", "e_ij_max", "weighted_surface_energy_EV_PER_ANG2", "weighted_surface_energy", "weighted_work_function", "surface_anisotropy", "shape_factor", "has_reconstructed", "possible_species", "has_props", "theoretical", "database_IDs"]}