{"builder_meta": null, "nsites": null, "elements": null, "nelements": null, "composition": null, "composition_reduced": null, "formula_pretty": "BSe2", "formula_anonymous": "AB2", "chemsys": null, "volume": 621.8055623394856, "density": 3.604784958080036, "density_atomic": 25.90856509747857, "symmetry": null, "property_name": null, "material_id": "mp-1214789", "deprecated": null, "deprecation_reasons": null, "last_updated": null, "origins": null, "warnings": null, "structure": {"@module": "pymatgen.core.structure", "@class": "Structure", "charge": 0, "lattice": {"matrix": [[6.5658142, 0.0, -3.46141385], [-6.56054639, 0.0, -4.95425135], [0.0, 11.25695429, 0.0]], "pbc": [true, true, true], "a": 7.422351510801241, "b": 8.22103250050253, "c": 11.25695429, "alpha": 90.0, "beta": 90.0, "gamma": 115.14378863607199, "volume": 621.8055623394856}, "properties": {}, "sites": [{"species": [{"element": "B", "occu": 1}], "abc": [0.09057324, 0.76820348, 0.36662039], "properties": {"magmom": 0.0}, "label": "B", "xyz": [-4.44514750216743, 4.127028972011973, -4.119384595240072]}, {"species": [{"element": "B", "occu": 1}], "abc": [0.90942676, 0.23179652, 0.63337961], "properties": {"magmom": 0.0}, "label": "B", "xyz": [4.450415312167429, 7.129925317988026, -4.296280604759928]}, {"species": [{"element": "B", "occu": 1}], "abc": [0.40942676, 0.7317965200000001, 0.86662039], "properties": {"magmom": 0.0}, "label": "B", "xyz": [-2.1127649828325716, 9.755506117011972, -5.042699354759928]}, {"species": [{"element": "B", "occu": 1}], "abc": [0.59057324, 0.26820348, 0.13337961], "properties": {"magmom": 0.0}, "label": "B", "xyz": [2.118032792832571, 1.501448172988027, -3.3729658452400715]}, {"species": [{"element": "B", "occu": 1}], "abc": [0.26405921, 0.74826316, 0.13279058], "properties": {"magmom": -0.0}, "label": "B", "xyz": [-3.1752514624492107, 1.494817489202588, -4.6211019772993245]}, {"species": [{"element": "B", "occu": 1}], "abc": [0.73594079, 0.25173684, 0.86720942], "properties": {"magmom": -0.0}, "label": "B", "xyz": [3.18051927244921, 9.762136800797412, -3.794563222700676]}, {"species": [{"element": "B", "occu": 1}], "abc": [0.23594079, 0.75173684, 0.63279058], "properties": {"magmom": -0.0}, "label": "B", "xyz": [-3.3826610225507894, 7.123294634202588, -4.540981972700675]}, {"species": [{"element": "B", "occu": 1}], "abc": [0.76405921, 0.24826316, 0.36720942], "properties": {"magmom": -0.0}, "label": "B", "xyz": [3.3879288325507897, 4.133659655797412, -3.8746832272993244]}, {"species": [{"element": "Se", "occu": 1}], "abc": [0.03132917, 0.77702008, 0.53528529], "properties": {"magmom": -0.0}, "label": "Se", "xyz": [-4.891974771541297, 6.025682041639394, -3.9579960032641126]}, {"species": [{"element": "Se", "occu": 1}], "abc": [0.96867083, 0.22297992, 0.46471471000000003], "properties": {"magmom": -0.0}, "label": "Se", "xyz": [4.897242581541297, 5.231272248360606, -4.457669196735887]}, {"species": [{"element": "Se", "occu": 1}], "abc": [0.46867083, 0.72297992, 0.035285290000000004], "properties": {"magmom": -0.0}, "label": "Se", "xyz": [-1.6659377134587023, 0.3972048966393941, -5.204087946735887]}, {"species": [{"element": "Se", "occu": 1}], "abc": [0.53132917, 0.27702008, 0.96471471], "properties": {"magmom": -0.0}, "label": "Se", "xyz": [1.6712055234587029, 10.859749393360605, -3.2115772532641125]}, {"species": [{"element": "Se", "occu": 1}], "abc": [0.31757349, 0.74116044, 0.30222775], "properties": {"magmom": -0.0}, "label": "Se", "xyz": [-2.7772889188672534, 3.4021639669195474, -4.7711483871154305]}, {"species": [{"element": "Se", "occu": 1}], "abc": [0.68242651, 0.25883956, 0.69777225], "properties": {"magmom": -0.0}, "label": "Se", "xyz": [2.782556728867254, 7.854790323080452, -3.6445168128845693]}, {"species": [{"element": "Se", "occu": 1}], "abc": [0.18242651000000001, 0.75883956, 0.80222775], "properties": {"magmom": -0.0}, "label": "Se", "xyz": [-3.7806235661327454, 9.030641111919547, -4.390935562884569]}, {"species": [{"element": "Se", "occu": 1}], "abc": [0.81757349, 0.24116044, 0.19777225], "properties": {"magmom": -0.0}, "label": "Se", "xyz": [3.785891376132746, 2.2263131780804524, -4.02472963711543]}, {"species": [{"element": "Se", "occu": 1}], "abc": [0.03367513, 0.77639977, 0.07801853], "properties": {"magmom": -0.0}, "label": "Se", "xyz": [-4.8725020615294845, 0.8782510259829936, -3.96304317004474]}, {"species": [{"element": "Se", "occu": 1}], "abc": [0.96632487, 0.22360023, 0.92198147], "properties": {"magmom": -0.0}, "label": "Se", "xyz": [4.877769871529484, 10.378703264017005, -4.45262202995526]}, {"species": [{"element": "Se", "occu": 1}], "abc": [0.46632487, 0.7236002300000001, 0.57801853], "properties": {"magmom": -0.0}, "label": "Se", "xyz": [-1.6854104234705165, 6.506728170982994, -5.1990407799552605]}, {"species": [{"element": "Se", "occu": 1}], "abc": [0.53367513, 0.27639977, 0.42198147], "properties": {"magmom": -0.0}, "label": "Se", "xyz": [1.6906782334705162, 4.7502261190170065, -3.21662442004474]}, {"species": [{"element": "Se", "occu": 1}], "abc": [0.89395449, 0.7896590800000001, 0.26395859], "properties": {"magmom": 0.0}, "label": "Se", "xyz": [0.6889440579710371, 2.971369782082851, -7.006516016085445]}, {"species": [{"element": "Se", "occu": 1}], "abc": [0.10604551, 0.21034092000000001, 0.73604141], "properties": {"magmom": 0.0}, "label": "Se", "xyz": [-0.6836762479710369, 8.285584507917148, -1.4091491839145556]}, {"species": [{"element": "Se", "occu": 1}], "abc": [0.6060455100000001, 0.71034092, 0.76395859], "properties": {"magmom": 0.0}, "label": "Se", "xyz": [-0.6810423429710362, 8.59984692708285, -5.6169817839145555]}, {"species": [{"element": "Se", "occu": 1}], "abc": [0.39395449, 0.28965908, 0.23604141], "properties": {"magmom": 0.0}, "label": "Se", "xyz": [0.6863101529710367, 2.6571073629171487, -2.798683416085445]}]}, "task_ids": null, "uncorrected_energy_per_atom": null, "energy_per_atom": -12.184781938333332, "formation_energy_per_atom": -0.194957051874998, "energy_above_hull": 0.0, "is_stable": true, "equilibrium_reaction_energy_per_atom": null, "decomposes_to": null, "xas": null, "grain_boundaries": null, "band_gap": 1.771199999999999, "cbm": null, "vbm": null, "efermi": 0.31636213, "is_gap_direct": null, "is_metal": null, "es_source_calc_id": null, "bandstructure": null, "dos": null, "dos_energy_up": null, "dos_energy_down": null, "is_magnetic": null, "ordering": null, "total_magnetization": 0.0, "total_magnetization_normalized_vol": null, "total_magnetization_normalized_formula_units": null, "num_magnetic_sites": null, "num_unique_magnetic_sites": null, "types_of_magnetic_species": null, "bulk_modulus": null, "shear_modulus": null, "universal_anisotropy": null, "homogeneous_poisson": null, "e_total": null, "e_ionic": null, "e_electronic": null, "n": null, "e_ij_max": null, "weighted_surface_energy_EV_PER_ANG2": null, "weighted_surface_energy": null, "weighted_work_function": null, "surface_anisotropy": null, "shape_factor": null, "has_reconstructed": null, "possible_species": null, "has_props": null, "theoretical": null, "database_IDs": null, "fields_not_requested": ["builder_meta", "nsites", "elements", "nelements", "composition", "composition_reduced", "chemsys", "symmetry", "property_name", "deprecated", "deprecation_reasons", "last_updated", "origins", "warnings", "task_ids", "uncorrected_energy_per_atom", "equilibrium_reaction_energy_per_atom", "decomposes_to", "xas", "grain_boundaries", "cbm", "vbm", "is_gap_direct", "is_metal", "es_source_calc_id", "bandstructure", "dos", "dos_energy_up", "dos_energy_down", "is_magnetic", "ordering", "total_magnetization_normalized_vol", "total_magnetization_normalized_formula_units", "num_magnetic_sites", "num_unique_magnetic_sites", "types_of_magnetic_species", "bulk_modulus", "shear_modulus", "universal_anisotropy", "homogeneous_poisson", "e_total", "e_ionic", "e_electronic", "n", "e_ij_max", "weighted_surface_energy_EV_PER_ANG2", "weighted_surface_energy", "weighted_work_function", "surface_anisotropy", "shape_factor", "has_reconstructed", "possible_species", "has_props", "theoretical", "database_IDs"]}