{"builder_meta": null, "nsites": null, "elements": null, "nelements": null, "composition": null, "composition_reduced": null, "formula_pretty": "BW", "formula_anonymous": "AB", "chemsys": null, "volume": 82.94749241836743, "density": 15.586997529592988, "density_atomic": 10.368436552295929, "symmetry": null, "property_name": null, "material_id": "mp-7832", "deprecated": null, "deprecation_reasons": null, "last_updated": null, "origins": null, "warnings": null, "structure": {"@module": "pymatgen.core.structure", "@class": "Structure", "charge": 0, "lattice": {"matrix": [[3.08110808, -0.00033846, -0.55737882], [-0.10122961, 3.07944378, -0.55737839], [-0.0080202, -0.00828383, 8.74529789]], "pbc": [true, true, true], "a": 3.131117734001877, "b": 3.1311167493021452, "c": 8.74530549096405, "alpha": 100.3065356950196, "beta": 100.3065629426866, "gamma": 90.01327055831517, "volume": 82.94749241836742}, "properties": {}, "sites": [{"species": [{"element": "B", "occu": 1}], "abc": [0.78130089, 0.03127473, 0.06238376], "properties": {"magmom": 0.0}, "label": "B", "xyz": [2.4036062261374838, 0.09552755720784921, 0.0926521379100319]}, {"species": [{"element": "B", "occu": 1}], "abc": [0.5312793100000001, 0.28130728, 0.56239331], "properties": {"magmom": 0.0}, "label": "B", "xyz": [1.603941841708402, 0.8614313662962785, 4.465378593573223]}, {"species": [{"element": "B", "occu": 1}], "abc": [0.21869182, 0.9687206700000001, 0.93760421], "properties": {"magmom": 0.0}, "label": "B", "xyz": [0.5682301447238249, 2.9752798694726112, 7.537789963388544]}, {"species": [{"element": "B", "occu": 1}], "abc": [0.46872682, 0.7186981100000001, 0.43761784000000004], "properties": {"magmom": 0.0}, "label": "B", "xyz": [1.3679346804313004, 2.2094066274662314, 3.1652531754965625]}, {"species": [{"element": "W", "occu": 1}], "abc": [0.9279595900000001, 0.17783226, 0.35600468], "properties": {"magmom": 0.0}, "label": "W", "xyz": [2.8382866716027326, 0.544361287489187, 2.49702209678338]}, {"species": [{"element": "W", "occu": 1}], "abc": [0.67783785, 0.42796538, 0.85601469], "properties": {"magmom": -0.0}, "label": "W", "xyz": [2.038303499037188, 1.3105748263281627, 6.869752346801528]}, {"species": [{"element": "W", "occu": 1}], "abc": [0.0720364, 0.82216367, 0.64398775], "properties": {"magmom": 0.0}, "label": "W", "xyz": [0.13355971587129328, 2.5264477332404462, 5.133456884930707]}, {"species": [{"element": "W", "occu": 1}], "abc": [0.32216531, 0.5720389100000001, 0.14399277], "properties": {"magmom": -0.0}, "label": "W", "xyz": [0.9335640131586257, 1.7602598116187482, 0.7608494206503662]}]}, "task_ids": null, "uncorrected_energy_per_atom": null, "energy_per_atom": -29.71678440375, "formation_energy_per_atom": -0.35971011500000205, "energy_above_hull": 0.0, "is_stable": true, "equilibrium_reaction_energy_per_atom": null, "decomposes_to": null, "xas": null, "grain_boundaries": null, "band_gap": 0.0, "cbm": null, "vbm": null, "efermi": 9.03897167, "is_gap_direct": null, "is_metal": null, "es_source_calc_id": null, "bandstructure": null, "dos": null, "dos_energy_up": null, "dos_energy_down": null, "is_magnetic": null, "ordering": null, "total_magnetization": 1e-07, "total_magnetization_normalized_vol": null, "total_magnetization_normalized_formula_units": null, "num_magnetic_sites": null, "num_unique_magnetic_sites": null, "types_of_magnetic_species": null, "bulk_modulus": null, "shear_modulus": null, "universal_anisotropy": null, "homogeneous_poisson": null, "e_total": null, "e_ionic": null, "e_electronic": null, "n": null, "e_ij_max": null, "weighted_surface_energy_EV_PER_ANG2": null, "weighted_surface_energy": null, "weighted_work_function": null, "surface_anisotropy": null, "shape_factor": null, "has_reconstructed": null, "possible_species": null, "has_props": null, "theoretical": null, "database_IDs": null, "fields_not_requested": ["builder_meta", "nsites", "elements", "nelements", "composition", "composition_reduced", "chemsys", "symmetry", "property_name", "deprecated", "deprecation_reasons", "last_updated", "origins", "warnings", "task_ids", "uncorrected_energy_per_atom", "equilibrium_reaction_energy_per_atom", "decomposes_to", "xas", "grain_boundaries", "cbm", "vbm", "is_gap_direct", "is_metal", "es_source_calc_id", "bandstructure", "dos", "dos_energy_up", "dos_energy_down", "is_magnetic", "ordering", "total_magnetization_normalized_vol", "total_magnetization_normalized_formula_units", "num_magnetic_sites", "num_unique_magnetic_sites", "types_of_magnetic_species", "bulk_modulus", "shear_modulus", "universal_anisotropy", "homogeneous_poisson", "e_total", "e_ionic", "e_electronic", "n", "e_ij_max", "weighted_surface_energy_EV_PER_ANG2", "weighted_surface_energy", "weighted_work_function", "surface_anisotropy", "shape_factor", "has_reconstructed", "possible_species", "has_props", "theoretical", "database_IDs"]}