{"builder_meta": null, "nsites": null, "elements": null, "nelements": null, "composition": null, "composition_reduced": null, "formula_pretty": "BW2", "formula_anonymous": "AB2", "chemsys": null, "volume": 73.85531153337861, "density": 17.01973978059663, "density_atomic": 12.309218588896435, "symmetry": null, "property_name": null, "material_id": "mp-1113", "deprecated": null, "deprecation_reasons": null, "last_updated": null, "origins": null, "warnings": null, "structure": {"@module": "pymatgen.core.structure", "@class": "Structure", "charge": 0, "lattice": {"matrix": [[4.4342342200000004, 0.0082716, -1.22986967], [-2.56206414, 3.61916189, -1.22986765], [-0.00426953, -0.00827159, 4.60162965]], "pbc": [true, true, true], "a": 4.601638940896111, "b": 4.601638825464123, "c": 4.601639064925308, "alpha": 105.55503893971128, "beta": 105.55507335894087, "gamma": 117.6242715568729, "volume": 73.85531153337863}, "properties": {}, "sites": [{"species": [{"element": "B", "occu": 1}], "abc": [0.75, 0.75, -0.0], "properties": {"magmom": -0.0}, "label": "B", "xyz": [1.4041275600000005, 2.7205751174999997, -1.84480299]}, {"species": [{"element": "B", "occu": 1}], "abc": [0.25, 0.25, -0.0], "properties": {"magmom": -0.0}, "label": "B", "xyz": [0.46804252000000013, 0.9068583725, -0.6149343300000001]}, {"species": [{"element": "W", "occu": 1}], "abc": [0.8296931200000001, 0.67030688, 0.5], "properties": {"magmom": 0.0}, "label": "W", "xyz": [1.9595496397592838, 2.4286762093121954, 0.45601167401989695]}, {"species": [{"element": "W", "occu": 1}], "abc": [0.32969312, 0.8296931200000001, 0.15938525], "properties": {"magmom": 0.0}, "label": "W", "xyz": [-0.6644709752605829, 3.0042024404705416, -0.6924604042385761]}, {"species": [{"element": "W", "occu": 1}], "abc": [0.17030688, 0.32969312, 0.5], "properties": {"magmom": 0.0}, "label": "W", "xyz": [-0.09164908975928311, 1.1904856906878047, 1.6858806559801023]}, {"species": [{"element": "W", "occu": 1}], "abc": [0.67030688, 0.17030688, 0.84061475], "properties": {"magmom": 0.0}, "label": "W", "xyz": [2.5323715252605834, 0.6149594595294587, 2.834352734238575]}]}, "task_ids": null, "uncorrected_energy_per_atom": null, "energy_per_atom": -36.939664115, "formation_energy_per_atom": -0.24568312916666402, "energy_above_hull": 0.0, "is_stable": true, "equilibrium_reaction_energy_per_atom": null, "decomposes_to": null, "xas": null, "grain_boundaries": null, "band_gap": 0.0, "cbm": null, "vbm": null, "efermi": 7.79395943, "is_gap_direct": null, "is_metal": null, "es_source_calc_id": null, "bandstructure": null, "dos": null, "dos_energy_up": null, "dos_energy_down": null, "is_magnetic": null, "ordering": null, "total_magnetization": 1.0700000000000001e-05, "total_magnetization_normalized_vol": null, "total_magnetization_normalized_formula_units": null, "num_magnetic_sites": null, "num_unique_magnetic_sites": null, "types_of_magnetic_species": null, "bulk_modulus": null, "shear_modulus": null, "universal_anisotropy": null, "homogeneous_poisson": null, "e_total": null, "e_ionic": null, "e_electronic": null, "n": null, "e_ij_max": null, "weighted_surface_energy_EV_PER_ANG2": null, "weighted_surface_energy": null, "weighted_work_function": null, "surface_anisotropy": null, "shape_factor": null, "has_reconstructed": null, "possible_species": null, "has_props": null, "theoretical": null, "database_IDs": null, "fields_not_requested": ["builder_meta", "nsites", "elements", "nelements", "composition", "composition_reduced", "chemsys", "symmetry", "property_name", "deprecated", "deprecation_reasons", "last_updated", "origins", "warnings", "task_ids", "uncorrected_energy_per_atom", "equilibrium_reaction_energy_per_atom", "decomposes_to", "xas", "grain_boundaries", "cbm", "vbm", "is_gap_direct", "is_metal", "es_source_calc_id", "bandstructure", "dos", "dos_energy_up", "dos_energy_down", "is_magnetic", "ordering", "total_magnetization_normalized_vol", "total_magnetization_normalized_formula_units", "num_magnetic_sites", "num_unique_magnetic_sites", "types_of_magnetic_species", "bulk_modulus", "shear_modulus", "universal_anisotropy", "homogeneous_poisson", "e_total", "e_ionic", "e_electronic", "n", "e_ij_max", "weighted_surface_energy_EV_PER_ANG2", "weighted_surface_energy", "weighted_work_function", "surface_anisotropy", "shape_factor", "has_reconstructed", "possible_species", "has_props", "theoretical", "database_IDs"]}