{"builder_meta": null, "nsites": null, "elements": null, "nelements": null, "composition": null, "composition_reduced": null, "formula_pretty": "C2F", "formula_anonymous": "AB2", "chemsys": null, "volume": 1220.6030826153587, "density": 2.106907917295483, "density_atomic": 11.301880394586655, "symmetry": null, "property_name": null, "material_id": "mp-683965", "deprecated": null, "deprecation_reasons": null, "last_updated": null, "origins": null, "warnings": null, "structure": {"@module": "pymatgen.core.structure", "@class": "Structure", "charge": 0, "lattice": {"matrix": [[6.832479, -10.405781, 0.0], [6.832479, 10.405781, 0.0], [-9.015397, 0.0, 8.584035]], "pbc": [true, true, true], "a": 12.448415461632134, "b": 12.448415461632134, "c": 12.448415158116877, "alpha": 113.42186359031759, "beta": 113.42186359031759, "gamma": 113.42186228217362, "volume": 1220.6030826153587}, "properties": {}, "sites": [{"species": [{"element": "C", "occu": 1}], "abc": [0.884741, 0.224165999999999, 0.071055], "properties": {"magmom": 0.0}, "label": "C", "xyz": [6.935994756617993, -6.87379878407501, 0.6099386069249999]}, {"species": [{"element": "C", "occu": 1}], "abc": [0.759296, 0.133361999999999, 0.251089], "properties": {"magmom": 0.0}, "label": "C", "xyz": [3.835400021848993, -6.51333212445401, 2.155356764115]}, {"species": [{"element": "C", "occu": 1}], "abc": [0.777971, 0.948036999999999, 0.635548], "properties": {"magmom": -0.0}, "label": "C", "xyz": [6.063195881275993, 1.7696695515459915, 5.45556627618]}, {"species": [{"element": "C", "occu": 1}], "abc": [0.677481999999999, 0.677837999999999, 0.896075], "properties": {"magmom": -0.0}, "label": "C", "xyz": [1.1817235715049872, 0.003704458036000169, 7.691939162624999]}, {"species": [{"element": "C", "occu": 1}], "abc": [0.286092, 0.407373999999999, 0.291671], "properties": {"magmom": -0.0}, "label": "C", "xyz": [2.108562023826993, 1.262033931241989, 2.503714072485]}, {"species": [{"element": "C", "occu": 1}], "abc": [0.837866, 0.609822, 0.811742], "properties": {"magmom": 0.0}, "label": "C", "xyz": [2.5731214669780007, -2.3729759223639997, 6.96802173897]}, {"species": [{"element": "C", "occu": 1}], "abc": [0.52102, 0.318648, 0.089104], "properties": {"magmom": -0.0}, "label": "C", "xyz": [4.933706042684, -2.105838712532001, 0.7648718546400001]}, {"species": [{"element": "C", "occu": 1}], "abc": [0.133361999999999, 0.251089, 0.759296], "properties": {"magmom": 0.0}, "label": "C", "xyz": [-4.218601496483006, 1.2250413797870103, 6.51782343936]}, {"species": [{"element": "C", "occu": 1}], "abc": [0.407373999999999, 0.291671, 0.286092], "properties": {"magmom": -0.0}, "label": "C", "xyz": [2.196977324030993, -1.203980079042989, 2.45582374122]}, {"species": [{"element": "C", "occu": 1}], "abc": [0.188257999999999, 0.162134, 0.390177999999999], "properties": {"magmom": 0.0}, "label": "C", "xyz": [-1.1235635888979978, -0.2718406228439896, 3.349301608229992]}, {"species": [{"element": "C", "occu": 1}], "abc": [0.801195999999999, 0.69954, 0.997477], "properties": {"magmom": -0.0}, "label": "C", "xyz": [1.2610960511749951, -1.0578100733359888, 8.562377479695]}, {"species": [{"element": "C", "occu": 1}], "abc": [0.390177999999999, 0.188257999999999, 0.162134], "properties": {"magmom": 0.0}, "label": "C", "xyz": [2.4904494456459867, -2.10113529952, 1.39176393069]}, {"species": [{"element": "C", "occu": 1}], "abc": [0.364778999999999, 0.373035, 0.250050999999999], "properties": {"magmom": 0.0}, "label": "C", "xyz": [2.7867896256590017, 0.08591012793600994, 2.1464465357849916]}, {"species": [{"element": "C", "occu": 1}], "abc": [0.949728999999999, 0.212452, 0.900125], "properties": {"magmom": -0.0}, "label": "C", "xyz": [-0.17440694792600553, -7.67194299833699, 7.726704504374999]}, {"species": [{"element": "C", "occu": 1}], "abc": [0.900125, 0.949728999999999, 0.212452], "properties": {"magmom": -0.0}, "label": "C", "xyz": [10.723749484621994, 0.5161683607239915, 1.82369540382]}, {"species": [{"element": "C", "occu": 1}], "abc": [0.592627, 0.708329, 0.713908], "properties": {"magmom": -0.0}, "label": "C", "xyz": [2.452590508448, 1.2039696732619998, 6.1282112587799995]}, {"species": [{"element": "C", "occu": 1}], "abc": [0.69954, 0.997477, 0.801195999999999], "properties": {"magmom": -0.0}, "label": "C", "xyz": [4.371733000331008, 3.1002671737969996, 6.877494505859992]}, {"species": [{"element": "C", "occu": 1}], "abc": [0.681352, 0.910895999999999, 0.47898], "properties": {"magmom": -0.0}, "label": "C", "xyz": [6.560806167731993, 2.3885845938639907, 4.1115810843]}, {"species": [{"element": "C", "occu": 1}], "abc": [0.67154, 0.957888, 0.88599], "properties": {"magmom": -0.0}, "label": "C", "xyz": [3.145481003982, 2.979674577788, 7.60536916965]}, {"species": [{"element": "C", "occu": 1}], "abc": [0.88599, 0.67154, 0.957888], "properties": {"magmom": -0.0}, "label": "C", "xyz": [2.006050415334002, -2.23151973545, 8.22254411808]}, {"species": [{"element": "C", "occu": 1}], "abc": [0.322162, 0.103924999999999, 0.322517999999999], "properties": {"magmom": -0.0}, "label": "C", "xyz": [0.0036026700270022083, -2.2709264280970105, 2.768505800129992]}, {"species": [{"element": "C", "occu": 1}], "abc": [0.713908, 0.592626, 0.708329], "properties": {"magmom": -0.0}, "label": "C", "xyz": [2.5409989761730003, -1.2620339312419997, 6.080320927515]}, {"species": [{"element": "C", "occu": 1}], "abc": [0.957888, 0.88599, 0.67154], "properties": {"magmom": -0.0}, "label": "C", "xyz": [6.544058012181999, -0.7481548423379998, 5.7645228639]}, {"species": [{"element": "C", "occu": 1}], "abc": [0.212452, 0.900125, 0.949728999999999], "properties": {"magmom": -0.0}, "label": "C", "xyz": [-0.9605249890299907, 7.155774637612998, 8.152506976514992]}, {"species": [{"element": "C", "occu": 1}], "abc": [0.11401000000000001, 0.32846000000000003, 0.042112], "properties": {"magmom": -0.0}, "label": "C", "xyz": [2.6435105846660005, 2.23151973545, 0.36149088191999995]}, {"species": [{"element": "C", "occu": 1}], "abc": [0.322517999999999, 0.322162, 0.103924999999999], "properties": {"magmom": -0.0}, "label": "C", "xyz": [3.467837428495002, -0.0037044580359895107, 0.8920958373749914]}, {"species": [{"element": "C", "occu": 1}], "abc": [0.291671, 0.286092, 0.407373999999999], "properties": {"magmom": -0.0}, "label": "C", "xyz": [0.2749152269990094, -0.058053852198999945, 3.4969126740899914]}, {"species": [{"element": "C", "occu": 1}], "abc": [0.175935999999999, 0.825669, 0.089969], "properties": {"magmom": -0.0}, "label": "C", "xyz": [6.032338876101994, 6.7609793064730095, 0.772297044915]}, {"species": [{"element": "C", "occu": 1}], "abc": [0.002523, 0.198803999999999, 0.30046], "properties": {"magmom": -0.0}, "label": "C", "xyz": [-1.333203682987007, 2.0424571004609895, 2.5791591561000002]}, {"species": [{"element": "C", "occu": 1}], "abc": [0.825669, 0.089969, 0.175935999999999], "properties": {"magmom": -0.0}, "label": "C", "xyz": [4.669944520010009, -7.655533081699999, 1.5102407817599914]}, {"species": [{"element": "C", "occu": 1}], "abc": [0.626965, 0.749949, 0.635220999999999], "properties": {"magmom": 0.0}, "label": "C", "xyz": [3.6809664920690084, 1.2797445705039996, 5.452759296734992]}, {"species": [{"element": "C", "occu": 1}], "abc": [0.928944999999999, 0.115259, 0.775833999999999], "properties": {"magmom": 0.0}, "label": "C", "xyz": [0.14005038561800198, -8.467038318765988, 6.659786210189992]}, {"species": [{"element": "C", "occu": 1}], "abc": [0.635548, 0.777971, 0.948036999999999], "properties": {"magmom": -0.0}, "label": "C", "xyz": [1.1109089579120095, 1.482022547362999, 8.137982789294991]}, {"species": [{"element": "C", "occu": 1}], "abc": [0.198803999999999, 0.30046, 0.002523], "properties": {"magmom": -0.0}, "label": "C", "xyz": [3.388464948824993, 1.05781007333601, 0.021657520305]}, {"species": [{"element": "C", "occu": 1}], "abc": [0.071055, 0.884741, 0.224165999999999], "properties": {"magmom": 0.0}, "label": "C", "xyz": [4.509510614382009, 8.467038318765999, 1.9242487898099914]}, {"species": [{"element": "C", "occu": 1}], "abc": [0.910895999999999, 0.47898, 0.681352], "properties": {"magmom": -0.0}, "label": "C", "xyz": [3.353639805859993, -4.49442330639599, 5.8487494153199995]}, {"species": [{"element": "C", "occu": 1}], "abc": [0.250050999999999, 0.364778999999999, 0.373035], "properties": {"magmom": -0.0}, "label": "C", "xyz": [0.8377544436749869, 1.1938344425679999, 3.202145496225]}, {"species": [{"element": "C", "occu": 1}], "abc": [0.318648, 0.089104, 0.52102], "properties": {"magmom": -0.0}, "label": "C", "xyz": [-1.9112451677320004, -2.3885845938639996, 4.4724539157]}, {"species": [{"element": "C", "occu": 1}], "abc": [0.896075, 0.677481999999999, 0.677837999999999], "properties": {"magmom": -0.0}, "label": "C", "xyz": [4.640316486117001, -2.27463088613301, 5.8185851163299915]}, {"species": [{"element": "C", "occu": 1}], "abc": [0.103924999999999, 0.322517999999999, 0.322162], "properties": {"magmom": -0.0}, "label": "C", "xyz": [0.009244513882986194, 2.274630886133, 2.76544988367]}, {"species": [{"element": "C", "occu": 1}], "abc": [0.099874999999999, 0.050270999999999004, 0.787547999999999], "properties": {"magmom": -0.0}, "label": "C", "xyz": [-6.074188484622004, -0.5161683607239999, 6.760339596179992]}, {"species": [{"element": "C", "occu": 1}], "abc": [0.364452, 0.222028999999999, 0.051962999999999], "properties": {"magmom": -0.0}, "label": "C", "xyz": [3.538652042088002, -1.4820225473630102, 0.44605221070499146]}, {"species": [{"element": "C", "occu": 1}], "abc": [0.775833999999999, 0.928944999999999, 0.115259], "properties": {"magmom": 0.0}, "label": "C", "xyz": [10.608761074317988, 1.5932395346909995, 0.989387290065]}, {"species": [{"element": "C", "occu": 1}], "abc": [0.222028999999999, 0.051962999999999, 0.364452], "properties": {"magmom": -0.0}, "label": "C", "xyz": [-1.4136348812760136, -1.7696695515459997, 3.12846872382]}, {"species": [{"element": "C", "occu": 1}], "abc": [0.787547999999999, 0.099874999999999, 0.050270999999999004], "properties": {"magmom": -0.0}, "label": "C", "xyz": [5.6100859890299954, -7.155774637613001, 0.4315280234849915]}, {"species": [{"element": "C", "occu": 1}], "abc": [0.224165999999999, 0.071055, 0.884741], "properties": {"magmom": 0.0}, "label": "C", "xyz": [-5.959200074318007, -1.5932395346909896, 7.594647709935]}, {"species": [{"element": "C", "occu": 1}], "abc": [0.47898, 0.681352, 0.910895999999999], "properties": {"magmom": -0.0}, "label": "C", "xyz": [-0.284145042683992, 2.105838712531999, 7.819163145359992]}, {"species": [{"element": "C", "occu": 1}], "abc": [0.910030999999999, 0.824063999999999, 0.17433099999999901], "properties": {"magmom": -0.0}, "label": "C", "xyz": [10.276504497097998, -0.894553775227001, 1.4964634055849915]}, {"species": [{"element": "C", "occu": 1}], "abc": [0.373035, 0.250050999999999, 0.364778999999999], "properties": {"magmom": 0.0}, "label": "C", "xyz": [0.9685945079310025, -1.2797445705040098, 3.1312757032649916]}, {"species": [{"element": "C", "occu": 1}], "abc": [0.050270999999999004, 0.787547999999999, 0.099874999999999], "properties": {"magmom": -0.0}, "label": "C", "xyz": [4.823967947925995, 7.671942998337, 0.8573304956249915]}, {"species": [{"element": "C", "occu": 1}], "abc": [0.251089, 0.759296, 0.133361999999999], "properties": {"magmom": -0.0}, "label": "C", "xyz": [5.7011229197010085, 5.288290744666999, 1.1447840756699914]}, {"species": [{"element": "C", "occu": 1}], "abc": [0.042112, 0.11401000000000001, 0.32846000000000003], "properties": {"magmom": -0.0}, "label": "C", "xyz": [-1.894497012182, 0.7481548423380002, 2.8195121361]}, {"species": [{"element": "C", "occu": 1}], "abc": [0.811742, 0.837866, 0.609822], "properties": {"magmom": 0.0}, "label": "C", "xyz": [5.773124588898, 0.27184062284399957, 5.23473339177]}, {"species": [{"element": "C", "occu": 1}], "abc": [0.748911, 0.240704, 0.866637999999999], "properties": {"magmom": 0.0}, "label": "C", "xyz": [-1.0515619197009904, -5.288290744667, 7.439250924329992]}, {"species": [{"element": "C", "occu": 1}], "abc": [0.17433099999999901, 0.910030999999999, 0.824063999999999], "properties": {"magmom": -0.0}, "label": "C", "xyz": [-0.020383520010004652, 7.6555330817, 7.073794218239992]}, {"species": [{"element": "C", "occu": 1}], "abc": [0.089104, 0.52102, 0.318648], "properties": {"magmom": -0.0}, "label": "C", "xyz": [1.2959211941400004, 4.494423306396, 2.7352855846799997]}, {"species": [{"element": "C", "occu": 1}], "abc": [0.32846000000000003, 0.042112, 0.11401000000000001], "properties": {"magmom": -0.0}, "label": "C", "xyz": [1.5040799960180002, -2.9796745777880003, 0.9786658303500001]}, {"species": [{"element": "C", "occu": 1}], "abc": [0.677837999999999, 0.896075, 0.677481999999999], "properties": {"magmom": -0.0}, "label": "C", "xyz": [4.645958329973002, 2.2709264280970096, 5.815529199869991]}, {"species": [{"element": "C", "occu": 1}], "abc": [0.30046, 0.002523, 0.198803999999999], "properties": {"magmom": -0.0}, "label": "C", "xyz": [0.2778279996690092, -3.1002671737969996, 1.7065404941399915]}, {"species": [{"element": "C", "occu": 1}], "abc": [0.749949, 0.635220999999999, 0.626965], "properties": {"magmom": -0.0}, "label": "C", "xyz": [3.811806556324994, -1.1938344425680096, 5.381889503775]}, {"species": [{"element": "C", "occu": 1}], "abc": [0.997477, 0.801195999999999, 0.69954], "properties": {"magmom": -0.0}, "label": "C", "xyz": [5.982764682986993, -2.042457100461011, 6.004875843900001]}, {"species": [{"element": "C", "occu": 1}], "abc": [0.948036999999999, 0.635548, 0.777971], "properties": {"magmom": -0.0}, "label": "C", "xyz": [3.8060938377279943, -3.2516920989089906, 6.678130292985]}, {"species": [{"element": "C", "occu": 1}], "abc": [0.051962999999999, 0.364452, 0.222028999999999], "properties": {"magmom": -0.0}, "label": "C", "xyz": [0.843467162272002, 3.25169209890901, 1.9059047070149915]}, {"species": [{"element": "C", "occu": 1}], "abc": [0.635220999999999, 0.626965, 0.749949], "properties": {"magmom": 0.0}, "label": "C", "xyz": [1.8627713743409933, -0.08591012793598996, 6.437588464215]}, {"species": [{"element": "C", "occu": 1}], "abc": [0.115259, 0.775833999999999, 0.928944999999999], "properties": {"magmom": 0.0}, "label": "C", "xyz": [-2.286433756617998, 6.873798784074989, 7.9740963930749915]}, {"species": [{"element": "C", "occu": 1}], "abc": [0.089969, 0.175935999999999, 0.825669], "properties": {"magmom": -0.0}, "label": "C", "xyz": [-5.626943497098007, 0.8945537752269896, 7.0875715944149995]}, {"species": [{"element": "C", "occu": 1}], "abc": [0.824063999999999, 0.17433099999999901, 0.910030999999999], "properties": {"magmom": -0.0}, "label": "C", "xyz": [-1.3827778761020042, -6.760979306472999, 7.8117379550849915]}, {"species": [{"element": "C", "occu": 1}], "abc": [0.609822, 0.811742, 0.837866], "properties": {"magmom": 0.0}, "label": "C", "xyz": [2.1591115543540003, 2.10113529952, 7.19227106931]}, {"species": [{"element": "C", "occu": 1}], "abc": [0.240704, 0.866637999999999, 0.748911], "properties": {"magmom": 0.0}, "label": "C", "xyz": [0.8141609781509933, 6.51333212445399, 6.428678235885]}, {"species": [{"element": "C", "occu": 1}], "abc": [0.708329, 0.713908, 0.592626], "properties": {"magmom": -0.0}, "label": "C", "xyz": [4.374645773001001, 0.0580538521989995, 5.08712232591]}, {"species": [{"element": "C", "occu": 1}], "abc": [0.162134, 0.390177999999999, 0.188257999999999], "properties": {"magmom": 0.0}, "label": "C", "xyz": [2.0764395330220022, 2.37297592236399, 1.6160132610299915]}, {"species": [{"element": "C", "occu": 1}], "abc": [0.866637999999999, 0.748911, 0.240704], "properties": {"magmom": 0.0}, "label": "C", "xyz": [8.868162496482993, -1.2250413797869903, 2.0662115606400002]}, {"species": [{"element": "F", "occu": 1}], "abc": [0.496357, 0.665609, 0.016422], "properties": {"magmom": -0.0}, "label": "F", "xyz": [7.79105744418, 1.7611992458120005, 0.14096702277]}, {"species": [{"element": "F", "occu": 1}], "abc": [0.397703, 0.959847, 0.855661999999999], "properties": {"magmom": -0.0}, "label": "F", "xyz": [1.5612992386360078, 5.849547354464, 7.345032556169992]}, {"species": [{"element": "F", "occu": 1}], "abc": [0.282068, 0.320832, 0.821144], "properties": {"magmom": -0.0}, "label": "F", "xyz": [-3.283637565068, 0.4033696946840002, 7.04872883604]}, {"species": [{"element": "F", "occu": 1}], "abc": [0.205943, 0.879398999999999, 0.638911999999999], "properties": {"magmom": -0.0}, "label": "F", "xyz": [1.6555310947540027, 7.007835649135989, 5.484442969919992]}, {"species": [{"element": "F", "occu": 1}], "abc": [0.983578, 0.503643, 0.334391], "properties": {"magmom": -0.0}, "label": "F", "xyz": [7.146738632631999, -4.994098504235, 2.870424047685]}, {"species": [{"element": "F", "occu": 1}], "abc": [0.767539, 0.37368, 0.535673], "properties": {"magmom": -0.0}, "label": "F", "xyz": [2.9680500947200006, -4.098410498879, 4.598235780555]}, {"species": [{"element": "F", "occu": 1}], "abc": [0.503643, 0.334391, 0.983578], "properties": {"magmom": -0.0}, "label": "F", "xyz": [-3.1414964441800004, -1.7611992458119992, 8.44306797723]}, {"species": [{"element": "F", "occu": 1}], "abc": [0.535673, 0.767539, 0.37368], "properties": {"magmom": -0.0}, "label": "F", "xyz": [5.535295071587999, 2.412746817346, 3.2076821988]}, {"species": [{"element": "F", "occu": 1}], "abc": [0.585432, 0.253114, 0.09457], "properties": {"magmom": -0.0}, "label": "F", "xyz": [4.876761841244, -3.4580283303579997, 0.81179218995]}, {"species": [{"element": "F", "occu": 1}], "abc": [0.320832, 0.821144, 0.282068], "properties": {"magmom": -0.0}, "label": "F", "xyz": [5.259572037508001, 5.206137103671999, 2.42128158438]}, {"species": [{"element": "F", "occu": 1}], "abc": [0.232461, 0.6263200000000001, 0.464327], "properties": {"magmom": -0.0}, "label": "F", "xyz": [1.6815109052800006, 4.098410498879001, 3.985799219445]}, {"species": [{"element": "F", "occu": 1}], "abc": [0.855661999999999, 0.397703, 0.959847], "properties": {"magmom": -0.0}, "label": "F", "xyz": [-0.08981172242400604, -4.76542106097899, 8.239360242645]}, {"species": [{"element": "F", "occu": 1}], "abc": [0.665609, 0.016422, 0.496357], "properties": {"magmom": -0.0}, "label": "F", "xyz": [0.18510707612000044, -6.755297750047, 4.260745860495]}, {"species": [{"element": "F", "occu": 1}], "abc": [0.09457, 0.585432, 0.253114], "properties": {"magmom": -0.0}, "label": "F", "xyz": [2.3641761887, 5.107802473222, 2.17273943499]}, {"species": [{"element": "F", "occu": 1}], "abc": [0.959847, 0.855661999999999, 0.397703], "properties": {"magmom": -0.0}, "label": "F", "xyz": [8.818976683719994, -1.08412629348501, 3.4138964716049998]}, {"species": [{"element": "F", "occu": 1}], "abc": [0.879398999999999, 0.638911999999999, 0.205943], "properties": {"magmom": -0.0}, "label": "F", "xyz": [8.517170118597987, -2.502455055347, 1.7678219200049998]}, {"species": [{"element": "F", "occu": 1}], "abc": [0.120601, 0.361087999999999, 0.794057], "properties": {"magmom": -0.0}, "label": "F", "xyz": [-3.867609118598007, 2.5024550553469895, 6.816213079995]}, {"species": [{"element": "F", "occu": 1}], "abc": [0.746885999999999, 0.9054300000000001, 0.414568], "properties": {"magmom": -0.0}, "label": "F", "xyz": [7.551919267867994, 1.6497741428640111, 3.55866622188]}, {"species": [{"element": "F", "occu": 1}], "abc": [0.040153, 0.144338, 0.602297], "properties": {"magmom": -0.0}, "label": "F", "xyz": [-4.1694156837200005, 1.0841262934849998, 5.170138528394999]}, {"species": [{"element": "F", "occu": 1}], "abc": [0.6263200000000001, 0.464327, 0.232461], "properties": {"magmom": -0.0}, "label": "F", "xyz": [5.356094521896001, -1.6856636815330006, 1.995453360135]}, {"species": [{"element": "F", "occu": 1}], "abc": [0.253114, 0.09457, 0.585432], "properties": {"magmom": -0.0}, "label": "F", "xyz": [-2.9023582678679998, -1.6497741428639998, 5.02536877812]}, {"species": [{"element": "F", "occu": 1}], "abc": [0.602297, 0.040153, 0.144338], "properties": {"magmom": -0.0}, "label": "F", "xyz": [3.0882617613640004, -5.849547354464, 1.23900244383]}, {"species": [{"element": "F", "occu": 1}], "abc": [0.361087999999999, 0.794057, 0.120601], "properties": {"magmom": -0.0}, "label": "F", "xyz": [6.8052380608579925, 4.50538059378901, 1.035243205035]}, {"species": [{"element": "F", "occu": 1}], "abc": [0.144338, 0.602297, 0.040153], "properties": {"magmom": -0.0}, "label": "F", "xyz": [4.739372722424, 4.7654210609789995, 0.344674757355]}, {"species": [{"element": "F", "occu": 1}], "abc": [0.178856, 0.717932, 0.679168], "properties": {"magmom": -0.0}, "label": "F", "xyz": [0.0043160277560003735, 5.609506798356, 5.83000188288]}, {"species": [{"element": "F", "occu": 1}], "abc": [0.464327, 0.232461, 0.6263200000000001], "properties": {"magmom": -0.0}, "label": "F", "xyz": [-0.8857340715880007, -2.412746817346, 5.376352801200001]}, {"species": [{"element": "F", "occu": 1}], "abc": [0.638911999999999, 0.205943, 0.879398999999999], "properties": {"magmom": -0.0}, "label": "F", "xyz": [-2.1556770608579985, -4.50538059378899, 7.548791794964992]}, {"species": [{"element": "F", "occu": 1}], "abc": [0.414568, 0.746885999999999, 0.9054300000000001], "properties": {"magmom": -0.0}, "label": "F", "xyz": [-0.22720084124400763, 3.4580283303579895, 7.772242810050001]}, {"species": [{"element": "F", "occu": 1}], "abc": [0.794057, 0.120601, 0.361087999999999], "properties": {"magmom": -0.0}, "label": "F", "xyz": [2.994029905246008, -7.007835649135999, 3.0995920300799917]}, {"species": [{"element": "F", "occu": 1}], "abc": [0.016422, 0.496357, 0.665609], "properties": {"magmom": -0.0}, "label": "F", "xyz": [-2.4971776326320003, 4.994098504235, 5.713610952315]}, {"species": [{"element": "F", "occu": 1}], "abc": [0.821144, 0.282068, 0.320832], "properties": {"magmom": -0.0}, "label": "F", "xyz": [4.645244972244, -5.609506798356, 2.75403311712]}, {"species": [{"element": "F", "occu": 1}], "abc": [0.679168, 0.178856, 0.717932], "properties": {"magmom": -0.0}, "label": "F", "xyz": [-0.6100110375080003, -5.206137103672, 6.16275341562]}, {"species": [{"element": "F", "occu": 1}], "abc": [0.334391, 0.983578, 0.503643], "properties": {"magmom": -0.0}, "label": "F", "xyz": [4.464453923880001, 6.755297750046999, 4.3232891395049995]}, {"species": [{"element": "F", "occu": 1}], "abc": [0.37368, 0.535673, 0.767539], "properties": {"magmom": -0.0}, "label": "F", "xyz": [-0.7065335218959996, 1.6856636815329997, 6.588581639865]}, {"species": [{"element": "F", "occu": 1}], "abc": [0.717932, 0.679168, 0.178856], "properties": {"magmom": -0.0}, "label": "F", "xyz": [7.933198565068001, -0.40336969468399975, 1.5353061639599999]}, {"species": [{"element": "F", "occu": 1}], "abc": [0.9054300000000001, 0.414568, 0.746885999999999], "properties": {"magmom": -0.0}, "label": "F", "xyz": [2.28538481130001, -5.107802473222001, 6.411295565009992]}]}, "task_ids": null, "uncorrected_energy_per_atom": null, "energy_per_atom": -7.455091939907407, "formation_energy_per_atom": -0.664697486574073, "energy_above_hull": 0.24404239155092602, "is_stable": false, "equilibrium_reaction_energy_per_atom": null, "decomposes_to": null, "xas": null, "grain_boundaries": null, "band_gap": 2.1158, "cbm": null, "vbm": null, "efermi": 0.96086431, "is_gap_direct": null, "is_metal": null, "es_source_calc_id": null, "bandstructure": null, "dos": null, "dos_energy_up": null, "dos_energy_down": null, "is_magnetic": null, "ordering": null, "total_magnetization": 0.0007557, "total_magnetization_normalized_vol": null, "total_magnetization_normalized_formula_units": null, "num_magnetic_sites": null, "num_unique_magnetic_sites": null, "types_of_magnetic_species": null, "bulk_modulus": null, "shear_modulus": null, "universal_anisotropy": null, "homogeneous_poisson": null, "e_total": null, "e_ionic": null, "e_electronic": null, "n": null, "e_ij_max": null, "weighted_surface_energy_EV_PER_ANG2": null, "weighted_surface_energy": null, "weighted_work_function": null, "surface_anisotropy": null, "shape_factor": null, "has_reconstructed": null, "possible_species": null, "has_props": null, "theoretical": null, "database_IDs": null, "fields_not_requested": ["builder_meta", "nsites", "elements", "nelements", "composition", "composition_reduced", "chemsys", "symmetry", "property_name", "deprecated", "deprecation_reasons", "last_updated", "origins", "warnings", "task_ids", "uncorrected_energy_per_atom", "equilibrium_reaction_energy_per_atom", "decomposes_to", "xas", "grain_boundaries", "cbm", "vbm", "is_gap_direct", "is_metal", "es_source_calc_id", "bandstructure", "dos", "dos_energy_up", "dos_energy_down", "is_magnetic", "ordering", "total_magnetization_normalized_vol", "total_magnetization_normalized_formula_units", "num_magnetic_sites", "num_unique_magnetic_sites", "types_of_magnetic_species", "bulk_modulus", "shear_modulus", "universal_anisotropy", "homogeneous_poisson", "e_total", "e_ionic", "e_electronic", "n", "e_ij_max", "weighted_surface_energy_EV_PER_ANG2", "weighted_surface_energy", "weighted_work_function", "surface_anisotropy", "shape_factor", "has_reconstructed", "possible_species", "has_props", "theoretical", "database_IDs"]}