{"builder_meta": null, "nsites": null, "elements": null, "nelements": null, "composition": null, "composition_reduced": null, "formula_pretty": "C2N", "formula_anonymous": "AB2", "chemsys": null, "volume": 1376.9419611997475, "density": 1.10065023725852, "density_atomic": 19.124193905552048, "symmetry": null, "property_name": null, "material_id": "mp-2718", "deprecated": null, "deprecation_reasons": null, "last_updated": null, "origins": null, "warnings": null, "structure": {"@module": "pymatgen.core.structure", "@class": "Structure", "charge": 0, "lattice": {"matrix": [[11.125133, 0.0, 0.0], [0.0, 11.125133, 0.0], [0.0, 0.0, 11.125133]], "pbc": [true, true, true], "a": 11.125133, "b": 11.125133, "c": 11.125133, "alpha": 90.0, "beta": 90.0, "gamma": 90.0, "volume": 1376.9419611997475}, "properties": {}, "sites": [{"species": [{"element": "C", "occu": 1}], "abc": [0.091968, 0.912789, 0.995193999999999], "properties": {"magmom": -0.0}, "label": "C", "xyz": [1.023156231744, 10.154899025936999, 11.07166561080199]}, {"species": [{"element": "C", "occu": 1}], "abc": [0.995193999999999, 0.091968, 0.912789], "properties": {"magmom": -0.0}, "label": "C", "xyz": [11.07166561080199, 1.023156231744, 10.154899025936999]}, {"species": [{"element": "C", "occu": 1}], "abc": [0.912789, 0.995193999999999, 0.091968], "properties": {"magmom": -0.0}, "label": "C", "xyz": [10.154899025936999, 11.07166561080199, 1.023156231744]}, {"species": [{"element": "C", "occu": 1}], "abc": [0.587210999999999, 0.004805999999999, 0.591967999999999], "properties": {"magmom": -0.0}, "label": "C", "xyz": [6.53280047406299, 0.05346738919798888, 6.5857227317439895]}, {"species": [{"element": "C", "occu": 1}], "abc": [0.495193999999999, 0.408032, 0.087211], "properties": {"magmom": -0.0}, "label": "C", "xyz": [5.509099110801989, 4.539410268256, 0.9702339740629999]}, {"species": [{"element": "C", "occu": 1}], "abc": [0.087211, 0.495193999999999, 0.408032], "properties": {"magmom": -0.0}, "label": "C", "xyz": [0.9702339740629999, 5.509099110801989, 4.539410268256]}, {"species": [{"element": "C", "occu": 1}], "abc": [0.504806, 0.908032, 0.412788999999999], "properties": {"magmom": -0.0}, "label": "C", "xyz": [5.6160338891979995, 10.101976768256, 4.592332525936989]}, {"species": [{"element": "C", "occu": 1}], "abc": [0.004805999999999, 0.591967999999999, 0.587210999999999], "properties": {"magmom": -0.0}, "label": "C", "xyz": [0.05346738919798888, 6.5857227317439895, 6.53280047406299]}, {"species": [{"element": "C", "occu": 1}], "abc": [0.412788999999999, 0.504806, 0.908032], "properties": {"magmom": -0.0}, "label": "C", "xyz": [4.592332525936989, 5.6160338891979995, 10.101976768256]}, {"species": [{"element": "C", "occu": 1}], "abc": [0.591967999999999, 0.587210999999999, 0.004805999999999], "properties": {"magmom": -0.0}, "label": "C", "xyz": [6.5857227317439895, 6.53280047406299, 0.05346738919798888]}, {"species": [{"element": "C", "occu": 1}], "abc": [0.908032, 0.412788999999999, 0.504806], "properties": {"magmom": -0.0}, "label": "C", "xyz": [10.101976768256, 4.592332525936989, 5.6160338891979995]}, {"species": [{"element": "C", "occu": 1}], "abc": [0.408032, 0.087211, 0.495193999999999], "properties": {"magmom": -0.0}, "label": "C", "xyz": [4.539410268256, 0.9702339740629999, 5.509099110801989]}, {"species": [{"element": "C", "occu": 1}], "abc": [0.908032, 0.087211, 0.004805999999999], "properties": {"magmom": -0.0}, "label": "C", "xyz": [10.101976768256, 0.9702339740629999, 0.05346738919798888]}, {"species": [{"element": "C", "occu": 1}], "abc": [0.004805999999999, 0.908032, 0.087211], "properties": {"magmom": -0.0}, "label": "C", "xyz": [0.05346738919798888, 10.101976768256, 0.9702339740629999]}, {"species": [{"element": "C", "occu": 1}], "abc": [0.087211, 0.004805999999999, 0.908032], "properties": {"magmom": -0.0}, "label": "C", "xyz": [0.9702339740629999, 0.05346738919798888, 10.101976768256]}, {"species": [{"element": "C", "occu": 1}], "abc": [0.412788999999999, 0.995193999999999, 0.408032], "properties": {"magmom": -0.0}, "label": "C", "xyz": [4.592332525936989, 11.07166561080199, 4.539410268256]}, {"species": [{"element": "C", "occu": 1}], "abc": [0.504806, 0.591967999999999, 0.912789], "properties": {"magmom": -0.0}, "label": "C", "xyz": [5.6160338891979995, 6.5857227317439895, 10.154899025936999]}, {"species": [{"element": "C", "occu": 1}], "abc": [0.912789, 0.504806, 0.591967999999999], "properties": {"magmom": -0.0}, "label": "C", "xyz": [10.154899025936999, 5.6160338891979995, 6.5857227317439895]}, {"species": [{"element": "C", "occu": 1}], "abc": [0.495193999999999, 0.091968, 0.587210999999999], "properties": {"magmom": -0.0}, "label": "C", "xyz": [5.509099110801989, 1.023156231744, 6.53280047406299]}, {"species": [{"element": "C", "occu": 1}], "abc": [0.995193999999999, 0.408032, 0.412788999999999], "properties": {"magmom": -0.0}, "label": "C", "xyz": [11.07166561080199, 4.539410268256, 4.592332525936989]}, {"species": [{"element": "C", "occu": 1}], "abc": [0.587210999999999, 0.495193999999999, 0.091968], "properties": {"magmom": -0.0}, "label": "C", "xyz": [6.53280047406299, 5.509099110801989, 1.023156231744]}, {"species": [{"element": "C", "occu": 1}], "abc": [0.408032, 0.412788999999999, 0.995193999999999], "properties": {"magmom": -0.0}, "label": "C", "xyz": [4.539410268256, 4.592332525936989, 11.07166561080199]}, {"species": [{"element": "C", "occu": 1}], "abc": [0.091968, 0.587210999999999, 0.495193999999999], "properties": {"magmom": -0.0}, "label": "C", "xyz": [1.023156231744, 6.53280047406299, 5.509099110801989]}, {"species": [{"element": "C", "occu": 1}], "abc": [0.591967999999999, 0.912789, 0.504806], "properties": {"magmom": -0.0}, "label": "C", "xyz": [6.5857227317439895, 10.154899025936999, 5.6160338891979995]}, {"species": [{"element": "C", "occu": 1}], "abc": [0.184717, 0.824743, 0.989933], "properties": {"magmom": -0.0}, "label": "C", "xyz": [2.055001192361, 9.175375565819, 11.013136286088999]}, {"species": [{"element": "C", "occu": 1}], "abc": [0.989933, 0.184717, 0.824743], "properties": {"magmom": -0.0}, "label": "C", "xyz": [11.013136286088999, 2.055001192361, 9.175375565819]}, {"species": [{"element": "C", "occu": 1}], "abc": [0.824743, 0.989933, 0.184717], "properties": {"magmom": -0.0}, "label": "C", "xyz": [9.175375565819, 11.013136286088999, 2.055001192361]}, {"species": [{"element": "C", "occu": 1}], "abc": [0.675257, 0.010067, 0.684717], "properties": {"magmom": -0.0}, "label": "C", "xyz": [7.5123239341809995, 0.111996713911, 7.617567692361]}, {"species": [{"element": "C", "occu": 1}], "abc": [0.48993299999999906, 0.315283, 0.175257], "properties": {"magmom": -0.0}, "label": "C", "xyz": [5.450569786088989, 3.5075653076389997, 1.949757434181]}, {"species": [{"element": "C", "occu": 1}], "abc": [0.175257, 0.48993299999999906, 0.315283], "properties": {"magmom": -0.0}, "label": "C", "xyz": [1.949757434181, 5.450569786088989, 3.5075653076389997]}, {"species": [{"element": "C", "occu": 1}], "abc": [0.510066999999999, 0.815283, 0.324743], "properties": {"magmom": -0.0}, "label": "C", "xyz": [5.674563213910989, 9.070131807639, 3.612809065819]}, {"species": [{"element": "C", "occu": 1}], "abc": [0.010067, 0.684717, 0.675257], "properties": {"magmom": -0.0}, "label": "C", "xyz": [0.111996713911, 7.617567692361, 7.5123239341809995]}, {"species": [{"element": "C", "occu": 1}], "abc": [0.324743, 0.510066999999999, 0.815283], "properties": {"magmom": -0.0}, "label": "C", "xyz": [3.612809065819, 5.674563213910989, 9.070131807639]}, {"species": [{"element": "C", "occu": 1}], "abc": [0.684717, 0.675257, 0.010067], "properties": {"magmom": -0.0}, "label": "C", "xyz": [7.617567692361, 7.5123239341809995, 0.111996713911]}, {"species": [{"element": "C", "occu": 1}], "abc": [0.815283, 0.324743, 0.510066999999999], "properties": {"magmom": -0.0}, "label": "C", "xyz": [9.070131807639, 3.612809065819, 5.674563213910989]}, {"species": [{"element": "C", "occu": 1}], "abc": [0.315283, 0.175257, 0.48993299999999906], "properties": {"magmom": -0.0}, "label": "C", "xyz": [3.5075653076389997, 1.949757434181, 5.450569786088989]}, {"species": [{"element": "C", "occu": 1}], "abc": [0.815283, 0.175257, 0.010067], "properties": {"magmom": -0.0}, "label": "C", "xyz": [9.070131807639, 1.949757434181, 0.111996713911]}, {"species": [{"element": "C", "occu": 1}], "abc": [0.010067, 0.815283, 0.175257], "properties": {"magmom": -0.0}, "label": "C", "xyz": [0.111996713911, 9.070131807639, 1.949757434181]}, {"species": [{"element": "C", "occu": 1}], "abc": [0.175257, 0.010067, 0.815283], "properties": {"magmom": -0.0}, "label": "C", "xyz": [1.949757434181, 0.111996713911, 9.070131807639]}, {"species": [{"element": "C", "occu": 1}], "abc": [0.324743, 0.989933, 0.315283], "properties": {"magmom": -0.0}, "label": "C", "xyz": [3.612809065819, 11.013136286088999, 3.5075653076389997]}, {"species": [{"element": "C", "occu": 1}], "abc": [0.510066999999999, 0.684717, 0.824743], "properties": {"magmom": -0.0}, "label": "C", "xyz": [5.674563213910989, 7.617567692361, 9.175375565819]}, {"species": [{"element": "C", "occu": 1}], "abc": [0.824743, 0.510066999999999, 0.684717], "properties": {"magmom": -0.0}, "label": "C", "xyz": [9.175375565819, 5.674563213910989, 7.617567692361]}, {"species": [{"element": "C", "occu": 1}], "abc": [0.48993299999999906, 0.184717, 0.675257], "properties": {"magmom": -0.0}, "label": "C", "xyz": [5.450569786088989, 2.055001192361, 7.5123239341809995]}, {"species": [{"element": "C", "occu": 1}], "abc": [0.989933, 0.315283, 0.324743], "properties": {"magmom": -0.0}, "label": "C", "xyz": [11.013136286088999, 3.5075653076389997, 3.612809065819]}, {"species": [{"element": "C", "occu": 1}], "abc": [0.675257, 0.48993299999999906, 0.184717], "properties": {"magmom": -0.0}, "label": "C", "xyz": [7.5123239341809995, 5.450569786088989, 2.055001192361]}, {"species": [{"element": "C", "occu": 1}], "abc": [0.315283, 0.324743, 0.989933], "properties": {"magmom": -0.0}, "label": "C", "xyz": [3.5075653076389997, 3.612809065819, 11.013136286088999]}, {"species": [{"element": "C", "occu": 1}], "abc": [0.184717, 0.675257, 0.48993299999999906], "properties": {"magmom": -0.0}, "label": "C", "xyz": [2.055001192361, 7.5123239341809995, 5.450569786088989]}, {"species": [{"element": "C", "occu": 1}], "abc": [0.684717, 0.824743, 0.510066999999999], "properties": {"magmom": -0.0}, "label": "C", "xyz": [7.617567692361, 9.175375565819, 5.674563213910989]}, {"species": [{"element": "N", "occu": 1}], "abc": [0.260632, 0.752622, 0.984676999999999], "properties": {"magmom": -0.0}, "label": "N", "xyz": [2.899565664056, 8.373019848726, 10.954662587040989]}, {"species": [{"element": "N", "occu": 1}], "abc": [0.984676999999999, 0.260632, 0.752622], "properties": {"magmom": -0.0}, "label": "N", "xyz": [10.954662587040989, 2.899565664056, 8.373019848726]}, {"species": [{"element": "N", "occu": 1}], "abc": [0.752622, 0.984676999999999, 0.260632], "properties": {"magmom": -0.0}, "label": "N", "xyz": [8.373019848726, 10.954662587040989, 2.899565664056]}, {"species": [{"element": "N", "occu": 1}], "abc": [0.747378, 0.015323, 0.760632], "properties": {"magmom": -0.0}, "label": "N", "xyz": [8.314679651274, 0.170470412959, 8.462132164056]}, {"species": [{"element": "N", "occu": 1}], "abc": [0.484676999999999, 0.239368, 0.247378], "properties": {"magmom": -0.0}, "label": "N", "xyz": [5.392096087040989, 2.663000835944, 2.752113151274]}, {"species": [{"element": "N", "occu": 1}], "abc": [0.247378, 0.484676999999999, 0.239368], "properties": {"magmom": -0.0}, "label": "N", "xyz": [2.752113151274, 5.392096087040989, 2.663000835944]}, {"species": [{"element": "N", "occu": 1}], "abc": [0.515323, 0.739367999999999, 0.252622], "properties": {"magmom": -0.0}, "label": "N", "xyz": [5.733036912958999, 8.225567335943989, 2.810453348726]}, {"species": [{"element": "N", "occu": 1}], "abc": [0.015323, 0.760632, 0.747378], "properties": {"magmom": -0.0}, "label": "N", "xyz": [0.170470412959, 8.462132164056, 8.314679651274]}, {"species": [{"element": "N", "occu": 1}], "abc": [0.252622, 0.515323, 0.739367999999999], "properties": {"magmom": -0.0}, "label": "N", "xyz": [2.810453348726, 5.733036912958999, 8.225567335943989]}, {"species": [{"element": "N", "occu": 1}], "abc": [0.760632, 0.747378, 0.015323], "properties": {"magmom": -0.0}, "label": "N", "xyz": [8.462132164056, 8.314679651274, 0.170470412959]}, {"species": [{"element": "N", "occu": 1}], "abc": [0.739367999999999, 0.252622, 0.515323], "properties": {"magmom": -0.0}, "label": "N", "xyz": [8.225567335943989, 2.810453348726, 5.733036912958999]}, {"species": [{"element": "N", "occu": 1}], "abc": [0.239368, 0.247378, 0.484676999999999], "properties": {"magmom": -0.0}, "label": "N", "xyz": [2.663000835944, 2.752113151274, 5.392096087040989]}, {"species": [{"element": "N", "occu": 1}], "abc": [0.739367999999999, 0.247378, 0.015323], "properties": {"magmom": -0.0}, "label": "N", "xyz": [8.225567335943989, 2.752113151274, 0.170470412959]}, {"species": [{"element": "N", "occu": 1}], "abc": [0.015323, 0.739367999999999, 0.247378], "properties": {"magmom": -0.0}, "label": "N", "xyz": [0.170470412959, 8.225567335943989, 2.752113151274]}, {"species": [{"element": "N", "occu": 1}], "abc": [0.247378, 0.015323, 0.739367999999999], "properties": {"magmom": -0.0}, "label": "N", "xyz": [2.752113151274, 0.170470412959, 8.225567335943989]}, {"species": [{"element": "N", "occu": 1}], "abc": [0.252622, 0.984676999999999, 0.239368], "properties": {"magmom": -0.0}, "label": "N", "xyz": [2.810453348726, 10.954662587040989, 2.663000835944]}, {"species": [{"element": "N", "occu": 1}], "abc": [0.515323, 0.760632, 0.752622], "properties": {"magmom": -0.0}, "label": "N", "xyz": [5.733036912958999, 8.462132164056, 8.373019848726]}, {"species": [{"element": "N", "occu": 1}], "abc": [0.752622, 0.515323, 0.760632], "properties": {"magmom": -0.0}, "label": "N", "xyz": [8.373019848726, 5.733036912958999, 8.462132164056]}, {"species": [{"element": "N", "occu": 1}], "abc": [0.484676999999999, 0.260632, 0.747378], "properties": {"magmom": -0.0}, "label": "N", "xyz": [5.392096087040989, 2.899565664056, 8.314679651274]}, {"species": [{"element": "N", "occu": 1}], "abc": [0.984676999999999, 0.239368, 0.252622], "properties": {"magmom": -0.0}, "label": "N", "xyz": [10.954662587040989, 2.663000835944, 2.810453348726]}, {"species": [{"element": "N", "occu": 1}], "abc": [0.747378, 0.484676999999999, 0.260632], "properties": {"magmom": -0.0}, "label": "N", "xyz": [8.314679651274, 5.392096087040989, 2.899565664056]}, {"species": [{"element": "N", "occu": 1}], "abc": [0.239368, 0.252622, 0.984676999999999], "properties": {"magmom": -0.0}, "label": "N", "xyz": [2.663000835944, 2.810453348726, 10.954662587040989]}, {"species": [{"element": "N", "occu": 1}], "abc": [0.260632, 0.747378, 0.484676999999999], "properties": {"magmom": -0.0}, "label": "N", "xyz": [2.899565664056, 8.314679651274, 5.392096087040989]}, {"species": [{"element": "N", "occu": 1}], "abc": [0.760632, 0.752622, 0.515323], "properties": {"magmom": -0.0}, "label": "N", "xyz": [8.462132164056, 8.373019848726, 5.733036912958999]}]}, "task_ids": null, "uncorrected_energy_per_atom": null, "energy_per_atom": -8.557537850416667, "formation_energy_per_atom": 0.37433172624999905, "energy_above_hull": 0.37433172625000005, "is_stable": false, "equilibrium_reaction_energy_per_atom": null, "decomposes_to": null, "xas": null, "grain_boundaries": null, "band_gap": 3.118999999999999, "cbm": null, "vbm": null, "efermi": -3.63512737, "is_gap_direct": null, "is_metal": null, "es_source_calc_id": null, "bandstructure": null, "dos": null, "dos_energy_up": null, "dos_energy_down": null, "is_magnetic": null, "ordering": null, "total_magnetization": 3.83e-05, "total_magnetization_normalized_vol": null, "total_magnetization_normalized_formula_units": null, "num_magnetic_sites": null, "num_unique_magnetic_sites": null, "types_of_magnetic_species": null, "bulk_modulus": null, "shear_modulus": null, "universal_anisotropy": null, "homogeneous_poisson": null, "e_total": null, "e_ionic": null, "e_electronic": null, "n": null, "e_ij_max": null, "weighted_surface_energy_EV_PER_ANG2": null, "weighted_surface_energy": null, "weighted_work_function": null, "surface_anisotropy": null, "shape_factor": null, "has_reconstructed": null, "possible_species": null, "has_props": null, "theoretical": null, "database_IDs": null, "fields_not_requested": ["builder_meta", "nsites", "elements", "nelements", "composition", "composition_reduced", "chemsys", "symmetry", "property_name", "deprecated", "deprecation_reasons", "last_updated", "origins", "warnings", "task_ids", "uncorrected_energy_per_atom", "equilibrium_reaction_energy_per_atom", "decomposes_to", "xas", "grain_boundaries", "cbm", "vbm", "is_gap_direct", "is_metal", "es_source_calc_id", "bandstructure", "dos", "dos_energy_up", "dos_energy_down", "is_magnetic", "ordering", "total_magnetization_normalized_vol", "total_magnetization_normalized_formula_units", "num_magnetic_sites", "num_unique_magnetic_sites", "types_of_magnetic_species", "bulk_modulus", "shear_modulus", "universal_anisotropy", "homogeneous_poisson", "e_total", "e_ionic", "e_electronic", "n", "e_ij_max", "weighted_surface_energy_EV_PER_ANG2", "weighted_surface_energy", "weighted_work_function", "surface_anisotropy", "shape_factor", "has_reconstructed", "possible_species", "has_props", "theoretical", "database_IDs"]}