{
  "builder_meta": null,
  "nsites": null,
  "elements": null,
  "nelements": null,
  "composition": null,
  "composition_reduced": null,
  "formula_pretty": "C2N3",
  "formula_anonymous": "A2B3",
  "chemsys": null,
  "volume": 67.4753454791871,
  "density": 3.250505499099374,
  "density_atomic": 6.747534547918709,
  "symmetry": null,
  "property_name": null,
  "material_id": "mp-1078791",
  "deprecated": null,
  "deprecation_reasons": null,
  "last_updated": null,
  "origins": null,
  "warnings": null,
  "structure": {
    "@module": "pymatgen.core.structure",
    "@class": "Structure",
    "charge": 0,
    "lattice": {
      "matrix": [
        [0.0, 0.0, -3.998972],
        [-2.2246, -3.792405999999999, 0.0],
        [-2.2246, 3.792405999999999, 0.0]
      ],
      "pbc": [true, true, true],
      "a": 3.998972,
      "b": 4.396724738806831,
      "c": 4.396724738806831,
      "alpha": 119.20879818905254,
      "beta": 90.0,
      "gamma": 90.0,
      "volume": 67.47534547918708
    },
    "properties": {},
    "sites": [
      {
        "species": [{ "element": "C", "occu": 1 }],
        "abc": [0.49798000000000003, 0.006707999999999, 0.669617999999999],
        "properties": { "magmom": -0.009000000000000001 },
        "label": "C",
        "xyz": [-1.5045548195999958, 2.5140238614599997, -1.9914080765600002]
      },
      {
        "species": [{ "element": "C", "occu": 1 }],
        "abc": [0.49798000000000003, 0.669617999999999, 0.006707999999999],
        "properties": { "magmom": -0.01 },
        "label": "C",
        "xyz": [-1.5045548195999958, -2.5140238614599997, -1.9914080765600002]
      },
      {
        "species": [{ "element": "C", "occu": 1 }],
        "abc": [0.9979800000000001, 0.993292, 0.330382],
        "properties": { "magmom": -0.008 },
        "label": "C",
        "xyz": [-2.9446451804, -2.5140238614599992, -3.9908940765600005]
      },
      {
        "species": [{ "element": "C", "occu": 1 }],
        "abc": [0.9979800000000001, 0.330382, 0.993292],
        "properties": { "magmom": -0.01 },
        "label": "C",
        "xyz": [-2.9446451804, 2.5140238614599992, -3.9908940765600005]
      },
      {
        "species": [{ "element": "N", "occu": 1 }],
        "abc": [0.137304999999999, 0.056273, 0.669257],
        "properties": { "magmom": 0.117 },
        "label": "N",
        "xyz": [-1.614014038, 2.3246841995039995, -0.549078850459996]
      },
      {
        "species": [{ "element": "N", "occu": 1 }],
        "abc": [0.137304999999999, 0.669257, 0.056273],
        "properties": { "magmom": 0.088 },
        "label": "N",
        "xyz": [-1.614014038, -2.3246841995039995, -0.549078850459996]
      },
      {
        "species": [{ "element": "N", "occu": 1 }],
        "abc": [0.637305, 0.943727, 0.330743],
        "properties": { "magmom": 0.121 },
        "label": "N",
        "xyz": [-2.8351859619999997, -2.3246841995039995, -2.54856485046]
      },
      {
        "species": [{ "element": "N", "occu": 1 }],
        "abc": [0.637305, 0.330743, 0.943727],
        "properties": { "magmom": 0.093 },
        "label": "N",
        "xyz": [-2.8351859619999997, 2.3246841995039995, -2.54856485046]
      },
      {
        "species": [{ "element": "N", "occu": 1 }],
        "abc": [0.09143000000000001, 0.289942, 0.289942],
        "properties": { "magmom": 0.5750000000000001 },
        "label": "N",
        "xyz": [-1.2900099463999999, 0.0, -0.36562600996000005]
      },
      {
        "species": [{ "element": "N", "occu": 1 }],
        "abc": [0.59143, 0.710058, 0.710058],
        "properties": { "magmom": 0.555 },
        "label": "N",
        "xyz": [-3.1591900536, 0.0, -2.3651120099600003]
      }
    ]
  },
  "task_ids": null,
  "uncorrected_energy_per_atom": null,
  "energy_per_atom": -8.134402198,
  "formation_energy_per_atom": 0.5600306459999991,
  "energy_above_hull": 0.5600306459999991,
  "is_stable": false,
  "equilibrium_reaction_energy_per_atom": null,
  "decomposes_to": null,
  "xas": null,
  "grain_boundaries": null,
  "band_gap": 0.0,
  "cbm": null,
  "vbm": null,
  "efermi": 6.57872273,
  "is_gap_direct": null,
  "is_metal": null,
  "es_source_calc_id": null,
  "bandstructure": null,
  "dos": null,
  "dos_energy_up": null,
  "dos_energy_down": null,
  "is_magnetic": null,
  "ordering": null,
  "total_magnetization": 1.9994995,
  "total_magnetization_normalized_vol": null,
  "total_magnetization_normalized_formula_units": null,
  "num_magnetic_sites": null,
  "num_unique_magnetic_sites": null,
  "types_of_magnetic_species": null,
  "bulk_modulus": null,
  "shear_modulus": null,
  "universal_anisotropy": null,
  "homogeneous_poisson": null,
  "e_total": null,
  "e_ionic": null,
  "e_electronic": null,
  "n": null,
  "e_ij_max": null,
  "weighted_surface_energy_EV_PER_ANG2": null,
  "weighted_surface_energy": null,
  "weighted_work_function": null,
  "surface_anisotropy": null,
  "shape_factor": null,
  "has_reconstructed": null,
  "possible_species": null,
  "has_props": null,
  "theoretical": null,
  "database_IDs": null,
  "fields_not_requested": [
    "builder_meta",
    "nsites",
    "elements",
    "nelements",
    "composition",
    "composition_reduced",
    "chemsys",
    "symmetry",
    "property_name",
    "deprecated",
    "deprecation_reasons",
    "last_updated",
    "origins",
    "warnings",
    "task_ids",
    "uncorrected_energy_per_atom",
    "equilibrium_reaction_energy_per_atom",
    "decomposes_to",
    "xas",
    "grain_boundaries",
    "cbm",
    "vbm",
    "is_gap_direct",
    "is_metal",
    "es_source_calc_id",
    "bandstructure",
    "dos",
    "dos_energy_up",
    "dos_energy_down",
    "is_magnetic",
    "ordering",
    "total_magnetization_normalized_vol",
    "total_magnetization_normalized_formula_units",
    "num_magnetic_sites",
    "num_unique_magnetic_sites",
    "types_of_magnetic_species",
    "bulk_modulus",
    "shear_modulus",
    "universal_anisotropy",
    "homogeneous_poisson",
    "e_total",
    "e_ionic",
    "e_electronic",
    "n",
    "e_ij_max",
    "weighted_surface_energy_EV_PER_ANG2",
    "weighted_surface_energy",
    "weighted_work_function",
    "surface_anisotropy",
    "shape_factor",
    "has_reconstructed",
    "possible_species",
    "has_props",
    "theoretical",
    "database_IDs"
  ]
}
