{"builder_meta": null, "nsites": null, "elements": null, "nelements": null, "composition": null, "composition_reduced": null, "formula_pretty": "C2S", "formula_anonymous": "AB2", "chemsys": null, "volume": 966.5356181765771, "density": 1.541731628773801, "density_atomic": 20.136158712012023, "symmetry": null, "property_name": null, "material_id": "mp-1214378", "deprecated": null, "deprecation_reasons": null, "last_updated": null, "origins": null, "warnings": null, "structure": {"@module": "pymatgen.core.structure", "@class": "Structure", "charge": 0, "lattice": {"matrix": [[-5.074427, 0.0, 0.191563999999999], [-0.277546, 0.0, -11.395631], [0.0, -16.699111, 0.0]], "pbc": [true, true, true], "a": 5.078041565842584, "b": 11.39901038118121, "c": 16.699111, "alpha": 90.0, "beta": 90.0, "gamma": 90.76674844841827, "volume": 966.5356181765771}, "properties": {}, "sites": [{"species": [{"element": "C", "occu": 1}], "abc": [0.813275, 0.884919, 0.954035], "properties": {"magmom": -0.0}, "label": "C", "xyz": [-4.3725103471989994, -15.931536362884998, -9.928416176789]}, {"species": [{"element": "C", "occu": 1}], "abc": [0.186725, 0.115080999999999, 0.454034999999999], "properties": {"magmom": -0.0}, "label": "C", "xyz": [-0.9794626528009998, -7.581980862884983, -1.2756508232109889]}, {"species": [{"element": "C", "occu": 1}], "abc": [0.9517, 0.40101000000000003, 0.535629], "properties": {"magmom": -0.0}, "label": "C", "xyz": [-4.94063089736, -8.944528125819, -4.387450528510001]}, {"species": [{"element": "C", "occu": 1}], "abc": [0.0483, 0.59899, 0.035629], "properties": {"magmom": -0.0}, "label": "C", "xyz": [-0.41134210264000004, -0.594972625819, -6.816616471490001]}, {"species": [{"element": "C", "occu": 1}], "abc": [0.9498219999999991, 0.186862, 0.562763999999999], "properties": {"magmom": -0.0}, "label": "C", "xyz": [-4.871665202645995, -9.397658502803983, -1.947458698314001]}, {"species": [{"element": "C", "occu": 1}], "abc": [0.050178, 0.813137999999999, 0.062764], "properties": {"magmom": -0.0}, "label": "C", "xyz": [-0.48030779735399975, -1.048103002804, -9.25660830168599]}, {"species": [{"element": "C", "occu": 1}], "abc": [0.871095, 0.988219, 0.994896999999999], "properties": {"magmom": 0.0}, "label": "C", "xyz": [-4.694584218139, -16.61389543656698, -11.094508628609]}, {"species": [{"element": "C", "occu": 1}], "abc": [0.128905, 0.011781, 0.494897], "properties": {"magmom": 0.0}, "label": "C", "xyz": [-0.6573887818609999, -8.264339936567, -0.10955837139100014]}, {"species": [{"element": "C", "occu": 1}], "abc": [0.916156, 0.784494999999999, 0.992684999999999], "properties": {"magmom": 0.0}, "label": "C", "xyz": [-4.866700191882, -16.576957003034984, -8.76431303336099]}, {"species": [{"element": "C", "occu": 1}], "abc": [0.083844, 0.215505, 0.492685], "properties": {"magmom": 0.0}, "label": "C", "xyz": [-0.48527280811800005, -8.227401503034999, -2.439753966639]}, {"species": [{"element": "C", "occu": 1}], "abc": [0.369160999999999, 0.976526, 0.367959], "properties": {"magmom": -0.0}, "label": "C", "xyz": [-2.144311430942995, -6.144588184448999, -11.057412000102]}, {"species": [{"element": "C", "occu": 1}], "abc": [0.630838999999999, 0.023474, 0.867958999999999], "properties": {"magmom": -0.0}, "label": "C", "xyz": [-3.207661569056995, -14.494143684448982, -0.1466549998980008]}, {"species": [{"element": "C", "occu": 1}], "abc": [0.580056999999999, 0.8325100000000001, 0.818801], "properties": {"magmom": -0.0}, "label": "C", "xyz": [-3.1745167227989954, -13.673248785911, -9.375858724662]}, {"species": [{"element": "C", "occu": 1}], "abc": [0.419942999999999, 0.16749, 0.318801], "properties": {"magmom": -0.0}, "label": "C", "xyz": [-2.177456277200995, -5.323693285910999, -1.8282082753380007]}, {"species": [{"element": "C", "occu": 1}], "abc": [0.46475000000000005, 0.683002, 0.729413], "properties": {"magmom": -0.0}, "label": "C", "xyz": [-2.5479044213420003, -12.180548651842999, -7.694209395262001]}, {"species": [{"element": "C", "occu": 1}], "abc": [0.53525, 0.316998, 0.229412999999999], "properties": {"magmom": -0.0}, "label": "C", "xyz": [-2.804068578658, -3.830993151842983, -3.509857604738001]}, {"species": [{"element": "C", "occu": 1}], "abc": [0.679419, 0.610184, 0.842432], "properties": {"magmom": -0.0}, "label": "C", "xyz": [-3.617016246377, -14.067865477951997, -6.823279484788]}, {"species": [{"element": "C", "occu": 1}], "abc": [0.320581, 0.389816, 0.342431999999999], "properties": {"magmom": -0.0}, "label": "C", "xyz": [-1.734956753623, -5.718309977951983, -4.380787515212]}, {"species": [{"element": "C", "occu": 1}], "abc": [0.859744, 0.471473, 0.928913], "properties": {"magmom": -0.0}, "label": "C", "xyz": [-4.493563611946, -15.512021296342999, -5.208036334847001]}, {"species": [{"element": "C", "occu": 1}], "abc": [0.140256, 0.528527, 0.428913], "properties": {"magmom": -0.0}, "label": "C", "xyz": [-0.8584093880539999, -7.162465796342999, -5.9960306651529995]}, {"species": [{"element": "C", "occu": 1}], "abc": [0.635216999999999, 0.507504, 0.799307], "properties": {"magmom": 0.0}, "label": "C", "xyz": [-3.3642180008429947, -13.347716316077, -5.661643605636001]}, {"species": [{"element": "C", "occu": 1}], "abc": [0.364782999999999, 0.492496, 0.299307], "properties": {"magmom": 0.0}, "label": "C", "xyz": [-1.9877549991569952, -4.998160816076999, -5.542423394364]}, {"species": [{"element": "C", "occu": 1}], "abc": [0.914466999999999, 0.662268, 0.9775300000000001], "properties": {"magmom": -0.0}, "label": "C", "xyz": [-4.8242058697369945, -16.323881975830002, -7.3717827947200005]}, {"species": [{"element": "C", "occu": 1}], "abc": [0.085533, 0.337732, 0.47753000000000007], "properties": {"magmom": -0.0}, "label": "C", "xyz": [-0.527767130263, -7.974326475830001, -3.8322842052799997]}, {"species": [{"element": "C", "occu": 1}], "abc": [0.674924, 0.905127999999999, 0.881778], "properties": {"magmom": -0.0}, "label": "C", "xyz": [-3.6760672244359993, -14.724908699357998, -10.18521355463199]}, {"species": [{"element": "C", "occu": 1}], "abc": [0.325076, 0.094872, 0.381778], "properties": {"magmom": -0.0}, "label": "C", "xyz": [-1.6759057755639999, -6.375353199358, -1.0188534453680005]}, {"species": [{"element": "C", "occu": 1}], "abc": [0.808519, 0.5895, 0.916253], "properties": {"magmom": -0.0}, "label": "C", "xyz": [-4.266384010613, -15.300610551082999, -6.562841340784001]}, {"species": [{"element": "C", "occu": 1}], "abc": [0.191480999999999, 0.41050000000000003, 0.416253], "properties": {"magmom": -0.0}, "label": "C", "xyz": [-1.085588989386995, -6.951055051082999, -4.641225659216]}, {"species": [{"element": "C", "occu": 1}], "abc": [0.583452, 0.710742, 0.802200999999999], "properties": {"magmom": 0.0}, "label": "C", "xyz": [-3.1579481811359997, -13.396043543310983, -7.987585169274]}, {"species": [{"element": "C", "occu": 1}], "abc": [0.416548, 0.289257999999999, 0.302201], "properties": {"magmom": 0.0}, "label": "C", "xyz": [-2.1940248188639995, -5.046488043310999, -3.2164818307259893]}, {"species": [{"element": "C", "occu": 1}], "abc": [0.461468999999999, 0.896604, 0.758169], "properties": {"magmom": -0.0}, "label": "C", "xyz": [-2.590539607046995, -12.660748287758999, -10.128967489608]}, {"species": [{"element": "C", "occu": 1}], "abc": [0.538531, 0.103396, 0.258169], "properties": {"magmom": -0.0}, "label": "C", "xyz": [-2.7614333929529997, -4.3111927877589995, -1.0750995103920005]}, {"species": [{"element": "S", "occu": 1}], "abc": [0.533081, 0.952461, 0.277181], "properties": {"magmom": 0.0}, "label": "S", "xyz": [-2.969432360293, -4.628676286090999, -10.751774969207002]}, {"species": [{"element": "S", "occu": 1}], "abc": [0.466919, 0.047539, 0.777181], "properties": {"magmom": 0.0}, "label": "S", "xyz": [-2.382540639707, -12.978231786091, -0.4522920307930004]}, {"species": [{"element": "S", "occu": 1}], "abc": [0.826294, 0.310133, 0.611501], "properties": {"magmom": 0.0}, "label": "S", "xyz": [-4.279044757156, -10.211523075610998, -3.3758730451070007]}, {"species": [{"element": "S", "occu": 1}], "abc": [0.173706, 0.689867, 0.111500999999999], "properties": {"magmom": 0.0}, "label": "S", "xyz": [-1.072928242844, -1.8619675756109832, -7.828193954893]}, {"species": [{"element": "S", "occu": 1}], "abc": [0.948751, 0.036294, 0.582592], "properties": {"magmom": 0.0}, "label": "S", "xyz": [-4.824440945201, -9.728768475711998, -0.23184649495000095]}, {"species": [{"element": "S", "occu": 1}], "abc": [0.051248999999999004, 0.963706, 0.082592], "properties": {"magmom": 0.0}, "label": "S", "xyz": [-0.5275320547989949, -1.3792129757119997, -10.97222050505]}, {"species": [{"element": "S", "occu": 1}], "abc": [0.465145, 0.532171, 0.709692], "properties": {"magmom": 0.0}, "label": "S", "xyz": [-2.508046279281, -11.851225483811998, -5.975319308121]}, {"species": [{"element": "S", "occu": 1}], "abc": [0.534855, 0.467829, 0.209692], "properties": {"magmom": 0.0}, "label": "S", "xyz": [-2.8439267207189998, -3.5016699838119996, -5.228747691879001]}, {"species": [{"element": "S", "occu": 1}], "abc": [0.753234, 0.383737999999999, 0.848912999999999], "properties": {"magmom": 0.0}, "label": "S", "xyz": [-3.9287358938659995, -14.176092416342982, -4.22864413070199]}, {"species": [{"element": "S", "occu": 1}], "abc": [0.24676599999999901, 0.616262, 0.348913], "properties": {"magmom": 0.0}, "label": "S", "xyz": [-1.4232371061339952, -5.826536916342999, -6.975422869298]}, {"species": [{"element": "S", "occu": 1}], "abc": [0.757463999999999, 0.112304, 0.944716999999999], "properties": {"magmom": 0.0}, "label": "S", "xyz": [-3.8748652991119954, -15.775934046586983, -1.134672110128001]}, {"species": [{"element": "S", "occu": 1}], "abc": [0.242536, 0.887695999999999, 0.444717], "properties": {"magmom": 0.0}, "label": "S", "xyz": [-1.4771077008879998, -7.4263785465869985, -10.06939488987199]}, {"species": [{"element": "S", "occu": 1}], "abc": [0.347956999999999, 0.807268, 0.679986], "properties": {"magmom": 0.0}, "label": "S", "xyz": [-1.989736399966995, -11.355161692445998, -9.13267221136]}, {"species": [{"element": "S", "occu": 1}], "abc": [0.652042999999999, 0.192732, 0.179985999999999], "properties": {"magmom": 0.0}, "label": "S", "xyz": [-3.362236600032995, -3.0056061924459834, -2.0713947886400006]}, {"species": [{"element": "S", "occu": 1}], "abc": [0.956105, 0.552061, 0.516161], "properties": {"magmom": 0.0}, "label": "S", "xyz": [-5.004907349141, -8.619429832870999, -6.107928147271001]}, {"species": [{"element": "S", "occu": 1}], "abc": [0.043894999999999004, 0.447939, 0.016161], "properties": {"magmom": 0.0}, "label": "S", "xyz": [-0.34706565085899493, -0.26987433287099993, -5.096138852729]}]}, "task_ids": null, "uncorrected_energy_per_atom": null, "energy_per_atom": -7.394728572291666, "formation_energy_per_atom": 0.13716827854166602, "energy_above_hull": 0.28177604860119004, "is_stable": false, "equilibrium_reaction_energy_per_atom": null, "decomposes_to": null, "xas": null, "grain_boundaries": null, "band_gap": 2.5888, "cbm": null, "vbm": null, "efermi": 3.37484392, "is_gap_direct": null, "is_metal": null, "es_source_calc_id": null, "bandstructure": null, "dos": null, "dos_energy_up": null, "dos_energy_down": null, "is_magnetic": null, "ordering": null, "total_magnetization": 0.0005461999999990001, "total_magnetization_normalized_vol": null, "total_magnetization_normalized_formula_units": null, "num_magnetic_sites": null, "num_unique_magnetic_sites": null, "types_of_magnetic_species": null, "bulk_modulus": null, "shear_modulus": null, "universal_anisotropy": null, "homogeneous_poisson": null, "e_total": null, "e_ionic": null, "e_electronic": null, "n": null, "e_ij_max": null, "weighted_surface_energy_EV_PER_ANG2": null, "weighted_surface_energy": null, "weighted_work_function": null, "surface_anisotropy": null, "shape_factor": null, "has_reconstructed": null, "possible_species": null, "has_props": null, "theoretical": null, "database_IDs": null, "fields_not_requested": ["builder_meta", "nsites", "elements", "nelements", "composition", "composition_reduced", "chemsys", "symmetry", "property_name", "deprecated", "deprecation_reasons", "last_updated", "origins", "warnings", "task_ids", "uncorrected_energy_per_atom", "equilibrium_reaction_energy_per_atom", "decomposes_to", "xas", "grain_boundaries", "cbm", "vbm", "is_gap_direct", "is_metal", "es_source_calc_id", "bandstructure", "dos", "dos_energy_up", "dos_energy_down", "is_magnetic", "ordering", "total_magnetization_normalized_vol", "total_magnetization_normalized_formula_units", "num_magnetic_sites", "num_unique_magnetic_sites", "types_of_magnetic_species", "bulk_modulus", "shear_modulus", "universal_anisotropy", "homogeneous_poisson", "e_total", "e_ionic", "e_electronic", "n", "e_ij_max", "weighted_surface_energy_EV_PER_ANG2", "weighted_surface_energy", "weighted_work_function", "surface_anisotropy", "shape_factor", "has_reconstructed", "possible_species", "has_props", "theoretical", "database_IDs"]}