{
  "builder_meta": null,
  "nsites": null,
  "elements": null,
  "nelements": null,
  "composition": null,
  "composition_reduced": null,
  "formula_pretty": "C2S3",
  "formula_anonymous": "A2B3",
  "chemsys": null,
  "volume": 898.8416329180352,
  "density": 1.776722584582068,
  "density_atomic": 22.47104082295088,
  "symmetry": null,
  "property_name": null,
  "material_id": "mp-1214192",
  "deprecated": null,
  "deprecation_reasons": null,
  "last_updated": null,
  "origins": null,
  "warnings": null,
  "structure": {
    "@module": "pymatgen.core.structure",
    "@class": "Structure",
    "charge": 0,
    "lattice": {
      "matrix": [
        [-8.118078, 0.0, 2.444902],
        [0.304736, 0.0, -10.468756],
        [0.0, -10.669867, 0.0]
      ],
      "pbc": [true, true, true],
      "a": 8.478250774994097,
      "b": 10.473190355246677,
      "c": 10.669867,
      "alpha": 90.0,
      "beta": 90.0,
      "gamma": 108.42795625824265,
      "volume": 898.8416329180352
    },
    "properties": {},
    "sites": [
      {
        "species": [{ "element": "C", "occu": 1 }],
        "abc": [0.381476999999999, 0.659461, 0.577971],
        "properties": { "magmom": 0.0 },
        "label": "C",
        "xyz": [-2.8958985339099925, -6.166873699857, -5.971062420262003]
      },
      {
        "species": [{ "element": "C", "occu": 1 }],
        "abc": [0.618522999999999, 0.340539, 0.422029],
        "properties": { "magmom": 0.0 },
        "label": "C",
        "xyz": [-4.917443466089993, -4.502993300143, -2.0527915797380025]
      },
      {
        "species": [{ "element": "C", "occu": 1 }],
        "abc": [0.618522999999999, 0.840538999999999, 0.077971],
        "properties": { "magmom": 0.0 },
        "label": "C",
        "xyz": [-4.765075466089993, -0.831940199857, -7.287169579737992]
      },
      {
        "species": [{ "element": "C", "occu": 1 }],
        "abc": [0.381476999999999, 0.159461, 0.922029],
        "properties": { "magmom": 0.0 },
        "label": "C",
        "xyz": [-3.048266533909992, -9.837926800143, -0.7366844202620024]
      },
      {
        "species": [{ "element": "C", "occu": 1 }],
        "abc": [0.780227, 0.568303999999999, 0.482361999999999],
        "properties": { "magmom": 0.0 },
        "label": "C",
        "xyz": [-6.160760955962001, -5.14673838585399, -4.041857357069991]
      },
      {
        "species": [{ "element": "C", "occu": 1 }],
        "abc": [0.219773, 0.431695999999999, 0.517637999999999],
        "properties": { "magmom": 0.0 },
        "label": "C",
        "xyz": [-1.6525810440380004, -5.52312861414599, -3.98199664292999]
      },
      {
        "species": [{ "element": "C", "occu": 1 }],
        "abc": [0.219773, 0.931696, 0.982362],
        "properties": { "magmom": 0.0 },
        "label": "C",
        "xyz": [-1.5002130440380002, -10.481671885854, -9.216374642929999]
      },
      {
        "species": [{ "element": "C", "occu": 1 }],
        "abc": [0.780227, 0.068304, 0.017638],
        "properties": { "magmom": 0.0 },
        "label": "C",
        "xyz": [-6.313128955962, -0.18819511414600001, 1.19252064293]
      },
      {
        "species": [{ "element": "C", "occu": 1 }],
        "abc": [0.8744200000000001, 0.544907, 0.711743999999999],
        "properties": { "magmom": 0.0 },
        "label": "C",
        "xyz": [-6.9325569852080005, -7.59421381804799, -3.5666272188520005]
      },
      {
        "species": [{ "element": "C", "occu": 1 }],
        "abc": [0.12558, 0.455092999999999, 0.288256],
        "properties": { "magmom": 0.0 },
        "label": "C",
        "xyz": [-0.8807850147920002, -3.075653181952, -4.45722678114799]
      },
      {
        "species": [{ "element": "C", "occu": 1 }],
        "abc": [0.12558, 0.955093, 0.211744],
        "properties": { "magmom": 0.0 },
        "label": "C",
        "xyz": [-0.7284170147919999, -2.259280318048, -9.691604781148001]
      },
      {
        "species": [{ "element": "C", "occu": 1 }],
        "abc": [0.8744200000000001, 0.044906999999999, 0.788256],
        "properties": { "magmom": 0.0 },
        "label": "C",
        "xyz": [-7.084924985208001, -8.410586681952, 1.6677507811480108]
      },
      {
        "species": [{ "element": "C", "occu": 1 }],
        "abc": [0.717611, 0.932766, 0.9887900000000001],
        "properties": { "magmom": -0.0 },
        "label": "C",
        "xyz": [-5.541374691882001, -10.55025779093, -8.010411089974001]
      },
      {
        "species": [{ "element": "C", "occu": 1 }],
        "abc": [0.282389, 0.067234, 0.011210000000000001],
        "properties": { "magmom": -0.0 },
        "label": "C",
        "xyz": [-2.271967308118, -0.11960920907000001, -0.013442910026000066]
      },
      {
        "species": [{ "element": "C", "occu": 1 }],
        "abc": [0.282389, 0.567234, 0.48879000000000006],
        "properties": { "magmom": -0.0 },
        "label": "C",
        "xyz": [-2.119599308118, -5.215324290930001, -5.247820910026]
      },
      {
        "species": [{ "element": "C", "occu": 1 }],
        "abc": [0.717611, 0.432766, 0.51121],
        "properties": { "magmom": -0.0 },
        "label": "C",
        "xyz": [-5.693742691882001, -5.454542709070001, -2.7760330899740002]
      },
      {
        "species": [{ "element": "S", "occu": 1 }],
        "abc": [0.895798, 0.672241, 0.597903],
        "properties": { "magmom": 0.0 },
        "label": "S",
        "xyz": [-7.067302002868001, -6.379545488901, -4.847388680400001]
      },
      {
        "species": [{ "element": "S", "occu": 1 }],
        "abc": [0.104201999999999, 0.327758999999999, 0.402097],
        "properties": { "magmom": 0.0 },
        "label": "S",
        "xyz": [-0.7460399971319923, -4.290321511099, -3.1764653195999926]
      },
      {
        "species": [{ "element": "S", "occu": 1 }],
        "abc": [0.104201999999999, 0.827758999999999, 0.097902999999999],
        "properties": { "magmom": 0.0 },
        "label": "S",
        "xyz": [-0.5936719971319923, -1.0446119889009893, -8.410843319599993]
      },
      {
        "species": [{ "element": "S", "occu": 1 }],
        "abc": [0.895798, 0.172241, 0.902096999999999],
        "properties": { "magmom": 0.0 },
        "label": "S",
        "xyz": [-7.219670002868001, -9.62525501109899, 0.3869893195999996]
      },
      {
        "species": [{ "element": "S", "occu": 1 }],
        "abc": [0.466833999999999, 0.824939, 0.562593999999999],
        "properties": { "magmom": -0.0 },
        "label": "S",
        "xyz": [-3.538406213947992, -6.00280315499799, -7.494721725616002]
      },
      {
        "species": [{ "element": "S", "occu": 1 }],
        "abc": [0.533166, 0.175061, 0.437405999999999],
        "properties": { "magmom": -0.0 },
        "label": "S",
        "xyz": [-4.2749357860520005, -4.66706384500199, -0.5291322743840001]
      },
      {
        "species": [{ "element": "S", "occu": 1 }],
        "abc": [0.533166, 0.675061, 0.062594],
        "properties": { "magmom": -0.0 },
        "label": "S",
        "xyz": [-4.1225677860520005, -0.667869654998, -5.763510274384]
      },
      {
        "species": [{ "element": "S", "occu": 1 }],
        "abc": [0.466833999999999, 0.324939, 0.937406],
        "properties": { "magmom": -0.0 },
        "label": "S",
        "xyz": [-3.690774213947992, -10.001997345002, -2.260343725616002]
      },
      {
        "species": [{ "element": "S", "occu": 1 }],
        "abc": [0.409211999999999, 0.575473, 0.713747],
        "properties": { "magmom": 0.0 },
        "label": "S",
        "xyz": [-3.1466475944079924, -7.6155855616490005, -5.024003184364003]
      },
      {
        "species": [{ "element": "S", "occu": 1 }],
        "abc": [0.590788, 0.424527, 0.286253],
        "properties": { "magmom": 0.0 },
        "label": "S",
        "xyz": [-4.666694405592, -3.054281438351, -2.9998508156360004]
      },
      {
        "species": [{ "element": "S", "occu": 1 }],
        "abc": [0.590788, 0.924527, 0.213747],
        "properties": { "magmom": 0.0 },
        "label": "S",
        "xyz": [-4.514326405592, -2.280652061649, -8.234228815636001]
      },
      {
        "species": [{ "element": "S", "occu": 1 }],
        "abc": [0.409211999999999, 0.075473, 0.786253],
        "properties": { "magmom": 0.0 },
        "label": "S",
        "xyz": [-3.2990155944079924, -8.389214938351, 0.21037481563599747]
      },
      {
        "species": [{ "element": "S", "occu": 1 }],
        "abc": [0.266608, 0.880025, 0.837244],
        "properties": { "magmom": 0.0 },
        "label": "S",
        "xyz": [-1.8961692410240003, -8.933282126548, -8.560936566484]
      },
      {
        "species": [{ "element": "S", "occu": 1 }],
        "abc": [0.733391999999999, 0.119975, 0.162755999999999],
        "properties": { "magmom": 0.0 },
        "label": "S",
        "xyz": [-5.917172758975993, -1.7365848734519895, 0.5370825664839975]
      },
      {
        "species": [{ "element": "S", "occu": 1 }],
        "abc": [0.733391999999999, 0.619974999999999, 0.337244],
        "properties": { "magmom": 0.0 },
        "label": "S",
        "xyz": [-5.764804758975993, -3.598348626548, -4.697295433515992]
      },
      {
        "species": [{ "element": "S", "occu": 1 }],
        "abc": [0.266608, 0.380025, 0.662756],
        "properties": { "magmom": 0.0 },
        "label": "S",
        "xyz": [-2.0485372410240004, -7.071518373452, -3.3265585664840005]
      },
      {
        "species": [{ "element": "S", "occu": 1 }],
        "abc": [0.950546999999999, 0.5737949999999991, 0.854286],
        "properties": { "magmom": -0.0 },
        "label": "S",
        "xyz": [-7.541758695545993, -9.115117999962, -3.6829255876259928]
      },
      {
        "species": [{ "element": "S", "occu": 1 }],
        "abc": [0.049453, 0.426205, 0.145713999999999],
        "properties": { "magmom": -0.0 },
        "label": "S",
        "xyz": [-0.271583304454, -1.5547490000379895, -4.340928412374]
      },
      {
        "species": [{ "element": "S", "occu": 1 }],
        "abc": [0.049453, 0.926205, 0.354286],
        "properties": { "magmom": -0.0 },
        "label": "S",
        "xyz": [-0.11921530445399997, -3.780184499962, -9.575306412374]
      },
      {
        "species": [{ "element": "S", "occu": 1 }],
        "abc": [0.950546999999999, 0.073795, 0.645714],
        "properties": { "magmom": -0.0 },
        "label": "S",
        "xyz": [-7.694126695545992, -6.889682500038, 1.5514524123739974]
      },
      {
        "species": [{ "element": "S", "occu": 1 }],
        "abc": [0.762995, 0.884842999999999, 0.841108],
        "properties": { "magmom": 0.0 },
        "label": "S",
        "xyz": [-5.924409407162001, -8.974510492636, -7.397757463817991]
      },
      {
        "species": [{ "element": "S", "occu": 1 }],
        "abc": [0.237005, 0.115157, 0.158892],
        "properties": { "magmom": 0.0 },
        "label": "S",
        "xyz": [-1.888932592838, -1.695356507364, -0.6260965361820001]
      },
      {
        "species": [{ "element": "S", "occu": 1 }],
        "abc": [0.237005, 0.615157, 0.341107999999999],
        "properties": { "magmom": 0.0 },
        "label": "S",
        "xyz": [-1.736564592838, -3.6395769926359898, -5.860474536182]
      },
      {
        "species": [{ "element": "S", "occu": 1 }],
        "abc": [0.762995, 0.384843, 0.658891999999999],
        "properties": { "magmom": 0.0 },
        "label": "S",
        "xyz": [-6.076777407162, -7.030290007363989, -2.163379463818]
      }
    ]
  },
  "task_ids": null,
  "uncorrected_energy_per_atom": null,
  "energy_per_atom": -6.190921827,
  "formation_energy_per_atom": -0.016439889499999,
  "energy_above_hull": 0.24385409660714202,
  "is_stable": false,
  "equilibrium_reaction_energy_per_atom": null,
  "decomposes_to": null,
  "xas": null,
  "grain_boundaries": null,
  "band_gap": 1.7265000000000001,
  "cbm": null,
  "vbm": null,
  "efermi": 2.9909231,
  "is_gap_direct": null,
  "is_metal": null,
  "es_source_calc_id": null,
  "bandstructure": null,
  "dos": null,
  "dos_energy_up": null,
  "dos_energy_down": null,
  "is_magnetic": null,
  "ordering": null,
  "total_magnetization": 7.980000000000004e-5,
  "total_magnetization_normalized_vol": null,
  "total_magnetization_normalized_formula_units": null,
  "num_magnetic_sites": null,
  "num_unique_magnetic_sites": null,
  "types_of_magnetic_species": null,
  "bulk_modulus": null,
  "shear_modulus": null,
  "universal_anisotropy": null,
  "homogeneous_poisson": null,
  "e_total": null,
  "e_ionic": null,
  "e_electronic": null,
  "n": null,
  "e_ij_max": null,
  "weighted_surface_energy_EV_PER_ANG2": null,
  "weighted_surface_energy": null,
  "weighted_work_function": null,
  "surface_anisotropy": null,
  "shape_factor": null,
  "has_reconstructed": null,
  "possible_species": null,
  "has_props": null,
  "theoretical": null,
  "database_IDs": null,
  "fields_not_requested": [
    "builder_meta",
    "nsites",
    "elements",
    "nelements",
    "composition",
    "composition_reduced",
    "chemsys",
    "symmetry",
    "property_name",
    "deprecated",
    "deprecation_reasons",
    "last_updated",
    "origins",
    "warnings",
    "task_ids",
    "uncorrected_energy_per_atom",
    "equilibrium_reaction_energy_per_atom",
    "decomposes_to",
    "xas",
    "grain_boundaries",
    "cbm",
    "vbm",
    "is_gap_direct",
    "is_metal",
    "es_source_calc_id",
    "bandstructure",
    "dos",
    "dos_energy_up",
    "dos_energy_down",
    "is_magnetic",
    "ordering",
    "total_magnetization_normalized_vol",
    "total_magnetization_normalized_formula_units",
    "num_magnetic_sites",
    "num_unique_magnetic_sites",
    "types_of_magnetic_species",
    "bulk_modulus",
    "shear_modulus",
    "universal_anisotropy",
    "homogeneous_poisson",
    "e_total",
    "e_ionic",
    "e_electronic",
    "n",
    "e_ij_max",
    "weighted_surface_energy_EV_PER_ANG2",
    "weighted_surface_energy",
    "weighted_work_function",
    "surface_anisotropy",
    "shape_factor",
    "has_reconstructed",
    "possible_species",
    "has_props",
    "theoretical",
    "database_IDs"
  ]
}
