{
  "builder_meta": null,
  "nsites": null,
  "elements": null,
  "nelements": null,
  "composition": null,
  "composition_reduced": null,
  "formula_pretty": "C3F2",
  "formula_anonymous": "A2B3",
  "chemsys": null,
  "volume": 707.6706892023151,
  "density": 2.084493135191547,
  "density_atomic": 11.794511486705252,
  "symmetry": null,
  "property_name": null,
  "material_id": "mp-1214300",
  "deprecated": null,
  "deprecation_reasons": null,
  "last_updated": null,
  "origins": null,
  "warnings": null,
  "structure": {
    "@module": "pymatgen.core.structure",
    "@class": "Structure",
    "charge": 0.0,
    "lattice": {
      "matrix": [
        [-0.0, 6.65092835, 9.88263867],
        [5.38326831, -0.0, 9.88263867],
        [5.38326831, 6.65092835, -0.0]
      ],
      "pbc": [true, true, true],
      "a": 11.912237195363979,
      "b": 11.253716043122362,
      "c": 8.556542854113687,
      "alpha": 72.48518626248145,
      "beta": 64.27939169192395,
      "gamma": 43.23542204559461,
      "volume": 707.6706892023151
    },
    "properties": {},
    "sites": [
      {
        "species": [{ "element": "C", "occu": 1 }],
        "abc": [0.83513839, 0.22132621, 0.23187192],
        "properties": { "magmom": 0.0 },
        "label": "C",
        "xyz": [2.4396871313802606, 7.096609120521288, 10.440657909446083]
      },
      {
        "species": [{ "element": "C", "occu": 1 }],
        "abc": [0.71166347, 0.23187192, 0.22132621],
        "properties": { "magmom": 0.0 },
        "label": "C",
        "xyz": [2.4396871313802606, 6.205247512969428, 9.324619331727531]
      },
      {
        "species": [{ "element": "C", "occu": 1 }],
        "abc": [0.02867379, 0.41486161, 0.53833653],
        "properties": { "magmom": 0.0 },
        "label": "C",
        "xyz": [5.131321340212944, 3.7711450120305723, 4.383300095553919]
      },
      {
        "species": [{ "element": "C", "occu": 1 }],
        "abc": [0.01812808, 0.53833653, 0.41486161],
        "properties": { "magmom": 0.0 },
        "label": "C",
        "xyz": [5.131321340212944, 2.8797834044787116, 5.49933867327247]
      },
      {
        "species": [{ "element": "C", "occu": 1 }],
        "abc": [0.25750596, 0.26965844, 0.01888043],
        "properties": { "magmom": 0.0 },
        "label": "C",
        "xyz": [1.5532821550742097, 1.8382260768051564, 5.209775284887348]
      },
      {
        "species": [{ "element": "C", "occu": 1 }],
        "abc": [0.45395517, 0.01888043, 0.26965844],
        "properties": { "magmom": 0.0 },
        "label": "C",
        "xyz": [1.5532821550742097, 4.8127022731948434, 4.672863385112652]
      },
      {
        "species": [{ "element": "C", "occu": 1 }],
        "abc": [0.9803415600000001, 0.99249404, 0.79604483],
        "properties": { "magmom": 0.0 },
        "label": "C",
        "xyz": [9.62818462007421, 11.814618601805158, 19.49682139011265]
      },
      {
        "species": [{ "element": "C", "occu": 1 }],
        "abc": [0.23111957, 0.79604483, 0.99249404],
        "properties": { "magmom": 0.0 },
        "label": "C",
        "xyz": [9.62818462007421, 8.138166448194843, 10.151094619887349]
      },
      {
        "species": [{ "element": "C", "occu": 1 }],
        "abc": [0.14475711, -0.003861599999999, 0.22265261],
        "properties": { "magmom": 0.0 },
        "label": "C",
        "xyz": [1.1778107106458986, 2.443615722813562, 1.3924194155553817]
      },
      {
        "species": [{ "element": "C", "occu": 1 }],
        "abc": [0.63645188, 0.22265261, -0.003861599999999],
        "properties": { "magmom": 0.0 },
        "label": "C",
        "xyz": [1.1778107106458986, 4.207312627186445, 8.490219254444629]
      },
      {
        "species": [{ "element": "C", "occu": 1 }],
        "abc": [0.253861599999999, 0.10524289, 0.61354812],
        "properties": { "magmom": 0.0 },
        "label": "C",
        "xyz": [3.8694448656458933, 5.769079897813556, 3.5488999194446187]
      },
      {
        "species": [{ "element": "C", "occu": 1 }],
        "abc": [0.02734739, 0.61354812, 0.10524289],
        "properties": { "magmom": 0.0 },
        "label": "C",
        "xyz": [3.8694448656458933, 0.881848452186438, 6.333738750555373]
      },
      {
        "species": [{ "element": "C", "occu": 1 }],
        "abc": [0.60354485, 0.45873598, 0.44438583],
        "properties": { "magmom": -0.0 },
        "label": "C",
        "xyz": [4.861747019842841, 6.969711868446778, 10.498137608957697]
      },
      {
        "species": [{ "element": "C", "occu": 1 }],
        "abc": [0.49333435000000003, 0.44438583, 0.45873598],
        "properties": { "magmom": -0.0 },
        "label": "C",
        "xyz": [4.861747019842841, 6.332151548990856, 9.267149712507361]
      },
      {
        "species": [{ "element": "C", "occu": 1 }],
        "abc": [0.7912640200000001, 0.64645515, 0.75666565],
        "properties": { "magmom": -0.0 },
        "label": "C",
        "xyz": [7.553375737741848, 10.295169326009145, 14.208459066042305]
      },
      {
        "species": [{ "element": "C", "occu": 1 }],
        "abc": [0.80561417, 0.75666565, 0.64645515],
        "properties": { "magmom": -0.0 },
        "label": "C",
        "xyz": [7.553375737741848, 9.657609006553223, 15.439446962492639]
      },
      {
        "species": [{ "element": "C", "occu": 1 }],
        "abc": [0.31170316, 0.83448643, 0.16971457],
        "properties": { "magmom": 0.0 },
        "label": "C",
        "xyz": [5.40588342017031, 3.2018748286496455, 11.327377565285445]
      },
      {
        "species": [{ "element": "C", "occu": 1 }],
        "abc": [0.68409584, 0.16971457, 0.83448643],
        "properties": { "magmom": 0.0 },
        "label": "C",
        "xyz": [5.40588342017031, 10.099981871350355, 8.437899774714555]
      },
      {
        "species": [{ "element": "C", "occu": 1 }],
        "abc": [0.41551357, 0.93829684, 0.56590416],
        "properties": { "magmom": 0.0 },
        "label": "C",
        "xyz": [8.09751757517031, 6.5273390036496455, 13.379219109714555]
      },
      {
        "species": [{ "element": "C", "occu": 1 }],
        "abc": [0.08028543, 0.56590416, 0.93829684],
        "properties": { "magmom": 0.0 },
        "label": "C",
        "xyz": [8.09751757517031, 6.774517696350355, 6.386058230285445]
      },
      {
        "species": [{ "element": "C", "occu": 1 }],
        "abc": [0.06602655, 0.96360806, 0.03367284],
        "properties": { "magmom": -0.0 },
        "label": "C",
        "xyz": [5.368630665138278, 0.6630934994287065, 10.17550681275637]
      },
      {
        "species": [{ "element": "C", "occu": 1 }],
        "abc": [0.93669155, 0.03367284, 0.96360806],
        "properties": { "magmom": -0.0 },
        "label": "C",
        "xyz": [5.368630665138278, 12.638756549642943, 9.589760644604961]
      },
      {
        "species": [{ "element": "C", "occu": 1 }],
        "abc": [0.28639194, 0.18397345, 0.31330845],
        "properties": { "magmom": -0.0 },
        "label": "C",
        "xyz": [2.6770018934065893, 3.9885643253570566, 4.648451192243631]
      },
      {
        "species": [{ "element": "C", "occu": 1 }],
        "abc": [0.21632716000000002, 0.31330845, 0.18397345],
        "properties": { "magmom": -0.0 },
        "label": "C",
        "xyz": [2.6770018934065893, 2.6623706755712937, 5.234197360395039]
      },
      {
        "species": [{ "element": "C", "occu": 1 }],
        "abc": [0.01820712, 0.06704319, 0.15596105],
        "properties": { "magmom": -0.0 },
        "label": "C",
        "xyz": [1.2004916581876344, 1.1583800195206195, 0.8424980102354878]
      },
      {
        "species": [{ "element": "C", "occu": 1 }],
        "abc": [0.75878864, 0.15596105, 0.06704319],
        "properties": { "magmom": -0.0 },
        "label": "C",
        "xyz": [1.2004916581876344, 5.492548330479381, 9.040140659764512]
      },
      {
        "species": [{ "element": "C", "occu": 1 }],
        "abc": [0.18295681, 0.23179288, 0.49121136],
        "properties": { "magmom": -0.0 },
        "label": "C",
        "xyz": [3.8921258131876346, 4.4838441945206196, 4.098821324764512]
      },
      {
        "species": [{ "element": "C", "occu": 1 }],
        "abc": [0.09403895, 0.49121136, 0.23179288],
        "properties": { "magmom": -0.0 },
        "label": "C",
        "xyz": [3.8921258131876346, 2.1670841554793805, 5.783817345235487]
      },
      {
        "species": [{ "element": "C", "occu": 1 }],
        "abc": [0.1952349, 0.39322947, 0.89433735],
        "properties": { "magmom": -0.0 },
        "label": "C",
        "xyz": [6.931317659113475, 7.246666966898288, 5.815580738879189]
      },
      {
        "species": [{ "element": "C", "occu": 1 }],
        "abc": [0.5171982900000001, 0.89433735, 0.39322947],
        "properties": { "magmom": -0.0 },
        "label": "C",
        "xyz": [6.931317659113475, 6.0551897996109965, 13.9496966999472]
      },
      {
        "species": [{ "element": "C", "occu": 1 }],
        "abc": [0.85677053, 0.0547651, 0.73280171],
        "properties": { "magmom": -0.0 },
        "label": "C",
        "xyz": [4.239683450280792, 10.572131075389004, 9.008377266120814]
      },
      {
        "species": [{ "element": "C", "occu": 1 }],
        "abc": [0.35566265, 0.73280171, 0.0547651],
        "properties": { "magmom": -0.0 },
        "label": "C",
        "xyz": [4.239683450280792, 2.7297255581017126, 10.756899975052802]
      },
      {
        "species": [{ "element": "C", "occu": 1 }],
        "abc": [0.77215679, 0.34870187, 0.3313896],
        "properties": { "magmom": 0.0 },
        "label": "C",
        "xyz": [3.661114858352316, 7.339607970791157, 11.077041136920384]
      },
      {
        "species": [{ "element": "C", "occu": 1 }],
        "abc": [0.54775175, 0.3313896, 0.34870187],
        "properties": { "magmom": 0.0 },
        "label": "C",
        "xyz": [3.661114858352316, 5.962248795718127, 8.688236301906004]
      },
      {
        "species": [{ "element": "C", "occu": 1 }],
        "abc": [0.90129813, 0.47784321, 0.70224825],
        "properties": { "magmom": 0.0 },
        "label": "C",
        "xyz": [6.352748959519633, 10.665072079281874, 13.629555538079618]
      },
      {
        "species": [{ "element": "C", "occu": 1 }],
        "abc": [0.918610399999999, 0.70224825, 0.47784321],
        "properties": { "magmom": 0.0 },
        "label": "C",
        "xyz": [6.352748959519633, 9.287712904208837, 16.018360373093987]
      },
      {
        "species": [{ "element": "F", "occu": 1 }],
        "abc": [0.54767468, 0.57564082, 0.54297147],
        "properties": { "magmom": -0.0 },
        "label": "F",
        "xyz": [6.02179009193353, 7.2538093988533525, 11.101321198910387]
      },
      {
        "species": [{ "element": "F", "occu": 1 }],
        "abc": [0.33371303, 0.54297147, 0.57564082],
        "properties": { "magmom": -0.0 },
        "label": "F",
        "xyz": [6.02179009193353, 6.048047301146648, 8.663956141089615]
      },
      {
        "species": [{ "element": "F", "occu": 1 }],
        "abc": [0.6743591800000001, 0.70232532, 0.91628697],
        "properties": { "magmom": -0.0 },
        "label": "F",
        "xyz": [8.713424246933531, 10.579273573853353, 13.605275476089616]
      },
      {
        "species": [{ "element": "F", "occu": 1 }],
        "abc": [0.70702853, 0.91628697, 0.70232532],
        "properties": { "magmom": -0.0 },
        "label": "F",
        "xyz": [8.713424246933531, 9.373511476146648, 16.042640533910387]
      },
      {
        "species": [{ "element": "F", "occu": 1 }],
        "abc": [0.42746556, 0.77198342, 0.23932688],
        "properties": { "magmom": 0.0 },
        "label": "F",
        "xyz": [5.444154689566593, 4.434788742761674, 11.853720872440057]
      },
      {
        "species": [{ "element": "F", "occu": 1 }],
        "abc": [0.56122514, 0.23932688, 0.77198342],
        "properties": { "magmom": 0.0 },
        "label": "F",
        "xyz": [5.444154689566593, 8.867074608166677, 7.911566350198614]
      },
      {
        "species": [{ "element": "F", "occu": 1 }],
        "abc": [0.47801658, 0.82253444, 0.68877486],
        "properties": { "magmom": 0.0 },
        "label": "F",
        "xyz": [8.135783461298283, 7.760246266833324, 12.852875802559943]
      },
      {
        "species": [{ "element": "F", "occu": 1 }],
        "abc": [0.01067312, 0.68877486, 0.82253444],
        "properties": { "magmom": 0.0 },
        "label": "F",
        "xyz": [8.135783461298283, 5.541603782238326, 6.912391654801387]
      },
      {
        "species": [{ "element": "F", "occu": 1 }],
        "abc": [0.8699390100000001, 0.37448842, 0.31814048],
        "properties": { "magmom": -0.0 },
        "label": "F",
        "xyz": [3.7286072079601587, 7.901831562094541, 12.298226641726718]
      },
      {
        "species": [{ "element": "F", "occu": 1 }],
        "abc": [0.43743308000000003, 0.31814048, 0.37448842],
        "properties": { "magmom": -0.0 },
        "label": "F",
        "xyz": [3.7286072079601587, 5.400031722324526, 7.467060482085566]
      },
      {
        "species": [{ "element": "F", "occu": 1 }],
        "abc": [0.8755115800000001, 0.38006099, 0.81256692],
        "properties": { "magmom": -0.0 },
        "label": "F",
        "xyz": [6.420236033524532, 11.227289152675475, 12.408370033273282]
      },
      {
        "species": [{ "element": "F", "occu": 1 }],
        "abc": [0.93185952, 0.81256692, 0.38006099],
        "properties": { "magmom": -0.0 },
        "label": "F",
        "xyz": [6.420236033524532, 8.72548931290546, 17.239536192914436]
      },
      {
        "species": [{ "element": "F", "occu": 1 }],
        "abc": [0.67661789, 0.73498359, 0.34748865],
        "properties": { "magmom": 0.0 },
        "label": "F",
        "xyz": [5.827238506046714, 6.811259220306409, 13.950347372877232]
      },
      {
        "species": [{ "element": "F", "occu": 1 }],
        "abc": [0.24090988, 0.34748865, 0.73498359],
        "properties": { "magmom": 0.0 },
        "label": "F",
        "xyz": [5.827238506046714, 6.490597546202874, 5.814930065949156]
      },
      {
        "species": [{ "element": "F", "occu": 1 }],
        "abc": [0.51501641, 0.5733821100000001, 0.00909012],
        "properties": { "magmom": 0.0 },
        "label": "F",
        "xyz": [3.1356042972140314, 3.485794978797125, 10.756249302122768]
      },
      {
        "species": [{ "element": "F", "occu": 1 }],
        "abc": [0.90251135, 0.00909012, 0.5733821100000001],
        "properties": { "magmom": 0.0 },
        "label": "F",
        "xyz": [3.1356042972140314, 9.816061654693591, 9.009027939050846]
      },
      {
        "species": [{ "element": "F", "occu": 1 }],
        "abc": [0.1095457, 0.07298642, 0.35261883],
        "properties": { "magmom": -0.0 },
        "label": "F",
        "xyz": [2.2911472548946272, 3.0738231749414258, 1.8038989876290805]
      },
      {
        "species": [{ "element": "F", "occu": 1 }],
        "abc": [0.46485005, 0.35261883, 0.07298642],
        "properties": { "magmom": -0.0 },
        "label": "F",
        "xyz": [2.2911472548946272, 3.5771118259869246, 8.07874956500959]
      },
      {
        "species": [{ "element": "F", "occu": 1 }],
        "abc": [0.17701358, 0.1404543, 0.78514995],
        "properties": { "magmom": -0.0 },
        "label": "F",
        "xyz": [4.9827760266263175, 6.399280699013076, 3.1374203473709197]
      },
      {
        "species": [{ "element": "F", "occu": 1 }],
        "abc": [0.8973811700000001, 0.78514995, 0.1404543],
        "properties": { "magmom": -0.0 },
        "label": "F",
        "xyz": [4.9827760266263175, 6.902569350058575, 16.627847109990412]
      },
      {
        "species": [{ "element": "F", "occu": 1 }],
        "abc": [0.35187969, 0.10665977, 0.97571903],
        "properties": { "magmom": 0.0 },
        "label": "F",
        "xyz": [5.826735493455828, 8.829763964271713, 4.531579799116919]
      },
      {
        "species": [{ "element": "F", "occu": 1 }],
        "abc": [0.5657415100000001, 0.97571903, 0.10665977],
        "properties": { "magmom": 0.0 },
        "label": "F",
        "xyz": [5.826735493455828, 4.472092735728288, 15.233697540883083]
      },
      {
        "species": [{ "element": "F", "occu": 1 }],
        "abc": [0.14334023, 0.89812031, 0.68425849],
        "properties": { "magmom": 0.0 },
        "label": "F",
        "xyz": [8.51836964845583, 5.5042997892717125, 10.292378205883082]
      },
      {
        "species": [{ "element": "F", "occu": 1 }],
        "abc": [0.27428097, 0.68425849, 0.89812031],
        "properties": { "magmom": 0.0 },
        "label": "F",
        "xyz": [8.51836964845583, 7.797556910728288, 9.472899134116918]
      }
    ]
  },
  "task_ids": null,
  "uncorrected_energy_per_atom": null,
  "energy_per_atom": -7.106467484166667,
  "formation_energy_per_atom": -0.8037272386666671,
  "energy_above_hull": 0.286760615083332,
  "is_stable": false,
  "equilibrium_reaction_energy_per_atom": null,
  "decomposes_to": null,
  "xas": null,
  "grain_boundaries": null,
  "band_gap": 2.9499,
  "cbm": null,
  "vbm": null,
  "efermi": -0.053622090000000004,
  "is_gap_direct": null,
  "is_metal": null,
  "es_source_calc_id": null,
  "bandstructure": null,
  "dos": null,
  "dos_energy_up": null,
  "dos_energy_down": null,
  "is_magnetic": null,
  "ordering": null,
  "total_magnetization": 0.0,
  "total_magnetization_normalized_vol": null,
  "total_magnetization_normalized_formula_units": null,
  "num_magnetic_sites": null,
  "num_unique_magnetic_sites": null,
  "types_of_magnetic_species": null,
  "bulk_modulus": null,
  "shear_modulus": null,
  "universal_anisotropy": null,
  "homogeneous_poisson": null,
  "e_total": null,
  "e_ionic": null,
  "e_electronic": null,
  "n": null,
  "e_ij_max": null,
  "weighted_surface_energy_EV_PER_ANG2": null,
  "weighted_surface_energy": null,
  "weighted_work_function": null,
  "surface_anisotropy": null,
  "shape_factor": null,
  "has_reconstructed": null,
  "possible_species": null,
  "has_props": null,
  "theoretical": null,
  "database_IDs": null,
  "fields_not_requested": [
    "builder_meta",
    "nsites",
    "elements",
    "nelements",
    "composition",
    "composition_reduced",
    "chemsys",
    "symmetry",
    "property_name",
    "deprecated",
    "deprecation_reasons",
    "last_updated",
    "origins",
    "warnings",
    "task_ids",
    "uncorrected_energy_per_atom",
    "equilibrium_reaction_energy_per_atom",
    "decomposes_to",
    "xas",
    "grain_boundaries",
    "cbm",
    "vbm",
    "is_gap_direct",
    "is_metal",
    "es_source_calc_id",
    "bandstructure",
    "dos",
    "dos_energy_up",
    "dos_energy_down",
    "is_magnetic",
    "ordering",
    "total_magnetization_normalized_vol",
    "total_magnetization_normalized_formula_units",
    "num_magnetic_sites",
    "num_unique_magnetic_sites",
    "types_of_magnetic_species",
    "bulk_modulus",
    "shear_modulus",
    "universal_anisotropy",
    "homogeneous_poisson",
    "e_total",
    "e_ionic",
    "e_electronic",
    "n",
    "e_ij_max",
    "weighted_surface_energy_EV_PER_ANG2",
    "weighted_surface_energy",
    "weighted_work_function",
    "surface_anisotropy",
    "shape_factor",
    "has_reconstructed",
    "possible_species",
    "has_props",
    "theoretical",
    "database_IDs"
  ]
}
