{"builder_meta": null, "nsites": null, "elements": null, "nelements": null, "composition": null, "composition_reduced": null, "formula_pretty": "C3N2", "formula_anonymous": "A2B3", "chemsys": null, "volume": 131.51207207047366, "density": 3.234685701946518, "density_atomic": 6.575603603523684, "symmetry": null, "property_name": null, "material_id": "mp-1188347", "deprecated": null, "deprecation_reasons": null, "last_updated": null, "origins": null, "warnings": null, "structure": {"@module": "pymatgen.core.structure", "@class": "Structure", "charge": 0, "lattice": {"matrix": [[5.085362, 0.0, 0.0], [0.0, 5.085362, 0.0], [0.0, 0.0, 5.085362]], "pbc": [true, true, true], "a": 5.085362, "b": 5.085362, "c": 5.085362, "alpha": 90.0, "beta": 90.0, "gamma": 90.0, "volume": 131.51207207047366}, "properties": {}, "sites": [{"species": [{"element": "C", "occu": 1}], "abc": [0.503235, 0.844051999999999, 0.155948], "properties": {"magmom": -0.0}, "label": "C", "xyz": [2.55913214607, 4.292309966823995, 0.793052033176]}, {"species": [{"element": "C", "occu": 1}], "abc": [0.844051999999999, 0.844051999999999, 0.496764999999999], "properties": {"magmom": -0.0}, "label": "C", "xyz": [4.292309966823995, 4.292309966823995, 2.526229853929995]}, {"species": [{"element": "C", "occu": 1}], "abc": [0.844051999999999, 0.503235, 0.155948], "properties": {"magmom": -0.0}, "label": "C", "xyz": [4.292309966823995, 2.55913214607, 0.793052033176]}, {"species": [{"element": "C", "occu": 1}], "abc": [0.503235, 0.155948, 0.844051999999999], "properties": {"magmom": -0.0}, "label": "C", "xyz": [2.55913214607, 0.793052033176, 4.292309966823995]}, {"species": [{"element": "C", "occu": 1}], "abc": [0.844051999999999, 0.155948, 0.503235], "properties": {"magmom": -0.0}, "label": "C", "xyz": [4.292309966823995, 0.793052033176, 2.55913214607]}, {"species": [{"element": "C", "occu": 1}], "abc": [0.844051999999999, 0.496764999999999, 0.844051999999999], "properties": {"magmom": -0.0}, "label": "C", "xyz": [4.292309966823995, 2.526229853929995, 4.292309966823995]}, {"species": [{"element": "C", "occu": 1}], "abc": [0.496764999999999, 0.844051999999999, 0.844051999999999], "properties": {"magmom": -0.0}, "label": "C", "xyz": [2.526229853929995, 4.292309966823995, 4.292309966823995]}, {"species": [{"element": "C", "occu": 1}], "abc": [0.155948, 0.844051999999999, 0.503235], "properties": {"magmom": -0.0}, "label": "C", "xyz": [0.793052033176, 4.292309966823995, 2.55913214607]}, {"species": [{"element": "C", "occu": 1}], "abc": [0.155948, 0.503235, 0.844051999999999], "properties": {"magmom": -0.0}, "label": "C", "xyz": [0.793052033176, 2.55913214607, 4.292309966823995]}, {"species": [{"element": "C", "occu": 1}], "abc": [0.496764999999999, 0.155948, 0.155948], "properties": {"magmom": -0.0}, "label": "C", "xyz": [2.526229853929995, 0.793052033176, 0.793052033176]}, {"species": [{"element": "C", "occu": 1}], "abc": [0.155948, 0.155948, 0.496764999999999], "properties": {"magmom": -0.0}, "label": "C", "xyz": [0.793052033176, 0.793052033176, 2.526229853929995]}, {"species": [{"element": "C", "occu": 1}], "abc": [0.155948, 0.496764999999999, 0.155948], "properties": {"magmom": -0.0}, "label": "C", "xyz": [0.793052033176, 2.526229853929995, 0.793052033176]}, {"species": [{"element": "N", "occu": 1}], "abc": [0.754682, 0.754682, 0.245317999999999], "properties": {"magmom": 0.0}, "label": "N", "xyz": [3.837831164884, 3.837831164884, 1.247530835115995]}, {"species": [{"element": "N", "occu": 1}], "abc": [0.754682, 0.245317999999999, 0.754682], "properties": {"magmom": 0.0}, "label": "N", "xyz": [3.837831164884, 1.247530835115995, 3.837831164884]}, {"species": [{"element": "N", "occu": 1}], "abc": [0.245317999999999, 0.754682, 0.754682], "properties": {"magmom": 0.0}, "label": "N", "xyz": [1.247530835115995, 3.837831164884, 3.837831164884]}, {"species": [{"element": "N", "occu": 1}], "abc": [0.245317999999999, 0.245317999999999, 0.245317999999999], "properties": {"magmom": 0.0}, "label": "N", "xyz": [1.247530835115995, 1.247530835115995, 1.247530835115995]}, {"species": [{"element": "N", "occu": 1}], "abc": [0.269684, 0.269684, 0.730316], "properties": {"magmom": 0.0}, "label": "N", "xyz": [1.3714407656079999, 1.3714407656079999, 3.7139212343919996]}, {"species": [{"element": "N", "occu": 1}], "abc": [0.269684, 0.730316, 0.269684], "properties": {"magmom": 0.0}, "label": "N", "xyz": [1.3714407656079999, 3.7139212343919996, 1.3714407656079999]}, {"species": [{"element": "N", "occu": 1}], "abc": [0.730316, 0.269684, 0.269684], "properties": {"magmom": 0.0}, "label": "N", "xyz": [3.7139212343919996, 1.3714407656079999, 1.3714407656079999]}, {"species": [{"element": "N", "occu": 1}], "abc": [0.730316, 0.730316, 0.730316], "properties": {"magmom": 0.0}, "label": "N", "xyz": [3.7139212343919996, 3.7139212343919996, 3.7139212343919996]}]}, "task_ids": null, "uncorrected_energy_per_atom": null, "energy_per_atom": -8.607089928, "formation_energy_per_atom": 0.26542046549999804, "energy_above_hull": 0.26542046550000004, "is_stable": false, "equilibrium_reaction_energy_per_atom": null, "decomposes_to": null, "xas": null, "grain_boundaries": null, "band_gap": 3.745799999999999, "cbm": null, "vbm": null, "efermi": 7.90469297, "is_gap_direct": null, "is_metal": null, "es_source_calc_id": null, "bandstructure": null, "dos": null, "dos_energy_up": null, "dos_energy_down": null, "is_magnetic": null, "ordering": null, "total_magnetization": 0.0005956, "total_magnetization_normalized_vol": null, "total_magnetization_normalized_formula_units": null, "num_magnetic_sites": null, "num_unique_magnetic_sites": null, "types_of_magnetic_species": null, "bulk_modulus": null, "shear_modulus": null, "universal_anisotropy": null, "homogeneous_poisson": null, "e_total": null, "e_ionic": null, "e_electronic": null, "n": null, "e_ij_max": null, "weighted_surface_energy_EV_PER_ANG2": null, "weighted_surface_energy": null, "weighted_work_function": null, "surface_anisotropy": null, "shape_factor": null, "has_reconstructed": null, "possible_species": null, "has_props": null, "theoretical": null, "database_IDs": null, "fields_not_requested": ["builder_meta", "nsites", "elements", "nelements", "composition", "composition_reduced", "chemsys", "symmetry", "property_name", "deprecated", "deprecation_reasons", "last_updated", "origins", "warnings", "task_ids", "uncorrected_energy_per_atom", "equilibrium_reaction_energy_per_atom", "decomposes_to", "xas", "grain_boundaries", "cbm", "vbm", "is_gap_direct", "is_metal", "es_source_calc_id", "bandstructure", "dos", "dos_energy_up", "dos_energy_down", "is_magnetic", "ordering", "total_magnetization_normalized_vol", "total_magnetization_normalized_formula_units", "num_magnetic_sites", "num_unique_magnetic_sites", "types_of_magnetic_species", "bulk_modulus", "shear_modulus", "universal_anisotropy", "homogeneous_poisson", "e_total", "e_ionic", "e_electronic", "n", "e_ij_max", "weighted_surface_energy_EV_PER_ANG2", "weighted_surface_energy", "weighted_work_function", "surface_anisotropy", "shape_factor", "has_reconstructed", "possible_species", "has_props", "theoretical", "database_IDs"]}