{
  "builder_meta": null,
  "nsites": null,
  "elements": null,
  "nelements": null,
  "composition": null,
  "composition_reduced": null,
  "formula_pretty": "C3O2",
  "formula_anonymous": "A2B3",
  "chemsys": null,
  "volume": 704.2681292098907,
  "density": 1.283238158883551,
  "density_atomic": 17.60670323024727,
  "symmetry": null,
  "property_name": null,
  "material_id": "mp-561848",
  "deprecated": null,
  "deprecation_reasons": null,
  "last_updated": null,
  "origins": null,
  "warnings": null,
  "structure": {
    "@module": "pymatgen.core.structure",
    "@class": "Structure",
    "charge": 0,
    "lattice": {
      "matrix": [
        [5.381829, 0.0, 0.0],
        [0.0, 10.287371, 0.0],
        [0.0, 0.0, 12.720487]
      ],
      "pbc": [true, true, true],
      "a": 5.381829,
      "b": 10.287371,
      "c": 12.720487,
      "alpha": 90.0,
      "beta": 90.0,
      "gamma": 90.0,
      "volume": 704.2681292098907
    },
    "properties": {},
    "sites": [
      {
        "species": [{ "element": "C", "occu": 1 }],
        "abc": [0.197953, 0.36371000000000003, 0.75],
        "properties": { "magmom": -0.0 },
        "label": "C",
        "xyz": [1.0653491960369998, 3.7416197064100003, 9.54036525]
      },
      {
        "species": [{ "element": "C", "occu": 1 }],
        "abc": [0.687242999999999, 0.923921999999999, 0.50326],
        "properties": { "magmom": 0.0 },
        "label": "C",
        "xyz": [3.6986243074469947, 9.50472838906199, 6.4017122876200006]
      },
      {
        "species": [{ "element": "C", "occu": 1 }],
        "abc": [0.187243, 0.576078, 0.49674],
        "properties": { "magmom": 0.0 },
        "label": "C",
        "xyz": [1.007709807447, 5.926328110938, 6.318774712380001]
      },
      {
        "species": [{ "element": "C", "occu": 1 }],
        "abc": [0.312757, 0.07607799999999901, 0.49674],
        "properties": { "magmom": 0.0 },
        "label": "C",
        "xyz": [1.683204692553, 0.7826426109379898, 6.318774712380001]
      },
      {
        "species": [{ "element": "C", "occu": 1 }],
        "abc": [0.697952999999999, 0.13629000000000002, 0.25],
        "properties": { "magmom": -0.0 },
        "label": "C",
        "xyz": [3.756263696036995, 1.4020657935900003, 3.18012175]
      },
      {
        "species": [{ "element": "C", "occu": 1 }],
        "abc": [0.324237999999999, 0.289213999999999, 0.25],
        "properties": { "magmom": -0.0 },
        "label": "C",
        "xyz": [1.7449934713019948, 2.97525171639399, 3.18012175]
      },
      {
        "species": [{ "element": "C", "occu": 1 }],
        "abc": [0.812757, 0.423921999999999, 0.9967400000000001],
        "properties": { "magmom": 0.0 },
        "label": "C",
        "xyz": [4.374119192553, 4.36104288906199, 12.67901821238]
      },
      {
        "species": [{ "element": "C", "occu": 1 }],
        "abc": [0.675762, 0.710785999999999, 0.75],
        "properties": { "magmom": -0.0 },
        "label": "C",
        "xyz": [3.6368355286979996, 7.31211928360599, 9.54036525]
      },
      {
        "species": [{ "element": "C", "occu": 1 }],
        "abc": [0.302047, 0.8637100000000001, 0.75],
        "properties": { "magmom": -0.0 },
        "label": "C",
        "xyz": [1.625565303963, 8.88530520641, 9.54036525]
      },
      {
        "species": [{ "element": "C", "occu": 1 }],
        "abc": [0.512606, 0.213694, 0.25],
        "properties": { "magmom": -0.0 },
        "label": "C",
        "xyz": [2.758757836374, 2.198349458474, 3.18012175]
      },
      {
        "species": [{ "element": "C", "occu": 1 }],
        "abc": [0.012606, 0.286306, 0.75],
        "properties": { "magmom": -0.0 },
        "label": "C",
        "xyz": [0.06784333637399999, 2.945336041526, 9.54036525]
      },
      {
        "species": [{ "element": "C", "occu": 1 }],
        "abc": [0.487394, 0.786306, 0.75],
        "properties": { "magmom": -0.0 },
        "label": "C",
        "xyz": [2.623071163626, 8.089021541526, 9.54036525]
      },
      {
        "species": [{ "element": "C", "occu": 1 }],
        "abc": [0.802047, 0.63629, 0.25],
        "properties": { "magmom": -0.0 },
        "label": "C",
        "xyz": [4.3164798039629995, 6.54575129359, 3.18012175]
      },
      {
        "species": [{ "element": "C", "occu": 1 }],
        "abc": [0.0, 0.5, 0.5],
        "properties": { "magmom": -0.0 },
        "label": "C",
        "xyz": [0.0, 5.1436855, 6.3602435]
      },
      {
        "species": [{ "element": "C", "occu": 1 }],
        "abc": [0.687242999999999, 0.923921999999999, 0.9967400000000001],
        "properties": { "magmom": 0.0 },
        "label": "C",
        "xyz": [3.6986243074469947, 9.50472838906199, 12.67901821238]
      },
      {
        "species": [{ "element": "C", "occu": 1 }],
        "abc": [0.812757, 0.423921999999999, 0.50326],
        "properties": { "magmom": 0.0 },
        "label": "C",
        "xyz": [4.374119192553, 4.36104288906199, 6.4017122876200006]
      },
      {
        "species": [{ "element": "C", "occu": 1 }],
        "abc": [0.175762, 0.789214, 0.25],
        "properties": { "magmom": -0.0 },
        "label": "C",
        "xyz": [0.945921028698, 8.118937216394, 3.18012175]
      },
      {
        "species": [{ "element": "C", "occu": 1 }],
        "abc": [0.824237999999999, 0.210786, 0.75],
        "properties": { "magmom": -0.0 },
        "label": "C",
        "xyz": [4.435907971301995, 2.168433783606, 9.54036525]
      },
      {
        "species": [{ "element": "C", "occu": 1 }],
        "abc": [0.0, 0.5, 0.0],
        "properties": { "magmom": -0.0 },
        "label": "C",
        "xyz": [0.0, 5.1436855, 0.0]
      },
      {
        "species": [{ "element": "C", "occu": 1 }],
        "abc": [0.312757, 0.07607799999999901, 0.0032600000000000003],
        "properties": { "magmom": 0.0 },
        "label": "C",
        "xyz": [1.683204692553, 0.7826426109379898, 0.04146878762]
      },
      {
        "species": [{ "element": "C", "occu": 1 }],
        "abc": [0.5, 0.0, 0.5],
        "properties": { "magmom": -0.0 },
        "label": "C",
        "xyz": [2.6909145, 0.0, 6.3602435]
      },
      {
        "species": [{ "element": "C", "occu": 1 }],
        "abc": [0.987394, 0.713693999999999, 0.25],
        "properties": { "magmom": -0.0 },
        "label": "C",
        "xyz": [5.313985663626, 7.342034958473991, 3.18012175]
      },
      {
        "species": [{ "element": "C", "occu": 1 }],
        "abc": [0.5, 0.0, 0.0],
        "properties": { "magmom": -0.0 },
        "label": "C",
        "xyz": [2.6909145, 0.0, 0.0]
      },
      {
        "species": [{ "element": "C", "occu": 1 }],
        "abc": [0.187243, 0.576078, 0.0032600000000000003],
        "properties": { "magmom": 0.0 },
        "label": "C",
        "xyz": [1.007709807447, 5.926328110938, 0.04146878762]
      },
      {
        "species": [{ "element": "O", "occu": 1 }],
        "abc": [0.869352, 0.06494899999999901, 0.25],
        "properties": { "magmom": 0.0 },
        "label": "O",
        "xyz": [4.678703804808, 0.6681544590789898, 3.18012175]
      },
      {
        "species": [{ "element": "O", "occu": 1 }],
        "abc": [0.149952, 0.358468, 0.25],
        "properties": { "magmom": 0.0 },
        "label": "O",
        "xyz": [0.807016022208, 3.6876933076280003, 3.18012175]
      },
      {
        "species": [{ "element": "O", "occu": 1 }],
        "abc": [0.860471, 0.853966, 0.506363999999999],
        "properties": { "magmom": -0.0 },
        "label": "O",
        "xyz": [4.630907781458999, 8.785065063386, 6.441196679267988]
      },
      {
        "species": [{ "element": "O", "occu": 1 }],
        "abc": [0.369351999999999, 0.435050999999999, 0.75],
        "properties": { "magmom": 0.0 },
        "label": "O",
        "xyz": [1.9877893048079947, 4.47553104092099, 9.54036525]
      },
      {
        "species": [{ "element": "O", "occu": 1 }],
        "abc": [0.130648, 0.935051, 0.75],
        "properties": { "magmom": 0.0 },
        "label": "O",
        "xyz": [0.7031251951919999, 9.619216540921, 9.54036525]
      },
      {
        "species": [{ "element": "O", "occu": 1 }],
        "abc": [0.360471, 0.646034, 0.493635999999999],
        "properties": { "magmom": -0.0 },
        "label": "O",
        "xyz": [1.9399932814589997, 6.6459914366140005, 6.279290320731988]
      },
      {
        "species": [{ "element": "O", "occu": 1 }],
        "abc": [0.639529, 0.353966, 0.993636],
        "properties": { "magmom": -0.0 },
        "label": "O",
        "xyz": [3.441835718541, 3.641379563386, 12.639533820732]
      },
      {
        "species": [{ "element": "O", "occu": 1 }],
        "abc": [0.350047999999999, 0.858468, 0.25],
        "properties": { "magmom": 0.0 },
        "label": "O",
        "xyz": [1.8838984777919947, 8.831378807628, 3.18012175]
      },
      {
        "species": [{ "element": "O", "occu": 1 }],
        "abc": [0.860471, 0.853966, 0.993636],
        "properties": { "magmom": -0.0 },
        "label": "O",
        "xyz": [4.630907781458999, 8.785065063386, 12.639533820732]
      },
      {
        "species": [{ "element": "O", "occu": 1 }],
        "abc": [0.649952, 0.141532, 0.75],
        "properties": { "magmom": 0.0 },
        "label": "O",
        "xyz": [3.4979305222079997, 1.4559921923719998, 9.54036525]
      },
      {
        "species": [{ "element": "O", "occu": 1 }],
        "abc": [0.139529, 0.146034, 0.493635999999999],
        "properties": { "magmom": -0.0 },
        "label": "O",
        "xyz": [0.7509212185409999, 1.502305936614, 6.279290320731988]
      },
      {
        "species": [{ "element": "O", "occu": 1 }],
        "abc": [0.360471, 0.646034, 0.006364],
        "properties": { "magmom": -0.0 },
        "label": "O",
        "xyz": [1.9399932814589997, 6.6459914366140005, 0.080953179268]
      },
      {
        "species": [{ "element": "O", "occu": 1 }],
        "abc": [0.630648, 0.564948999999999, 0.25],
        "properties": { "magmom": 0.0 },
        "label": "O",
        "xyz": [3.3940396951919998, 5.81183995907899, 3.18012175]
      },
      {
        "species": [{ "element": "O", "occu": 1 }],
        "abc": [0.850047999999999, 0.641532, 0.75],
        "properties": { "magmom": 0.0 },
        "label": "O",
        "xyz": [4.574812977791995, 6.599677692372, 9.54036525]
      },
      {
        "species": [{ "element": "O", "occu": 1 }],
        "abc": [0.139529, 0.146034, 0.006364],
        "properties": { "magmom": -0.0 },
        "label": "O",
        "xyz": [0.7509212185409999, 1.502305936614, 0.080953179268]
      },
      {
        "species": [{ "element": "O", "occu": 1 }],
        "abc": [0.639529, 0.353966, 0.506363999999999],
        "properties": { "magmom": -0.0 },
        "label": "O",
        "xyz": [3.441835718541, 3.641379563386, 6.441196679267988]
      }
    ]
  },
  "task_ids": null,
  "uncorrected_energy_per_atom": null,
  "energy_per_atom": -8.06908548375,
  "formation_energy_per_atom": -0.55270178625,
  "energy_above_hull": 0.50899565525,
  "is_stable": false,
  "equilibrium_reaction_energy_per_atom": null,
  "decomposes_to": null,
  "xas": null,
  "grain_boundaries": null,
  "band_gap": 3.9183,
  "cbm": null,
  "vbm": null,
  "efermi": -2.52527495,
  "is_gap_direct": null,
  "is_metal": null,
  "es_source_calc_id": null,
  "bandstructure": null,
  "dos": null,
  "dos_energy_up": null,
  "dos_energy_down": null,
  "is_magnetic": null,
  "ordering": null,
  "total_magnetization": 0.0,
  "total_magnetization_normalized_vol": null,
  "total_magnetization_normalized_formula_units": null,
  "num_magnetic_sites": null,
  "num_unique_magnetic_sites": null,
  "types_of_magnetic_species": null,
  "bulk_modulus": null,
  "shear_modulus": null,
  "universal_anisotropy": null,
  "homogeneous_poisson": null,
  "e_total": null,
  "e_ionic": null,
  "e_electronic": null,
  "n": null,
  "e_ij_max": null,
  "weighted_surface_energy_EV_PER_ANG2": null,
  "weighted_surface_energy": null,
  "weighted_work_function": null,
  "surface_anisotropy": null,
  "shape_factor": null,
  "has_reconstructed": null,
  "possible_species": null,
  "has_props": null,
  "theoretical": null,
  "database_IDs": null,
  "fields_not_requested": [
    "builder_meta",
    "nsites",
    "elements",
    "nelements",
    "composition",
    "composition_reduced",
    "chemsys",
    "symmetry",
    "property_name",
    "deprecated",
    "deprecation_reasons",
    "last_updated",
    "origins",
    "warnings",
    "task_ids",
    "uncorrected_energy_per_atom",
    "equilibrium_reaction_energy_per_atom",
    "decomposes_to",
    "xas",
    "grain_boundaries",
    "cbm",
    "vbm",
    "is_gap_direct",
    "is_metal",
    "es_source_calc_id",
    "bandstructure",
    "dos",
    "dos_energy_up",
    "dos_energy_down",
    "is_magnetic",
    "ordering",
    "total_magnetization_normalized_vol",
    "total_magnetization_normalized_formula_units",
    "num_magnetic_sites",
    "num_unique_magnetic_sites",
    "types_of_magnetic_species",
    "bulk_modulus",
    "shear_modulus",
    "universal_anisotropy",
    "homogeneous_poisson",
    "e_total",
    "e_ionic",
    "e_electronic",
    "n",
    "e_ij_max",
    "weighted_surface_energy_EV_PER_ANG2",
    "weighted_surface_energy",
    "weighted_work_function",
    "surface_anisotropy",
    "shape_factor",
    "has_reconstructed",
    "possible_species",
    "has_props",
    "theoretical",
    "database_IDs"
  ]
}
