{
  "builder_meta": null,
  "nsites": null,
  "elements": null,
  "nelements": null,
  "composition": null,
  "composition_reduced": null,
  "formula_pretty": "C3S4",
  "formula_anonymous": "A3B4",
  "chemsys": null,
  "volume": 1195.5540189958233,
  "density": 1.825519858068124,
  "density_atomic": 21.3491789106397,
  "symmetry": null,
  "property_name": null,
  "material_id": "mp-1203337",
  "deprecated": null,
  "deprecation_reasons": null,
  "last_updated": null,
  "origins": null,
  "warnings": null,
  "structure": {
    "@module": "pymatgen.core.structure",
    "@class": "Structure",
    "charge": 0,
    "lattice": {
      "matrix": [
        [9.896648, 0.0, 0.0],
        [0.0, 8.791705, 0.0],
        [0.0, 3.271832, 13.740672]
      ],
      "pbc": [true, true, true],
      "a": 9.896648,
      "b": 8.791705,
      "c": 14.124834570635084,
      "alpha": 76.60654165826621,
      "beta": 90.0,
      "gamma": 90.0,
      "volume": 1195.5540189958233
    },
    "properties": {},
    "sites": [
      {
        "species": [{ "element": "C", "occu": 1 }],
        "abc": [0.570292, 0.994096, 0.096248],
        "properties": { "magmom": -0.0 },
        "label": "C",
        "xyz": [5.643979181216, 9.054706060016, 1.322512198656]
      },
      {
        "species": [{ "element": "C", "occu": 1 }],
        "abc": [0.070292, 0.005903999999999, 0.403752],
        "properties": { "magmom": -0.0 },
        "label": "C",
        "xyz": [0.695655181216, 1.372914939983991, 5.547823801344]
      },
      {
        "species": [{ "element": "C", "occu": 1 }],
        "abc": [0.429708, 0.005903999999999, 0.903752],
        "properties": { "magmom": -0.0 },
        "label": "C",
        "xyz": [4.2526688187840005, 3.008830939983991, 12.418159801344]
      },
      {
        "species": [{ "element": "C", "occu": 1 }],
        "abc": [0.929708, 0.994096, 0.596248],
        "properties": { "magmom": -0.0 },
        "label": "C",
        "xyz": [9.200992818784, 10.690622060016, 8.192848198656]
      },
      {
        "species": [{ "element": "C", "occu": 1 }],
        "abc": [0.642349, 0.9358000000000001, 0.029240000000000002],
        "properties": { "magmom": 0.0 },
        "label": "C",
        "xyz": [6.357101946152, 8.322945906680001, 0.40177724928]
      },
      {
        "species": [{ "element": "C", "occu": 1 }],
        "abc": [0.142349, 0.06420000000000001, 0.47076],
        "properties": { "magmom": 0.0 },
        "label": "C",
        "xyz": [1.4087779461520002, 2.10467509332, 6.46855875072]
      },
      {
        "species": [{ "element": "C", "occu": 1 }],
        "abc": [0.357651, 0.06420000000000001, 0.9707600000000001],
        "properties": { "magmom": 0.0 },
        "label": "C",
        "xyz": [3.5395460538480004, 3.7405910933200004, 13.338894750720002]
      },
      {
        "species": [{ "element": "C", "occu": 1 }],
        "abc": [0.857650999999999, 0.9358000000000001, 0.52924],
        "properties": { "magmom": 0.0 },
        "label": "C",
        "xyz": [8.487870053847992, 9.958861906680001, 7.27211324928]
      },
      {
        "species": [{ "element": "C", "occu": 1 }],
        "abc": [0.775272, 0.876933, 0.053736],
        "properties": { "magmom": -0.0 },
        "label": "C",
        "xyz": [7.672594088256, 7.885551405117, 0.738368750592]
      },
      {
        "species": [{ "element": "C", "occu": 1 }],
        "abc": [0.275271999999999, 0.123067, 0.446264],
        "properties": { "magmom": -0.0 },
        "label": "C",
        "xyz": [2.7242700882559907, 2.542069594883, 6.1319672494079995]
      },
      {
        "species": [{ "element": "C", "occu": 1 }],
        "abc": [0.224727999999999, 0.123067, 0.946264],
        "properties": { "magmom": -0.0 },
        "label": "C",
        "xyz": [2.2240539117439906, 4.177985594882999, 13.002303249408]
      },
      {
        "species": [{ "element": "C", "occu": 1 }],
        "abc": [0.724727999999999, 0.876933, 0.553736],
        "properties": { "magmom": -0.0 },
        "label": "C",
        "xyz": [7.172377911743991, 9.521467405117, 7.6087047505920005]
      },
      {
        "species": [{ "element": "C", "occu": 1 }],
        "abc": [0.35775, 0.568356, 0.992753999999999],
        "properties": { "magmom": -0.0 },
        "label": "C",
        "xyz": [3.540525822, 8.244942592307996, 13.641107090687987]
      },
      {
        "species": [{ "element": "C", "occu": 1 }],
        "abc": [0.8577500000000001, 0.43164399999999903, 0.507246],
        "properties": { "magmom": -0.0 },
        "label": "C",
        "xyz": [8.488849822000002, 5.454510407691991, 6.969900909312]
      },
      {
        "species": [{ "element": "C", "occu": 1 }],
        "abc": [0.6422500000000001, 0.43164399999999903, 0.007246],
        "properties": { "magmom": -0.0 },
        "label": "C",
        "xyz": [6.3561221780000015, 3.8185944076919913, 0.099564909312]
      },
      {
        "species": [{ "element": "C", "occu": 1 }],
        "abc": [0.14225000000000002, 0.568356, 0.492753999999999],
        "properties": { "magmom": -0.0 },
        "label": "C",
        "xyz": [1.4077981780000002, 6.6090265923079965, 6.770771090687987]
      },
      {
        "species": [{ "element": "C", "occu": 1 }],
        "abc": [0.423722999999999, 0.555918999999999, 0.08042],
        "properties": { "magmom": -0.0 },
        "label": "C",
        "xyz": [4.19343738050399, 5.150596581334992, 1.10502484224]
      },
      {
        "species": [{ "element": "C", "occu": 1 }],
        "abc": [0.923723, 0.444081, 0.41958],
        "properties": { "magmom": -0.0 },
        "label": "C",
        "xyz": [9.141761380504, 5.277024418665, 5.76531115776]
      },
      {
        "species": [{ "element": "C", "occu": 1 }],
        "abc": [0.576276999999999, 0.444081, 0.9195800000000001],
        "properties": { "magmom": -0.0 },
        "label": "C",
        "xyz": [5.703210619495991, 6.912940418665, 12.635647157760001]
      },
      {
        "species": [{ "element": "C", "occu": 1 }],
        "abc": [0.076277, 0.555918999999999, 0.58042],
        "properties": { "magmom": -0.0 },
        "label": "C",
        "xyz": [0.754886619496, 6.786512581334993, 7.975360842240001]
      },
      {
        "species": [{ "element": "C", "occu": 1 }],
        "abc": [0.355528, 0.608808, 0.156224],
        "properties": { "magmom": -0.0 },
        "label": "C",
        "xyz": [3.5185354701440006, 5.863599020008, 2.1466227425280002]
      },
      {
        "species": [{ "element": "C", "occu": 1 }],
        "abc": [0.855528, 0.391192, 0.343775999999999],
        "properties": { "magmom": -0.0 },
        "label": "C",
        "xyz": [8.466859470144, 4.564021979991997, 4.723713257471987]
      },
      {
        "species": [{ "element": "C", "occu": 1 }],
        "abc": [0.644471999999999, 0.391192, 0.843776],
        "properties": { "magmom": -0.0 },
        "label": "C",
        "xyz": [6.378112529855991, 6.199937979992, 11.594049257472]
      },
      {
        "species": [{ "element": "C", "occu": 1 }],
        "abc": [0.144472, 0.608808, 0.656223999999999],
        "properties": { "magmom": -0.0 },
        "label": "C",
        "xyz": [1.429788529856, 7.499515020007997, 9.016958742527986]
      },
      {
        "species": [{ "element": "S", "occu": 1 }],
        "abc": [0.409273, 0.07789, 0.08816],
        "properties": { "magmom": 0.0 },
        "label": "S",
        "xyz": [4.050430816904, 0.97323061157, 1.21137764352]
      },
      {
        "species": [{ "element": "S", "occu": 1 }],
        "abc": [0.909273, 0.9221100000000001, 0.41184000000000004],
        "properties": { "magmom": 0.0 },
        "label": "S",
        "xyz": [8.998754816904, 9.454390388430001, 5.65895835648]
      },
      {
        "species": [{ "element": "S", "occu": 1 }],
        "abc": [0.590727, 0.9221100000000001, 0.9118400000000001],
        "properties": { "magmom": 0.0 },
        "label": "S",
        "xyz": [5.846217183096001, 11.090306388430001, 12.529294356480001]
      },
      {
        "species": [{ "element": "S", "occu": 1 }],
        "abc": [0.090727, 0.07789, 0.58816],
        "properties": { "magmom": 0.0 },
        "label": "S",
        "xyz": [0.8978931830960001, 2.60914661157, 8.08171364352]
      },
      {
        "species": [{ "element": "S", "occu": 1 }],
        "abc": [0.647247, 0.986401, 0.207332],
        "properties": { "magmom": 0.0 },
        "label": "S",
        "xyz": [6.405575728056001, 9.350502075929, 2.848881007104]
      },
      {
        "species": [{ "element": "S", "occu": 1 }],
        "abc": [0.147247, 0.013599, 0.292668],
        "properties": { "magmom": 0.0 },
        "label": "S",
        "xyz": [1.457251728056, 1.077118924071, 4.0214549928959995]
      },
      {
        "species": [{ "element": "S", "occu": 1 }],
        "abc": [0.352753, 0.013599, 0.792667999999999],
        "properties": { "magmom": 0.0 },
        "label": "S",
        "xyz": [3.491072271944, 2.7130349240709966, 10.891790992895986]
      },
      {
        "species": [{ "element": "S", "occu": 1 }],
        "abc": [0.852753, 0.986401, 0.707332],
        "properties": { "magmom": 0.0 },
        "label": "S",
        "xyz": [8.439396271944, 10.986418075929, 9.719217007104]
      },
      {
        "species": [{ "element": "S", "occu": 1 }],
        "abc": [0.822279, 0.883416, 0.171407],
        "properties": { "magmom": 0.0 },
        "label": "S",
        "xyz": [8.137805820792, 8.327547771904, 2.3552473655040003]
      },
      {
        "species": [{ "element": "S", "occu": 1 }],
        "abc": [0.322279, 0.116584, 0.328592999999999],
        "properties": { "magmom": 0.0 },
        "label": "S",
        "xyz": [3.189481820792, 2.1000732280959964, 4.515088634495987]
      },
      {
        "species": [{ "element": "S", "occu": 1 }],
        "abc": [0.177721, 0.116584, 0.828592999999999],
        "properties": { "magmom": 0.0 },
        "label": "S",
        "xyz": [1.758842179208, 3.7359892280959963, 11.385424634495987]
      },
      {
        "species": [{ "element": "S", "occu": 1 }],
        "abc": [0.677721, 0.883416, 0.671407],
        "properties": { "magmom": 0.0 },
        "label": "S",
        "xyz": [6.707166179208, 9.963463771904, 9.225583365503999]
      },
      {
        "species": [{ "element": "S", "occu": 1 }],
        "abc": [0.880554, 0.807179, 0.982242],
        "properties": { "magmom": 0.0 },
        "label": "S",
        "xyz": [8.714532982992, 10.310210457539, 13.496665146623998]
      },
      {
        "species": [{ "element": "S", "occu": 1 }],
        "abc": [0.380554, 0.192821, 0.517757999999999],
        "properties": { "magmom": 0.0 },
        "label": "S",
        "xyz": [3.7662089829920005, 3.389242542460997, 7.114342853375987]
      },
      {
        "species": [{ "element": "S", "occu": 1 }],
        "abc": [0.119446, 0.192821, 0.017758],
        "properties": { "magmom": 0.0 },
        "label": "S",
        "xyz": [1.1821150170080001, 1.753326542461, 0.244006853376]
      },
      {
        "species": [{ "element": "S", "occu": 1 }],
        "abc": [0.619445999999999, 0.807179, 0.482242],
        "properties": { "magmom": 0.0 },
        "label": "S",
        "xyz": [6.130439017007991, 8.674294457539, 6.626329146624]
      },
      {
        "species": [{ "element": "S", "occu": 1 }],
        "abc": [0.411811, 0.516643, 0.886563],
        "properties": { "magmom": 0.0 },
        "label": "S",
        "xyz": [4.075548509528, 7.442858039731, 12.181971390336]
      },
      {
        "species": [{ "element": "S", "occu": 1 }],
        "abc": [0.911810999999999, 0.483357, 0.613437],
        "properties": { "magmom": 0.0 },
        "label": "S",
        "xyz": [9.02387250952799, 6.256594960269, 8.429036609664]
      },
      {
        "species": [{ "element": "S", "occu": 1 }],
        "abc": [0.588189, 0.483357, 0.113437],
        "properties": { "magmom": 0.0 },
        "label": "S",
        "xyz": [5.821099490472, 4.620678960269, 1.558700609664]
      },
      {
        "species": [{ "element": "S", "occu": 1 }],
        "abc": [0.088188999999999, 0.516643, 0.386563],
        "properties": { "magmom": 0.0 },
        "label": "S",
        "xyz": [0.8727754904719902, 5.806942039731, 5.311635390336]
      },
      {
        "species": [{ "element": "S", "occu": 1 }],
        "abc": [0.196039, 0.647125, 0.9833369999999991],
        "properties": { "magmom": 0.0 },
        "label": "S",
        "xyz": [1.940128977272, 8.906645561508997, 13.511711182463989]
      },
      {
        "species": [{ "element": "S", "occu": 1 }],
        "abc": [0.696039, 0.352875, 0.516663],
        "properties": { "magmom": 0.0 },
        "label": "S",
        "xyz": [6.888452977272, 4.792807438491, 7.099296817536]
      },
      {
        "species": [{ "element": "S", "occu": 1 }],
        "abc": [0.803960999999999, 0.352875, 0.016663],
        "properties": { "magmom": 0.0 },
        "label": "S",
        "xyz": [7.956519022727991, 3.156891438491, 0.228960817536]
      },
      {
        "species": [{ "element": "S", "occu": 1 }],
        "abc": [0.303961, 0.647125, 0.483336999999999],
        "properties": { "magmom": 0.0 },
        "label": "S",
        "xyz": [3.008195022728, 7.270729561508997, 6.641375182463986]
      },
      {
        "species": [{ "element": "S", "occu": 1 }],
        "abc": [0.19493000000000002, 0.681335, 0.12376000000000001],
        "properties": { "magmom": 0.0 },
        "label": "S",
        "xyz": [1.9291535946400002, 6.3950182544950005, 1.70054556672]
      },
      {
        "species": [{ "element": "S", "occu": 1 }],
        "abc": [0.69493, 0.318665, 0.37624],
        "properties": { "magmom": 0.0 },
        "label": "S",
        "xyz": [6.877477594640001, 4.032602745505, 5.16979043328]
      },
      {
        "species": [{ "element": "S", "occu": 1 }],
        "abc": [0.8050700000000001, 0.318665, 0.87624],
        "properties": { "magmom": 0.0 },
        "label": "S",
        "xyz": [7.967494405360001, 5.668518745505, 12.040126433280001]
      },
      {
        "species": [{ "element": "S", "occu": 1 }],
        "abc": [0.30507, 0.681335, 0.6237600000000001],
        "properties": { "magmom": 0.0 },
        "label": "S",
        "xyz": [3.01917040536, 8.030934254495001, 8.57088156672]
      },
      {
        "species": [{ "element": "S", "occu": 1 }],
        "abc": [0.416319, 0.606576, 0.266656],
        "properties": { "magmom": 0.0 },
        "label": "S",
        "xyz": [4.1201625987120005, 6.205290885872, 3.664032632832]
      },
      {
        "species": [{ "element": "S", "occu": 1 }],
        "abc": [0.916319, 0.393424, 0.233344],
        "properties": { "magmom": 0.0 },
        "label": "S",
        "xyz": [9.068486598712001, 4.222330114128, 3.206303367168]
      },
      {
        "species": [{ "element": "S", "occu": 1 }],
        "abc": [0.583681, 0.393424, 0.733344],
        "properties": { "magmom": 0.0 },
        "label": "S",
        "xyz": [5.776485401288, 5.858246114128001, 10.076639367168]
      },
      {
        "species": [{ "element": "S", "occu": 1 }],
        "abc": [0.083680999999999, 0.606576, 0.766656],
        "properties": { "magmom": 0.0 },
        "label": "S",
        "xyz": [0.8281614012879902, 7.841206885871999, 10.534368632832]
      }
    ]
  },
  "task_ids": null,
  "uncorrected_energy_per_atom": null,
  "energy_per_atom": -6.3051114805357145,
  "formation_energy_per_atom": 0.014807769107142002,
  "energy_above_hull": 0.262706803494897,
  "is_stable": false,
  "equilibrium_reaction_energy_per_atom": null,
  "decomposes_to": null,
  "xas": null,
  "grain_boundaries": null,
  "band_gap": 1.4507,
  "cbm": null,
  "vbm": null,
  "efermi": 1.6745272500000001,
  "is_gap_direct": null,
  "is_metal": null,
  "es_source_calc_id": null,
  "bandstructure": null,
  "dos": null,
  "dos_energy_up": null,
  "dos_energy_down": null,
  "is_magnetic": null,
  "ordering": null,
  "total_magnetization": 0.001654799999999,
  "total_magnetization_normalized_vol": null,
  "total_magnetization_normalized_formula_units": null,
  "num_magnetic_sites": null,
  "num_unique_magnetic_sites": null,
  "types_of_magnetic_species": null,
  "bulk_modulus": null,
  "shear_modulus": null,
  "universal_anisotropy": null,
  "homogeneous_poisson": null,
  "e_total": null,
  "e_ionic": null,
  "e_electronic": null,
  "n": null,
  "e_ij_max": null,
  "weighted_surface_energy_EV_PER_ANG2": null,
  "weighted_surface_energy": null,
  "weighted_work_function": null,
  "surface_anisotropy": null,
  "shape_factor": null,
  "has_reconstructed": null,
  "possible_species": null,
  "has_props": null,
  "theoretical": null,
  "database_IDs": null,
  "fields_not_requested": [
    "builder_meta",
    "nsites",
    "elements",
    "nelements",
    "composition",
    "composition_reduced",
    "chemsys",
    "symmetry",
    "property_name",
    "deprecated",
    "deprecation_reasons",
    "last_updated",
    "origins",
    "warnings",
    "task_ids",
    "uncorrected_energy_per_atom",
    "equilibrium_reaction_energy_per_atom",
    "decomposes_to",
    "xas",
    "grain_boundaries",
    "cbm",
    "vbm",
    "is_gap_direct",
    "is_metal",
    "es_source_calc_id",
    "bandstructure",
    "dos",
    "dos_energy_up",
    "dos_energy_down",
    "is_magnetic",
    "ordering",
    "total_magnetization_normalized_vol",
    "total_magnetization_normalized_formula_units",
    "num_magnetic_sites",
    "num_unique_magnetic_sites",
    "types_of_magnetic_species",
    "bulk_modulus",
    "shear_modulus",
    "universal_anisotropy",
    "homogeneous_poisson",
    "e_total",
    "e_ionic",
    "e_electronic",
    "n",
    "e_ij_max",
    "weighted_surface_energy_EV_PER_ANG2",
    "weighted_surface_energy",
    "weighted_work_function",
    "surface_anisotropy",
    "shape_factor",
    "has_reconstructed",
    "possible_species",
    "has_props",
    "theoretical",
    "database_IDs"
  ]
}
