{
  "builder_meta": null,
  "nsites": null,
  "elements": null,
  "nelements": null,
  "composition": null,
  "composition_reduced": null,
  "formula_pretty": "C3S8",
  "formula_anonymous": "A3B8",
  "chemsys": null,
  "volume": 573.2589873187926,
  "density": 1.694850675915236,
  "density_atomic": 26.057226696308756,
  "symmetry": null,
  "property_name": null,
  "material_id": "mp-30078",
  "deprecated": null,
  "deprecation_reasons": null,
  "last_updated": null,
  "origins": null,
  "warnings": null,
  "structure": {
    "@module": "pymatgen.core.structure",
    "@class": "Structure",
    "charge": 0,
    "lattice": {
      "matrix": [
        [4.997897, 0.0, 0.0],
        [-0.096458999999999, 9.375213, 0.0],
        [-1.826995999999999, -2.189488, 12.234393]
      ],
      "pbc": [true, true, true],
      "a": 4.997897,
      "b": 9.375709206990692,
      "c": 12.562330363615224,
      "alpha": 99.94975394420243,
      "beta": 98.36243984036248,
      "gamma": 90.58947979035084,
      "volume": 573.2589873187926
    },
    "properties": {},
    "sites": [
      {
        "species": [{ "element": "C", "occu": 1 }],
        "abc": [0.694033, 0.856823999999999, 0.791076],
        "properties": { "magmom": 0.0 },
        "label": "C",
        "xyz": [1.940764374689002, 6.300856094423991, 9.678334676868001]
      },
      {
        "species": [{ "element": "C", "occu": 1 }],
        "abc": [0.305967, 0.143176, 0.208924],
        "properties": { "magmom": 0.0 },
        "label": "C",
        "xyz": [1.1336776253110004, 0.8848689055760002, 2.556058323132]
      },
      {
        "species": [{ "element": "C", "occu": 1 }],
        "abc": [0.658399, 0.791631, 0.683021],
        "properties": { "magmom": 0.0 },
        "label": "C",
        "xyz": [1.9663738173580014, 5.926242959155, 8.356347341253]
      },
      {
        "species": [{ "element": "C", "occu": 1 }],
        "abc": [0.341601, 0.208369, 0.316979],
        "properties": { "magmom": 0.0 },
        "label": "C",
        "xyz": [1.1080681826420005, 1.259482040845, 3.8780456587470002]
      },
      {
        "species": [{ "element": "C", "occu": 1 }],
        "abc": [0.369496, 0.026588, 0.688143],
        "properties": { "magmom": 0.0 },
        "label": "C",
        "xyz": [0.5869037895920008, -1.2574126775399996, 8.419011902199]
      },
      {
        "species": [{ "element": "C", "occu": 1 }],
        "abc": [0.630504, 0.9734119999999991, 0.311857],
        "properties": { "magmom": 0.0 },
        "label": "C",
        "xyz": [2.487538210408001, 8.44313767753999, 3.815381097801]
      },
      {
        "species": [{ "element": "S", "occu": 1 }],
        "abc": [0.186124999999999, 0.364769, 0.375073999999999],
        "properties": { "magmom": 0.0 },
        "label": "S",
        "xyz": [0.2097896284499976, 2.5985670486850023, 4.588802720081988]
      },
      {
        "species": [{ "element": "S", "occu": 1 }],
        "abc": [0.813875, 0.635231, 0.624926],
        "properties": { "magmom": 0.0 },
        "label": "S",
        "xyz": [2.8646523715500014, 4.587157951315, 7.645590279918]
      },
      {
        "species": [{ "element": "S", "occu": 1 }],
        "abc": [0.378874, 0.534196, 0.327092999999999],
        "properties": { "magmom": 0.0 },
        "label": "S",
        "xyz": [1.2444476133860027, 4.292035085364002, 4.001784309548988]
      },
      {
        "species": [{ "element": "S", "occu": 1 }],
        "abc": [0.621126, 0.465804, 0.672906999999999],
        "properties": { "magmom": 0.0 },
        "label": "S",
        "xyz": [1.8299943866140025, 2.8936899146360027, 8.232608690450988]
      },
      {
        "species": [{ "element": "S", "occu": 1 }],
        "abc": [0.164159, 0.550991, 0.176142],
        "properties": { "magmom": 0.0 },
        "label": "S",
        "xyz": [0.4454910033220007, 4.779997190787, 2.154990451806]
      },
      {
        "species": [{ "element": "S", "occu": 1 }],
        "abc": [0.835841, 0.449009, 0.823858],
        "properties": { "magmom": 0.0 },
        "label": "S",
        "xyz": [2.628950996678001, 2.4057278092130003, 10.079402548194]
      },
      {
        "species": [{ "element": "S", "occu": 1 }],
        "abc": [0.29645000000000005, 0.379719, 0.071896],
        "properties": { "magmom": 0.0 },
        "label": "S",
        "xyz": [1.3136455462130008, 3.4025310758989997, 0.8796039191280001]
      },
      {
        "species": [{ "element": "S", "occu": 1 }],
        "abc": [0.70355, 0.620281, 0.928103999999999],
        "properties": { "magmom": 0.0 },
        "label": "S",
        "xyz": [1.7607964537870033, 3.7831939241010017, 11.354789080871988]
      },
      {
        "species": [{ "element": "S", "occu": 1 }],
        "abc": [0.09698000000000001, 0.198422, 0.099155],
        "properties": { "magmom": 0.0 },
        "label": "S",
        "xyz": [0.2844006749820004, 1.6431498312459998, 1.213101237915]
      },
      {
        "species": [{ "element": "S", "occu": 1 }],
        "abc": [0.90302, 0.801578, 0.900845],
        "properties": { "magmom": 0.0 },
        "label": "S",
        "xyz": [2.7900413250180027, 5.542575168754, 11.021291762085001]
      },
      {
        "species": [{ "element": "S", "occu": 1 }],
        "abc": [0.522509, 0.016212, 0.82052],
        "properties": { "magmom": 0.0 },
        "label": "S",
        "xyz": [1.1107956123450007, -1.644527740604, 10.03856414436]
      },
      {
        "species": [{ "element": "S", "occu": 1 }],
        "abc": [0.477491, 0.983788, 0.17948000000000003],
        "properties": { "magmom": 0.0 },
        "label": "S",
        "xyz": [1.963646387655001, 8.830252740604001, 2.1958288556400003]
      },
      {
        "species": [{ "element": "S", "occu": 1 }],
        "abc": [0.446075, 0.878674, 0.59389],
        "properties": { "magmom": 0.0 },
        "label": "S",
        "xyz": [1.0596462344690014, 6.937440879242001, 7.265883658770001]
      },
      {
        "species": [{ "element": "S", "occu": 1 }],
        "abc": [0.553925, 0.121325999999999, 0.40611],
        "properties": { "magmom": 0.0 },
        "label": "S",
        "xyz": [2.0147957655310007, 0.24828412075799078, 4.968509341230001]
      },
      {
        "species": [{ "element": "S", "occu": 1 }],
        "abc": [0.172483, 0.157331, 0.656571],
        "properties": { "magmom": 0.0 },
        "label": "S",
        "xyz": [-0.3526763133939992, 0.03745731085500026, 8.032747646403001]
      },
      {
        "species": [{ "element": "S", "occu": 1 }],
        "abc": [0.827517, 0.842669, 0.343429],
        "properties": { "magmom": 0.0 },
        "label": "S",
        "xyz": [3.427118313394001, 7.148267689145, 4.201645353597]
      }
    ]
  },
  "task_ids": null,
  "uncorrected_energy_per_atom": null,
  "energy_per_atom": -5.661837016818182,
  "formation_energy_per_atom": -0.135212197045454,
  "energy_above_hull": 0.18029566490259702,
  "is_stable": false,
  "equilibrium_reaction_energy_per_atom": null,
  "decomposes_to": null,
  "xas": null,
  "grain_boundaries": null,
  "band_gap": 1.7443,
  "cbm": null,
  "vbm": null,
  "efermi": 0.88374843,
  "is_gap_direct": null,
  "is_metal": null,
  "es_source_calc_id": null,
  "bandstructure": null,
  "dos": null,
  "dos_energy_up": null,
  "dos_energy_down": null,
  "is_magnetic": null,
  "ordering": null,
  "total_magnetization": 0.0013659,
  "total_magnetization_normalized_vol": null,
  "total_magnetization_normalized_formula_units": null,
  "num_magnetic_sites": null,
  "num_unique_magnetic_sites": null,
  "types_of_magnetic_species": null,
  "bulk_modulus": null,
  "shear_modulus": null,
  "universal_anisotropy": null,
  "homogeneous_poisson": null,
  "e_total": null,
  "e_ionic": null,
  "e_electronic": null,
  "n": null,
  "e_ij_max": null,
  "weighted_surface_energy_EV_PER_ANG2": null,
  "weighted_surface_energy": null,
  "weighted_work_function": null,
  "surface_anisotropy": null,
  "shape_factor": null,
  "has_reconstructed": null,
  "possible_species": null,
  "has_props": null,
  "theoretical": null,
  "database_IDs": null,
  "fields_not_requested": [
    "builder_meta",
    "nsites",
    "elements",
    "nelements",
    "composition",
    "composition_reduced",
    "chemsys",
    "symmetry",
    "property_name",
    "deprecated",
    "deprecation_reasons",
    "last_updated",
    "origins",
    "warnings",
    "task_ids",
    "uncorrected_energy_per_atom",
    "equilibrium_reaction_energy_per_atom",
    "decomposes_to",
    "xas",
    "grain_boundaries",
    "cbm",
    "vbm",
    "is_gap_direct",
    "is_metal",
    "es_source_calc_id",
    "bandstructure",
    "dos",
    "dos_energy_up",
    "dos_energy_down",
    "is_magnetic",
    "ordering",
    "total_magnetization_normalized_vol",
    "total_magnetization_normalized_formula_units",
    "num_magnetic_sites",
    "num_unique_magnetic_sites",
    "types_of_magnetic_species",
    "bulk_modulus",
    "shear_modulus",
    "universal_anisotropy",
    "homogeneous_poisson",
    "e_total",
    "e_ionic",
    "e_electronic",
    "n",
    "e_ij_max",
    "weighted_surface_energy_EV_PER_ANG2",
    "weighted_surface_energy",
    "weighted_work_function",
    "surface_anisotropy",
    "shape_factor",
    "has_reconstructed",
    "possible_species",
    "has_props",
    "theoretical",
    "database_IDs"
  ]
}
