{"builder_meta": null, "nsites": null, "elements": null, "nelements": null, "composition": null, "composition_reduced": null, "formula_pretty": "C4Cl5", "formula_anonymous": "A4B5", "chemsys": null, "volume": 3158.9571390588812, "density": 1.894966661161658, "density_atomic": 21.937202354575565, "symmetry": null, "property_name": null, "material_id": "mp-1214607", "deprecated": null, "deprecation_reasons": null, "last_updated": null, "origins": null, "warnings": null, "structure": {"@module": "pymatgen.core.structure", "@class": "Structure", "charge": 0, "lattice": {"matrix": [[10.06505703, 0.0, 0.0], [-0.0, 16.68624575, 0.0], [0.0, 0.0, 18.80913649]], "pbc": [true, true, true], "a": 10.06505703, "b": 16.68624575, "c": 18.80913649, "alpha": 90.0, "beta": 90.0, "gamma": 90.0, "volume": 3158.9571390588812}, "properties": {}, "sites": [{"species": [{"element": "C", "occu": 1}], "abc": [0.16423477, 0.03487458, 0.33626866], "properties": {"magmom": -0.0}, "label": "C", "xyz": [1.653032326358933, 0.5819258123080351, 6.324923123249404]}, {"species": [{"element": "C", "occu": 1}], "abc": [0.83576523, 0.96512542, 0.66373134], "properties": {"magmom": -0.0}, "label": "C", "xyz": [8.412024703641068, 16.104319937691965, 12.484213366750597]}, {"species": [{"element": "C", "occu": 1}], "abc": [0.33576523, 0.96512542, 0.83626866], "properties": {"magmom": -0.0}, "label": "C", "xyz": [3.3794961886410673, 16.104319937691965, 15.729491368249404]}, {"species": [{"element": "C", "occu": 1}], "abc": [0.83576523, 0.53487458, 0.16373134], "properties": {"magmom": -0.0}, "label": "C", "xyz": [8.412024703641068, 8.925048687308035, 3.079645121750597]}, {"species": [{"element": "C", "occu": 1}], "abc": [0.66423477, 0.03487458, 0.16373134], "properties": {"magmom": -0.0}, "label": "C", "xyz": [6.685560841358933, 0.5819258123080351, 3.079645121750597]}, {"species": [{"element": "C", "occu": 1}], "abc": [0.16423477, 0.46512542, 0.83626866], "properties": {"magmom": -0.0}, "label": "C", "xyz": [1.653032326358933, 7.7611970626919655, 15.729491368249404]}, {"species": [{"element": "C", "occu": 1}], "abc": [0.66423477, 0.46512542, 0.66373134], "properties": {"magmom": -0.0}, "label": "C", "xyz": [6.685560841358933, 7.7611970626919655, 12.484213366750597]}, {"species": [{"element": "C", "occu": 1}], "abc": [0.33576523, 0.53487458, 0.33626866], "properties": {"magmom": -0.0}, "label": "C", "xyz": [3.3794961886410673, 8.925048687308035, 6.324923123249404]}, {"species": [{"element": "C", "occu": 1}], "abc": [0.0714197, 0.14169432, 0.24866855000000002], "properties": {"magmom": 0.0}, "label": "C", "xyz": [0.718843353565491, 2.3643462448991404, 4.67724069772039]}, {"species": [{"element": "C", "occu": 1}], "abc": [0.928580299999999, 0.8583056800000001, 0.75133145], "properties": {"magmom": 0.0}, "label": "C", "xyz": [9.3462136764345, 14.321899505100863, 14.131895792279611]}, {"species": [{"element": "C", "occu": 1}], "abc": [0.428580299999999, 0.8583056800000001, 0.74866855], "properties": {"magmom": 0.0}, "label": "C", "xyz": [4.313685161434499, 14.321899505100863, 14.08180894272039]}, {"species": [{"element": "C", "occu": 1}], "abc": [0.928580299999999, 0.64169432, 0.25133145], "properties": {"magmom": -0.0}, "label": "C", "xyz": [9.3462136764345, 10.707469119899141, 4.727327547279611]}, {"species": [{"element": "C", "occu": 1}], "abc": [0.5714197, 0.14169432, 0.25133145], "properties": {"magmom": -0.0}, "label": "C", "xyz": [5.75137186856549, 2.3643462448991404, 4.727327547279611]}, {"species": [{"element": "C", "occu": 1}], "abc": [0.0714197, 0.35830568, 0.74866855], "properties": {"magmom": 0.0}, "label": "C", "xyz": [0.718843353565491, 5.97877663010086, 14.08180894272039]}, {"species": [{"element": "C", "occu": 1}], "abc": [0.5714197, 0.35830568, 0.75133145], "properties": {"magmom": -0.0}, "label": "C", "xyz": [5.75137186856549, 5.97877663010086, 14.131895792279611]}, {"species": [{"element": "C", "occu": 1}], "abc": [0.428580299999999, 0.64169432, 0.24866855000000002], "properties": {"magmom": -0.0}, "label": "C", "xyz": [4.313685161434499, 10.707469119899141, 4.67724069772039]}, {"species": [{"element": "C", "occu": 1}], "abc": [0.15666087, 0.05482447, 0.13141121], "properties": {"magmom": 0.0}, "label": "C", "xyz": [1.5768005909194163, 0.9148145795335025, 2.471731385206053]}, {"species": [{"element": "C", "occu": 1}], "abc": [0.84333913, 0.94517553, 0.86858879], "properties": {"magmom": -0.0}, "label": "C", "xyz": [8.488256439080585, 15.771431170466498, 16.337405104793948]}, {"species": [{"element": "C", "occu": 1}], "abc": [0.34333913, 0.94517553, 0.63141121], "properties": {"magmom": 0.0}, "label": "C", "xyz": [3.455727924080584, 15.771431170466498, 11.876299630206052]}, {"species": [{"element": "C", "occu": 1}], "abc": [0.84333913, 0.55482447, 0.36858879], "properties": {"magmom": 0.0}, "label": "C", "xyz": [8.488256439080585, 9.257937454533504, 6.932836859793947]}, {"species": [{"element": "C", "occu": 1}], "abc": [0.6566608700000001, 0.05482447, 0.36858879], "properties": {"magmom": -0.0}, "label": "C", "xyz": [6.609329105919417, 0.9148145795335025, 6.932836859793947]}, {"species": [{"element": "C", "occu": 1}], "abc": [0.15666087, 0.44517553, 0.63141121], "properties": {"magmom": 0.0}, "label": "C", "xyz": [1.5768005909194163, 7.428308295466498, 11.876299630206052]}, {"species": [{"element": "C", "occu": 1}], "abc": [0.6566608700000001, 0.44517553, 0.86858879], "properties": {"magmom": -0.0}, "label": "C", "xyz": [6.609329105919417, 7.428308295466498, 16.337405104793948]}, {"species": [{"element": "C", "occu": 1}], "abc": [0.34333913, 0.55482447, 0.13141121], "properties": {"magmom": 0.0}, "label": "C", "xyz": [3.455727924080584, 9.257937454533504, 2.471731385206053]}, {"species": [{"element": "C", "occu": 1}], "abc": [0.13580766, 0.13835219, 0.12260998000000001], "properties": {"magmom": 0.0}, "label": "C", "xyz": [1.3669118430108498, 2.308578642390693, 2.3061878488561702]}, {"species": [{"element": "C", "occu": 1}], "abc": [0.86419234, 0.86164781, 0.87739002], "properties": {"magmom": 0.0}, "label": "C", "xyz": [8.69814518698915, 14.377667107609309, 16.50294864114383]}, {"species": [{"element": "C", "occu": 1}], "abc": [0.36419234, 0.86164781, 0.62260998], "properties": {"magmom": 0.0}, "label": "C", "xyz": [3.66561667198915, 14.377667107609309, 11.71075609385617]}, {"species": [{"element": "C", "occu": 1}], "abc": [0.86419234, 0.63835219, 0.37739002], "properties": {"magmom": 0.0}, "label": "C", "xyz": [8.69814518698915, 10.651701517390693, 7.098380396143829]}, {"species": [{"element": "C", "occu": 1}], "abc": [0.63580766, 0.13835219, 0.37739002], "properties": {"magmom": -0.0}, "label": "C", "xyz": [6.39944035801085, 2.308578642390693, 7.098380396143829]}, {"species": [{"element": "C", "occu": 1}], "abc": [0.13580766, 0.36164781, 0.62260998], "properties": {"magmom": 0.0}, "label": "C", "xyz": [1.3669118430108498, 6.034544232609308, 11.71075609385617]}, {"species": [{"element": "C", "occu": 1}], "abc": [0.63580766, 0.36164781, 0.87739002], "properties": {"magmom": -0.0}, "label": "C", "xyz": [6.39944035801085, 6.034544232609308, 16.50294864114383]}, {"species": [{"element": "C", "occu": 1}], "abc": [0.36419234, 0.63835219, 0.12260998000000001], "properties": {"magmom": 0.0}, "label": "C", "xyz": [3.66561667198915, 10.651701517390693, 2.3061878488561702]}, {"species": [{"element": "C", "occu": 1}], "abc": [0.13262778, 0.06620648, 0.26112035], "properties": {"magmom": 0.0}, "label": "C", "xyz": [1.3349061694622935, 1.10473759552246, 4.911448303466572]}, {"species": [{"element": "C", "occu": 1}], "abc": [0.86737222, 0.93379352, 0.73887965], "properties": {"magmom": 0.0}, "label": "C", "xyz": [8.730150860537707, 15.581508154477541, 13.89768818653343]}, {"species": [{"element": "C", "occu": 1}], "abc": [0.36737222, 0.93379352, 0.76112035], "properties": {"magmom": 0.0}, "label": "C", "xyz": [3.697622345537707, 15.581508154477541, 14.316016548466571]}, {"species": [{"element": "C", "occu": 1}], "abc": [0.86737222, 0.56620648, 0.23887965], "properties": {"magmom": -0.0}, "label": "C", "xyz": [8.730150860537707, 9.44786047052246, 4.493119941533428]}, {"species": [{"element": "C", "occu": 1}], "abc": [0.63262778, 0.06620648, 0.23887965], "properties": {"magmom": 0.0}, "label": "C", "xyz": [6.367434684462293, 1.10473759552246, 4.493119941533428]}, {"species": [{"element": "C", "occu": 1}], "abc": [0.13262778, 0.43379352, 0.76112035], "properties": {"magmom": 0.0}, "label": "C", "xyz": [1.3349061694622935, 7.238385279477541, 14.316016548466571]}, {"species": [{"element": "C", "occu": 1}], "abc": [0.63262778, 0.43379352, 0.73887965], "properties": {"magmom": -0.0}, "label": "C", "xyz": [6.367434684462293, 7.238385279477541, 13.89768818653343]}, {"species": [{"element": "C", "occu": 1}], "abc": [0.36737222, 0.56620648, 0.26112035], "properties": {"magmom": -0.0}, "label": "C", "xyz": [3.697622345537707, 9.44786047052246, 4.911448303466572]}, {"species": [{"element": "C", "occu": 1}], "abc": [0.15428586, 0.019380520000000002, 0.19940736], "properties": {"magmom": -0.0}, "label": "C", "xyz": [1.5528959798225959, 0.32338811948279006, 3.7506802513505666]}, {"species": [{"element": "C", "occu": 1}], "abc": [0.84571414, 0.98061948, 0.80059264], "properties": {"magmom": -0.0}, "label": "C", "xyz": [8.512161050177404, 16.36285763051721, 15.058456238649432]}, {"species": [{"element": "C", "occu": 1}], "abc": [0.34571414, 0.98061948, 0.69940736], "properties": {"magmom": -0.0}, "label": "C", "xyz": [3.4796325351774042, 16.36285763051721, 13.155248496350568]}, {"species": [{"element": "C", "occu": 1}], "abc": [0.84571414, 0.51938052, 0.30059264], "properties": {"magmom": 0.0}, "label": "C", "xyz": [8.512161050177404, 8.66651099448279, 5.653887993649434]}, {"species": [{"element": "C", "occu": 1}], "abc": [0.65428586, 0.019380520000000002, 0.30059264], "properties": {"magmom": 0.0}, "label": "C", "xyz": [6.585424494822596, 0.32338811948279006, 5.653887993649434]}, {"species": [{"element": "C", "occu": 1}], "abc": [0.15428586, 0.48061948, 0.69940736], "properties": {"magmom": 0.0}, "label": "C", "xyz": [1.5528959798225959, 8.019734755517211, 13.155248496350568]}, {"species": [{"element": "C", "occu": 1}], "abc": [0.65428586, 0.48061948, 0.80059264], "properties": {"magmom": 0.0}, "label": "C", "xyz": [6.585424494822596, 8.019734755517211, 15.058456238649432]}, {"species": [{"element": "C", "occu": 1}], "abc": [0.34571414, 0.51938052, 0.19940736], "properties": {"magmom": -0.0}, "label": "C", "xyz": [3.4796325351774042, 8.66651099448279, 3.7506802513505666]}, {"species": [{"element": "C", "occu": 1}], "abc": [0.07224259, 0.17694661, 0.18046386], "properties": {"magmom": -0.0}, "label": "C", "xyz": [0.7271257883449077, 2.952574619089408, 3.3943693742522516]}, {"species": [{"element": "C", "occu": 1}], "abc": [0.92775741, 0.82305339, 0.81953614], "properties": {"magmom": -0.0}, "label": "C", "xyz": [9.337931241655092, 13.733671130910594, 15.414767115747749]}, {"species": [{"element": "C", "occu": 1}], "abc": [0.42775741, 0.82305339, 0.68046386], "properties": {"magmom": -0.0}, "label": "C", "xyz": [4.3054027266550925, 13.733671130910594, 12.798937619252252]}, {"species": [{"element": "C", "occu": 1}], "abc": [0.92775741, 0.67694661, 0.31953614], "properties": {"magmom": -0.0}, "label": "C", "xyz": [9.337931241655092, 11.295697494089408, 6.010198870747749]}, {"species": [{"element": "C", "occu": 1}], "abc": [0.57224259, 0.17694661, 0.31953614], "properties": {"magmom": 0.0}, "label": "C", "xyz": [5.759654303344908, 2.952574619089408, 6.010198870747749]}, {"species": [{"element": "C", "occu": 1}], "abc": [0.07224259, 0.32305339, 0.68046386], "properties": {"magmom": -0.0}, "label": "C", "xyz": [0.7271257883449077, 5.390548255910593, 12.798937619252252]}, {"species": [{"element": "C", "occu": 1}], "abc": [0.57224259, 0.32305339, 0.81953614], "properties": {"magmom": 0.0}, "label": "C", "xyz": [5.759654303344908, 5.390548255910593, 15.414767115747749]}, {"species": [{"element": "C", "occu": 1}], "abc": [0.42775741, 0.67694661, 0.18046386], "properties": {"magmom": -0.0}, "label": "C", "xyz": [4.3054027266550925, 11.295697494089408, 3.3943693742522516]}, {"species": [{"element": "C", "occu": 1}], "abc": [0.17221892, 0.18185942, 0.05314409], "properties": {"magmom": -0.0}, "label": "C", "xyz": [1.7333932514450077, 3.034550974072465, 0.999594442446844]}, {"species": [{"element": "C", "occu": 1}], "abc": [0.8277810800000001, 0.81814058, 0.94685591], "properties": {"magmom": -0.0}, "label": "C", "xyz": [8.331663778554994, 13.651694775927536, 17.80954204755316]}, {"species": [{"element": "C", "occu": 1}], "abc": [0.32778108, 0.81814058, 0.55314409], "properties": {"magmom": -0.0}, "label": "C", "xyz": [3.2991352635549926, 13.651694775927536, 10.404162687446844]}, {"species": [{"element": "C", "occu": 1}], "abc": [0.8277810800000001, 0.68185942, 0.44685591], "properties": {"magmom": -0.0}, "label": "C", "xyz": [8.331663778554994, 11.377673849072465, 8.404973802553156]}, {"species": [{"element": "C", "occu": 1}], "abc": [0.67221892, 0.18185942, 0.44685591], "properties": {"magmom": -0.0}, "label": "C", "xyz": [6.765921766445008, 3.034550974072465, 8.404973802553156]}, {"species": [{"element": "C", "occu": 1}], "abc": [0.17221892, 0.31814058, 0.55314409], "properties": {"magmom": -0.0}, "label": "C", "xyz": [1.7333932514450077, 5.308571900927536, 10.404162687446844]}, {"species": [{"element": "C", "occu": 1}], "abc": [0.67221892, 0.31814058, 0.94685591], "properties": {"magmom": -0.0}, "label": "C", "xyz": [6.765921766445008, 5.308571900927536, 17.80954204755316]}, {"species": [{"element": "C", "occu": 1}], "abc": [0.32778108, 0.68185942, 0.05314409], "properties": {"magmom": -0.0}, "label": "C", "xyz": [3.2991352635549926, 11.377673849072465, 0.999594442446844]}, {"species": [{"element": "Cl", "occu": 1}], "abc": [0.47739396, 0.48238924, 0.37107597000000003], "properties": {"magmom": -0.0}, "label": "Cl", "xyz": [4.804997433177539, 8.049265405795731, 6.979618567889146]}, {"species": [{"element": "Cl", "occu": 1}], "abc": [0.52260604, 0.5176107600000001, 0.62892403], "properties": {"magmom": 0.0}, "label": "Cl", "xyz": [5.260059596822461, 8.636980344204272, 11.829517922110854]}, {"species": [{"element": "Cl", "occu": 1}], "abc": [0.02260604, 0.5176107600000001, 0.87107597], "properties": {"magmom": 0.0}, "label": "Cl", "xyz": [0.2275310818224612, 8.636980344204272, 16.384186812889148]}, {"species": [{"element": "Cl", "occu": 1}], "abc": [0.52260604, 0.98238924, 0.12892403], "properties": {"magmom": -0.0}, "label": "Cl", "xyz": [5.260059596822461, 16.392388280795732, 2.4249496771108547]}, {"species": [{"element": "Cl", "occu": 1}], "abc": [0.97739396, 0.48238924, 0.12892403], "properties": {"magmom": -0.0}, "label": "Cl", "xyz": [9.83752594817754, 8.049265405795731, 2.4249496771108547]}, {"species": [{"element": "Cl", "occu": 1}], "abc": [0.47739396, 0.01761076, 0.87107597], "properties": {"magmom": -0.0}, "label": "Cl", "xyz": [4.804997433177539, 0.29385746920427, 16.384186812889148]}, {"species": [{"element": "Cl", "occu": 1}], "abc": [0.97739396, 0.01761076, 0.62892403], "properties": {"magmom": -0.0}, "label": "Cl", "xyz": [9.83752594817754, 0.29385746920427, 11.829517922110854]}, {"species": [{"element": "Cl", "occu": 1}], "abc": [0.02260604, 0.98238924, 0.37107597000000003], "properties": {"magmom": -0.0}, "label": "Cl", "xyz": [0.2275310818224612, 16.392388280795732, 6.979618567889146]}, {"species": [{"element": "Cl", "occu": 1}], "abc": [0.036573299999999004, 0.32376184, 0.49210602000000003], "properties": {"magmom": 0.0}, "label": "Cl", "xyz": [0.368112350275289, 5.402369626712181, 9.25608929773067]}, {"species": [{"element": "Cl", "occu": 1}], "abc": [0.9634267, 0.67623816, 0.50789398], "properties": {"magmom": 0.0}, "label": "Cl", "xyz": [9.696944679724702, 11.283876123287822, 9.55304719226933]}, {"species": [{"element": "Cl", "occu": 1}], "abc": [0.463426699999999, 0.67623816, 0.99210602], "properties": {"magmom": 0.0}, "label": "Cl", "xyz": [4.664416164724691, 11.283876123287822, 18.66065754273067]}, {"species": [{"element": "Cl", "occu": 1}], "abc": [0.9634267, 0.82376184, 0.00789398], "properties": {"magmom": 0.0}, "label": "Cl", "xyz": [9.696944679724702, 13.74549250171218, 0.1484789472693302]}, {"species": [{"element": "Cl", "occu": 1}], "abc": [0.5365733, 0.32376184, 0.00789398], "properties": {"magmom": 0.0}, "label": "Cl", "xyz": [5.4006408652752995, 5.402369626712181, 0.1484789472693302]}, {"species": [{"element": "Cl", "occu": 1}], "abc": [0.036573299999999004, 0.17623816, 0.99210602], "properties": {"magmom": 0.0}, "label": "Cl", "xyz": [0.368112350275289, 2.9407532482878205, 18.66065754273067]}, {"species": [{"element": "Cl", "occu": 1}], "abc": [0.5365733, 0.17623816, 0.50789398], "properties": {"magmom": 0.0}, "label": "Cl", "xyz": [5.4006408652752995, 2.9407532482878205, 9.55304719226933]}, {"species": [{"element": "Cl", "occu": 1}], "abc": [0.463426699999999, 0.82376184, 0.49210602000000003], "properties": {"magmom": -0.0}, "label": "Cl", "xyz": [4.664416164724691, 13.74549250171218, 9.25608929773067]}, {"species": [{"element": "Cl", "occu": 1}], "abc": [0.19342071, 0.46979000000000004, 0.33828865], "properties": {"magmom": 0.0}, "label": "Cl", "xyz": [1.9467904769330913, 7.839031390892501, 6.362917390867839]}, {"species": [{"element": "Cl", "occu": 1}], "abc": [0.8065792900000001, 0.5302100000000001, 0.66171135], "properties": {"magmom": 0.0}, "label": "Cl", "xyz": [8.11826655306691, 8.847214359107502, 12.446219099132163]}, {"species": [{"element": "Cl", "occu": 1}], "abc": [0.30657929, 0.5302100000000001, 0.83828865], "properties": {"magmom": -0.0}, "label": "Cl", "xyz": [3.085738038066909, 8.847214359107502, 15.767485635867837]}, {"species": [{"element": "Cl", "occu": 1}], "abc": [0.8065792900000001, 0.96979, 0.16171135], "properties": {"magmom": 0.0}, "label": "Cl", "xyz": [8.11826655306691, 16.182154265892503, 3.0416508541321616]}, {"species": [{"element": "Cl", "occu": 1}], "abc": [0.69342071, 0.46979000000000004, 0.16171135], "properties": {"magmom": -0.0}, "label": "Cl", "xyz": [6.979318991933092, 7.839031390892501, 3.0416508541321616]}, {"species": [{"element": "Cl", "occu": 1}], "abc": [0.19342071, 0.03021, 0.83828865], "properties": {"magmom": -0.0}, "label": "Cl", "xyz": [1.9467904769330913, 0.5040914841075, 15.767485635867837]}, {"species": [{"element": "Cl", "occu": 1}], "abc": [0.69342071, 0.03021, 0.66171135], "properties": {"magmom": 0.0}, "label": "Cl", "xyz": [6.979318991933092, 0.5040914841075, 12.446219099132163]}, {"species": [{"element": "Cl", "occu": 1}], "abc": [0.30657929, 0.96979, 0.33828865], "properties": {"magmom": 0.0}, "label": "Cl", "xyz": [3.085738038066909, 16.182154265892503, 6.362917390867839]}, {"species": [{"element": "Cl", "occu": 1}], "abc": [0.48222535, 0.26342306, 0.33120895], "properties": {"magmom": 0.0}, "label": "Cl", "xyz": [4.85362564906171, 4.395541915376995, 6.229754347259585]}, {"species": [{"element": "Cl", "occu": 1}], "abc": [0.51777465, 0.7365769400000001, 0.66879105], "properties": {"magmom": -0.0}, "label": "Cl", "xyz": [5.21143138093829, 12.290703834623008, 12.579382142740416]}, {"species": [{"element": "Cl", "occu": 1}], "abc": [0.01777465, 0.7365769400000001, 0.8312089500000001], "properties": {"magmom": -0.0}, "label": "Cl", "xyz": [0.1789028659382895, 12.290703834623008, 15.634322592259586]}, {"species": [{"element": "Cl", "occu": 1}], "abc": [0.51777465, 0.76342306, 0.16879105], "properties": {"magmom": 0.0}, "label": "Cl", "xyz": [5.21143138093829, 12.738664790376996, 3.1748138977404143]}, {"species": [{"element": "Cl", "occu": 1}], "abc": [0.98222535, 0.26342306, 0.16879105], "properties": {"magmom": 0.0}, "label": "Cl", "xyz": [9.886154164061711, 4.395541915376995, 3.1748138977404143]}, {"species": [{"element": "Cl", "occu": 1}], "abc": [0.48222535, 0.23657694, 0.8312089500000001], "properties": {"magmom": -0.0}, "label": "Cl", "xyz": [4.85362564906171, 3.9475809596230054, 15.634322592259586]}, {"species": [{"element": "Cl", "occu": 1}], "abc": [0.98222535, 0.23657694, 0.66879105], "properties": {"magmom": 0.0}, "label": "Cl", "xyz": [9.886154164061711, 3.9475809596230054, 12.579382142740416]}, {"species": [{"element": "Cl", "occu": 1}], "abc": [0.01777465, 0.76342306, 0.33120895], "properties": {"magmom": -0.0}, "label": "Cl", "xyz": [0.1789028659382895, 12.738664790376996, 6.229754347259585]}, {"species": [{"element": "Cl", "occu": 1}], "abc": [0.31942093, 0.14274422, 0.01257777], "properties": {"magmom": 0.0}, "label": "Cl", "xyz": [3.214989877025638, 2.3818651343120654, 0.23657699266982732]}, {"species": [{"element": "Cl", "occu": 1}], "abc": [0.6805790700000001, 0.85725578, 0.9874222300000001], "properties": {"magmom": 0.0}, "label": "Cl", "xyz": [6.850067152974363, 14.304380615687936, 18.572559497330175]}, {"species": [{"element": "Cl", "occu": 1}], "abc": [0.18057907, 0.85725578, 0.51257777], "properties": {"magmom": -0.0}, "label": "Cl", "xyz": [1.8175386379743623, 14.304380615687936, 9.641145237669829]}, {"species": [{"element": "Cl", "occu": 1}], "abc": [0.6805790700000001, 0.64274422, 0.48742223], "properties": {"magmom": -0.0}, "label": "Cl", "xyz": [6.850067152974363, 10.724988009312066, 9.167991252330173]}, {"species": [{"element": "Cl", "occu": 1}], "abc": [0.81942093, 0.14274422, 0.48742223], "properties": {"magmom": 0.0}, "label": "Cl", "xyz": [8.247518392025638, 2.3818651343120654, 9.167991252330173]}, {"species": [{"element": "Cl", "occu": 1}], "abc": [0.31942093, 0.35725578, 0.51257777], "properties": {"magmom": -0.0}, "label": "Cl", "xyz": [3.214989877025638, 5.961257740687936, 9.641145237669829]}, {"species": [{"element": "Cl", "occu": 1}], "abc": [0.81942093, 0.35725578, 0.9874222300000001], "properties": {"magmom": 0.0}, "label": "Cl", "xyz": [8.247518392025638, 5.961257740687936, 18.572559497330175]}, {"species": [{"element": "Cl", "occu": 1}], "abc": [0.18057907, 0.64274422, 0.01257777], "properties": {"magmom": 0.0}, "label": "Cl", "xyz": [1.8175386379743623, 10.724988009312066, 0.23657699266982732]}, {"species": [{"element": "Cl", "occu": 1}], "abc": [0.32755503, 0.49284559, 0.05912508], "properties": {"magmom": -0.0}, "label": "Cl", "xyz": [3.2968600574133613, 8.223742631543743, 1.1120916997021693]}, {"species": [{"element": "Cl", "occu": 1}], "abc": [0.67244497, 0.50715441, 0.9408749200000001], "properties": {"magmom": 0.0}, "label": "Cl", "xyz": [6.768196972586639, 8.46250311845626, 17.69704479029783]}, {"species": [{"element": "Cl", "occu": 1}], "abc": [0.17244497, 0.50715441, 0.55912508], "properties": {"magmom": -0.0}, "label": "Cl", "xyz": [1.7356684575866392, 8.46250311845626, 10.51665994470217]}, {"species": [{"element": "Cl", "occu": 1}], "abc": [0.67244497, 0.9928455900000001, 0.44087492], "properties": {"magmom": -0.0}, "label": "Cl", "xyz": [6.768196972586639, 16.566865506543746, 8.29247654529783]}, {"species": [{"element": "Cl", "occu": 1}], "abc": [0.82755503, 0.49284559, 0.44087492], "properties": {"magmom": -0.0}, "label": "Cl", "xyz": [8.329388572413361, 8.223742631543743, 8.29247654529783]}, {"species": [{"element": "Cl", "occu": 1}], "abc": [0.32755503, 0.00715441, 0.55912508], "properties": {"magmom": 0.0}, "label": "Cl", "xyz": [3.2968600574133613, 0.1193802434562575, 10.51665994470217]}, {"species": [{"element": "Cl", "occu": 1}], "abc": [0.82755503, 0.00715441, 0.9408749200000001], "properties": {"magmom": -0.0}, "label": "Cl", "xyz": [8.329388572413361, 0.1193802434562575, 17.69704479029783]}, {"species": [{"element": "Cl", "occu": 1}], "abc": [0.17244497, 0.9928455900000001, 0.05912508], "properties": {"magmom": 0.0}, "label": "Cl", "xyz": [1.7356684575866392, 16.566865506543746, 1.1120916997021693]}, {"species": [{"element": "Cl", "occu": 1}], "abc": [0.21346148, 0.28559947, 0.06772716], "properties": {"magmom": 0.0}, "label": "Cl", "xyz": [2.1485019699082044, 4.765582942489753, 1.2738893965200684]}, {"species": [{"element": "Cl", "occu": 1}], "abc": [0.78653852, 0.71440053, 0.93227284], "properties": {"magmom": -0.0}, "label": "Cl", "xyz": [7.916555060091796, 11.920662807510249, 17.53524709347993]}, {"species": [{"element": "Cl", "occu": 1}], "abc": [0.28653852, 0.71440053, 0.56772716], "properties": {"magmom": -0.0}, "label": "Cl", "xyz": [2.8840265450917957, 11.920662807510249, 10.678457641520069]}, {"species": [{"element": "Cl", "occu": 1}], "abc": [0.78653852, 0.78559947, 0.43227284], "properties": {"magmom": 0.0}, "label": "Cl", "xyz": [7.916555060091796, 13.108705817489753, 8.130678848479931]}, {"species": [{"element": "Cl", "occu": 1}], "abc": [0.71346148, 0.28559947, 0.43227284], "properties": {"magmom": 0.0}, "label": "Cl", "xyz": [7.181030484908204, 4.765582942489753, 8.130678848479931]}, {"species": [{"element": "Cl", "occu": 1}], "abc": [0.21346148, 0.21440053, 0.56772716], "properties": {"magmom": -0.0}, "label": "Cl", "xyz": [2.1485019699082044, 3.577539932510248, 10.678457641520069]}, {"species": [{"element": "Cl", "occu": 1}], "abc": [0.71346148, 0.21440053, 0.93227284], "properties": {"magmom": -0.0}, "label": "Cl", "xyz": [7.181030484908204, 3.577539932510248, 17.53524709347993]}, {"species": [{"element": "Cl", "occu": 1}], "abc": [0.28653852, 0.78559947, 0.06772716], "properties": {"magmom": 0.0}, "label": "Cl", "xyz": [2.8840265450917957, 13.108705817489753, 1.2738893965200684]}, {"species": [{"element": "Cl", "occu": 1}], "abc": [0.20928698, 0.11331204, 0.3965826], "properties": {"magmom": -0.0}, "label": "Cl", "xyz": [2.1064853893364694, 1.8907525458738301, 7.459376252959074]}, {"species": [{"element": "Cl", "occu": 1}], "abc": [0.79071302, 0.88668796, 0.6034174], "properties": {"magmom": -0.0}, "label": "Cl", "xyz": [7.95857164066353, 14.795493204126172, 11.349760237040925]}, {"species": [{"element": "Cl", "occu": 1}], "abc": [0.29071302, 0.88668796, 0.8965826], "properties": {"magmom": -0.0}, "label": "Cl", "xyz": [2.9260431256635306, 14.795493204126172, 16.863944497959075]}, {"species": [{"element": "Cl", "occu": 1}], "abc": [0.79071302, 0.6133120400000001, 0.10341739999999901], "properties": {"magmom": -0.0}, "label": "Cl", "xyz": [7.95857164066353, 10.233875420873831, 1.9451919920409073]}, {"species": [{"element": "Cl", "occu": 1}], "abc": [0.70928698, 0.11331204, 0.10341739999999901], "properties": {"magmom": 0.0}, "label": "Cl", "xyz": [7.13901390433647, 1.8907525458738301, 1.9451919920409073]}, {"species": [{"element": "Cl", "occu": 1}], "abc": [0.20928698, 0.38668796, 0.8965826], "properties": {"magmom": -0.0}, "label": "Cl", "xyz": [2.1064853893364694, 6.45237032912617, 16.863944497959075]}, {"species": [{"element": "Cl", "occu": 1}], "abc": [0.70928698, 0.38668796, 0.6034174], "properties": {"magmom": -0.0}, "label": "Cl", "xyz": [7.13901390433647, 6.45237032912617, 11.349760237040925]}, {"species": [{"element": "Cl", "occu": 1}], "abc": [0.29071302, 0.6133120400000001, 0.3965826], "properties": {"magmom": -0.0}, "label": "Cl", "xyz": [2.9260431256635306, 10.233875420873831, 7.459376252959074]}, {"species": [{"element": "Cl", "occu": 1}], "abc": [0.48123825000000003, 0.18894588, 0.18613973], "properties": {"magmom": 0.0}, "label": "Cl", "xyz": [4.843690431267398, 3.1527973871300103, 3.5011275877817476]}, {"species": [{"element": "Cl", "occu": 1}], "abc": [0.51876175, 0.81105412, 0.81386027], "properties": {"magmom": 0.0}, "label": "Cl", "xyz": [5.221366598732603, 13.53344836286999, 15.308008902218253]}, {"species": [{"element": "Cl", "occu": 1}], "abc": [0.01876175, 0.81105412, 0.6861397300000001], "properties": {"magmom": -0.0}, "label": "Cl", "xyz": [0.1888380837326025, 13.53344836286999, 12.905695832781749]}, {"species": [{"element": "Cl", "occu": 1}], "abc": [0.51876175, 0.68894588, 0.31386027], "properties": {"magmom": 0.0}, "label": "Cl", "xyz": [5.221366598732603, 11.495920262130012, 5.903440657218252]}, {"species": [{"element": "Cl", "occu": 1}], "abc": [0.98123825, 0.18894588, 0.31386027], "properties": {"magmom": -0.0}, "label": "Cl", "xyz": [9.876218946267397, 3.1527973871300103, 5.903440657218252]}, {"species": [{"element": "Cl", "occu": 1}], "abc": [0.48123825000000003, 0.31105412, 0.6861397300000001], "properties": {"magmom": 0.0}, "label": "Cl", "xyz": [4.843690431267398, 5.19032548786999, 12.905695832781749]}, {"species": [{"element": "Cl", "occu": 1}], "abc": [0.98123825, 0.31105412, 0.81386027], "properties": {"magmom": 0.0}, "label": "Cl", "xyz": [9.876218946267397, 5.19032548786999, 15.308008902218253]}, {"species": [{"element": "Cl", "occu": 1}], "abc": [0.01876175, 0.68894588, 0.18613973], "properties": {"magmom": 0.0}, "label": "Cl", "xyz": [0.1888380837326025, 11.495920262130012, 3.5011275877817476]}, {"species": [{"element": "Cl", "occu": 1}], "abc": [0.33638105, 0.41666778, 0.20415112], "properties": {"magmom": 0.0}, "label": "Cl", "xyz": [3.3856944520612817, 6.952620973186935, 3.839906280666369]}, {"species": [{"element": "Cl", "occu": 1}], "abc": [0.66361895, 0.58333222, 0.79584888], "properties": {"magmom": 0.0}, "label": "Cl", "xyz": [6.679362577938719, 9.733624776813064, 14.969230209333631]}, {"species": [{"element": "Cl", "occu": 1}], "abc": [0.16361895, 0.58333222, 0.70415112], "properties": {"magmom": 0.0}, "label": "Cl", "xyz": [1.6468340629387186, 9.733624776813064, 13.24447452566637]}, {"species": [{"element": "Cl", "occu": 1}], "abc": [0.66361895, 0.91666778, 0.29584888], "properties": {"magmom": 0.0}, "label": "Cl", "xyz": [6.679362577938719, 15.295743848186937, 5.564661964333631]}, {"species": [{"element": "Cl", "occu": 1}], "abc": [0.8363810500000001, 0.41666778, 0.29584888], "properties": {"magmom": 0.0}, "label": "Cl", "xyz": [8.418222967061283, 6.952620973186935, 5.564661964333631]}, {"species": [{"element": "Cl", "occu": 1}], "abc": [0.33638105, 0.08333222, 0.70415112], "properties": {"magmom": 0.0}, "label": "Cl", "xyz": [3.3856944520612817, 1.390501901813065, 13.24447452566637]}, {"species": [{"element": "Cl", "occu": 1}], "abc": [0.8363810500000001, 0.08333222, 0.79584888], "properties": {"magmom": 0.0}, "label": "Cl", "xyz": [8.418222967061283, 1.390501901813065, 14.969230209333631]}, {"species": [{"element": "Cl", "occu": 1}], "abc": [0.16361895, 0.91666778, 0.20415112], "properties": {"magmom": 0.0}, "label": "Cl", "xyz": [1.6468340629387186, 15.295743848186937, 3.839906280666369]}]}, "task_ids": null, "uncorrected_energy_per_atom": null, "energy_per_atom": -5.426523758125, "formation_energy_per_atom": -0.29792642812500003, "energy_above_hull": 0.148101744618055, "is_stable": false, "equilibrium_reaction_energy_per_atom": null, "decomposes_to": null, "xas": null, "grain_boundaries": null, "band_gap": 2.4130000000000003, "cbm": null, "vbm": null, "efermi": 0.40899453, "is_gap_direct": null, "is_metal": null, "es_source_calc_id": null, "bandstructure": null, "dos": null, "dos_energy_up": null, "dos_energy_down": null, "is_magnetic": null, "ordering": null, "total_magnetization": 0.006824999999999, "total_magnetization_normalized_vol": null, "total_magnetization_normalized_formula_units": null, "num_magnetic_sites": null, "num_unique_magnetic_sites": null, "types_of_magnetic_species": null, "bulk_modulus": null, "shear_modulus": null, "universal_anisotropy": null, "homogeneous_poisson": null, "e_total": null, "e_ionic": null, "e_electronic": null, "n": null, "e_ij_max": null, "weighted_surface_energy_EV_PER_ANG2": null, "weighted_surface_energy": null, "weighted_work_function": null, "surface_anisotropy": null, "shape_factor": null, "has_reconstructed": null, "possible_species": null, "has_props": null, "theoretical": null, "database_IDs": null, "fields_not_requested": ["builder_meta", "nsites", "elements", "nelements", "composition", "composition_reduced", "chemsys", "symmetry", "property_name", "deprecated", "deprecation_reasons", "last_updated", "origins", "warnings", "task_ids", "uncorrected_energy_per_atom", "equilibrium_reaction_energy_per_atom", "decomposes_to", "xas", "grain_boundaries", "cbm", "vbm", "is_gap_direct", "is_metal", "es_source_calc_id", "bandstructure", "dos", "dos_energy_up", "dos_energy_down", "is_magnetic", "ordering", "total_magnetization_normalized_vol", "total_magnetization_normalized_formula_units", "num_magnetic_sites", "num_unique_magnetic_sites", "types_of_magnetic_species", "bulk_modulus", "shear_modulus", "universal_anisotropy", "homogeneous_poisson", "e_total", "e_ionic", "e_electronic", "n", "e_ij_max", "weighted_surface_energy_EV_PER_ANG2", "weighted_surface_energy", "weighted_work_function", "surface_anisotropy", "shape_factor", "has_reconstructed", "possible_species", "has_props", "theoretical", "database_IDs"]}