{"builder_meta": null, "nsites": null, "elements": null, "nelements": null, "composition": null, "composition_reduced": null, "formula_pretty": "C4N3", "formula_anonymous": "A3B4", "chemsys": null, "volume": 1987.562511955701, "density": 1.203910522575784, "density_atomic": 17.74609385674733, "symmetry": null, "property_name": null, "material_id": "mp-1214748", "deprecated": null, "deprecation_reasons": null, "last_updated": null, "origins": null, "warnings": null, "structure": {"@module": "pymatgen.core.structure", "@class": "Structure", "charge": 0, "lattice": {"matrix": [[10.87457, 0.0, 0.0], [0.0, 13.111389, 0.0], [0.0, 0.0, 13.939911]], "pbc": [true, true, true], "a": 10.87457, "b": 13.111389, "c": 13.939911, "alpha": 90.0, "beta": 90.0, "gamma": 90.0, "volume": 1987.562511955701}, "properties": {}, "sites": [{"species": [{"element": "C", "occu": 1}], "abc": [0.094558999999999, 0.088198, 0.184133], "properties": {"magmom": 0.0}, "label": "C", "xyz": [1.0282884646299892, 1.156398287022, 2.566797632163]}, {"species": [{"element": "C", "occu": 1}], "abc": [0.905440999999999, 0.911802, 0.815867], "properties": {"magmom": 0.0}, "label": "C", "xyz": [9.84628153536999, 11.954990712978, 11.373113367837]}, {"species": [{"element": "C", "occu": 1}], "abc": [0.405441, 0.911802, 0.684133], "properties": {"magmom": 0.0}, "label": "C", "xyz": [4.40899653537, 11.954990712978, 9.536753132163]}, {"species": [{"element": "C", "occu": 1}], "abc": [0.905440999999999, 0.588198, 0.315867], "properties": {"magmom": 0.0}, "label": "C", "xyz": [9.84628153536999, 7.712092787022001, 4.403157867837]}, {"species": [{"element": "C", "occu": 1}], "abc": [0.594559, 0.088198, 0.315867], "properties": {"magmom": 0.0}, "label": "C", "xyz": [6.465573464629999, 1.156398287022, 4.403157867837]}, {"species": [{"element": "C", "occu": 1}], "abc": [0.094558999999999, 0.411802, 0.684133], "properties": {"magmom": 0.0}, "label": "C", "xyz": [1.0282884646299892, 5.399296212978, 9.536753132163]}, {"species": [{"element": "C", "occu": 1}], "abc": [0.594559, 0.411802, 0.815867], "properties": {"magmom": 0.0}, "label": "C", "xyz": [6.465573464629999, 5.399296212978, 11.373113367837]}, {"species": [{"element": "C", "occu": 1}], "abc": [0.405441, 0.588198, 0.184133], "properties": {"magmom": 0.0}, "label": "C", "xyz": [4.40899653537, 7.712092787022001, 2.566797632163]}, {"species": [{"element": "C", "occu": 1}], "abc": [0.200944999999999, 0.068546, 0.044627], "properties": {"magmom": 0.0}, "label": "C", "xyz": [2.1851904686499894, 0.898733270394, 0.6220964081970001]}, {"species": [{"element": "C", "occu": 1}], "abc": [0.799055, 0.931454, 0.955372999999999], "properties": {"magmom": 0.0}, "label": "C", "xyz": [8.68937953135, 12.212655729606, 13.317814591802987]}, {"species": [{"element": "C", "occu": 1}], "abc": [0.299054999999999, 0.931454, 0.544627], "properties": {"magmom": 0.0}, "label": "C", "xyz": [3.2520945313499894, 12.212655729606, 7.592051908197]}, {"species": [{"element": "C", "occu": 1}], "abc": [0.799055, 0.568546, 0.45537299999999903], "properties": {"magmom": 0.0}, "label": "C", "xyz": [8.68937953135, 7.454427770394, 6.347859091802986]}, {"species": [{"element": "C", "occu": 1}], "abc": [0.700944999999999, 0.068546, 0.45537299999999903], "properties": {"magmom": 0.0}, "label": "C", "xyz": [7.62247546864999, 0.898733270394, 6.347859091802986]}, {"species": [{"element": "C", "occu": 1}], "abc": [0.200944999999999, 0.431454, 0.544627], "properties": {"magmom": 0.0}, "label": "C", "xyz": [2.1851904686499894, 5.656961229606001, 7.592051908197]}, {"species": [{"element": "C", "occu": 1}], "abc": [0.700944999999999, 0.431454, 0.955372999999999], "properties": {"magmom": 0.0}, "label": "C", "xyz": [7.62247546864999, 5.656961229606001, 13.317814591802987]}, {"species": [{"element": "C", "occu": 1}], "abc": [0.299054999999999, 0.568546, 0.044627], "properties": {"magmom": 0.0}, "label": "C", "xyz": [3.2520945313499894, 7.454427770394, 0.6220964081970001]}, {"species": [{"element": "C", "occu": 1}], "abc": [0.227064, 0.493843, 0.46281799999999906], "properties": {"magmom": -0.0}, "label": "C", "xyz": [2.4692233624799997, 6.474967677927, 6.451641729197987]}, {"species": [{"element": "C", "occu": 1}], "abc": [0.772936, 0.506157, 0.537181999999999], "properties": {"magmom": -0.0}, "label": "C", "xyz": [8.40534663752, 6.636421322073, 7.488269270801987]}, {"species": [{"element": "C", "occu": 1}], "abc": [0.272936, 0.506157, 0.962818], "properties": {"magmom": -0.0}, "label": "C", "xyz": [2.9680616375200004, 6.636421322073, 13.421597229198]}, {"species": [{"element": "C", "occu": 1}], "abc": [0.772936, 0.993842999999999, 0.037182], "properties": {"magmom": -0.0}, "label": "C", "xyz": [8.40534663752, 13.030662177926988, 0.518313770802]}, {"species": [{"element": "C", "occu": 1}], "abc": [0.727063999999999, 0.493843, 0.037182], "properties": {"magmom": -0.0}, "label": "C", "xyz": [7.90650836247999, 6.474967677927, 0.518313770802]}, {"species": [{"element": "C", "occu": 1}], "abc": [0.227064, 0.006157, 0.962818], "properties": {"magmom": -0.0}, "label": "C", "xyz": [2.4692233624799997, 0.08072682207300001, 13.421597229198]}, {"species": [{"element": "C", "occu": 1}], "abc": [0.727063999999999, 0.006157, 0.537181999999999], "properties": {"magmom": -0.0}, "label": "C", "xyz": [7.90650836247999, 0.08072682207300001, 7.488269270801987]}, {"species": [{"element": "C", "occu": 1}], "abc": [0.272936, 0.993842999999999, 0.46281799999999906], "properties": {"magmom": -0.0}, "label": "C", "xyz": [2.9680616375200004, 13.030662177926988, 6.451641729197987]}, {"species": [{"element": "C", "occu": 1}], "abc": [0.127292, 0.245866, 0.281248], "properties": {"magmom": -0.0}, "label": "C", "xyz": [1.38424576444, 3.223644767874, 3.920572088928]}, {"species": [{"element": "C", "occu": 1}], "abc": [0.872707999999999, 0.754134, 0.718752], "properties": {"magmom": -0.0}, "label": "C", "xyz": [9.49032423555999, 9.887744232126, 10.019338911072]}, {"species": [{"element": "C", "occu": 1}], "abc": [0.372708, 0.754134, 0.781247999999999], "properties": {"magmom": -0.0}, "label": "C", "xyz": [4.05303923556, 9.887744232126, 10.890527588927988]}, {"species": [{"element": "C", "occu": 1}], "abc": [0.872707999999999, 0.745865999999999, 0.218752], "properties": {"magmom": -0.0}, "label": "C", "xyz": [9.49032423555999, 9.779339267873988, 3.049383411072]}, {"species": [{"element": "C", "occu": 1}], "abc": [0.627292, 0.245866, 0.218752], "properties": {"magmom": -0.0}, "label": "C", "xyz": [6.821530764439999, 3.223644767874, 3.049383411072]}, {"species": [{"element": "C", "occu": 1}], "abc": [0.127292, 0.254133999999999, 0.781247999999999], "properties": {"magmom": -0.0}, "label": "C", "xyz": [1.38424576444, 3.3320497321259874, 10.890527588927988]}, {"species": [{"element": "C", "occu": 1}], "abc": [0.627292, 0.254133999999999, 0.718752], "properties": {"magmom": -0.0}, "label": "C", "xyz": [6.821530764439999, 3.3320497321259874, 10.019338911072]}, {"species": [{"element": "C", "occu": 1}], "abc": [0.372708, 0.745865999999999, 0.281248], "properties": {"magmom": -0.0}, "label": "C", "xyz": [4.05303923556, 9.779339267873988, 3.920572088928]}, {"species": [{"element": "C", "occu": 1}], "abc": [0.354136, 0.299527999999999, 0.496451], "properties": {"magmom": 0.0}, "label": "C", "xyz": [3.85107672152, 3.9272281243919873, 6.920482755861]}, {"species": [{"element": "C", "occu": 1}], "abc": [0.645864, 0.700472, 0.503549], "properties": {"magmom": -0.0}, "label": "C", "xyz": [7.02349327848, 9.184160875608, 7.019428244139]}, {"species": [{"element": "C", "occu": 1}], "abc": [0.145864, 0.700472, 0.996451], "properties": {"magmom": -0.0}, "label": "C", "xyz": [1.58620827848, 9.184160875608, 13.890438255861]}, {"species": [{"element": "C", "occu": 1}], "abc": [0.645864, 0.799528, 0.0035489999999990004], "properties": {"magmom": -0.0}, "label": "C", "xyz": [7.02349327848, 10.482922624392002, 0.049472744138986065]}, {"species": [{"element": "C", "occu": 1}], "abc": [0.854136, 0.299527999999999, 0.0035489999999990004], "properties": {"magmom": -0.0}, "label": "C", "xyz": [9.288361721520001, 3.9272281243919873, 0.049472744138986065]}, {"species": [{"element": "C", "occu": 1}], "abc": [0.354136, 0.200471999999999, 0.996451], "properties": {"magmom": -0.0}, "label": "C", "xyz": [3.85107672152, 2.6284663756079873, 13.890438255861]}, {"species": [{"element": "C", "occu": 1}], "abc": [0.854136, 0.200471999999999, 0.503549], "properties": {"magmom": -0.0}, "label": "C", "xyz": [9.288361721520001, 2.6284663756079873, 7.019428244139]}, {"species": [{"element": "C", "occu": 1}], "abc": [0.145864, 0.799528, 0.496451], "properties": {"magmom": -0.0}, "label": "C", "xyz": [1.58620827848, 10.482922624392002, 6.920482755861]}, {"species": [{"element": "C", "occu": 1}], "abc": [0.153678999999999, 0.183621999999999, 0.199304999999999], "properties": {"magmom": 0.0}, "label": "C", "xyz": [1.6711930430299893, 2.407539470957987, 2.7782939618549864]}, {"species": [{"element": "C", "occu": 1}], "abc": [0.846321, 0.816377999999999, 0.800694999999999], "properties": {"magmom": 0.0}, "label": "C", "xyz": [9.20337695697, 10.703849529041989, 11.161617038144987]}, {"species": [{"element": "C", "occu": 1}], "abc": [0.346321, 0.816377999999999, 0.699305], "properties": {"magmom": 0.0}, "label": "C", "xyz": [3.76609195697, 10.703849529041989, 9.748249461855]}, {"species": [{"element": "C", "occu": 1}], "abc": [0.846321, 0.683622, 0.300695], "properties": {"magmom": 0.0}, "label": "C", "xyz": [9.20337695697, 8.963233970958, 4.191661538145]}, {"species": [{"element": "C", "occu": 1}], "abc": [0.653679, 0.183621999999999, 0.300695], "properties": {"magmom": 0.0}, "label": "C", "xyz": [7.10847804303, 2.407539470957987, 4.191661538145]}, {"species": [{"element": "C", "occu": 1}], "abc": [0.153678999999999, 0.316378, 0.699305], "properties": {"magmom": 0.0}, "label": "C", "xyz": [1.6711930430299893, 4.148155029042, 9.748249461855]}, {"species": [{"element": "C", "occu": 1}], "abc": [0.653679, 0.316378, 0.800694999999999], "properties": {"magmom": 0.0}, "label": "C", "xyz": [7.10847804303, 4.148155029042, 11.161617038144987]}, {"species": [{"element": "C", "occu": 1}], "abc": [0.346321, 0.683622, 0.199304999999999], "properties": {"magmom": 0.0}, "label": "C", "xyz": [3.76609195697, 8.963233970958, 2.7782939618549864]}, {"species": [{"element": "C", "occu": 1}], "abc": [0.507312, 0.048019, 0.248771], "properties": {"magmom": -0.0}, "label": "C", "xyz": [5.5167998558399995, 0.629595788391, 3.467845599381]}, {"species": [{"element": "C", "occu": 1}], "abc": [0.492687999999999, 0.951981, 0.751228999999999], "properties": {"magmom": -0.0}, "label": "C", "xyz": [5.357770144159989, 12.481793211609, 10.472065400618987]}, {"species": [{"element": "C", "occu": 1}], "abc": [0.9926879999999991, 0.951981, 0.748771], "properties": {"magmom": -0.0}, "label": "C", "xyz": [10.79505514415999, 12.481793211609, 10.437801099381]}, {"species": [{"element": "C", "occu": 1}], "abc": [0.492687999999999, 0.548018999999999, 0.251229], "properties": {"magmom": -0.0}, "label": "C", "xyz": [5.357770144159989, 7.185290288390988, 3.5021099006189997]}, {"species": [{"element": "C", "occu": 1}], "abc": [0.007312, 0.048019, 0.251229], "properties": {"magmom": -0.0}, "label": "C", "xyz": [0.07951485584, 0.629595788391, 3.5021099006189997]}, {"species": [{"element": "C", "occu": 1}], "abc": [0.507312, 0.451980999999999, 0.748771], "properties": {"magmom": -0.0}, "label": "C", "xyz": [5.5167998558399995, 5.926098711608987, 10.437801099381]}, {"species": [{"element": "C", "occu": 1}], "abc": [0.007312, 0.451980999999999, 0.751228999999999], "properties": {"magmom": -0.0}, "label": "C", "xyz": [0.07951485584, 5.926098711608987, 10.472065400618987]}, {"species": [{"element": "C", "occu": 1}], "abc": [0.9926879999999991, 0.548018999999999, 0.248771], "properties": {"magmom": -0.0}, "label": "C", "xyz": [10.79505514415999, 7.185290288390988, 3.467845599381]}, {"species": [{"element": "C", "occu": 1}], "abc": [0.261995, 0.162886, 0.0608], "properties": {"magmom": 0.0}, "label": "C", "xyz": [2.8490829671499998, 2.135661708654, 0.8475465888]}, {"species": [{"element": "C", "occu": 1}], "abc": [0.738005, 0.837113999999999, 0.9392], "properties": {"magmom": 0.0}, "label": "C", "xyz": [8.02548703285, 10.975727291345988, 13.0923644112]}, {"species": [{"element": "C", "occu": 1}], "abc": [0.238005, 0.837113999999999, 0.5608000000000001], "properties": {"magmom": 0.0}, "label": "C", "xyz": [2.58820203285, 10.975727291345988, 7.817502088800001]}, {"species": [{"element": "C", "occu": 1}], "abc": [0.738005, 0.662886, 0.43920000000000003], "properties": {"magmom": 0.0}, "label": "C", "xyz": [8.02548703285, 8.691356208654, 6.122408911200001]}, {"species": [{"element": "C", "occu": 1}], "abc": [0.761995, 0.162886, 0.43920000000000003], "properties": {"magmom": 0.0}, "label": "C", "xyz": [8.28636796715, 2.135661708654, 6.122408911200001]}, {"species": [{"element": "C", "occu": 1}], "abc": [0.261995, 0.337113999999999, 0.5608000000000001], "properties": {"magmom": 0.0}, "label": "C", "xyz": [2.8490829671499998, 4.420032791345988, 7.817502088800001]}, {"species": [{"element": "C", "occu": 1}], "abc": [0.761995, 0.337113999999999, 0.9392], "properties": {"magmom": 0.0}, "label": "C", "xyz": [8.28636796715, 4.420032791345988, 13.0923644112]}, {"species": [{"element": "C", "occu": 1}], "abc": [0.238005, 0.662886, 0.0608], "properties": {"magmom": 0.0}, "label": "C", "xyz": [2.58820203285, 8.691356208654, 0.8475465888]}, {"species": [{"element": "N", "occu": 1}], "abc": [0.430245999999999, 0.269038, 0.444837], "properties": {"magmom": 0.0}, "label": "N", "xyz": [4.6787402442199895, 3.5274618737820003, 6.200988189507]}, {"species": [{"element": "N", "occu": 1}], "abc": [0.569754, 0.730962, 0.555163], "properties": {"magmom": 0.0}, "label": "N", "xyz": [6.19582975578, 9.583927126218, 7.7389228104929995]}, {"species": [{"element": "N", "occu": 1}], "abc": [0.069754, 0.730962, 0.944836999999999], "properties": {"magmom": 0.0}, "label": "N", "xyz": [0.75854475578, 9.583927126218, 13.170943689506988]}, {"species": [{"element": "N", "occu": 1}], "abc": [0.569754, 0.769038, 0.055163], "properties": {"magmom": 0.0}, "label": "N", "xyz": [6.19582975578, 10.083156373782, 0.7689673104929999]}, {"species": [{"element": "N", "occu": 1}], "abc": [0.930245999999999, 0.269038, 0.055163], "properties": {"magmom": 0.0}, "label": "N", "xyz": [10.116025244219989, 3.5274618737820003, 0.7689673104929999]}, {"species": [{"element": "N", "occu": 1}], "abc": [0.430245999999999, 0.230962, 0.944836999999999], "properties": {"magmom": 0.0}, "label": "N", "xyz": [4.6787402442199895, 3.028232626218, 13.170943689506988]}, {"species": [{"element": "N", "occu": 1}], "abc": [0.930245999999999, 0.230962, 0.555163], "properties": {"magmom": 0.0}, "label": "N", "xyz": [10.116025244219989, 3.028232626218, 7.7389228104929995]}, {"species": [{"element": "N", "occu": 1}], "abc": [0.069754, 0.769038, 0.444837], "properties": {"magmom": 0.0}, "label": "N", "xyz": [0.75854475578, 10.083156373782, 6.200988189507]}, {"species": [{"element": "N", "occu": 1}], "abc": [0.117906, 0.031977, 0.106319], "properties": {"magmom": 0.0}, "label": "N", "xyz": [1.28217705042, 0.419262886053, 1.482077397609]}, {"species": [{"element": "N", "occu": 1}], "abc": [0.882093999999999, 0.968023, 0.893681], "properties": {"magmom": 0.0}, "label": "N", "xyz": [9.59239294957999, 12.692126113947001, 12.457833602391]}, {"species": [{"element": "N", "occu": 1}], "abc": [0.382094, 0.968023, 0.606318999999999], "properties": {"magmom": 0.0}, "label": "N", "xyz": [4.15510794958, 12.692126113947001, 8.452032897608987]}, {"species": [{"element": "N", "occu": 1}], "abc": [0.882093999999999, 0.531976999999999, 0.393681], "properties": {"magmom": 0.0}, "label": "N", "xyz": [9.59239294957999, 6.974957386052988, 5.487878102391]}, {"species": [{"element": "N", "occu": 1}], "abc": [0.617906, 0.031977, 0.393681], "properties": {"magmom": 0.0}, "label": "N", "xyz": [6.71946205042, 0.419262886053, 5.487878102391]}, {"species": [{"element": "N", "occu": 1}], "abc": [0.117906, 0.468022999999999, 0.606318999999999], "properties": {"magmom": 0.0}, "label": "N", "xyz": [1.28217705042, 6.136431613946987, 8.452032897608987]}, {"species": [{"element": "N", "occu": 1}], "abc": [0.617906, 0.468022999999999, 0.893681], "properties": {"magmom": 0.0}, "label": "N", "xyz": [6.71946205042, 6.136431613946987, 12.457833602391]}, {"species": [{"element": "N", "occu": 1}], "abc": [0.382094, 0.531976999999999, 0.106319], "properties": {"magmom": 0.0}, "label": "N", "xyz": [4.15510794958, 6.974957386052988, 1.482077397609]}, {"species": [{"element": "N", "occu": 1}], "abc": [0.435718999999999, 0.015854999999999002, 0.194179], "properties": {"magmom": -0.0}, "label": "N", "xyz": [4.7382567658299894, 0.20788107259498692, 2.7068379780689997]}, {"species": [{"element": "N", "occu": 1}], "abc": [0.564280999999999, 0.984144999999999, 0.805821], "properties": {"magmom": -0.0}, "label": "N", "xyz": [6.1363132341699895, 12.903507927404988, 11.233073021931]}, {"species": [{"element": "N", "occu": 1}], "abc": [0.064280999999999, 0.984144999999999, 0.694179], "properties": {"magmom": -0.0}, "label": "N", "xyz": [0.6990282341699892, 12.903507927404988, 9.676793478069]}, {"species": [{"element": "N", "occu": 1}], "abc": [0.564280999999999, 0.515855, 0.305821], "properties": {"magmom": -0.0}, "label": "N", "xyz": [6.1363132341699895, 6.763575572595, 4.263117521931]}, {"species": [{"element": "N", "occu": 1}], "abc": [0.935719, 0.015854999999999002, 0.305821], "properties": {"magmom": -0.0}, "label": "N", "xyz": [10.17554176583, 0.20788107259498692, 4.263117521931]}, {"species": [{"element": "N", "occu": 1}], "abc": [0.435718999999999, 0.484145, 0.694179], "properties": {"magmom": -0.0}, "label": "N", "xyz": [4.7382567658299894, 6.347813427405001, 9.676793478069]}, {"species": [{"element": "N", "occu": 1}], "abc": [0.935719, 0.484145, 0.805821], "properties": {"magmom": -0.0}, "label": "N", "xyz": [10.17554176583, 6.347813427405001, 11.233073021931]}, {"species": [{"element": "N", "occu": 1}], "abc": [0.064280999999999, 0.515855, 0.194179], "properties": {"magmom": -0.0}, "label": "N", "xyz": [0.6990282341699892, 6.763575572595, 2.7068379780689997]}, {"species": [{"element": "N", "occu": 1}], "abc": [0.237126999999999, 0.220005999999999, 0.137791], "properties": {"magmom": 0.0}, "label": "N", "xyz": [2.578654160389989, 2.884584248333987, 1.920794276601]}, {"species": [{"element": "N", "occu": 1}], "abc": [0.762872999999999, 0.779994, 0.862209], "properties": {"magmom": 0.0}, "label": "N", "xyz": [8.29591583960999, 10.226804751666, 12.019116723399]}, {"species": [{"element": "N", "occu": 1}], "abc": [0.262872999999999, 0.779994, 0.637791], "properties": {"magmom": 0.0}, "label": "N", "xyz": [2.8586308396099893, 10.226804751666, 8.890749776601]}, {"species": [{"element": "N", "occu": 1}], "abc": [0.762872999999999, 0.720005999999999, 0.362209], "properties": {"magmom": 0.0}, "label": "N", "xyz": [8.29591583960999, 9.440278748333988, 5.049161223399]}, {"species": [{"element": "N", "occu": 1}], "abc": [0.737127, 0.220005999999999, 0.362209], "properties": {"magmom": 0.0}, "label": "N", "xyz": [8.01593916039, 2.884584248333987, 5.049161223399]}, {"species": [{"element": "N", "occu": 1}], "abc": [0.237126999999999, 0.279993999999999, 0.637791], "properties": {"magmom": 0.0}, "label": "N", "xyz": [2.578654160389989, 3.6711102516659873, 8.890749776601]}, {"species": [{"element": "N", "occu": 1}], "abc": [0.737127, 0.279993999999999, 0.862209], "properties": {"magmom": 0.0}, "label": "N", "xyz": [8.01593916039, 3.6711102516659873, 12.019116723399]}, {"species": [{"element": "N", "occu": 1}], "abc": [0.262872999999999, 0.720005999999999, 0.137791], "properties": {"magmom": 0.0}, "label": "N", "xyz": [2.8586308396099893, 9.440278748333988, 1.920794276601]}, {"species": [{"element": "N", "occu": 1}], "abc": [0.105541, 0.295943, 0.348201], "properties": {"magmom": 0.0}, "label": "N", "xyz": [1.14771299237, 3.880223794827, 4.8538909501109995]}, {"species": [{"element": "N", "occu": 1}], "abc": [0.894459, 0.704056999999999, 0.651799], "properties": {"magmom": 0.0}, "label": "N", "xyz": [9.72685700763, 9.231165205172989, 9.086020049889001]}, {"species": [{"element": "N", "occu": 1}], "abc": [0.394459, 0.704056999999999, 0.848201], "properties": {"magmom": 0.0}, "label": "N", "xyz": [4.28957200763, 9.231165205172989, 11.823846450111]}, {"species": [{"element": "N", "occu": 1}], "abc": [0.894459, 0.795943, 0.151799], "properties": {"magmom": 0.0}, "label": "N", "xyz": [9.72685700763, 10.435918294827, 2.116064549889]}, {"species": [{"element": "N", "occu": 1}], "abc": [0.605541, 0.295943, 0.151799], "properties": {"magmom": 0.0}, "label": "N", "xyz": [6.58499799237, 3.880223794827, 2.116064549889]}, {"species": [{"element": "N", "occu": 1}], "abc": [0.105541, 0.204057, 0.848201], "properties": {"magmom": 0.0}, "label": "N", "xyz": [1.14771299237, 2.6754707051730002, 11.823846450111]}, {"species": [{"element": "N", "occu": 1}], "abc": [0.605541, 0.204057, 0.651799], "properties": {"magmom": 0.0}, "label": "N", "xyz": [6.58499799237, 2.6754707051730002, 9.086020049889001]}, {"species": [{"element": "N", "occu": 1}], "abc": [0.394459, 0.795943, 0.348201], "properties": {"magmom": 0.0}, "label": "N", "xyz": [4.28957200763, 10.435918294827, 4.8538909501109995]}, {"species": [{"element": "N", "occu": 1}], "abc": [0.249205999999999, 0.045340000000000005, 0.397107], "properties": {"magmom": 0.0}, "label": "N", "xyz": [2.710008091419989, 0.5944703772600001, 5.535636237477]}, {"species": [{"element": "N", "occu": 1}], "abc": [0.750794, 0.9546600000000001, 0.602893], "properties": {"magmom": 0.0}, "label": "N", "xyz": [8.16456190858, 12.516918622740002, 8.404274762523]}, {"species": [{"element": "N", "occu": 1}], "abc": [0.250793999999999, 0.9546600000000001, 0.897107], "properties": {"magmom": 0.0}, "label": "N", "xyz": [2.7272769085799893, 12.516918622740002, 12.505591737477]}, {"species": [{"element": "N", "occu": 1}], "abc": [0.750794, 0.54534, 0.102893], "properties": {"magmom": 0.0}, "label": "N", "xyz": [8.16456190858, 7.150164877260001, 1.4343192625230001]}, {"species": [{"element": "N", "occu": 1}], "abc": [0.749205999999999, 0.045340000000000005, 0.102893], "properties": {"magmom": 0.0}, "label": "N", "xyz": [8.14729309141999, 0.5944703772600001, 1.4343192625230001]}, {"species": [{"element": "N", "occu": 1}], "abc": [0.249205999999999, 0.45466000000000006, 0.897107], "properties": {"magmom": 0.0}, "label": "N", "xyz": [2.710008091419989, 5.961224122740001, 12.505591737477]}, {"species": [{"element": "N", "occu": 1}], "abc": [0.749205999999999, 0.45466000000000006, 0.602893], "properties": {"magmom": 0.0}, "label": "N", "xyz": [8.14729309141999, 5.961224122740001, 8.404274762523]}, {"species": [{"element": "N", "occu": 1}], "abc": [0.250793999999999, 0.54534, 0.397107], "properties": {"magmom": 0.0}, "label": "N", "xyz": [2.7272769085799893, 7.150164877260001, 5.535636237477]}]}, "task_ids": null, "uncorrected_energy_per_atom": null, "energy_per_atom": -8.495575661517858, "formation_energy_per_atom": 0.35149508205357005, "energy_above_hull": 0.35149508205356905, "is_stable": false, "equilibrium_reaction_energy_per_atom": null, "decomposes_to": null, "xas": null, "grain_boundaries": null, "band_gap": 2.8879, "cbm": null, "vbm": null, "efermi": -3.14156185, "is_gap_direct": null, "is_metal": null, "es_source_calc_id": null, "bandstructure": null, "dos": null, "dos_energy_up": null, "dos_energy_down": null, "is_magnetic": null, "ordering": null, "total_magnetization": 0.000146, "total_magnetization_normalized_vol": null, "total_magnetization_normalized_formula_units": null, "num_magnetic_sites": null, "num_unique_magnetic_sites": null, "types_of_magnetic_species": null, "bulk_modulus": null, "shear_modulus": null, "universal_anisotropy": null, "homogeneous_poisson": null, "e_total": null, "e_ionic": null, "e_electronic": null, "n": null, "e_ij_max": null, "weighted_surface_energy_EV_PER_ANG2": null, "weighted_surface_energy": null, "weighted_work_function": null, "surface_anisotropy": null, "shape_factor": null, "has_reconstructed": null, "possible_species": null, "has_props": null, "theoretical": null, "database_IDs": null, "fields_not_requested": ["builder_meta", "nsites", "elements", "nelements", "composition", "composition_reduced", "chemsys", "symmetry", "property_name", "deprecated", "deprecation_reasons", "last_updated", "origins", "warnings", "task_ids", "uncorrected_energy_per_atom", "equilibrium_reaction_energy_per_atom", "decomposes_to", "xas", "grain_boundaries", "cbm", "vbm", "is_gap_direct", "is_metal", "es_source_calc_id", "bandstructure", "dos", "dos_energy_up", "dos_energy_down", "is_magnetic", "ordering", "total_magnetization_normalized_vol", "total_magnetization_normalized_formula_units", "num_magnetic_sites", "num_unique_magnetic_sites", "types_of_magnetic_species", "bulk_modulus", "shear_modulus", "universal_anisotropy", "homogeneous_poisson", "e_total", "e_ionic", "e_electronic", "n", "e_ij_max", "weighted_surface_energy_EV_PER_ANG2", "weighted_surface_energy", "weighted_work_function", "surface_anisotropy", "shape_factor", "has_reconstructed", "possible_species", "has_props", "theoretical", "database_IDs"]}