{"builder_meta": null, "nsites": null, "elements": null, "nelements": null, "composition": null, "composition_reduced": null, "formula_pretty": "C4O3", "formula_anonymous": "A3B4", "chemsys": null, "volume": 1155.7353765805362, "density": 1.655879043528273, "density_atomic": 13.758754483101622, "symmetry": null, "property_name": null, "material_id": "mp-1001594", "deprecated": null, "deprecation_reasons": null, "last_updated": null, "origins": null, "warnings": null, "structure": {"@module": "pymatgen.core.structure", "@class": "Structure", "charge": 0, "lattice": {"matrix": [[7.414046, -7.42713, 0.0], [7.414046, 7.42713, 0.0], [-0.026191, 0.0, 10.494267]], "pbc": [true, true, true], "a": 10.494300268575127, "b": 10.494300268575127, "c": 10.494299682959793, "alpha": 90.10102369891628, "beta": 90.10102369891628, "gamma": 90.10102404080818, "volume": 1155.7353765805362}, "properties": {}, "sites": [{"species": [{"element": "C", "occu": 1}], "abc": [0.514686, 0.198277999999999, 0.618105], "properties": {"magmom": 0.0}, "label": "C", "xyz": [5.269759104288993, -2.3500033490400067, 6.486558904035]}, {"species": [{"element": "C", "occu": 1}], "abc": [0.198277999999999, 0.618105, 0.514686], "properties": {"magmom": 0.0}, "label": "C", "xyz": [6.039220974591993, 3.1181097065100074, 5.401252305162]}, {"species": [{"element": "C", "occu": 1}], "abc": [0.618105, 0.514686, 0.198277999999999], "properties": {"magmom": -0.0}, "label": "C", "xyz": [8.393371483288002, -0.7681063574700002, 2.08078227222599]}, {"species": [{"element": "C", "occu": 1}], "abc": [0.419468, 0.30277000000000004, 0.609733], "properties": {"magmom": 0.0}, "label": "C", "xyz": [5.3387362379450005, -0.8667312167399999, 6.398700900711]}, {"species": [{"element": "C", "occu": 1}], "abc": [0.30277000000000004, 0.609733, 0.419468], "properties": {"magmom": 0.0}, "label": "C", "xyz": [6.754352930749999, 2.2798541061899993, 4.402009189956001]}, {"species": [{"element": "C", "occu": 1}], "abc": [0.609733, 0.419468, 0.30277000000000004], "properties": {"magmom": 0.0}, "label": "C", "xyz": [7.622613708176, -1.4131228894499994, 3.177349219590001]}, {"species": [{"element": "C", "occu": 1}], "abc": [0.17709000000000003, 0.992433999999999, 0.115502], "properties": {"magmom": 0.0}, "label": "C", "xyz": [8.667879621221992, 6.0556658827199925, 1.212108827034]}, {"species": [{"element": "C", "occu": 1}], "abc": [0.992433999999999, 0.115502, 0.17709000000000003], "properties": {"magmom": 0.0}, "label": "C", "xyz": [8.209650304865992, -6.513087965159992, 1.8584297430300003]}, {"species": [{"element": "C", "occu": 1}], "abc": [0.115502, 0.17709000000000003, 0.992433999999999], "properties": {"magmom": 0.0}, "label": "C", "xyz": [2.1432977083380003, 0.45742208244000027, 10.414867375877991]}, {"species": [{"element": "C", "occu": 1}], "abc": [0.238727, 0.870795, 0.153986999999999], "properties": {"magmom": -0.0}, "label": "C", "xyz": [8.222014072495, 4.69445120484, 1.6159806925289897]}, {"species": [{"element": "C", "occu": 1}], "abc": [0.870795, 0.153986999999999, 0.238727], "properties": {"magmom": -0.0}, "label": "C", "xyz": [7.591528389114993, -5.323826201040007, 2.505264878109]}, {"species": [{"element": "C", "occu": 1}], "abc": [0.153986999999999, 0.238727, 0.870795], "properties": {"magmom": -0.0}, "label": "C", "xyz": [2.8887926689989927, 0.6293749962000073, 9.138355232265]}, {"species": [{"element": "C", "occu": 1}], "abc": [0.678611, 0.699060999999999, 0.074181], "properties": {"magmom": 0.0}, "label": "C", "xyz": [10.212180706340993, 0.15188480849999308, 0.778475220327]}, {"species": [{"element": "C", "occu": 1}], "abc": [0.699060999999999, 0.074181, 0.678611], "properties": {"magmom": 0.0}, "label": "C", "xyz": [5.715078256430993, -4.641064994399993, 7.121525023137]}, {"species": [{"element": "C", "occu": 1}], "abc": [0.074181, 0.678611, 0.699060999999999], "properties": {"magmom": 0.0}, "label": "C", "xyz": [5.562925409780999, 4.4891801859, 7.33613278328699]}, {"species": [{"element": "C", "occu": 1}], "abc": [0.774702, 0.803118, 0.081762], "properties": {"magmom": 0.0}, "label": "C", "xyz": [11.695888631178, 0.2110493260799995, 0.8580322584540001]}, {"species": [{"element": "C", "occu": 1}], "abc": [0.803118, 0.081762, 0.774702], "properties": {"magmom": 0.0}, "label": "C", "xyz": [6.540250804398, -5.35760478828, 8.129929633434001]}, {"species": [{"element": "C", "occu": 1}], "abc": [0.081762, 0.774702, 0.803118], "properties": {"magmom": 0.0}, "label": "C", "xyz": [6.328829029805999, 5.1465554622, 8.428134724506]}, {"species": [{"element": "C", "occu": 1}], "abc": [0.013477, 0.49406000000000005, 0.574855999999999], "properties": {"magmom": 0.0}, "label": "C", "xyz": [3.7478466112060005, 3.56935241679, 6.03269235055199]}, {"species": [{"element": "C", "occu": 1}], "abc": [0.49406000000000005, 0.574855999999999, 0.013477], "properties": {"magmom": 0.0}, "label": "C", "xyz": [7.924639418028993, 0.6000823954799928, 0.141431236359]}, {"species": [{"element": "C", "occu": 1}], "abc": [0.574855999999999, 0.013477, 0.49406000000000005], "properties": {"magmom": 0.0}, "label": "C", "xyz": [4.348987999857993, -4.169434812269993, 5.184797554020001]}, {"species": [{"element": "C", "occu": 1}], "abc": [0.917659, 0.389712, 0.582394], "properties": {"magmom": 0.0}, "label": "C", "xyz": [9.677655251812, -3.9211310021099997, 6.111798135198]}, {"species": [{"element": "C", "occu": 1}], "abc": [0.389712, 0.582394, 0.917659], "properties": {"magmom": -0.0}, "label": "C", "xyz": [7.183204194007, 1.4310742626599997, 9.630158560953001]}, {"species": [{"element": "C", "occu": 1}], "abc": [0.582394, 0.917659, 0.389712], "properties": {"magmom": -0.0}, "label": "C", "xyz": [11.111254997446, 2.49005673945, 4.089741781104]}, {"species": [{"element": "C", "occu": 1}], "abc": [0.677368, 0.991923999999999, 0.576558999999999], "properties": {"magmom": -0.0}, "label": "C", "xyz": [12.361107018662992, 2.3362483042799926, 6.05056408725299]}, {"species": [{"element": "C", "occu": 1}], "abc": [0.991923999999999, 0.576558999999999, 0.677368], "properties": {"magmom": -0.0}, "label": "C", "xyz": [11.611064166929985, -3.0849698524499996, 7.108480649256]}, {"species": [{"element": "C", "occu": 1}], "abc": [0.576558999999999, 0.677368, 0.991923999999999], "properties": {"magmom": -0.0}, "label": "C", "xyz": [9.270692977157992, 0.7487215481700069, 10.40951529970799]}, {"species": [{"element": "C", "occu": 1}], "abc": [0.740078, 0.871227, 0.536629], "properties": {"magmom": 0.0}, "label": "C", "xyz": [11.932234539890999, 0.9740606723700003, 5.631528005943]}, {"species": [{"element": "C", "occu": 1}], "abc": [0.871227, 0.536629, 0.740078], "properties": {"magmom": 0.0}, "label": "C", "xyz": [10.418525762478, -2.48510284374, 7.766576132826001]}, {"species": [{"element": "C", "occu": 1}], "abc": [0.536629, 0.740078, 0.871227], "properties": {"magmom": 0.0}, "label": "C", "xyz": [9.442746120165001, 1.5110421713699997, 9.142888755609]}, {"species": [{"element": "C", "occu": 1}], "abc": [0.014216999999999001, 0.198729, 0.075295], "properties": {"magmom": 0.0}, "label": "C", "xyz": [1.5768193881709927, 1.3703946105600073, 0.790165833765]}, {"species": [{"element": "C", "occu": 1}], "abc": [0.198729, 0.075295, 0.014216999999999001], "properties": {"magmom": 0.0}, "label": "C", "xyz": [2.031254183657, -0.91676036442, 0.14919699393898952]}, {"species": [{"element": "C", "occu": 1}], "abc": [0.075295, 0.014216999999999001, 0.198729], "properties": {"magmom": 0.0}, "label": "C", "xyz": [0.6584411743129925, -0.45363424614000747, 2.085515186643]}, {"species": [{"element": "C", "occu": 1}], "abc": [0.918545, 0.30282000000000003, 0.083814], "properties": {"magmom": 0.0}, "label": "C", "xyz": [9.053061120316, -4.573069619249999, 0.879566494338]}, {"species": [{"element": "C", "occu": 1}], "abc": [0.30282000000000003, 0.083814, 0.918545], "properties": {"magmom": 0.0}, "label": "C", "xyz": [2.8424646490690004, -1.6265860327800004, 9.639456481515]}, {"species": [{"element": "C", "occu": 1}], "abc": [0.083814, 0.918545, 0.30282000000000003], "properties": {"magmom": 0.0}, "label": "C", "xyz": [7.423604575894, 6.19965565203, 3.1778739329400008]}, {"species": [{"element": "C", "occu": 1}], "abc": [0.516075, 0.4924, 0.115065], "properties": {"magmom": -0.0}, "label": "C", "xyz": [7.473866372435, -0.1758373027499993, 1.207522832355]}, {"species": [{"element": "C", "occu": 1}], "abc": [0.4924, 0.115065, 0.516075], "properties": {"magmom": -0.0}, "label": "C", "xyz": [4.490256933065, -2.80251609855, 5.415828842025]}, {"species": [{"element": "C", "occu": 1}], "abc": [0.115065, 0.516075, 0.4924], "properties": {"magmom": -0.0}, "label": "C", "xyz": [4.66640454404, 2.9783534012999997, 5.167377070800001]}, {"species": [{"element": "C", "occu": 1}], "abc": [0.45331899999999903, 0.371591, 0.154347999999999], "properties": {"magmom": 0.0}, "label": "C", "xyz": [6.111878157391993, -0.6070044806399926, 1.6197691229159898]}, {"species": [{"element": "C", "occu": 1}], "abc": [0.371591, 0.154347999999999, 0.45331899999999903], "properties": {"magmom": 0.0}, "label": "C", "xyz": [3.8874630612649925, -1.6134920025900075, 4.75725062217299]}, {"species": [{"element": "C", "occu": 1}], "abc": [0.154347999999999, 0.45331899999999903, 0.371591], "properties": {"magmom": 0.0}, "label": "C", "xyz": [4.495538750800985, 2.22049648323, 3.8995751687970004]}, {"species": [{"element": "C", "occu": 1}], "abc": [0.175952, 0.701122999999999, 0.616058], "properties": {"magmom": -0.0}, "label": "C", "xyz": [6.486539220371993, 3.900513289229993, 6.4650771394860005]}, {"species": [{"element": "C", "occu": 1}], "abc": [0.701122999999999, 0.616058, 0.175952], "properties": {"magmom": -0.0}, "label": "C", "xyz": [9.761032165493992, -0.6317888134499929, 1.846487267184]}, {"species": [{"element": "C", "occu": 1}], "abc": [0.616058, 0.175952, 0.701122999999999], "properties": {"magmom": -0.0}, "label": "C", "xyz": [5.853635459966999, -3.26872447578, 7.3577719618409905]}, {"species": [{"element": "C", "occu": 1}], "abc": [0.237728, 0.822687, 0.655337], "properties": {"magmom": 0.0}, "label": "C", "xyz": [7.844801657723, 4.34456653767, 6.877281452979]}, {"species": [{"element": "C", "occu": 1}], "abc": [0.822687, 0.655337, 0.237728], "properties": {"magmom": 0.0}, "label": "C", "xyz": [10.951911591056, -1.2429302054999996, 2.494781105376]}, {"species": [{"element": "C", "occu": 1}], "abc": [0.655337, 0.237728, 0.822687], "properties": {"magmom": 0.0}, "label": "C", "xyz": [6.599677995772999, -3.10163633217, 8.633497035429]}, {"species": [{"element": "O", "occu": 1}], "abc": [0.332810999999999, 0.268018, 0.513042], "properties": {"magmom": -0.0}, "label": "O", "xyz": [4.441136761111993, -0.48122603408999276, 5.383999730214001]}, {"species": [{"element": "O", "occu": 1}], "abc": [0.268018, 0.513042, 0.332810999999999], "properties": {"magmom": -0.0}, "label": "O", "xyz": [5.782098115859, 1.8198251011200004, 3.49260749453699]}, {"species": [{"element": "O", "occu": 1}], "abc": [0.513042, 0.332810999999999, 0.268018], "properties": {"magmom": -0.0}, "label": "O", "xyz": [6.264173391799993, -1.3385990670300076, 2.8126524528059997]}, {"species": [{"element": "O", "occu": 1}], "abc": [0.411873999999999, 0.403792, 0.663497], "properties": {"magmom": -0.0}, "label": "O", "xyz": [6.030007594708993, -0.060026064659992606, 6.962914671699001]}, {"species": [{"element": "O", "occu": 1}], "abc": [0.403792, 0.663497, 0.411873999999999], "properties": {"magmom": 0.0}, "label": "O", "xyz": [7.90214234936, 1.9288627966499998, 4.32231572635799]}, {"species": [{"element": "O", "occu": 1}], "abc": [0.663497, 0.411873999999999, 0.403792], "properties": {"magmom": -0.0}, "label": "O", "xyz": [7.962274344793992, -1.8688367319900072, 4.237501060464]}, {"species": [{"element": "O", "occu": 1}], "abc": [0.317795999999999, 0.806314, 0.101814999999999], "properties": {"magmom": -0.0}, "label": "O", "xyz": [8.331536612394993, 3.628286693340007, 1.0684737946049896]}, {"species": [{"element": "O", "occu": 1}], "abc": [0.806314, 0.101814999999999, 0.317795999999999], "properties": {"magmom": -0.0}, "label": "O", "xyz": [6.724586784897992, -5.232405657870006, 3.33503607553199]}, {"species": [{"element": "O", "occu": 1}], "abc": [0.101814999999999, 0.317795999999999, 0.806314], "properties": {"magmom": -0.0}, "label": "O", "xyz": [3.089897086131985, 1.60411896453, 8.461674401838]}, {"species": [{"element": "O", "occu": 1}], "abc": [0.861781999999999, 0.768303, 0.178026], "properties": {"magmom": -0.0}, "label": "O", "xyz": [12.080862494943993, -0.6942806852699928, 1.868252376942]}, {"species": [{"element": "O", "occu": 1}], "abc": [0.768303, 0.178026, 0.861781999999999], "properties": {"magmom": -0.0}, "label": "O", "xyz": [6.993555804771999, -4.38406401501, 9.04377040379399]}, {"species": [{"element": "O", "occu": 1}], "abc": [0.178026, 0.861781999999999, 0.768303], "properties": {"magmom": -0.0}, "label": "O", "xyz": [7.689061719294992, 5.078344700279993, 8.062776818901]}, {"species": [{"element": "O", "occu": 1}], "abc": [0.782176, 0.903821, 0.027891], "properties": {"magmom": -0.0}, "label": "O", "xyz": [12.499328820680999, 0.9034732288500003, 0.29269560089700003]}, {"species": [{"element": "O", "occu": 1}], "abc": [0.903821, 0.027891, 0.782176], "properties": {"magmom": -0.0}, "label": "O", "xyz": [6.887269655136, -6.5056459809, 8.208363784992]}, {"species": [{"element": "O", "occu": 1}], "abc": [0.027891, 0.782176, 0.903821], "properties": {"magmom": -0.0}, "label": "O", "xyz": [5.9822020252709995, 5.6021727520499995, 9.484938894207]}, {"species": [{"element": "O", "occu": 1}], "abc": [0.832272999999999, 0.423126, 0.679991], "properties": {"magmom": -0.0}, "label": "O", "xyz": [9.289776290072993, -3.0387879581099932, 7.136007111597]}, {"species": [{"element": "O", "occu": 1}], "abc": [0.423126, 0.679991, 0.832272999999999], "properties": {"magmom": -0.0}, "label": "O", "xyz": [8.156762119239, 1.9077697474500006, 8.73409507889099]}, {"species": [{"element": "O", "occu": 1}], "abc": [0.679991, 0.832272999999999, 0.423126], "properties": {"magmom": -0.0}, "label": "O", "xyz": [11.200912767077993, 1.1310182106599926, 4.440397218642]}, {"species": [{"element": "O", "occu": 1}], "abc": [0.909377999999999, 0.289786, 0.526691], "properties": {"magmom": 0.0}, "label": "O", "xyz": [8.876862493562992, -4.601790330959993, 5.527235980497]}, {"species": [{"element": "O", "occu": 1}], "abc": [0.289786, 0.526691, 0.909377999999999], "properties": {"magmom": 0.0}, "label": "O", "xyz": [6.029580516743999, 1.7595242326500005, 9.54325553592599]}, {"species": [{"element": "O", "occu": 1}], "abc": [0.526691, 0.909377999999999, 0.289786], "properties": {"magmom": 0.0}, "label": "O", "xyz": [10.639491840047993, 2.842266098309992, 3.041091656862]}, {"species": [{"element": "O", "occu": 1}], "abc": [0.821746, 0.808456, 0.586565], "properties": {"magmom": -0.0}, "label": "O", "xyz": [12.071029893376998, -0.09870655769999992, 6.155569722855001]}, {"species": [{"element": "O", "occu": 1}], "abc": [0.808456, 0.586565, 0.821746], "properties": {"magmom": -0.0}, "label": "O", "xyz": [10.321227515479999, -1.64801330283, 8.623621930182]}, {"species": [{"element": "O", "occu": 1}], "abc": [0.586565, 0.821746, 0.808456], "properties": {"magmom": -0.0}, "label": "O", "xyz": [10.42010826521, 1.7467198605299998, 8.484153121752]}, {"species": [{"element": "O", "occu": 1}], "abc": [0.832496999999999, 0.268061, 0.18061000000000002], "properties": {"magmom": -0.0}, "label": "O", "xyz": [8.154857281157993, -4.192139548679993, 1.8953695628700002]}, {"species": [{"element": "O", "occu": 1}], "abc": [0.268061, 0.18061000000000002, 0.832496999999999], "properties": {"magmom": -0.0}, "label": "O", "xyz": [3.304663503939, -0.6495099456299998, 8.73644579469899]}, {"species": [{"element": "O", "occu": 1}], "abc": [0.18061000000000002, 0.832496999999999, 0.268061], "properties": {"magmom": -0.0}, "label": "O", "xyz": [7.504201115270993, 4.841649494309992, 2.813103706287]}, {"species": [{"element": "O", "occu": 1}], "abc": [0.909864, 0.402838, 0.028825999999999], "properties": {"magmom": -0.0}, "label": "O", "xyz": [9.731678030526, -3.7657480153800003, 0.30250774054198953]}, {"species": [{"element": "O", "occu": 1}], "abc": [0.402838, 0.028825999999999, 0.909864], "properties": {"magmom": -0.0}, "label": "O", "xyz": [3.1765465045199925, -2.777835745560007, 9.548355749688001]}, {"species": [{"element": "O", "occu": 1}], "abc": [0.028825999999999, 0.909864, 0.402838], "properties": {"magmom": -0.0}, "label": "O", "xyz": [6.948940109681993, 6.543583760940007, 4.227489529746]}, {"species": [{"element": "O", "occu": 1}], "abc": [0.370936999999999, 0.308814, 0.104908], "properties": {"magmom": -0.0}, "label": "O", "xyz": [5.036957537117992, -0.461395596989993, 1.100932562436]}, {"species": [{"element": "O", "occu": 1}], "abc": [0.308814, 0.104908, 0.370936999999999], "properties": {"magmom": -0.0}, "label": "O", "xyz": [3.0576387282449997, -1.5144363697799998, 3.89271191817899]}, {"species": [{"element": "O", "occu": 1}], "abc": [0.104908, 0.370936999999999, 0.308814], "properties": {"magmom": -0.0}, "label": "O", "xyz": [3.5198485713959924, 1.9758319667699928, 3.240776569338]}, {"species": [{"element": "O", "occu": 1}], "abc": [0.319457, 0.885707999999999, 0.60529], "properties": {"magmom": -0.0}, "label": "O", "xyz": [8.919295597199993, 4.205619789629993, 6.35207487243]}, {"species": [{"element": "O", "occu": 1}], "abc": [0.885707999999999, 0.60529, 0.319457], "properties": {"magmom": -0.0}, "label": "O", "xyz": [11.045960859620992, -2.0827009403399934, 3.352467053019]}, {"species": [{"element": "O", "occu": 1}], "abc": [0.60529, 0.319457, 0.885707999999999], "properties": {"magmom": -0.0}, "label": "O", "xyz": [6.832919218134, -2.1229188492899995, 9.29485623603599]}]}, "task_ids": null, "uncorrected_energy_per_atom": null, "energy_per_atom": -8.294694413809523, "formation_energy_per_atom": -0.9006165588095241, "energy_above_hull": 0.23691641422619103, "is_stable": false, "equilibrium_reaction_energy_per_atom": null, "decomposes_to": null, "xas": null, "grain_boundaries": null, "band_gap": 2.4613, "cbm": null, "vbm": null, "efermi": -1.574395239999999, "is_gap_direct": null, "is_metal": null, "es_source_calc_id": null, "bandstructure": null, "dos": null, "dos_energy_up": null, "dos_energy_down": null, "is_magnetic": null, "ordering": null, "total_magnetization": 0.0002161, "total_magnetization_normalized_vol": null, "total_magnetization_normalized_formula_units": null, "num_magnetic_sites": null, "num_unique_magnetic_sites": null, "types_of_magnetic_species": null, "bulk_modulus": null, "shear_modulus": null, "universal_anisotropy": null, "homogeneous_poisson": null, "e_total": null, "e_ionic": null, "e_electronic": null, "n": null, "e_ij_max": null, "weighted_surface_energy_EV_PER_ANG2": null, "weighted_surface_energy": null, "weighted_work_function": null, "surface_anisotropy": null, "shape_factor": null, "has_reconstructed": null, "possible_species": null, "has_props": null, "theoretical": null, "database_IDs": null, "fields_not_requested": ["builder_meta", "nsites", "elements", "nelements", "composition", "composition_reduced", "chemsys", "symmetry", "property_name", "deprecated", "deprecation_reasons", "last_updated", "origins", "warnings", "task_ids", "uncorrected_energy_per_atom", "equilibrium_reaction_energy_per_atom", "decomposes_to", "xas", "grain_boundaries", "cbm", "vbm", "is_gap_direct", "is_metal", "es_source_calc_id", "bandstructure", "dos", "dos_energy_up", "dos_energy_down", "is_magnetic", "ordering", "total_magnetization_normalized_vol", "total_magnetization_normalized_formula_units", "num_magnetic_sites", "num_unique_magnetic_sites", "types_of_magnetic_species", "bulk_modulus", "shear_modulus", "universal_anisotropy", "homogeneous_poisson", "e_total", "e_ionic", "e_electronic", "n", "e_ij_max", "weighted_surface_energy_EV_PER_ANG2", "weighted_surface_energy", "weighted_work_function", "surface_anisotropy", "shape_factor", "has_reconstructed", "possible_species", "has_props", "theoretical", "database_IDs"]}