{
  "builder_meta": null,
  "nsites": null,
  "elements": null,
  "nelements": null,
  "composition": null,
  "composition_reduced": null,
  "formula_pretty": "C5Cl4",
  "formula_anonymous": "A4B5",
  "chemsys": null,
  "volume": 1423.9849225150772,
  "density": 1.883197180805504,
  "density_atomic": 19.777568368264962,
  "symmetry": null,
  "property_name": null,
  "material_id": "mp-1214283",
  "deprecated": null,
  "deprecation_reasons": null,
  "last_updated": null,
  "origins": null,
  "warnings": null,
  "structure": {
    "@module": "pymatgen.core.structure",
    "@class": "Structure",
    "charge": 0,
    "lattice": {
      "matrix": [
        [7.777979, 0.0, 0.0],
        [0.0, 9.929241, 0.0],
        [0.0, 7.390667, 18.438372]
      ],
      "pbc": [true, true, true],
      "a": 7.777979,
      "b": 9.929241,
      "c": 19.864428527276417,
      "alpha": 68.1575677103203,
      "beta": 90.0,
      "gamma": 90.0,
      "volume": 1423.9849225150772
    },
    "properties": {},
    "sites": [
      {
        "species": [{ "element": "C", "occu": 1 }],
        "abc": [0.888131, 0.742298, 0.345781],
        "properties": { "magmom": -0.0 },
        "label": "C",
        "xyz": [6.907864267249, 9.926007961745, 6.3756387085320005]
      },
      {
        "species": [{ "element": "C", "occu": 1 }],
        "abc": [0.111869, 0.257702, 0.654219],
        "properties": { "magmom": -0.0 },
        "label": "C",
        "xyz": [0.870114732751, 7.3939000382549995, 12.062733291468001]
      },
      {
        "species": [{ "element": "C", "occu": 1 }],
        "abc": [0.388131, 0.257702, 0.154219],
        "properties": { "magmom": -0.0 },
        "label": "C",
        "xyz": [3.018874767249, 3.6985665382549997, 2.843547291468]
      },
      {
        "species": [{ "element": "C", "occu": 1 }],
        "abc": [0.611869, 0.742298, 0.845781],
        "properties": { "magmom": -0.0 },
        "label": "C",
        "xyz": [4.7591042327510005, 13.621341461745, 15.594824708532]
      },
      {
        "species": [{ "element": "C", "occu": 1 }],
        "abc": [0.869772999999999, 0.8768900000000001, 0.192741],
        "properties": { "magmom": -0.0 },
        "label": "C",
        "xyz": [6.765076128766992, 10.131336688736999, 3.5538302576520002]
      },
      {
        "species": [{ "element": "C", "occu": 1 }],
        "abc": [0.130226999999999, 0.12311000000000001, 0.807259],
        "properties": { "magmom": -0.0 },
        "label": "C",
        "xyz": [1.0129028712329924, 7.188571311262999, 14.884541742348]
      },
      {
        "species": [{ "element": "C", "occu": 1 }],
        "abc": [0.369772999999999, 0.12311000000000001, 0.307259],
        "properties": { "magmom": -0.0 },
        "label": "C",
        "xyz": [2.8760866287669926, 3.493237811263, 5.665355742348001]
      },
      {
        "species": [{ "element": "C", "occu": 1 }],
        "abc": [0.630227, 0.8768900000000001, 0.692740999999999],
        "properties": { "magmom": -0.0 },
        "label": "C",
        "xyz": [4.901892371233, 13.826670188736992, 12.773016257651983]
      },
      {
        "species": [{ "element": "C", "occu": 1 }],
        "abc": [0.864780999999999, 0.8921600000000001, 0.313996],
        "properties": { "magmom": -0.0 },
        "label": "C",
        "xyz": [6.7262484575989925, 11.179111525892, 5.789575054512]
      },
      {
        "species": [{ "element": "C", "occu": 1 }],
        "abc": [0.135219, 0.10784, 0.686004],
        "properties": { "magmom": -0.0 },
        "label": "C",
        "xyz": [1.0517305424010002, 6.140796474107999, 12.648796945488]
      },
      {
        "species": [{ "element": "C", "occu": 1 }],
        "abc": [0.364780999999999, 0.10784, 0.186004],
        "properties": { "magmom": -0.0 },
        "label": "C",
        "xyz": [2.8372589575989924, 2.4454629741079996, 3.429610945488]
      },
      {
        "species": [{ "element": "C", "occu": 1 }],
        "abc": [0.635219, 0.8921600000000001, 0.813995999999999],
        "properties": { "magmom": -0.0 },
        "label": "C",
        "xyz": [4.940720042401, 14.874445025891994, 15.008761054511984]
      },
      {
        "species": [{ "element": "C", "occu": 1 }],
        "abc": [0.357856, 0.817554, 0.376556],
        "properties": { "magmom": -0.0 },
        "label": "C",
        "xyz": [2.7833964530240003, 10.900690699365999, 6.943079606832001]
      },
      {
        "species": [{ "element": "C", "occu": 1 }],
        "abc": [0.642143999999999, 0.182446, 0.623444],
        "properties": { "magmom": -0.0 },
        "label": "C",
        "xyz": [4.994582546975993, 6.419217300633999, 11.495292393168]
      },
      {
        "species": [{ "element": "C", "occu": 1 }],
        "abc": [0.857856, 0.182446, 0.123444],
        "properties": { "magmom": -0.0 },
        "label": "C",
        "xyz": [6.6723859530239995, 2.723883800634, 2.276106393168]
      },
      {
        "species": [{ "element": "C", "occu": 1 }],
        "abc": [0.142144, 0.817554, 0.876556],
        "properties": { "magmom": -0.0 },
        "label": "C",
        "xyz": [1.105593046976, 14.596024199366, 16.162265606832]
      },
      {
        "species": [{ "element": "C", "occu": 1 }],
        "abc": [0.317372999999999, 0.905677, 0.416361999999999],
        "properties": { "magmom": -0.0 },
        "label": "C",
        "xyz": [2.4685205291669923, 12.069878094610992, 7.677037442663982]
      },
      {
        "species": [{ "element": "C", "occu": 1 }],
        "abc": [0.682627, 0.094322999999999, 0.583638],
        "properties": { "magmom": -0.0 },
        "label": "C",
        "xyz": [5.309458470833, 5.25002990538899, 10.761334557336001]
      },
      {
        "species": [{ "element": "C", "occu": 1 }],
        "abc": [0.817373, 0.094322999999999, 0.083637999999999],
        "properties": { "magmom": -0.0 },
        "label": "C",
        "xyz": [6.357510029167, 1.5546964053889827, 1.5421485573359817]
      },
      {
        "species": [{ "element": "C", "occu": 1 }],
        "abc": [0.182626999999999, 0.905677, 0.916362],
        "properties": { "magmom": -0.0 },
        "label": "C",
        "xyz": [1.4204689708329923, 15.765211594611, 16.896223442664002]
      },
      {
        "species": [{ "element": "C", "occu": 1 }],
        "abc": [0.925763, 0.661076, 0.302253],
        "properties": { "magmom": -0.0 },
        "label": "C",
        "xyz": [7.200565172977, 8.797834196067, 5.573053252116]
      },
      {
        "species": [{ "element": "C", "occu": 1 }],
        "abc": [0.074237, 0.338924, 0.697747],
        "properties": { "magmom": -0.0 },
        "label": "C",
        "xyz": [0.577413827023, 8.522073803932999, 12.865318747884]
      },
      {
        "species": [{ "element": "C", "occu": 1 }],
        "abc": [0.425763, 0.338924, 0.197746999999999],
        "properties": { "magmom": -0.0 },
        "label": "C",
        "xyz": [3.3115756729770003, 4.826740303932993, 3.646132747883982]
      },
      {
        "species": [{ "element": "C", "occu": 1 }],
        "abc": [0.574237, 0.661076, 0.802253],
        "properties": { "magmom": -0.0 },
        "label": "C",
        "xyz": [4.466403327023, 12.493167696067, 14.792239252116001]
      },
      {
        "species": [{ "element": "C", "occu": 1 }],
        "abc": [0.821333, 0.943734, 0.117822],
        "properties": { "magmom": -0.0 },
        "label": "C",
        "xyz": [6.388310826007, 10.241345493168, 2.1724458657840002]
      },
      {
        "species": [{ "element": "C", "occu": 1 }],
        "abc": [0.178667, 0.056266, 0.882177999999999],
        "properties": { "magmom": -0.0 },
        "label": "C",
        "xyz": [1.389668173993, 7.078562506831992, 16.265926134215984]
      },
      {
        "species": [{ "element": "C", "occu": 1 }],
        "abc": [0.321333, 0.056266, 0.382177999999999],
        "properties": { "magmom": -0.0 },
        "label": "C",
        "xyz": [2.4993213260069997, 3.3832290068319923, 7.046740134215982]
      },
      {
        "species": [{ "element": "C", "occu": 1 }],
        "abc": [0.678667, 0.943734, 0.617822],
        "properties": { "magmom": -0.0 },
        "label": "C",
        "xyz": [5.278657673993, 13.936678993167998, 11.391631865784001]
      },
      {
        "species": [{ "element": "C", "occu": 1 }],
        "abc": [0.918222, 0.727053, 0.227149],
        "properties": { "magmom": -0.0 },
        "label": "C",
        "xyz": [7.141911433338, 8.897867075155999, 4.188257761428]
      },
      {
        "species": [{ "element": "C", "occu": 1 }],
        "abc": [0.081777999999999, 0.272947, 0.772851],
        "properties": { "magmom": -0.0 },
        "label": "C",
        "xyz": [0.6360675666619923, 8.422040924844, 14.250114238572]
      },
      {
        "species": [{ "element": "C", "occu": 1 }],
        "abc": [0.418222, 0.272947, 0.272851],
        "properties": { "magmom": -0.0 },
        "label": "C",
        "xyz": [3.252921933338, 4.726707424843999, 5.030928238572001]
      },
      {
        "species": [{ "element": "C", "occu": 1 }],
        "abc": [0.581778, 0.727053, 0.727148999999999],
        "properties": { "magmom": -0.0 },
        "label": "C",
        "xyz": [4.525057066662001, 12.593200575155992, 13.407443761427983]
      },
      {
        "species": [{ "element": "C", "occu": 1 }],
        "abc": [0.378558, 0.878934, 0.301483],
        "properties": { "magmom": -0.0 },
        "label": "C",
        "xyz": [2.9444161742820003, 10.955307968255, 5.558855705676001]
      },
      {
        "species": [{ "element": "C", "occu": 1 }],
        "abc": [0.621441999999999, 0.121066, 0.698516999999999],
        "properties": { "magmom": -0.0 },
        "label": "C",
        "xyz": [4.833562825717992, 6.364600031744993, 12.879516294323983]
      },
      {
        "species": [{ "element": "C", "occu": 1 }],
        "abc": [0.878558, 0.121066, 0.198517],
        "properties": { "magmom": -0.0 },
        "label": "C",
        "xyz": [6.833405674282, 2.669266531745, 3.6603302943240004]
      },
      {
        "species": [{ "element": "C", "occu": 1 }],
        "abc": [0.121442, 0.878934, 0.801483],
        "properties": { "magmom": -0.0 },
        "label": "C",
        "xyz": [0.944573325718, 14.650641468255, 14.778041705676]
      },
      {
        "species": [{ "element": "C", "occu": 1 }],
        "abc": [0.8708500000000001, 0.9660500000000001, 0.236394],
        "properties": { "magmom": -0.0 },
        "label": "C",
        "xyz": [6.773453012150001, 11.339252602848, 4.358720510568]
      },
      {
        "species": [{ "element": "C", "occu": 1 }],
        "abc": [0.12915000000000001, 0.03395, 0.763606],
        "properties": { "magmom": -0.0 },
        "label": "C",
        "xyz": [1.0045259878500001, 5.980655397152, 14.079651489432]
      },
      {
        "species": [{ "element": "C", "occu": 1 }],
        "abc": [0.37085, 0.03395, 0.263606],
        "properties": { "magmom": -0.0 },
        "label": "C",
        "xyz": [2.88446351215, 2.285321897152, 4.860465489432]
      },
      {
        "species": [{ "element": "C", "occu": 1 }],
        "abc": [0.6291500000000001, 0.9660500000000001, 0.736394],
        "properties": { "magmom": -0.0 },
        "label": "C",
        "xyz": [4.893515487850001, 15.034586102848, 13.577906510568]
      },
      {
        "species": [{ "element": "Cl", "occu": 1 }],
        "abc": [0.8769600000000001, 0.366562, 0.078136],
        "properties": { "magmom": -0.0 },
        "label": "Cl",
        "xyz": [6.820976463840001, 4.217159596154, 1.440700634592]
      },
      {
        "species": [{ "element": "Cl", "occu": 1 }],
        "abc": [0.12304000000000001, 0.633438, 0.921863999999999],
        "properties": { "magmom": -0.0 },
        "label": "Cl",
        "xyz": [0.9570025361600001, 13.102748403845991, 16.99767136540798]
      },
      {
        "species": [{ "element": "Cl", "occu": 1 }],
        "abc": [0.37696, 0.633438, 0.421863999999999],
        "properties": { "magmom": -0.0 },
        "label": "Cl",
        "xyz": [2.93198696384, 9.407414903845991, 7.778485365407982]
      },
      {
        "species": [{ "element": "Cl", "occu": 1 }],
        "abc": [0.62304, 0.366562, 0.578136],
        "properties": { "magmom": -0.0 },
        "label": "Cl",
        "xyz": [4.84599203616, 7.912493096154, 10.659886634592]
      },
      {
        "species": [{ "element": "Cl", "occu": 1 }],
        "abc": [0.983090999999999, 0.481786999999999, 0.343103999999999],
        "properties": { "magmom": -0.0 },
        "label": "Cl",
        "xyz": [7.6464611530889925, 7.319546644034983, 6.326279186687982]
      },
      {
        "species": [{ "element": "Cl", "occu": 1 }],
        "abc": [0.016909, 0.518212999999999, 0.656895999999999],
        "properties": { "magmom": -0.0 },
        "label": "Cl",
        "xyz": [0.13151784691100002, 10.000361355964984, 12.112092813311984]
      },
      {
        "species": [{ "element": "Cl", "occu": 1 }],
        "abc": [0.483091, 0.518212999999999, 0.156895999999999],
        "properties": { "magmom": -0.0 },
        "label": "Cl",
        "xyz": [3.757471653089, 6.305027855964982, 2.8929068133119817]
      },
      {
        "species": [{ "element": "Cl", "occu": 1 }],
        "abc": [0.516909, 0.481786999999999, 0.843104],
        "properties": { "magmom": -0.0 },
        "label": "Cl",
        "xyz": [4.020507346911, 11.01488014403499, 15.545465186688]
      },
      {
        "species": [{ "element": "Cl", "occu": 1 }],
        "abc": [0.747864, 0.8440500000000001, 0.06895000000000001],
        "properties": { "magmom": -0.0 },
        "label": "Cl",
        "xyz": [5.816870486856, 8.890362355699999, 1.2713257494000003]
      },
      {
        "species": [{ "element": "Cl", "occu": 1 }],
        "abc": [0.252135999999999, 0.15595, 0.93105],
        "properties": { "magmom": -0.0 },
        "label": "Cl",
        "xyz": [1.9611085131439925, 8.429545644300001, 17.167046250600002]
      },
      {
        "species": [{ "element": "Cl", "occu": 1 }],
        "abc": [0.247864, 0.15595, 0.43105000000000004],
        "properties": { "magmom": -0.0 },
        "label": "Cl",
        "xyz": [1.927880986856, 4.7342121443, 7.947860250600002]
      },
      {
        "species": [{ "element": "Cl", "occu": 1 }],
        "abc": [0.752135999999999, 0.8440500000000001, 0.5689500000000001],
        "properties": { "magmom": -0.0 },
        "label": "Cl",
        "xyz": [5.850098013143993, 12.5856958557, 10.490511749400001]
      },
      {
        "species": [{ "element": "Cl", "occu": 1 }],
        "abc": [0.426211, 0.760818, 0.258974],
        "properties": { "magmom": -0.0 },
        "label": "Cl",
        "xyz": [3.315060207569, 9.468335874795999, 4.775058950328]
      },
      {
        "species": [{ "element": "Cl", "occu": 1 }],
        "abc": [0.573789, 0.239181999999999, 0.741026],
        "properties": { "magmom": -0.0 },
        "label": "Cl",
        "xyz": [4.462918792431, 7.851572125203989, 13.663313049672]
      },
      {
        "species": [{ "element": "Cl", "occu": 1 }],
        "abc": [0.926211, 0.239181999999999, 0.241026],
        "properties": { "magmom": -0.0 },
        "label": "Cl",
        "xyz": [7.204049707569, 4.15623862520399, 4.444127049672]
      },
      {
        "species": [{ "element": "Cl", "occu": 1 }],
        "abc": [0.073789, 0.760818, 0.758973999999999],
        "properties": { "magmom": -0.0 },
        "label": "Cl",
        "xyz": [0.573929292431, 13.163669374795992, 13.994244950327984]
      },
      {
        "species": [{ "element": "Cl", "occu": 1 }],
        "abc": [0.814163, 0.978957, 0.372017999999999],
        "properties": { "magmom": -0.0 },
        "label": "Cl",
        "xyz": [6.332542716577, 12.46976113764299, 6.859406274695982]
      },
      {
        "species": [{ "element": "Cl", "occu": 1 }],
        "abc": [0.185837, 0.021043, 0.627981999999999],
        "properties": { "magmom": -0.0 },
        "label": "Cl",
        "xyz": [1.4454362834230001, 4.8501468623569925, 11.578965725303982]
      },
      {
        "species": [{ "element": "Cl", "occu": 1 }],
        "abc": [0.314162999999999, 0.021043, 0.127981999999999],
        "properties": { "magmom": -0.0 },
        "label": "Cl",
        "xyz": [2.4435532165769924, 1.1548133623569927, 2.359779725303982]
      },
      {
        "species": [{ "element": "Cl", "occu": 1 }],
        "abc": [0.685836999999999, 0.978957, 0.872018],
        "properties": { "magmom": -0.0 },
        "label": "Cl",
        "xyz": [5.334425783422993, 16.165094637642998, 16.078592274696]
      },
      {
        "species": [{ "element": "Cl", "occu": 1 }],
        "abc": [0.989883, 0.627999, 0.177764999999999],
        "properties": { "magmom": -0.0 },
        "label": "Cl",
        "xyz": [7.6992891864569994, 7.549355338013992, 3.277697198579982]
      },
      {
        "species": [{ "element": "Cl", "occu": 1 }],
        "abc": [0.010117, 0.372000999999999, 0.822234999999999],
        "properties": { "magmom": -0.0 },
        "label": "Cl",
        "xyz": [0.07868981354299999, 9.770552661985983, 15.160674801419983]
      },
      {
        "species": [{ "element": "Cl", "occu": 1 }],
        "abc": [0.489882999999999, 0.372000999999999, 0.322235],
        "properties": { "magmom": -0.0 },
        "label": "Cl",
        "xyz": [3.8102996864569922, 6.07521916198599, 5.94148880142]
      },
      {
        "species": [{ "element": "Cl", "occu": 1 }],
        "abc": [0.510116999999999, 0.627999, 0.677765],
        "properties": { "magmom": -0.0 },
        "label": "Cl",
        "xyz": [3.967679313542993, 11.244688838014, 12.496883198579999]
      },
      {
        "species": [{ "element": "Cl", "occu": 1 }],
        "abc": [0.23488799999999901, 0.825546999999999, 0.006402],
        "properties": { "magmom": -0.0 },
        "label": "Cl",
        "xyz": [1.8269539313519925, 8.24437016996099, 0.118042457544]
      },
      {
        "species": [{ "element": "Cl", "occu": 1 }],
        "abc": [0.765112, 0.174453, 0.993598],
        "properties": { "magmom": -0.0 },
        "label": "Cl",
        "xyz": [5.951025068648001, 9.075537830039, 18.320329542456]
      },
      {
        "species": [{ "element": "Cl", "occu": 1 }],
        "abc": [0.734888, 0.174453, 0.493598],
        "properties": { "magmom": -0.0 },
        "label": "Cl",
        "xyz": [5.715943431352, 5.380204330039, 9.101143542456]
      },
      {
        "species": [{ "element": "Cl", "occu": 1 }],
        "abc": [0.265112, 0.825546999999999, 0.506402],
        "properties": { "magmom": -0.0 },
        "label": "Cl",
        "xyz": [2.062035568648, 11.93970366996099, 9.337228457544]
      },
      {
        "species": [{ "element": "Cl", "occu": 1 }],
        "abc": [0.876803999999999, 0.654002, 0.438160999999999],
        "properties": { "magmom": -0.0 },
        "label": "Cl",
        "xyz": [6.819763099115993, 9.732045515868993, 8.078975513891983]
      },
      {
        "species": [{ "element": "Cl", "occu": 1 }],
        "abc": [0.123196, 0.34599799999999903, 0.561839],
        "properties": { "magmom": -0.0 },
        "label": "Cl",
        "xyz": [0.958215900884, 7.58786248413099, 10.359396486108]
      },
      {
        "species": [{ "element": "Cl", "occu": 1 }],
        "abc": [0.376804, 0.34599799999999903, 0.061839],
        "properties": { "magmom": -0.0 },
        "label": "Cl",
        "xyz": [2.9307735991159998, 3.89252898413099, 1.140210486108]
      },
      {
        "species": [{ "element": "Cl", "occu": 1 }],
        "abc": [0.623196, 0.654002, 0.938160999999999],
        "properties": { "magmom": -0.0 },
        "label": "Cl",
        "xyz": [4.8472054008839995, 13.427379015868992, 17.298161513891984]
      }
    ]
  },
  "task_ids": null,
  "uncorrected_energy_per_atom": null,
  "energy_per_atom": -6.1846002225,
  "formation_energy_per_atom": -0.23598926,
  "energy_above_hull": 0.120833278194442,
  "is_stable": false,
  "equilibrium_reaction_energy_per_atom": null,
  "decomposes_to": null,
  "xas": null,
  "grain_boundaries": null,
  "band_gap": 2.2709,
  "cbm": null,
  "vbm": null,
  "efermi": 1.04280872,
  "is_gap_direct": null,
  "is_metal": null,
  "es_source_calc_id": null,
  "bandstructure": null,
  "dos": null,
  "dos_energy_up": null,
  "dos_energy_down": null,
  "is_magnetic": null,
  "ordering": null,
  "total_magnetization": 0.054200899999999004,
  "total_magnetization_normalized_vol": null,
  "total_magnetization_normalized_formula_units": null,
  "num_magnetic_sites": null,
  "num_unique_magnetic_sites": null,
  "types_of_magnetic_species": null,
  "bulk_modulus": null,
  "shear_modulus": null,
  "universal_anisotropy": null,
  "homogeneous_poisson": null,
  "e_total": null,
  "e_ionic": null,
  "e_electronic": null,
  "n": null,
  "e_ij_max": null,
  "weighted_surface_energy_EV_PER_ANG2": null,
  "weighted_surface_energy": null,
  "weighted_work_function": null,
  "surface_anisotropy": null,
  "shape_factor": null,
  "has_reconstructed": null,
  "possible_species": null,
  "has_props": null,
  "theoretical": null,
  "database_IDs": null,
  "fields_not_requested": [
    "builder_meta",
    "nsites",
    "elements",
    "nelements",
    "composition",
    "composition_reduced",
    "chemsys",
    "symmetry",
    "property_name",
    "deprecated",
    "deprecation_reasons",
    "last_updated",
    "origins",
    "warnings",
    "task_ids",
    "uncorrected_energy_per_atom",
    "equilibrium_reaction_energy_per_atom",
    "decomposes_to",
    "xas",
    "grain_boundaries",
    "cbm",
    "vbm",
    "is_gap_direct",
    "is_metal",
    "es_source_calc_id",
    "bandstructure",
    "dos",
    "dos_energy_up",
    "dos_energy_down",
    "is_magnetic",
    "ordering",
    "total_magnetization_normalized_vol",
    "total_magnetization_normalized_formula_units",
    "num_magnetic_sites",
    "num_unique_magnetic_sites",
    "types_of_magnetic_species",
    "bulk_modulus",
    "shear_modulus",
    "universal_anisotropy",
    "homogeneous_poisson",
    "e_total",
    "e_ionic",
    "e_electronic",
    "n",
    "e_ij_max",
    "weighted_surface_energy_EV_PER_ANG2",
    "weighted_surface_energy",
    "weighted_work_function",
    "surface_anisotropy",
    "shape_factor",
    "has_reconstructed",
    "possible_species",
    "has_props",
    "theoretical",
    "database_IDs"
  ]
}
