{
  "builder_meta": null,
  "nsites": null,
  "elements": null,
  "nelements": null,
  "composition": null,
  "composition_reduced": null,
  "formula_pretty": "C5F6",
  "formula_anonymous": "A5B6",
  "chemsys": null,
  "volume": 1174.5768023574442,
  "density": 1.9684143365046571,
  "density_atomic": 13.347463663152775,
  "symmetry": null,
  "property_name": null,
  "material_id": "mp-1214262",
  "deprecated": null,
  "deprecation_reasons": null,
  "last_updated": null,
  "origins": null,
  "warnings": null,
  "structure": {
    "@module": "pymatgen.core.structure",
    "@class": "Structure",
    "charge": 0,
    "lattice": {
      "matrix": [
        [7.73905, 7.759079, 0.0],
        [-7.73905, 7.759079, 0.0],
        [0.0, 2.768811, 9.780332]
      ],
      "pbc": [true, true, true],
      "a": 10.958841263141874,
      "b": 10.958841263141874,
      "c": 10.16470404802545,
      "alpha": 78.88021169270951,
      "beta": 78.88021169270951,
      "gamma": 89.85190773299328,
      "volume": 1174.5768023574442
    },
    "properties": {},
    "sites": [
      {
        "species": [{ "element": "C", "occu": 1 }],
        "abc": [0.417095, 0.374501, 0.844958],
        "properties": { "magmom": 0.0 },
        "label": "C",
        "xyz": [0.3296370957000003, 8.481584905022, 8.263969766056]
      },
      {
        "species": [{ "element": "C", "occu": 1 }],
        "abc": [0.582905, 0.625499, 0.15504199999999901],
        "properties": { "magmom": 0.0 },
        "label": "C",
        "xyz": [-0.3296370956999999, 9.805384094977997, 1.5163622339439904]
      },
      {
        "species": [{ "element": "C", "occu": 1 }],
        "abc": [0.625499, 0.582905, 0.655042],
        "properties": { "magmom": 0.0 },
        "label": "C",
        "xyz": [0.3296370956999999, 11.189789594978, 6.406528233944]
      },
      {
        "species": [{ "element": "C", "occu": 1 }],
        "abc": [0.374501, 0.417095, 0.344958],
        "properties": { "magmom": 0.0 },
        "label": "C",
        "xyz": [-0.3296370957000003, 7.097179405022, 3.3738037660559996]
      },
      {
        "species": [{ "element": "C", "occu": 1 }],
        "abc": [0.779975, 0.181053, 0.691896],
        "properties": { "magmom": 0.0 },
        "label": "C",
        "xyz": [4.6350873041, 9.372421428867998, 6.766972589471999]
      },
      {
        "species": [{ "element": "C", "occu": 1 }],
        "abc": [0.220025, 0.818947, 0.308104],
        "properties": { "magmom": 0.0 },
        "label": "C",
        "xyz": [-4.6350873041, 8.914547571132, 3.013359410528]
      },
      {
        "species": [{ "element": "C", "occu": 1 }],
        "abc": [0.818947, 0.220025, 0.808103999999999],
        "properties": { "magmom": 0.0 },
        "label": "C",
        "xyz": [4.6350873041, 10.298953071131997, 7.90352541052799]
      },
      {
        "species": [{ "element": "C", "occu": 1 }],
        "abc": [0.181053, 0.779975, 0.191895999999999],
        "properties": { "magmom": 0.0 },
        "label": "C",
        "xyz": [-4.6350873041, 7.988015928867996, 1.8768065894719903]
      },
      {
        "species": [{ "element": "C", "occu": 1 }],
        "abc": [0.555972999999999, 0.239955, 0.73787],
        "properties": { "magmom": 0.0 },
        "label": "C",
        "xyz": [2.4456791028999927, 8.21869080288199, 7.21661357284]
      },
      {
        "species": [{ "element": "C", "occu": 1 }],
        "abc": [0.444027, 0.760045, 0.26213000000000003],
        "properties": { "magmom": 0.0 },
        "label": "C",
        "xyz": [-2.4456791029, 10.068278197118, 2.56371842716]
      },
      {
        "species": [{ "element": "C", "occu": 1 }],
        "abc": [0.760045, 0.444027, 0.7621300000000001],
        "properties": { "magmom": 0.0 },
        "label": "C",
        "xyz": [2.4456791029, 11.452683697118, 7.45388442716]
      },
      {
        "species": [{ "element": "C", "occu": 1 }],
        "abc": [0.239955, 0.555972999999999, 0.23787000000000003],
        "properties": { "magmom": 0.0 },
        "label": "C",
        "xyz": [-2.4456791028999927, 6.834285302881992, 2.3264475728400003]
      },
      {
        "species": [{ "element": "C", "occu": 1 }],
        "abc": [0.434324999999999, 0.164539, 0.790551999999999],
        "properties": { "magmom": 0.0 },
        "label": "C",
        "xyz": [2.0878873432999923, 6.835522159927989, 7.73186102326399]
      },
      {
        "species": [{ "element": "C", "occu": 1 }],
        "abc": [0.565674999999999, 0.835461, 0.209448],
        "properties": { "magmom": 0.0 },
        "label": "C",
        "xyz": [-2.0878873433000074, 11.451446840071993, 2.0484709767359996]
      },
      {
        "species": [{ "element": "C", "occu": 1 }],
        "abc": [0.835461, 0.565674999999999, 0.709448],
        "properties": { "magmom": 0.0 },
        "label": "C",
        "xyz": [2.0878873433000074, 12.835852340071993, 6.938636976735999]
      },
      {
        "species": [{ "element": "C", "occu": 1 }],
        "abc": [0.164539, 0.434324999999999, 0.290552],
        "properties": { "magmom": 0.0 },
        "label": "C",
        "xyz": [-2.0878873432999923, 5.451116659927992, 2.8416950232639997]
      },
      {
        "species": [{ "element": "C", "occu": 1 }],
        "abc": [0.200208, 0.875147, 0.529919],
        "properties": { "magmom": 0.0 },
        "label": "C",
        "xyz": [-5.22338666795, 9.811009954354, 5.182783753108]
      },
      {
        "species": [{ "element": "C", "occu": 1 }],
        "abc": [0.799792, 0.124852999999999, 0.470080999999999],
        "properties": { "magmom": 0.0 },
        "label": "C",
        "xyz": [5.223386667950007, 8.475959045645988, 4.59754824689199]
      },
      {
        "species": [{ "element": "C", "occu": 1 }],
        "abc": [0.124852999999999, 0.799792, 0.970081],
        "properties": { "magmom": 0.0 },
        "label": "C",
        "xyz": [-5.223386667950007, 9.860364545645991, 9.487714246891999]
      },
      {
        "species": [{ "element": "C", "occu": 1 }],
        "abc": [0.875147, 0.200208, 0.029918999999999002],
        "properties": { "magmom": 0.0 },
        "label": "C",
        "xyz": [5.22338666795, 8.426604454353997, 0.2926177531079902]
      },
      {
        "species": [{ "element": "C", "occu": 1 }],
        "abc": [0.659876, 0.132657, 0.536878],
        "properties": { "magmom": 0.0 },
        "label": "C",
        "xyz": [4.08017420195, 7.635839869164999, 5.250845083495999]
      },
      {
        "species": [{ "element": "C", "occu": 1 }],
        "abc": [0.340124, 0.867343, 0.463122],
        "properties": { "magmom": 0.0 },
        "label": "C",
        "xyz": [-4.08017420195, 10.651129130834999, 4.529486916503999]
      },
      {
        "species": [{ "element": "C", "occu": 1 }],
        "abc": [0.867343, 0.340124, 0.963121999999999],
        "properties": { "magmom": 0.0 },
        "label": "C",
        "xyz": [4.08017420195, 12.035534630834997, 9.41965291650399]
      },
      {
        "species": [{ "element": "C", "occu": 1 }],
        "abc": [0.132657, 0.659876, 0.036878],
        "properties": { "magmom": 0.0 },
        "label": "C",
        "xyz": [-4.08017420195, 6.251434369165, 0.360679083496]
      },
      {
        "species": [{ "element": "C", "occu": 1 }],
        "abc": [0.546897, 0.354832, 0.768493],
        "properties": { "magmom": 0.0 },
        "label": "C",
        "xyz": [1.4864006382499997, 9.124398419414, 7.516116679675999]
      },
      {
        "species": [{ "element": "C", "occu": 1 }],
        "abc": [0.453103, 0.645168, 0.231507],
        "properties": { "magmom": 0.0 },
        "label": "C",
        "xyz": [-1.4864006382499997, 9.162570580586, 2.264215320324]
      },
      {
        "species": [{ "element": "C", "occu": 1 }],
        "abc": [0.645168, 0.453103, 0.731507],
        "properties": { "magmom": 0.0 },
        "label": "C",
        "xyz": [1.4864006382499997, 10.546976080586, 7.154381320324]
      },
      {
        "species": [{ "element": "C", "occu": 1 }],
        "abc": [0.354832, 0.546897, 0.268493],
        "properties": { "magmom": 0.0 },
        "label": "C",
        "xyz": [-1.4864006382499997, 7.739992919414, 2.6259506796759995]
      },
      {
        "species": [{ "element": "C", "occu": 1 }],
        "abc": [0.665314, 0.189447, 0.661037],
        "properties": { "magmom": 0.0 },
        "label": "C",
        "xyz": [3.682758506349999, 8.462444642125998, 6.465161324284]
      },
      {
        "species": [{ "element": "C", "occu": 1 }],
        "abc": [0.334686, 0.810553, 0.338962999999999],
        "properties": { "magmom": 0.0 },
        "label": "C",
        "xyz": [-3.68275850635, 9.824524357873997, 3.3151706757159904]
      },
      {
        "species": [{ "element": "C", "occu": 1 }],
        "abc": [0.810553, 0.334686, 0.838963],
        "properties": { "magmom": 0.0 },
        "label": "C",
        "xyz": [3.68275850635, 11.208929857874, 8.205336675716]
      },
      {
        "species": [{ "element": "C", "occu": 1 }],
        "abc": [0.189447, 0.665314, 0.16103699999999901],
        "properties": { "magmom": 0.0 },
        "label": "C",
        "xyz": [-3.682758506349999, 7.078039142125997, 1.5749953242839903]
      },
      {
        "species": [{ "element": "C", "occu": 1 }],
        "abc": [0.355921, 0.240619, 0.890021],
        "properties": { "magmom": 0.0 },
        "label": "C",
        "xyz": [0.8923279431, 7.092900921691, 8.704700866971999]
      },
      {
        "species": [{ "element": "C", "occu": 1 }],
        "abc": [0.644079, 0.759381, 0.109979],
        "properties": { "magmom": 0.0 },
        "label": "C",
        "xyz": [-0.8923279430999997, 11.194068078309, 1.075631133028]
      },
      {
        "species": [{ "element": "C", "occu": 1 }],
        "abc": [0.759381, 0.644079, 0.609978999999999],
        "properties": { "magmom": 0.0 },
        "label": "C",
        "xyz": [0.8923279430999997, 12.578473578308996, 5.965797133027991]
      },
      {
        "species": [{ "element": "C", "occu": 1 }],
        "abc": [0.240619, 0.355921, 0.390021],
        "properties": { "magmom": 0.0 },
        "label": "C",
        "xyz": [-0.8923279431, 5.708495421691, 3.814534866972]
      },
      {
        "species": [{ "element": "C", "occu": 1 }],
        "abc": [0.868483, 0.119555, 0.592048],
        "properties": { "magmom": 0.0 },
        "label": "C",
        "xyz": [5.795991238399999, 9.30553391193, 5.790425999936]
      },
      {
        "species": [{ "element": "C", "occu": 1 }],
        "abc": [0.131517, 0.880444999999999, 0.407952],
        "properties": { "magmom": 0.0 },
        "label": "C",
        "xyz": [-5.795991238399992, 8.981435088069993, 3.9899060000639994]
      },
      {
        "species": [{ "element": "C", "occu": 1 }],
        "abc": [0.880444999999999, 0.131517, 0.907952],
        "properties": { "magmom": 0.0 },
        "label": "C",
        "xyz": [5.795991238399992, 10.365840588069993, 8.880072000063999]
      },
      {
        "species": [{ "element": "C", "occu": 1 }],
        "abc": [0.119555, 0.868483, 0.092047999999999],
        "properties": { "magmom": 0.0 },
        "label": "C",
        "xyz": [-5.795991238399999, 7.921128411929997, 0.9002599999359903]
      },
      {
        "species": [{ "element": "F", "occu": 1 }],
        "abc": [0.162755999999999, 0.767896999999999, 0.623142],
        "properties": { "magmom": 0.0 },
        "label": "F",
        "xyz": [-4.68321645605, 8.946372572748984, 6.094535643144]
      },
      {
        "species": [{ "element": "F", "occu": 1 }],
        "abc": [0.837244, 0.232102999999999, 0.376857999999999],
        "properties": { "magmom": 0.0 },
        "label": "F",
        "xyz": [4.683216456050008, 9.34059642725099, 3.6857963568559904]
      },
      {
        "species": [{ "element": "F", "occu": 1 }],
        "abc": [0.232102999999999, 0.837244, 0.876857999999999],
        "properties": { "magmom": 0.0 },
        "label": "F",
        "xyz": [-4.683216456050008, 10.72500192725099, 8.57596235685599]
      },
      {
        "species": [{ "element": "F", "occu": 1 }],
        "abc": [0.767896999999999, 0.162755999999999, 0.12314199999999902],
        "properties": { "magmom": 0.0 },
        "label": "F",
        "xyz": [4.68321645605, 7.561967072748981, 1.2043696431439903]
      },
      {
        "species": [{ "element": "F", "occu": 1 }],
        "abc": [0.761057, 0.766564999999999, 0.615097999999999],
        "properties": { "magmom": 0.0 },
        "label": "F",
        "xyz": [-0.0426266873999932, 13.556029888615988, 6.01586265253599]
      },
      {
        "species": [{ "element": "F", "occu": 1 }],
        "abc": [0.238943, 0.233434999999999, 0.384901999999999],
        "properties": { "magmom": 0.0 },
        "label": "F",
        "xyz": [0.042626687400007635, 4.730939111383989, 3.76446934746399]
      },
      {
        "species": [{ "element": "F", "occu": 1 }],
        "abc": [0.233434999999999, 0.238943, 0.884902],
        "properties": { "magmom": 0.0 },
        "label": "F",
        "xyz": [-0.042626687400007635, 6.115344611383992, 8.654635347464]
      },
      {
        "species": [{ "element": "F", "occu": 1 }],
        "abc": [0.766564999999999, 0.761057, 0.115097999999999],
        "properties": { "magmom": 0.0 },
        "label": "F",
        "xyz": [0.0426266873999932, 12.171624388615989, 1.1256966525359902]
      },
      {
        "species": [{ "element": "F", "occu": 1 }],
        "abc": [0.178498, 0.973939, 0.592154],
        "properties": { "magmom": 0.0 },
        "label": "F",
        "xyz": [-6.1559576710499995, 10.581412234417, 5.791462715128]
      },
      {
        "species": [{ "element": "F", "occu": 1 }],
        "abc": [0.821502, 0.026060999999999, 0.407846],
        "properties": { "magmom": 0.0 },
        "label": "F",
        "xyz": [6.1559576710500075, 7.705556765582991, 3.9888692848719995]
      },
      {
        "species": [{ "element": "F", "occu": 1 }],
        "abc": [0.026060999999999, 0.821502, 0.907845999999999],
        "properties": { "magmom": 0.0 },
        "label": "F",
        "xyz": [-6.1559576710500075, 9.089962265582988, 8.879035284871991]
      },
      {
        "species": [{ "element": "F", "occu": 1 }],
        "abc": [0.973939, 0.178498, 0.092154],
        "properties": { "magmom": 0.0 },
        "label": "F",
        "xyz": [6.1559576710499995, 9.197006734417, 0.9012967151279999]
      },
      {
        "species": [{ "element": "F", "occu": 1 }],
        "abc": [0.37433000000000005, 0.154632, 0.686052],
        "properties": { "magmom": -0.0 },
        "label": "F",
        "xyz": [1.7002538069000004, 6.00380627017, 6.709816329264]
      },
      {
        "species": [{ "element": "F", "occu": 1 }],
        "abc": [0.6256700000000001, 0.845368, 0.313948],
        "properties": { "magmom": -0.0 },
        "label": "F",
        "xyz": [-1.7002538068999993, 12.28316272983, 3.070515670736]
      },
      {
        "species": [{ "element": "F", "occu": 1 }],
        "abc": [0.845368, 0.6256700000000001, 0.813948],
        "properties": { "magmom": -0.0 },
        "label": "F",
        "xyz": [1.7002538068999993, 13.66756822983, 7.960681670735999]
      },
      {
        "species": [{ "element": "F", "occu": 1 }],
        "abc": [0.154632, 0.37433000000000005, 0.186052],
        "properties": { "magmom": -0.0 },
        "label": "F",
        "xyz": [-1.7002538069000004, 4.61940077017, 1.8196503292639998]
      },
      {
        "species": [{ "element": "F", "occu": 1 }],
        "abc": [0.572255, 0.5805100000000001, 0.544335],
        "properties": { "magmom": -0.0 },
        "label": "F",
        "xyz": [-0.06388585775000166, 10.451555439120002, 5.32377701922]
      },
      {
        "species": [{ "element": "F", "occu": 1 }],
        "abc": [0.427745, 0.41949000000000003, 0.455665],
        "properties": { "magmom": -0.0 },
        "label": "F",
        "xyz": [0.06388585774999944, 7.835413560879999, 4.45655498078]
      },
      {
        "species": [{ "element": "F", "occu": 1 }],
        "abc": [0.41949000000000003, 0.427745, 0.955665],
        "properties": { "magmom": -0.0 },
        "label": "F",
        "xyz": [-0.06388585774999944, 9.219819060879999, 9.346720980779999]
      },
      {
        "species": [{ "element": "F", "occu": 1 }],
        "abc": [0.5805100000000001, 0.572255, 0.044335],
        "properties": { "magmom": -0.0 },
        "label": "F",
        "xyz": [0.06388585775000166, 9.067149939120002, 0.43361101921999995]
      },
      {
        "species": [{ "element": "F", "occu": 1 }],
        "abc": [0.40461199999999903, 0.797616999999999, 0.551245],
        "properties": { "magmom": 0.0 },
        "label": "F",
        "xyz": [-3.0414853452500004, 10.854483006785983, 5.39135911334]
      },
      {
        "species": [{ "element": "F", "occu": 1 }],
        "abc": [0.595388, 0.202382999999999, 0.448754999999999],
        "properties": { "magmom": 0.0 },
        "label": "F",
        "xyz": [3.041485345250008, 7.432485993213989, 4.38897288665999]
      },
      {
        "species": [{ "element": "F", "occu": 1 }],
        "abc": [0.202382999999999, 0.595388, 0.9487549999999991],
        "properties": { "magmom": 0.0 },
        "label": "F",
        "xyz": [-3.041485345250008, 8.81689149321399, 9.279138886659991]
      },
      {
        "species": [{ "element": "F", "occu": 1 }],
        "abc": [0.797616999999999, 0.40461199999999903, 0.051245],
        "properties": { "magmom": 0.0 },
        "label": "F",
        "xyz": [3.0414853452500004, 9.470077506785984, 0.5011931133399999]
      },
      {
        "species": [{ "element": "F", "occu": 1 }],
        "abc": [0.629589, 0.807145999999999, 0.97957],
        "properties": { "magmom": 0.0 },
        "label": "F",
        "xyz": [-1.3741225008499924, 13.85998455833499, 9.58051981724]
      },
      {
        "species": [{ "element": "F", "occu": 1 }],
        "abc": [0.370411, 0.192854, 0.02043],
        "properties": { "magmom": 0.0 },
        "label": "F",
        "xyz": [1.37412250085, 4.426984441665001, 0.19981218275999998]
      },
      {
        "species": [{ "element": "F", "occu": 1 }],
        "abc": [0.192854, 0.370411, 0.5204300000000001],
        "properties": { "magmom": 0.0 },
        "label": "F",
        "xyz": [-1.37412250085, 5.811389941665, 5.08997818276]
      },
      {
        "species": [{ "element": "F", "occu": 1 }],
        "abc": [0.807145999999999, 0.629589, 0.47957000000000005],
        "properties": { "magmom": 0.0 },
        "label": "F",
        "xyz": [1.3741225008499924, 12.47557905833499, 4.69035381724]
      },
      {
        "species": [{ "element": "F", "occu": 1 }],
        "abc": [0.605267999999999, 0.015082, 0.575136],
        "properties": { "magmom": 0.0 },
        "label": "F",
        "xyz": [4.567478963299992, 6.405787540945993, 5.625021025152]
      },
      {
        "species": [{ "element": "F", "occu": 1 }],
        "abc": [0.39473199999999903, 0.984918, 0.424863999999999],
        "properties": { "magmom": 0.0 },
        "label": "F",
        "xyz": [-4.567478963300006, 11.88118145905399, 4.15531097484799]
      },
      {
        "species": [{ "element": "F", "occu": 1 }],
        "abc": [0.984918, 0.39473199999999903, 0.924863999999999],
        "properties": { "magmom": 0.0 },
        "label": "F",
        "xyz": [4.567478963300006, 13.265586959053989, 9.04547697484799]
      },
      {
        "species": [{ "element": "F", "occu": 1 }],
        "abc": [0.015082, 0.605267999999999, 0.075136],
        "properties": { "magmom": 0.0 },
        "label": "F",
        "xyz": [-4.567478963299992, 5.021382040945993, 0.734855025152]
      },
      {
        "species": [{ "element": "F", "occu": 1 }],
        "abc": [0.887097999999999, 0.998151999999999, 0.647933],
        "properties": { "magmom": 0.0 },
        "label": "F",
        "xyz": [-0.8594524586999999, 16.421807702412984, 6.336999853756]
      },
      {
        "species": [{ "element": "F", "occu": 1 }],
        "abc": [0.112901999999999, 0.0018479999999990002, 0.352066999999999],
        "properties": { "magmom": 0.0 },
        "label": "F",
        "xyz": [0.8594524587, 1.8651612975869818, 3.44333214624399]
      },
      {
        "species": [{ "element": "F", "occu": 1 }],
        "abc": [0.0018479999999990002, 0.112901999999999, 0.852066999999999],
        "properties": { "magmom": 0.0 },
        "label": "F",
        "xyz": [-0.8594524587, 3.249566797586982, 8.33349814624399]
      },
      {
        "species": [{ "element": "F", "occu": 1 }],
        "abc": [0.998151999999999, 0.887097999999999, 0.147932999999999],
        "properties": { "magmom": 0.0 },
        "label": "F",
        "xyz": [0.8594524586999999, 15.037402202412983, 1.4468338537559902]
      },
      {
        "species": [{ "element": "F", "occu": 1 }],
        "abc": [0.550373, 0.649377, 0.737926],
        "properties": { "magmom": 0.0 },
        "label": "F",
        "xyz": [-0.7661969061999994, 11.352132656236002, 7.2171612714319995]
      },
      {
        "species": [{ "element": "F", "occu": 1 }],
        "abc": [0.449627, 0.350622999999999, 0.262074],
        "properties": { "magmom": 0.0 },
        "label": "F",
        "xyz": [0.7661969062000074, 6.934836343763991, 2.5631707285679997]
      },
      {
        "species": [{ "element": "F", "occu": 1 }],
        "abc": [0.350622999999999, 0.449627, 0.762073999999999],
        "properties": { "magmom": 0.0 },
        "label": "F",
        "xyz": [-0.7661969062000074, 8.319241843763988, 7.45333672856799]
      },
      {
        "species": [{ "element": "F", "occu": 1 }],
        "abc": [0.649377, 0.550373, 0.237926],
        "properties": { "magmom": 0.0 },
        "label": "F",
        "xyz": [0.7661969061999994, 9.967727156236, 2.3269952714319997]
      },
      {
        "species": [{ "element": "F", "occu": 1 }],
        "abc": [0.451932, 0.046605, 0.856568999999999],
        "properties": { "magmom": 0.0 },
        "label": "F",
        "xyz": [3.13684591935, 6.239865636881998, 8.37752920090799]
      },
      {
        "species": [{ "element": "F", "occu": 1 }],
        "abc": [0.548068, 0.953395, 0.143431],
        "properties": { "magmom": 0.0 },
        "label": "F",
        "xyz": [-3.13684591935, 12.047103363117998, 1.402802799092]
      },
      {
        "species": [{ "element": "F", "occu": 1 }],
        "abc": [0.953395, 0.548068, 0.643431],
        "properties": { "magmom": 0.0 },
        "label": "F",
        "xyz": [3.13684591935, 13.431508863117998, 6.292968799092]
      },
      {
        "species": [{ "element": "F", "occu": 1 }],
        "abc": [0.046605, 0.451932, 0.356568999999999],
        "properties": { "magmom": 0.0 },
        "label": "F",
        "xyz": [-3.13684591935, 4.855460136881997, 3.4873632009079905]
      },
      {
        "species": [{ "element": "F", "occu": 1 }],
        "abc": [0.819522, 0.017761, 0.948364],
        "properties": { "magmom": 0.0 },
        "label": "F",
        "xyz": [6.20486846705, 9.122385617561, 9.275314776847999]
      },
      {
        "species": [{ "element": "F", "occu": 1 }],
        "abc": [0.180478, 0.982239, 0.051635999999999],
        "properties": { "magmom": 0.0 },
        "label": "F",
        "xyz": [-6.204868467049999, 9.164583382438996, 0.5050172231519903]
      },
      {
        "species": [{ "element": "F", "occu": 1 }],
        "abc": [0.982239, 0.180478, 0.551636],
        "properties": { "magmom": 0.0 },
        "label": "F",
        "xyz": [6.204868467049999, 10.548988882439, 5.395183223152]
      },
      {
        "species": [{ "element": "F", "occu": 1 }],
        "abc": [0.017761, 0.819522, 0.448364],
        "properties": { "magmom": 0.0 },
        "label": "F",
        "xyz": [-6.20486846705, 7.7379801175609995, 4.385148776847999]
      }
    ]
  },
  "task_ids": null,
  "uncorrected_energy_per_atom": null,
  "energy_per_atom": -6.509578187840909,
  "formation_energy_per_atom": -1.270810759431818,
  "energy_above_hull": 0.216218132045454,
  "is_stable": false,
  "equilibrium_reaction_energy_per_atom": null,
  "decomposes_to": null,
  "xas": null,
  "grain_boundaries": null,
  "band_gap": 2.9654,
  "cbm": null,
  "vbm": null,
  "efermi": -2.11617134,
  "is_gap_direct": null,
  "is_metal": null,
  "es_source_calc_id": null,
  "bandstructure": null,
  "dos": null,
  "dos_energy_up": null,
  "dos_energy_down": null,
  "is_magnetic": null,
  "ordering": null,
  "total_magnetization": 0.0003759,
  "total_magnetization_normalized_vol": null,
  "total_magnetization_normalized_formula_units": null,
  "num_magnetic_sites": null,
  "num_unique_magnetic_sites": null,
  "types_of_magnetic_species": null,
  "bulk_modulus": null,
  "shear_modulus": null,
  "universal_anisotropy": null,
  "homogeneous_poisson": null,
  "e_total": null,
  "e_ionic": null,
  "e_electronic": null,
  "n": null,
  "e_ij_max": null,
  "weighted_surface_energy_EV_PER_ANG2": null,
  "weighted_surface_energy": null,
  "weighted_work_function": null,
  "surface_anisotropy": null,
  "shape_factor": null,
  "has_reconstructed": null,
  "possible_species": null,
  "has_props": null,
  "theoretical": null,
  "database_IDs": null,
  "fields_not_requested": [
    "builder_meta",
    "nsites",
    "elements",
    "nelements",
    "composition",
    "composition_reduced",
    "chemsys",
    "symmetry",
    "property_name",
    "deprecated",
    "deprecation_reasons",
    "last_updated",
    "origins",
    "warnings",
    "task_ids",
    "uncorrected_energy_per_atom",
    "equilibrium_reaction_energy_per_atom",
    "decomposes_to",
    "xas",
    "grain_boundaries",
    "cbm",
    "vbm",
    "is_gap_direct",
    "is_metal",
    "es_source_calc_id",
    "bandstructure",
    "dos",
    "dos_energy_up",
    "dos_energy_down",
    "is_magnetic",
    "ordering",
    "total_magnetization_normalized_vol",
    "total_magnetization_normalized_formula_units",
    "num_magnetic_sites",
    "num_unique_magnetic_sites",
    "types_of_magnetic_species",
    "bulk_modulus",
    "shear_modulus",
    "universal_anisotropy",
    "homogeneous_poisson",
    "e_total",
    "e_ionic",
    "e_electronic",
    "n",
    "e_ij_max",
    "weighted_surface_energy_EV_PER_ANG2",
    "weighted_surface_energy",
    "weighted_work_function",
    "surface_anisotropy",
    "shape_factor",
    "has_reconstructed",
    "possible_species",
    "has_props",
    "theoretical",
    "database_IDs"
  ]
}
