{
  "builder_meta": null,
  "nsites": null,
  "elements": null,
  "nelements": null,
  "composition": null,
  "composition_reduced": null,
  "formula_pretty": "C5N4",
  "formula_anonymous": "A4B5",
  "chemsys": null,
  "volume": 278.5821502680412,
  "density": 1.383835057825388,
  "density_atomic": 15.476786126002288,
  "symmetry": null,
  "property_name": null,
  "material_id": "mp-651723",
  "deprecated": null,
  "deprecation_reasons": null,
  "last_updated": null,
  "origins": null,
  "warnings": null,
  "structure": {
    "@module": "pymatgen.core.structure",
    "@class": "Structure",
    "charge": 0,
    "lattice": {
      "matrix": [
        [4.6925740000000005, -4.547099, 0.0],
        [4.6925740000000005, 4.547099, 0.0],
        [0.286441, 0.0, 6.527964]
      ],
      "pbc": [true, true, true],
      "a": 6.534245179152448,
      "b": 6.534245179152448,
      "c": 6.534245360542944,
      "alpha": 88.19594471398969,
      "beta": 88.19594471398969,
      "gamma": 88.1959502483881,
      "volume": 278.58215026804123
    },
    "properties": {},
    "sites": [
      {
        "species": [{ "element": "C", "occu": 1 }],
        "abc": [0.622375, 0.43328099999999903, 0.317884],
        "properties": { "magmom": 0.0 },
        "label": "C",
        "xyz": [5.044798909387996, -0.8598291383060044, 2.075135308176]
      },
      {
        "species": [{ "element": "C", "occu": 1 }],
        "abc": [0.8178839999999991, 0.933280999999999, 0.122375],
        "properties": { "magmom": 0.0 },
        "label": "C",
        "xyz": [8.252524566084992, 0.5247215833029997, 0.7988595945]
      },
      {
        "species": [{ "element": "C", "occu": 1 }],
        "abc": [0.122375, 0.8178839999999991, 0.933280999999999],
        "properties": { "magmom": 0.0 },
        "label": "C",
        "xyz": [4.679564879586996, 3.162548278390996, 6.092424769883993]
      },
      {
        "species": [{ "element": "C", "occu": 1 }],
        "abc": [0.933280999999999, 0.122375, 0.8178839999999991],
        "properties": { "magmom": 0.0 },
        "label": "C",
        "xyz": [5.188019409387995, -3.687269861693996, 5.339117308175994]
      },
      {
        "species": [{ "element": "C", "occu": 1 }],
        "abc": [0.317884, 0.622375, 0.43328099999999903],
        "properties": { "magmom": 0.0 },
        "label": "C",
        "xyz": [4.536344379587001, 1.384550721609, 2.828442769883994]
      },
      {
        "species": [{ "element": "C", "occu": 1 }],
        "abc": [0.626688, 0.626688, 0.626688],
        "properties": { "magmom": 0.0 },
        "label": "C",
        "xyz": [6.061068767232001, 0.0, 4.090996703232]
      },
      {
        "species": [{ "element": "C", "occu": 1 }],
        "abc": [0.999838, 0.999838, 0.999838],
        "properties": { "magmom": 0.0 },
        "label": "C",
        "xyz": [9.670022202582002, 0.0, 6.526906469832]
      },
      {
        "species": [{ "element": "C", "occu": 1 }],
        "abc": [0.43328099999999903, 0.317884, 0.622375],
        "properties": { "magmom": 0.0 },
        "label": "C",
        "xyz": [3.7031710660849964, -0.5247215833029957, 4.0628415945]
      },
      {
        "species": [{ "element": "C", "occu": 1 }],
        "abc": [0.499838, 0.499838, 0.499838],
        "properties": { "magmom": 0.0 },
        "label": "C",
        "xyz": [4.834227702582001, 0.0, 3.262924469832]
      },
      {
        "species": [{ "element": "C", "occu": 1 }],
        "abc": [0.126688, 0.126688, 0.126688],
        "properties": { "magmom": 0.0 },
        "label": "C",
        "xyz": [1.225274267232, 0.0, 0.827014703232]
      },
      {
        "species": [{ "element": "N", "occu": 1 }],
        "abc": [0.720232, 0.380864, 0.176209],
        "properties": { "magmom": -0.0 },
        "label": "N",
        "xyz": [5.217447943273, -1.5431398934320002, 1.150286008476]
      },
      {
        "species": [{ "element": "N", "occu": 1 }],
        "abc": [0.220231999999999, 0.676209, 0.880864],
        "properties": { "magmom": -0.0 },
        "label": "N",
        "xyz": [4.4589312941579955, 2.0733725607230045, 5.7502484808959995]
      },
      {
        "species": [{ "element": "N", "occu": 1 }],
        "abc": [0.676209, 0.880864, 0.220231999999999],
        "properties": { "magmom": -0.0 },
        "label": "N",
        "xyz": [7.369763750214, 0.9305865458450002, 1.4376665676479936]
      },
      {
        "species": [{ "element": "N", "occu": 1 }],
        "abc": [0.380864, 0.176209, 0.720232],
        "properties": { "magmom": -0.0 },
        "label": "N",
        "xyz": [2.8204102502140005, -0.9305865458449999, 4.701648567648]
      },
      {
        "species": [{ "element": "N", "occu": 1 }],
        "abc": [0.22622899999999901, 0.22622899999999901, 0.22622899999999901],
        "properties": { "magmom": 0.0 },
        "label": "N",
        "xyz": [2.187993907880991, 0.0, 1.4768147677559935]
      },
      {
        "species": [{ "element": "N", "occu": 1 }],
        "abc": [0.880864, 0.220231999999999, 0.676209],
        "properties": { "magmom": -0.0 },
        "label": "N",
        "xyz": [5.360668443272996, -3.0039591065680047, 4.414268008475999]
      },
      {
        "species": [{ "element": "N", "occu": 1 }],
        "abc": [0.726229, 0.726229, 0.726229],
        "properties": { "magmom": 0.0 },
        "label": "N",
        "xyz": [7.023788407881001, 0.0, 4.740796767756]
      },
      {
        "species": [{ "element": "N", "occu": 1 }],
        "abc": [0.176209, 0.720232, 0.380864],
        "properties": { "magmom": -0.0 },
        "label": "N",
        "xyz": [4.315710794158001, 2.473726439277, 2.486266480896]
      }
    ]
  },
  "task_ids": null,
  "uncorrected_energy_per_atom": null,
  "energy_per_atom": -8.266992408333333,
  "formation_energy_per_atom": 0.5659451963888871,
  "energy_above_hull": 0.5659451963888881,
  "is_stable": false,
  "equilibrium_reaction_energy_per_atom": null,
  "decomposes_to": null,
  "xas": null,
  "grain_boundaries": null,
  "band_gap": 5.8888,
  "cbm": null,
  "vbm": null,
  "efermi": -3.54294425,
  "is_gap_direct": null,
  "is_metal": null,
  "es_source_calc_id": null,
  "bandstructure": null,
  "dos": null,
  "dos_energy_up": null,
  "dos_energy_down": null,
  "is_magnetic": null,
  "ordering": null,
  "total_magnetization": 0.0,
  "total_magnetization_normalized_vol": null,
  "total_magnetization_normalized_formula_units": null,
  "num_magnetic_sites": null,
  "num_unique_magnetic_sites": null,
  "types_of_magnetic_species": null,
  "bulk_modulus": null,
  "shear_modulus": null,
  "universal_anisotropy": null,
  "homogeneous_poisson": null,
  "e_total": null,
  "e_ionic": null,
  "e_electronic": null,
  "n": null,
  "e_ij_max": null,
  "weighted_surface_energy_EV_PER_ANG2": null,
  "weighted_surface_energy": null,
  "weighted_work_function": null,
  "surface_anisotropy": null,
  "shape_factor": null,
  "has_reconstructed": null,
  "possible_species": null,
  "has_props": null,
  "theoretical": null,
  "database_IDs": null,
  "fields_not_requested": [
    "builder_meta",
    "nsites",
    "elements",
    "nelements",
    "composition",
    "composition_reduced",
    "chemsys",
    "symmetry",
    "property_name",
    "deprecated",
    "deprecation_reasons",
    "last_updated",
    "origins",
    "warnings",
    "task_ids",
    "uncorrected_energy_per_atom",
    "equilibrium_reaction_energy_per_atom",
    "decomposes_to",
    "xas",
    "grain_boundaries",
    "cbm",
    "vbm",
    "is_gap_direct",
    "is_metal",
    "es_source_calc_id",
    "bandstructure",
    "dos",
    "dos_energy_up",
    "dos_energy_down",
    "is_magnetic",
    "ordering",
    "total_magnetization_normalized_vol",
    "total_magnetization_normalized_formula_units",
    "num_magnetic_sites",
    "num_unique_magnetic_sites",
    "types_of_magnetic_species",
    "bulk_modulus",
    "shear_modulus",
    "universal_anisotropy",
    "homogeneous_poisson",
    "e_total",
    "e_ionic",
    "e_electronic",
    "n",
    "e_ij_max",
    "weighted_surface_energy_EV_PER_ANG2",
    "weighted_surface_energy",
    "weighted_work_function",
    "surface_anisotropy",
    "shape_factor",
    "has_reconstructed",
    "possible_species",
    "has_props",
    "theoretical",
    "database_IDs"
  ]
}
