{
  "builder_meta": null,
  "nsites": null,
  "elements": null,
  "nelements": null,
  "composition": null,
  "composition_reduced": null,
  "formula_pretty": "C6F5",
  "formula_anonymous": "A5B6",
  "chemsys": null,
  "volume": 563.6197628913404,
  "density": 1.9687270834032,
  "density_atomic": 12.809540065712282,
  "symmetry": null,
  "property_name": null,
  "material_id": "mp-1214171",
  "deprecated": null,
  "deprecation_reasons": null,
  "last_updated": null,
  "origins": null,
  "warnings": null,
  "structure": {
    "@module": "pymatgen.core.structure",
    "@class": "Structure",
    "charge": 0,
    "lattice": {
      "matrix": [
        [0.0, 6.75243, 13.232046],
        [3.154054, 0.0, 13.232046],
        [3.154054, 6.75243, 0.0]
      ],
      "pbc": [true, true, true],
      "a": 14.855381255660053,
      "b": 13.602760674989177,
      "c": 7.452742283201265,
      "alpha": 84.36858958872757,
      "beta": 65.68001862652551,
      "gamma": 29.951391784746935,
      "volume": 563.6197628913404
    },
    "properties": {},
    "sites": [
      {
        "species": [{ "element": "C", "occu": 1 }],
        "abc": [0.307722, 0.222881, 0.967151],
        "properties": { "magmom": -0.0 },
        "label": "C",
        "xyz": [3.7534251897279995, 8.608490691390001, 7.020963303738]
      },
      {
        "species": [{ "element": "C", "occu": 1 }],
        "abc": [0.502247, 0.967151, 0.222881],
        "properties": { "magmom": -0.0 },
        "label": "C",
        "xyz": [3.7534251897279995, 4.89637606104, 19.443141928308002]
      },
      {
        "species": [{ "element": "C", "occu": 1 }],
        "abc": [0.027118999999999, 0.942278, 0.747753],
        "properties": { "magmom": -0.0 },
        "label": "C",
        "xyz": [5.3304490356739995, 5.232268938959994, 12.827105696261986]
      },
      {
        "species": [{ "element": "C", "occu": 1 }],
        "abc": [0.282848999999999, 0.747753, 0.942278],
        "properties": { "magmom": -0.0 },
        "label": "C",
        "xyz": [5.3304490356739995, 8.272584308609993, 13.636973071691987]
      },
      {
        "species": [{ "element": "C", "occu": 1 }],
        "abc": [0.263226, 0.331036999999999, 0.848067999999999],
        "properties": { "magmom": 0.0 },
        "label": "C",
        "xyz": [3.718960841669994, 7.503934944419994, 7.863315352097987]
      },
      {
        "species": [{ "element": "C", "occu": 1 }],
        "abc": [0.557669, 0.848067999999999, 0.331036999999999],
        "properties": { "magmom": 0.0 },
        "label": "C",
        "xyz": [3.718960841669994, 6.000925055579994, 18.600776647901988]
      },
      {
        "species": [{ "element": "C", "occu": 1 }],
        "abc": [0.918963, 0.986773999999999, 0.692330999999999],
        "properties": { "magmom": 0.0 },
        "label": "C",
        "xyz": [5.2959878416699935, 10.880149944419994, 25.216799647901986]
      },
      {
        "species": [{ "element": "C", "occu": 1 }],
        "abc": [0.401931999999999, 0.692330999999999, 0.986773999999999],
        "properties": { "magmom": 0.0 },
        "label": "C",
        "xyz": [5.2959878416699935, 9.377140055579988, 14.479338352097974]
      },
      {
        "species": [{ "element": "C", "occu": 1 }],
        "abc": [0.28624000000000005, 0.876693, 0.132568],
        "properties": { "magmom": -0.0 },
        "label": "C",
        "xyz": [3.183263694094, 2.8279717034400003, 15.387982950918]
      },
      {
        "species": [{ "element": "C", "occu": 1 }],
        "abc": [0.704499, 0.132568, 0.876693],
        "properties": { "magmom": -0.0 },
        "label": "C",
        "xyz": [3.183263694094, 10.676888296560001, 11.076109049082]
      },
      {
        "species": [{ "element": "C", "occu": 1 }],
        "abc": [0.373307, 0.9637600000000001, 0.545501],
        "properties": { "magmom": -0.0 },
        "label": "C",
        "xyz": [4.760290694094, 6.2041867034400004, 17.692132049082]
      },
      {
        "species": [{ "element": "C", "occu": 1 }],
        "abc": [0.117432, 0.545501, 0.9637600000000001],
        "properties": { "magmom": -0.0 },
        "label": "C",
        "xyz": [4.760290694094, 7.300673296560001, 8.771959950918001]
      },
      {
        "species": [{ "element": "C", "occu": 1 }],
        "abc": [0.93727, 0.16564, 0.18366000000000002],
        "properties": { "magmom": -0.0 },
        "label": "C",
        "xyz": [1.1017110622000001, 7.5690013599000014, 14.59375585386]
      },
      {
        "species": [{ "element": "C", "occu": 1 }],
        "abc": [0.71343, 0.18366000000000002, 0.16564],
        "properties": { "magmom": -0.0 },
        "label": "C",
        "xyz": [1.1017110622000001, 5.935858640100001, 11.870336146140001]
      },
      {
        "species": [{ "element": "C", "occu": 1 }],
        "abc": [0.08436, 0.31273, 0.53657],
        "properties": { "magmom": -0.0 },
        "label": "C",
        "xyz": [2.6787380622, 4.1927863599, 5.25431314614]
      },
      {
        "species": [{ "element": "C", "occu": 1 }],
        "abc": [0.06634000000000001, 0.53657, 0.31273],
        "properties": { "magmom": -0.0 },
        "label": "C",
        "xyz": [2.6787380622, 2.5596436401000005, 7.977732853860001]
      },
      {
        "species": [{ "element": "C", "occu": 1 }],
        "abc": [0.049530000000000005, 0.983993999999999, 0.037410000000000006],
        "properties": { "magmom": 0.0 },
        "label": "C",
        "xyz": [3.221563371815997, 0.5870562642000001, 13.675637110103988]
      },
      {
        "species": [{ "element": "C", "occu": 1 }],
        "abc": [0.929066, 0.037410000000000006, 0.983993999999999],
        "properties": { "magmom": 0.0 },
        "label": "C",
        "xyz": [3.221563371815997, 12.917803735799993, 12.788454889896]
      },
      {
        "species": [{ "element": "C", "occu": 1 }],
        "abc": [0.266005999999999, 0.20047, 0.320934],
        "properties": { "magmom": 0.0 },
        "label": "C",
        "xyz": [1.6445363718159998, 3.963271264199993, 6.172431889895988]
      },
      {
        "species": [{ "element": "C", "occu": 1 }],
        "abc": [0.21259000000000003, 0.320934, 0.20047],
        "properties": { "magmom": 0.0 },
        "label": "C",
        "xyz": [1.6445363718159998, 2.7891587358000005, 7.059614110104]
      },
      {
        "species": [{ "element": "C", "occu": 1 }],
        "abc": [0.052764, 0.114151999999999, 0.231674],
        "properties": { "magmom": 0.0 },
        "label": "C",
        "xyz": [1.0907538786039968, 1.92064768434, 2.208640190135987]
      },
      {
        "species": [{ "element": "C", "occu": 1 }],
        "abc": [0.60141, 0.231674, 0.114151999999999],
        "properties": { "magmom": 0.0 },
        "label": "C",
        "xyz": [1.0907538786039968, 4.831782315659993, 11.023405809864]
      },
      {
        "species": [{ "element": "C", "occu": 1 }],
        "abc": [0.135848, 0.197236, 0.64859],
        "properties": { "magmom": 0.0 },
        "label": "C",
        "xyz": [2.667780878604, 5.296862684340001, 4.407382809864]
      },
      {
        "species": [{ "element": "C", "occu": 1 }],
        "abc": [0.018326, 0.64859, 0.197236],
        "properties": { "magmom": 0.0 },
        "label": "C",
        "xyz": [2.667780878604, 1.45556731566, 8.824663190136]
      },
      {
        "species": [{ "element": "F", "occu": 1 }],
        "abc": [0.853757, 0.536192, 0.637548],
        "properties": { "magmom": 0.0 },
        "label": "F",
        "xyz": [3.70203934196, 10.06993262115, 18.391869105654]
      },
      {
        "species": [{ "element": "F", "occu": 1 }],
        "abc": [0.972503, 0.637548, 0.536192],
        "properties": { "magmom": 0.0 },
        "label": "F",
        "xyz": [3.70203934196, 10.18735737885, 21.304268894346002]
      },
      {
        "species": [{ "element": "F", "occu": 1 }],
        "abc": [0.713808, 0.396242999999999, 0.277497],
        "properties": { "magmom": 0.0 },
        "label": "F",
        "xyz": [2.1250123419599967, 6.69371762115, 14.688245894345988]
      },
      {
        "species": [{ "element": "F", "occu": 1 }],
        "abc": [0.612452, 0.277497, 0.396242999999999],
        "properties": { "magmom": 0.0 },
        "label": "F",
        "xyz": [2.1250123419599967, 6.811142378849993, 11.775846105654]
      },
      {
        "species": [{ "element": "F", "occu": 1 }],
        "abc": [0.400354999999999, 0.825009, 0.175503],
        "properties": { "magmom": -0.0 },
        "label": "F",
        "xyz": [3.155668875648, 3.8884408349399937, 16.214072814743986]
      },
      {
        "species": [{ "element": "F", "occu": 1 }],
        "abc": [0.599133, 0.175503, 0.825009],
        "properties": { "magmom": -0.0 },
        "label": "F",
        "xyz": [3.155668875648, 9.616419165060002, 10.250019185256]
      },
      {
        "species": [{ "element": "F", "occu": 1 }],
        "abc": [0.424991, 0.849645, 0.650867],
        "properties": { "magmom": -0.0 },
        "label": "F",
        "xyz": [4.732695875648, 7.26465583494, 16.866042185256]
      },
      {
        "species": [{ "element": "F", "occu": 1 }],
        "abc": [0.074497, 0.650867, 0.849645],
        "properties": { "magmom": -0.0 },
        "label": "F",
        "xyz": [4.732695875648, 6.240204165060001, 9.598049814744]
      },
      {
        "species": [{ "element": "F", "occu": 1 }],
        "abc": [0.230414999999999, 0.807195999999999, 0.566398],
        "properties": { "magmom": 0.0 },
        "label": "F",
        "xyz": [4.332389650075997, 5.380424005589993, 13.729716482105975]
      },
      {
        "species": [{ "element": "F", "occu": 1 }],
        "abc": [0.395991, 0.566398, 0.807195999999999],
        "properties": { "magmom": -0.0 },
        "label": "F",
        "xyz": [4.332389650075997, 8.124435994409993, 12.734375517894]
      },
      {
        "species": [{ "element": "F", "occu": 1 }],
        "abc": [0.442804, 0.019584999999999003, 0.854008999999999],
        "properties": { "magmom": 0.0 },
        "label": "F",
        "xyz": [2.755362650075994, 8.756639005589994, 6.118352517893987]
      },
      {
        "species": [{ "element": "F", "occu": 1 }],
        "abc": [0.683601999999999, 0.854008999999999, 0.019584999999999003],
        "properties": { "magmom": 0.0 },
        "label": "F",
        "xyz": [2.755362650075994, 4.748220994409987, 20.345739482105976]
      },
      {
        "species": [{ "element": "F", "occu": 1 }],
        "abc": [0.787346, 0.623146, 0.231381999999999],
        "properties": { "magmom": -0.0 },
        "label": "F",
        "xyz": [2.6952274565119967, 6.878889509039993, 18.663695026632]
      },
      {
        "species": [{ "element": "F", "occu": 1 }],
        "abc": [0.358126, 0.231381999999999, 0.623146],
        "properties": { "magmom": -0.0 },
        "label": "F",
        "xyz": [2.6952274565119967, 6.62597049096, 7.800396973367987]
      },
      {
        "species": [{ "element": "F", "occu": 1 }],
        "abc": [0.626854, 0.462653999999999, 0.891874],
        "properties": { "magmom": -0.0 },
        "label": "F",
        "xyz": [4.272254456511996, 10.25510450904, 14.416419973367987]
      },
      {
        "species": [{ "element": "F", "occu": 1 }],
        "abc": [0.018618, 0.891874, 0.462653999999999],
        "properties": { "magmom": -0.0 },
        "label": "F",
        "xyz": [4.272254456511996, 3.2497554909599935, 12.047672026632]
      },
      {
        "species": [{ "element": "F", "occu": 1 }],
        "abc": [0.941291999999999, 0.29268000000000005, 0.370459],
        "properties": { "magmom": 0.0 },
        "label": "F",
        "xyz": [2.091576215506, 8.857506804929994, 16.32797426671199]
      },
      {
        "species": [{ "element": "F", "occu": 1 }],
        "abc": [0.395569, 0.370459, 0.29268000000000005],
        "properties": { "magmom": 0.0 },
        "label": "F",
        "xyz": [2.091576215506, 4.647353195070001, 10.136117733288]
      },
      {
        "species": [{ "element": "F", "occu": 1 }],
        "abc": [0.9573200000000001, 0.308708, 0.854430999999999],
        "properties": { "magmom": 0.0 },
        "label": "F",
        "xyz": [3.668603215505997, 12.233721804929994, 16.752140733288]
      },
      {
        "species": [{ "element": "F", "occu": 1 }],
        "abc": [0.879540999999999, 0.854430999999999, 0.308708],
        "properties": { "magmom": 0.0 },
        "label": "F",
        "xyz": [3.668603215505997, 8.023568195069993, 22.943997266711975]
      }
    ]
  },
  "task_ids": null,
  "uncorrected_energy_per_atom": null,
  "energy_per_atom": -6.853869579318182,
  "formation_energy_per_atom": -0.9501191402272731,
  "energy_above_hull": 0.289071602670453,
  "is_stable": false,
  "equilibrium_reaction_energy_per_atom": null,
  "decomposes_to": null,
  "xas": null,
  "grain_boundaries": null,
  "band_gap": 3.776399999999999,
  "cbm": null,
  "vbm": null,
  "efermi": -0.62947366,
  "is_gap_direct": null,
  "is_metal": null,
  "es_source_calc_id": null,
  "bandstructure": null,
  "dos": null,
  "dos_energy_up": null,
  "dos_energy_down": null,
  "is_magnetic": null,
  "ordering": null,
  "total_magnetization": 0.001699199999999,
  "total_magnetization_normalized_vol": null,
  "total_magnetization_normalized_formula_units": null,
  "num_magnetic_sites": null,
  "num_unique_magnetic_sites": null,
  "types_of_magnetic_species": null,
  "bulk_modulus": null,
  "shear_modulus": null,
  "universal_anisotropy": null,
  "homogeneous_poisson": null,
  "e_total": null,
  "e_ionic": null,
  "e_electronic": null,
  "n": null,
  "e_ij_max": null,
  "weighted_surface_energy_EV_PER_ANG2": null,
  "weighted_surface_energy": null,
  "weighted_work_function": null,
  "surface_anisotropy": null,
  "shape_factor": null,
  "has_reconstructed": null,
  "possible_species": null,
  "has_props": null,
  "theoretical": null,
  "database_IDs": null,
  "fields_not_requested": [
    "builder_meta",
    "nsites",
    "elements",
    "nelements",
    "composition",
    "composition_reduced",
    "chemsys",
    "symmetry",
    "property_name",
    "deprecated",
    "deprecation_reasons",
    "last_updated",
    "origins",
    "warnings",
    "task_ids",
    "uncorrected_energy_per_atom",
    "equilibrium_reaction_energy_per_atom",
    "decomposes_to",
    "xas",
    "grain_boundaries",
    "cbm",
    "vbm",
    "is_gap_direct",
    "is_metal",
    "es_source_calc_id",
    "bandstructure",
    "dos",
    "dos_energy_up",
    "dos_energy_down",
    "is_magnetic",
    "ordering",
    "total_magnetization_normalized_vol",
    "total_magnetization_normalized_formula_units",
    "num_magnetic_sites",
    "num_unique_magnetic_sites",
    "types_of_magnetic_species",
    "bulk_modulus",
    "shear_modulus",
    "universal_anisotropy",
    "homogeneous_poisson",
    "e_total",
    "e_ionic",
    "e_electronic",
    "n",
    "e_ij_max",
    "weighted_surface_energy_EV_PER_ANG2",
    "weighted_surface_energy",
    "weighted_work_function",
    "surface_anisotropy",
    "shape_factor",
    "has_reconstructed",
    "possible_species",
    "has_props",
    "theoretical",
    "database_IDs"
  ]
}
