{
  "builder_meta": null,
  "nsites": null,
  "elements": null,
  "nelements": null,
  "composition": null,
  "composition_reduced": null,
  "formula_pretty": "C7Cl5",
  "formula_anonymous": "A5B7",
  "chemsys": null,
  "volume": 1795.8295875221002,
  "density": 1.9332128911413062,
  "density_atomic": 18.70655820335521,
  "symmetry": null,
  "property_name": null,
  "material_id": "mp-1214386",
  "deprecated": null,
  "deprecation_reasons": null,
  "last_updated": null,
  "origins": null,
  "warnings": null,
  "structure": {
    "@module": "pymatgen.core.structure",
    "@class": "Structure",
    "charge": 0,
    "lattice": {
      "matrix": [
        [5.230389, 0.0, 0.0],
        [0.0, 18.255471, 0.0],
        [0.0, 0.0, 18.807804]
      ],
      "pbc": [true, true, true],
      "a": 5.230389,
      "b": 18.255471,
      "c": 18.807804,
      "alpha": 90.0,
      "beta": 90.0,
      "gamma": 90.0,
      "volume": 1795.8295875221002
    },
    "properties": {},
    "sites": [
      {
        "species": [{ "element": "C", "occu": 1 }],
        "abc": [0.065472, 0.183971, 0.215696],
        "properties": { "magmom": -0.0 },
        "label": "C",
        "xyz": [0.342444028608, 3.358477255341, 4.056768091584]
      },
      {
        "species": [{ "element": "C", "occu": 1 }],
        "abc": [0.934527999999999, 0.816029, 0.784304],
        "properties": { "magmom": -0.0 },
        "label": "C",
        "xyz": [4.8879449713919945, 14.896993744659, 14.751035908416]
      },
      {
        "species": [{ "element": "C", "occu": 1 }],
        "abc": [0.434527999999999, 0.316029, 0.715696],
        "properties": { "magmom": -0.0 },
        "label": "C",
        "xyz": [2.2727504713919946, 5.769258244659, 13.460670091584001]
      },
      {
        "species": [{ "element": "C", "occu": 1 }],
        "abc": [0.934527999999999, 0.183971, 0.284304],
        "properties": { "magmom": -0.0 },
        "label": "C",
        "xyz": [4.8879449713919945, 3.358477255341, 5.347133908416001]
      },
      {
        "species": [{ "element": "C", "occu": 1 }],
        "abc": [0.565472, 0.683971, 0.284304],
        "properties": { "magmom": -0.0 },
        "label": "C",
        "xyz": [2.957638528608, 12.486212755341, 5.347133908416001]
      },
      {
        "species": [{ "element": "C", "occu": 1 }],
        "abc": [0.065472, 0.816029, 0.715696],
        "properties": { "magmom": -0.0 },
        "label": "C",
        "xyz": [0.342444028608, 14.896993744659, 13.460670091584001]
      },
      {
        "species": [{ "element": "C", "occu": 1 }],
        "abc": [0.565472, 0.316029, 0.784304],
        "properties": { "magmom": -0.0 },
        "label": "C",
        "xyz": [2.957638528608, 5.769258244659, 14.751035908416]
      },
      {
        "species": [{ "element": "C", "occu": 1 }],
        "abc": [0.434527999999999, 0.683971, 0.215696],
        "properties": { "magmom": -0.0 },
        "label": "C",
        "xyz": [2.2727504713919946, 12.486212755341, 4.056768091584]
      },
      {
        "species": [{ "element": "C", "occu": 1 }],
        "abc": [0.361486, 0.24404, 0.132893999999999],
        "properties": { "magmom": -0.0 },
        "label": "C",
        "xyz": [1.8907123980539997, 4.4550651428400005, 2.4994443047759813]
      },
      {
        "species": [{ "element": "C", "occu": 1 }],
        "abc": [0.638514, 0.7559600000000001, 0.867105999999999],
        "properties": { "magmom": -0.0 },
        "label": "C",
        "xyz": [3.339676601946, 13.800405857160001, 16.308359695223984]
      },
      {
        "species": [{ "element": "C", "occu": 1 }],
        "abc": [0.138514, 0.25596, 0.632894],
        "properties": { "magmom": -0.0 },
        "label": "C",
        "xyz": [0.7244821019459999, 4.67267035716, 11.903346304775999]
      },
      {
        "species": [{ "element": "C", "occu": 1 }],
        "abc": [0.638514, 0.24404, 0.367106],
        "properties": { "magmom": -0.0 },
        "label": "C",
        "xyz": [3.339676601946, 4.4550651428400005, 6.904457695224]
      },
      {
        "species": [{ "element": "C", "occu": 1 }],
        "abc": [0.861486, 0.74404, 0.367106],
        "properties": { "magmom": -0.0 },
        "label": "C",
        "xyz": [4.505906898054, 13.58280064284, 6.904457695224]
      },
      {
        "species": [{ "element": "C", "occu": 1 }],
        "abc": [0.361486, 0.7559600000000001, 0.632894],
        "properties": { "magmom": -0.0 },
        "label": "C",
        "xyz": [1.8907123980539997, 13.800405857160001, 11.903346304775999]
      },
      {
        "species": [{ "element": "C", "occu": 1 }],
        "abc": [0.861486, 0.25596, 0.867105999999999],
        "properties": { "magmom": -0.0 },
        "label": "C",
        "xyz": [4.505906898054, 4.67267035716, 16.308359695223984]
      },
      {
        "species": [{ "element": "C", "occu": 1 }],
        "abc": [0.138514, 0.74404, 0.132893999999999],
        "properties": { "magmom": -0.0 },
        "label": "C",
        "xyz": [0.7244821019459999, 13.58280064284, 2.4994443047759813]
      },
      {
        "species": [{ "element": "C", "occu": 1 }],
        "abc": [0.063196, 0.12178000000000001, 0.170122],
        "properties": { "magmom": -0.0 },
        "label": "C",
        "xyz": [0.33053966324399997, 2.22315125838, 3.199621232088]
      },
      {
        "species": [{ "element": "C", "occu": 1 }],
        "abc": [0.936804, 0.8782200000000001, 0.829878],
        "properties": { "magmom": -0.0 },
        "label": "C",
        "xyz": [4.899849336756, 16.03231974162, 15.608182767912]
      },
      {
        "species": [{ "element": "C", "occu": 1 }],
        "abc": [0.436803999999999, 0.37822000000000006, 0.670122],
        "properties": { "magmom": -0.0 },
        "label": "C",
        "xyz": [2.284654836755995, 6.904584241620001, 12.603523232088001]
      },
      {
        "species": [{ "element": "C", "occu": 1 }],
        "abc": [0.936804, 0.12178000000000001, 0.329878],
        "properties": { "magmom": -0.0 },
        "label": "C",
        "xyz": [4.899849336756, 2.22315125838, 6.2042807679120004]
      },
      {
        "species": [{ "element": "C", "occu": 1 }],
        "abc": [0.563196, 0.62178, 0.329878],
        "properties": { "magmom": -0.0 },
        "label": "C",
        "xyz": [2.945734163244, 11.35088675838, 6.2042807679120004]
      },
      {
        "species": [{ "element": "C", "occu": 1 }],
        "abc": [0.063196, 0.8782200000000001, 0.670122],
        "properties": { "magmom": -0.0 },
        "label": "C",
        "xyz": [0.33053966324399997, 16.03231974162, 12.603523232088001]
      },
      {
        "species": [{ "element": "C", "occu": 1 }],
        "abc": [0.563196, 0.37822000000000006, 0.829878],
        "properties": { "magmom": -0.0 },
        "label": "C",
        "xyz": [2.945734163244, 6.904584241620001, 15.608182767912]
      },
      {
        "species": [{ "element": "C", "occu": 1 }],
        "abc": [0.436803999999999, 0.62178, 0.170122],
        "properties": { "magmom": -0.0 },
        "label": "C",
        "xyz": [2.284654836755995, 11.35088675838, 3.199621232088]
      },
      {
        "species": [{ "element": "C", "occu": 1 }],
        "abc": [0.182106, 0.250147, 0.190435],
        "properties": { "magmom": -0.0 },
        "label": "C",
        "xyz": [0.9524852192339999, 4.5665513042370005, 3.58166415474]
      },
      {
        "species": [{ "element": "C", "occu": 1 }],
        "abc": [0.817894, 0.749853, 0.809565],
        "properties": { "magmom": -0.0 },
        "label": "C",
        "xyz": [4.277903780766, 13.688919695763, 15.22613984526]
      },
      {
        "species": [{ "element": "C", "occu": 1 }],
        "abc": [0.317894, 0.249853, 0.690435],
        "properties": { "magmom": -0.0 },
        "label": "C",
        "xyz": [1.662709280766, 4.5611841957629995, 12.98556615474]
      },
      {
        "species": [{ "element": "C", "occu": 1 }],
        "abc": [0.817894, 0.250147, 0.309565],
        "properties": { "magmom": -0.0 },
        "label": "C",
        "xyz": [4.277903780766, 4.5665513042370005, 5.82223784526]
      },
      {
        "species": [{ "element": "C", "occu": 1 }],
        "abc": [0.682106, 0.750147, 0.309565],
        "properties": { "magmom": -0.0 },
        "label": "C",
        "xyz": [3.567679719234, 13.694286804237, 5.82223784526]
      },
      {
        "species": [{ "element": "C", "occu": 1 }],
        "abc": [0.182106, 0.749853, 0.690435],
        "properties": { "magmom": -0.0 },
        "label": "C",
        "xyz": [0.9524852192339999, 13.688919695763, 12.98556615474]
      },
      {
        "species": [{ "element": "C", "occu": 1 }],
        "abc": [0.682106, 0.249853, 0.809565],
        "properties": { "magmom": -0.0 },
        "label": "C",
        "xyz": [3.567679719234, 4.5611841957629995, 15.22613984526]
      },
      {
        "species": [{ "element": "C", "occu": 1 }],
        "abc": [0.317894, 0.750147, 0.190435],
        "properties": { "magmom": -0.0 },
        "label": "C",
        "xyz": [1.662709280766, 13.694286804237, 3.58166415474]
      },
      {
        "species": [{ "element": "C", "occu": 1 }],
        "abc": [0.091796999999999, 0.317067999999999, 0.223097],
        "properties": { "magmom": -0.0 },
        "label": "C",
        "xyz": [0.48013401903299474, 5.788225679027982, 4.195964648988]
      },
      {
        "species": [{ "element": "C", "occu": 1 }],
        "abc": [0.908203, 0.682932, 0.776903],
        "properties": { "magmom": -0.0 },
        "label": "C",
        "xyz": [4.750254980967, 12.467245320972, 14.611839351012001]
      },
      {
        "species": [{ "element": "C", "occu": 1 }],
        "abc": [0.408203, 0.182931999999999, 0.723097],
        "properties": { "magmom": -0.0 },
        "label": "C",
        "xyz": [2.1350604809669997, 3.339509820971982, 13.599866648988]
      },
      {
        "species": [{ "element": "C", "occu": 1 }],
        "abc": [0.908203, 0.317067999999999, 0.276903],
        "properties": { "magmom": -0.0 },
        "label": "C",
        "xyz": [4.750254980967, 5.788225679027982, 5.207937351012]
      },
      {
        "species": [{ "element": "C", "occu": 1 }],
        "abc": [0.591797, 0.817068, 0.276903],
        "properties": { "magmom": -0.0 },
        "label": "C",
        "xyz": [3.095328519033, 14.915961179028, 5.207937351012]
      },
      {
        "species": [{ "element": "C", "occu": 1 }],
        "abc": [0.091796999999999, 0.682932, 0.723097],
        "properties": { "magmom": -0.0 },
        "label": "C",
        "xyz": [0.48013401903299474, 12.467245320972, 13.599866648988]
      },
      {
        "species": [{ "element": "C", "occu": 1 }],
        "abc": [0.591797, 0.182931999999999, 0.776903],
        "properties": { "magmom": -0.0 },
        "label": "C",
        "xyz": [3.095328519033, 3.339509820971982, 14.611839351012001]
      },
      {
        "species": [{ "element": "C", "occu": 1 }],
        "abc": [0.408203, 0.817068, 0.223097],
        "properties": { "magmom": -0.0 },
        "label": "C",
        "xyz": [2.1350604809669997, 14.915961179028, 4.195964648988]
      },
      {
        "species": [{ "element": "C", "occu": 1 }],
        "abc": [0.385158, 0.178173, 0.095108],
        "properties": { "magmom": -0.0 },
        "label": "C",
        "xyz": [2.014526166462, 3.2526320344829998, 1.788772622832]
      },
      {
        "species": [{ "element": "C", "occu": 1 }],
        "abc": [0.614842, 0.821827, 0.904891999999999],
        "properties": { "magmom": -0.0 },
        "label": "C",
        "xyz": [3.215862833538, 15.002838965517, 17.019031377167984]
      },
      {
        "species": [{ "element": "C", "occu": 1 }],
        "abc": [0.114842, 0.321827, 0.595108],
        "properties": { "magmom": -0.0 },
        "label": "C",
        "xyz": [0.600668333538, 5.875103465516999, 11.192674622832]
      },
      {
        "species": [{ "element": "C", "occu": 1 }],
        "abc": [0.614842, 0.178173, 0.404892],
        "properties": { "magmom": -0.0 },
        "label": "C",
        "xyz": [3.215862833538, 3.2526320344829998, 7.6151293771679995]
      },
      {
        "species": [{ "element": "C", "occu": 1 }],
        "abc": [0.885158, 0.678172999999999, 0.404892],
        "properties": { "magmom": -0.0 },
        "label": "C",
        "xyz": [4.629720666462, 12.380367534482982, 7.6151293771679995]
      },
      {
        "species": [{ "element": "C", "occu": 1 }],
        "abc": [0.385158, 0.821827, 0.595108],
        "properties": { "magmom": -0.0 },
        "label": "C",
        "xyz": [2.014526166462, 15.002838965517, 11.192674622832]
      },
      {
        "species": [{ "element": "C", "occu": 1 }],
        "abc": [0.885158, 0.321827, 0.904891999999999],
        "properties": { "magmom": -0.0 },
        "label": "C",
        "xyz": [4.629720666462, 5.875103465516999, 17.019031377167984]
      },
      {
        "species": [{ "element": "C", "occu": 1 }],
        "abc": [0.114842, 0.678172999999999, 0.095108],
        "properties": { "magmom": -0.0 },
        "label": "C",
        "xyz": [0.600668333538, 12.380367534482982, 1.788772622832]
      },
      {
        "species": [{ "element": "C", "occu": 1 }],
        "abc": [0.222348, 0.118465, 0.110473],
        "properties": { "magmom": -0.0 },
        "label": "C",
        "xyz": [1.1629665333719998, 2.162634372015, 2.0777545312920003]
      },
      {
        "species": [{ "element": "C", "occu": 1 }],
        "abc": [0.777652, 0.881535, 0.889527],
        "properties": { "magmom": -0.0 },
        "label": "C",
        "xyz": [4.067422466628, 16.092836627984997, 16.730049468708]
      },
      {
        "species": [{ "element": "C", "occu": 1 }],
        "abc": [0.277652, 0.381534999999999, 0.610472999999999],
        "properties": { "magmom": -0.0 },
        "label": "C",
        "xyz": [1.452227966628, 6.965101127984982, 11.481656531291982]
      },
      {
        "species": [{ "element": "C", "occu": 1 }],
        "abc": [0.777652, 0.118465, 0.389526999999999],
        "properties": { "magmom": -0.0 },
        "label": "C",
        "xyz": [4.067422466628, 2.162634372015, 7.3261474687079815]
      },
      {
        "species": [{ "element": "C", "occu": 1 }],
        "abc": [0.722348, 0.618464999999999, 0.389526999999999],
        "properties": { "magmom": -0.0 },
        "label": "C",
        "xyz": [3.7781610333719997, 11.290369872014983, 7.3261474687079815]
      },
      {
        "species": [{ "element": "C", "occu": 1 }],
        "abc": [0.222348, 0.881535, 0.610472999999999],
        "properties": { "magmom": -0.0 },
        "label": "C",
        "xyz": [1.1629665333719998, 16.092836627984997, 11.481656531291982]
      },
      {
        "species": [{ "element": "C", "occu": 1 }],
        "abc": [0.722348, 0.381534999999999, 0.889527],
        "properties": { "magmom": -0.0 },
        "label": "C",
        "xyz": [3.7781610333719997, 6.965101127984982, 16.730049468708]
      },
      {
        "species": [{ "element": "C", "occu": 1 }],
        "abc": [0.277652, 0.618464999999999, 0.110473],
        "properties": { "magmom": -0.0 },
        "label": "C",
        "xyz": [1.452227966628, 11.290369872014983, 2.0777545312920003]
      },
      {
        "species": [{ "element": "Cl", "occu": 1 }],
        "abc": [0.433548, 0.313255, 0.39232000000000006],
        "properties": { "magmom": -0.0 },
        "label": "Cl",
        "xyz": [2.2676246901719996, 5.718617568105, 7.3786776652800015]
      },
      {
        "species": [{ "element": "Cl", "occu": 1 }],
        "abc": [0.566452, 0.686744999999999, 0.60768],
        "properties": { "magmom": -0.0 },
        "label": "Cl",
        "xyz": [2.9627643098279997, 12.536853431894983, 11.429126334720001]
      },
      {
        "species": [{ "element": "Cl", "occu": 1 }],
        "abc": [0.066452, 0.186745, 0.8923200000000001],
        "properties": { "magmom": -0.0 },
        "label": "Cl",
        "xyz": [0.34756980982799995, 3.409117931895, 16.782579665280004]
      },
      {
        "species": [{ "element": "Cl", "occu": 1 }],
        "abc": [0.566452, 0.313255, 0.10768000000000001],
        "properties": { "magmom": -0.0 },
        "label": "Cl",
        "xyz": [2.9627643098279997, 5.718617568105, 2.0252243347200003]
      },
      {
        "species": [{ "element": "Cl", "occu": 1 }],
        "abc": [0.933547999999999, 0.813255, 0.10768000000000001],
        "properties": { "magmom": -0.0 },
        "label": "Cl",
        "xyz": [4.882819190171995, 14.846353068105, 2.0252243347200003]
      },
      {
        "species": [{ "element": "Cl", "occu": 1 }],
        "abc": [0.433548, 0.686744999999999, 0.8923200000000001],
        "properties": { "magmom": -0.0 },
        "label": "Cl",
        "xyz": [2.2676246901719996, 12.536853431894983, 16.782579665280004]
      },
      {
        "species": [{ "element": "Cl", "occu": 1 }],
        "abc": [0.933547999999999, 0.186745, 0.60768],
        "properties": { "magmom": -0.0 },
        "label": "Cl",
        "xyz": [4.882819190171995, 3.409117931895, 11.429126334720001]
      },
      {
        "species": [{ "element": "Cl", "occu": 1 }],
        "abc": [0.066452, 0.813255, 0.39232000000000006],
        "properties": { "magmom": -0.0 },
        "label": "Cl",
        "xyz": [0.34756980982799995, 14.846353068105, 7.3786776652800015]
      },
      {
        "species": [{ "element": "Cl", "occu": 1 }],
        "abc": [0.22010000000000002, 0.043570000000000005, 0.055798999999999],
        "properties": { "magmom": -0.0 },
        "label": "Cl",
        "xyz": [1.1512086189, 0.7953908714700001, 1.0494566553959812]
      },
      {
        "species": [{ "element": "Cl", "occu": 1 }],
        "abc": [0.7799, 0.9564300000000001, 0.944201],
        "properties": { "magmom": -0.0 },
        "label": "Cl",
        "xyz": [4.0791803811, 17.460080128530002, 17.758347344604]
      },
      {
        "species": [{ "element": "Cl", "occu": 1 }],
        "abc": [0.27990000000000004, 0.45643000000000006, 0.555798999999999],
        "properties": { "magmom": -0.0 },
        "label": "Cl",
        "xyz": [1.4639858811000002, 8.33234462853, 10.453358655395983]
      },
      {
        "species": [{ "element": "Cl", "occu": 1 }],
        "abc": [0.7799, 0.043570000000000005, 0.444200999999999],
        "properties": { "magmom": -0.0 },
        "label": "Cl",
        "xyz": [4.0791803811, 0.7953908714700001, 8.354445344603981]
      },
      {
        "species": [{ "element": "Cl", "occu": 1 }],
        "abc": [0.7201000000000001, 0.54357, 0.444200999999999],
        "properties": { "magmom": -0.0 },
        "label": "Cl",
        "xyz": [3.7664031189, 9.92312637147, 8.354445344603981]
      },
      {
        "species": [{ "element": "Cl", "occu": 1 }],
        "abc": [0.22010000000000002, 0.9564300000000001, 0.555798999999999],
        "properties": { "magmom": -0.0 },
        "label": "Cl",
        "xyz": [1.1512086189, 17.460080128530002, 10.453358655395983]
      },
      {
        "species": [{ "element": "Cl", "occu": 1 }],
        "abc": [0.7201000000000001, 0.45643000000000006, 0.944201],
        "properties": { "magmom": -0.0 },
        "label": "Cl",
        "xyz": [3.7664031189, 8.33234462853, 17.758347344604]
      },
      {
        "species": [{ "element": "Cl", "occu": 1 }],
        "abc": [0.27990000000000004, 0.54357, 0.055798999999999],
        "properties": { "magmom": -0.0 },
        "label": "Cl",
        "xyz": [1.4639858811000002, 9.92312637147, 1.0494566553959812]
      },
      {
        "species": [{ "element": "Cl", "occu": 1 }],
        "abc": [0.396818, 0.169459, 0.47233],
        "properties": { "magmom": -0.0 },
        "label": "Cl",
        "xyz": [2.075512502202, 3.093553860189, 8.883490063320002]
      },
      {
        "species": [{ "element": "Cl", "occu": 1 }],
        "abc": [0.603182, 0.830541, 0.5276700000000001],
        "properties": { "magmom": -0.0 },
        "label": "Cl",
        "xyz": [3.154876497798, 15.161917139810999, 9.924313936680003]
      },
      {
        "species": [{ "element": "Cl", "occu": 1 }],
        "abc": [0.103182, 0.330541, 0.97233],
        "properties": { "magmom": -0.0 },
        "label": "Cl",
        "xyz": [0.539681997798, 6.034181639810999, 18.287392063320002]
      },
      {
        "species": [{ "element": "Cl", "occu": 1 }],
        "abc": [0.603182, 0.169459, 0.027670000000000004],
        "properties": { "magmom": -0.0 },
        "label": "Cl",
        "xyz": [3.154876497798, 3.093553860189, 0.5204119366800001]
      },
      {
        "species": [{ "element": "Cl", "occu": 1 }],
        "abc": [0.896818, 0.669458999999999, 0.027670000000000004],
        "properties": { "magmom": -0.0 },
        "label": "Cl",
        "xyz": [4.690707002202, 12.221289360188981, 0.5204119366800001]
      },
      {
        "species": [{ "element": "Cl", "occu": 1 }],
        "abc": [0.396818, 0.830541, 0.97233],
        "properties": { "magmom": -0.0 },
        "label": "Cl",
        "xyz": [2.075512502202, 15.161917139810999, 18.287392063320002]
      },
      {
        "species": [{ "element": "Cl", "occu": 1 }],
        "abc": [0.896818, 0.330541, 0.5276700000000001],
        "properties": { "magmom": -0.0 },
        "label": "Cl",
        "xyz": [4.690707002202, 6.034181639810999, 9.924313936680003]
      },
      {
        "species": [{ "element": "Cl", "occu": 1 }],
        "abc": [0.103182, 0.669458999999999, 0.47233],
        "properties": { "magmom": -0.0 },
        "label": "Cl",
        "xyz": [0.539681997798, 12.221289360188981, 8.883490063320002]
      },
      {
        "species": [{ "element": "Cl", "occu": 1 }],
        "abc": [0.160505999999999, 0.053411, 0.31948000000000004],
        "properties": { "magmom": -0.0 },
        "label": "Cl",
        "xyz": [0.8395088168339948, 0.975042961581, 6.008717221920001]
      },
      {
        "species": [{ "element": "Cl", "occu": 1 }],
        "abc": [0.839494, 0.9465889999999991, 0.68052],
        "properties": { "magmom": -0.0 },
        "label": "Cl",
        "xyz": [4.390880183166, 17.280428038418982, 12.799086778080001]
      },
      {
        "species": [{ "element": "Cl", "occu": 1 }],
        "abc": [0.339493999999999, 0.446588999999999, 0.8194800000000001],
        "properties": { "magmom": -0.0 },
        "label": "Cl",
        "xyz": [1.7756856831659948, 8.152692538418982, 15.412619221920002]
      },
      {
        "species": [{ "element": "Cl", "occu": 1 }],
        "abc": [0.839494, 0.053411, 0.18052],
        "properties": { "magmom": -0.0 },
        "label": "Cl",
        "xyz": [4.390880183166, 0.975042961581, 3.3951847780800004]
      },
      {
        "species": [{ "element": "Cl", "occu": 1 }],
        "abc": [0.660505999999999, 0.553411, 0.18052],
        "properties": { "magmom": -0.0 },
        "label": "Cl",
        "xyz": [3.454703316833995, 10.102778461581, 3.3951847780800004]
      },
      {
        "species": [{ "element": "Cl", "occu": 1 }],
        "abc": [0.160505999999999, 0.9465889999999991, 0.8194800000000001],
        "properties": { "magmom": -0.0 },
        "label": "Cl",
        "xyz": [0.8395088168339948, 17.280428038418982, 15.412619221920002]
      },
      {
        "species": [{ "element": "Cl", "occu": 1 }],
        "abc": [0.660505999999999, 0.446588999999999, 0.68052],
        "properties": { "magmom": -0.0 },
        "label": "Cl",
        "xyz": [3.454703316833995, 8.152692538418982, 12.799086778080001]
      },
      {
        "species": [{ "element": "Cl", "occu": 1 }],
        "abc": [0.339493999999999, 0.553411, 0.31948000000000004],
        "properties": { "magmom": -0.0 },
        "label": "Cl",
        "xyz": [1.7756856831659948, 10.102778461581, 6.008717221920001]
      },
      {
        "species": [{ "element": "Cl", "occu": 1 }],
        "abc": [0.181626999999999, 0.400845, 0.19001099999999901],
        "properties": { "magmom": -0.0 },
        "label": "Cl",
        "xyz": [0.9499798629029947, 7.317614272995, 3.5736896458439817]
      },
      {
        "species": [{ "element": "Cl", "occu": 1 }],
        "abc": [0.818373, 0.599155, 0.809989],
        "properties": { "magmom": -0.0 },
        "label": "Cl",
        "xyz": [4.280409137097, 10.937856727005, 15.234114354156]
      },
      {
        "species": [{ "element": "Cl", "occu": 1 }],
        "abc": [0.318372999999999, 0.099155, 0.690010999999999],
        "properties": { "magmom": -0.0 },
        "label": "Cl",
        "xyz": [1.6652146370969947, 1.8101212270049998, 12.977591645843983]
      },
      {
        "species": [{ "element": "Cl", "occu": 1 }],
        "abc": [0.818373, 0.400845, 0.309988999999999],
        "properties": { "magmom": -0.0 },
        "label": "Cl",
        "xyz": [4.280409137097, 7.317614272995, 5.830212354155981]
      },
      {
        "species": [{ "element": "Cl", "occu": 1 }],
        "abc": [0.681627, 0.900845, 0.309988999999999],
        "properties": { "magmom": -0.0 },
        "label": "Cl",
        "xyz": [3.565174362903, 16.445349772995, 5.830212354155981]
      },
      {
        "species": [{ "element": "Cl", "occu": 1 }],
        "abc": [0.181626999999999, 0.599155, 0.690010999999999],
        "properties": { "magmom": -0.0 },
        "label": "Cl",
        "xyz": [0.9499798629029947, 10.937856727005, 12.977591645843983]
      },
      {
        "species": [{ "element": "Cl", "occu": 1 }],
        "abc": [0.681627, 0.099155, 0.809989],
        "properties": { "magmom": -0.0 },
        "label": "Cl",
        "xyz": [3.565174362903, 1.8101212270049998, 15.234114354156]
      },
      {
        "species": [{ "element": "Cl", "occu": 1 }],
        "abc": [0.318372999999999, 0.900845, 0.19001099999999901],
        "properties": { "magmom": -0.0 },
        "label": "Cl",
        "xyz": [1.6652146370969947, 16.445349772995, 3.5736896458439817]
      }
    ]
  },
  "task_ids": null,
  "uncorrected_energy_per_atom": null,
  "energy_per_atom": -6.3500437396875,
  "formation_energy_per_atom": -0.19642936906249903,
  "energy_above_hull": 0.13809176049479102,
  "is_stable": false,
  "equilibrium_reaction_energy_per_atom": null,
  "decomposes_to": null,
  "xas": null,
  "grain_boundaries": null,
  "band_gap": 2.072199999999999,
  "cbm": null,
  "vbm": null,
  "efermi": 1.38971361,
  "is_gap_direct": null,
  "is_metal": null,
  "es_source_calc_id": null,
  "bandstructure": null,
  "dos": null,
  "dos_energy_up": null,
  "dos_energy_down": null,
  "is_magnetic": null,
  "ordering": null,
  "total_magnetization": 0.063800299999999,
  "total_magnetization_normalized_vol": null,
  "total_magnetization_normalized_formula_units": null,
  "num_magnetic_sites": null,
  "num_unique_magnetic_sites": null,
  "types_of_magnetic_species": null,
  "bulk_modulus": null,
  "shear_modulus": null,
  "universal_anisotropy": null,
  "homogeneous_poisson": null,
  "e_total": null,
  "e_ionic": null,
  "e_electronic": null,
  "n": null,
  "e_ij_max": null,
  "weighted_surface_energy_EV_PER_ANG2": null,
  "weighted_surface_energy": null,
  "weighted_work_function": null,
  "surface_anisotropy": null,
  "shape_factor": null,
  "has_reconstructed": null,
  "possible_species": null,
  "has_props": null,
  "theoretical": null,
  "database_IDs": null,
  "fields_not_requested": [
    "builder_meta",
    "nsites",
    "elements",
    "nelements",
    "composition",
    "composition_reduced",
    "chemsys",
    "symmetry",
    "property_name",
    "deprecated",
    "deprecation_reasons",
    "last_updated",
    "origins",
    "warnings",
    "task_ids",
    "uncorrected_energy_per_atom",
    "equilibrium_reaction_energy_per_atom",
    "decomposes_to",
    "xas",
    "grain_boundaries",
    "cbm",
    "vbm",
    "is_gap_direct",
    "is_metal",
    "es_source_calc_id",
    "bandstructure",
    "dos",
    "dos_energy_up",
    "dos_energy_down",
    "is_magnetic",
    "ordering",
    "total_magnetization_normalized_vol",
    "total_magnetization_normalized_formula_units",
    "num_magnetic_sites",
    "num_unique_magnetic_sites",
    "types_of_magnetic_species",
    "bulk_modulus",
    "shear_modulus",
    "universal_anisotropy",
    "homogeneous_poisson",
    "e_total",
    "e_ionic",
    "e_electronic",
    "n",
    "e_ij_max",
    "weighted_surface_energy_EV_PER_ANG2",
    "weighted_surface_energy",
    "weighted_work_function",
    "surface_anisotropy",
    "shape_factor",
    "has_reconstructed",
    "possible_species",
    "has_props",
    "theoretical",
    "database_IDs"
  ]
}
