{"builder_meta": null, "nsites": null, "elements": null, "nelements": null, "composition": null, "composition_reduced": null, "formula_pretty": "C8Cl5", "formula_anonymous": "A5B8", "chemsys": null, "volume": 1924.1438161599579, "density": 1.887215898796685, "density_atomic": 18.501382847691904, "symmetry": null, "property_name": null, "material_id": "mp-1214421", "deprecated": null, "deprecation_reasons": null, "last_updated": null, "origins": null, "warnings": null, "structure": {"@module": "pymatgen.core.structure", "@class": "Structure", "charge": 0, "lattice": {"matrix": [[8.056516, 0.0, 0.0], [0.0, 10.965454, 0.0], [0.0, 10.001085, 21.780289]], "pbc": [true, true, true], "a": 8.056516, "b": 10.965454, "c": 23.96669960801332, "alpha": 65.33633326462713, "beta": 90.0, "gamma": 90.0, "volume": 1924.1438161599579}, "properties": {}, "sites": [{"species": [{"element": "C", "occu": 1}], "abc": [0.931611, 0.82713, 0.311436], "properties": {"magmom": 0.0}, "label": "C", "xyz": [7.505538927276, 12.18455387508, 6.783166085004]}, {"species": [{"element": "C", "occu": 1}], "abc": [0.068388999999999, 0.17287000000000002, 0.688564], "properties": {"magmom": 0.0}, "label": "C", "xyz": [0.550977072723992, 8.78198512492, 14.997122914995998]}, {"species": [{"element": "C", "occu": 1}], "abc": [0.431610999999999, 0.17287000000000002, 0.188563999999999], "properties": {"magmom": 0.0}, "label": "C", "xyz": [3.4772809272759924, 3.78144262491999, 4.106978414995979]}, {"species": [{"element": "C", "occu": 1}], "abc": [0.568388999999999, 0.82713, 0.811435999999999], "properties": {"magmom": 0.0}, "label": "C", "xyz": [4.579235072723993, 17.185096375079993, 17.67331058500398]}, {"species": [{"element": "C", "occu": 1}], "abc": [0.967758999999999, 0.8232800000000001, 0.209068], "properties": {"magmom": -0.0}, "label": "C", "xyz": [7.796765867643993, 11.118545807900002, 4.553561460652]}, {"species": [{"element": "C", "occu": 1}], "abc": [0.032241, 0.17672000000000002, 0.790932], "properties": {"magmom": -0.0}, "label": "C", "xyz": [0.259750132356, 9.847993192099999, 17.226727539347998]}, {"species": [{"element": "C", "occu": 1}], "abc": [0.467759, 0.17672000000000002, 0.290931999999999], "properties": {"magmom": -0.0}, "label": "C", "xyz": [3.768507867644, 4.84745069209999, 6.336583039347978]}, {"species": [{"element": "C", "occu": 1}], "abc": [0.532241, 0.8232800000000001, 0.709067999999999], "properties": {"magmom": -0.0}, "label": "C", "xyz": [4.2880081323559995, 16.119088307899993, 15.443705960651979]}, {"species": [{"element": "C", "occu": 1}], "abc": [0.819704, 0.686631, 0.432788], "properties": {"magmom": -0.0}, "label": "C", "xyz": [6.603958391264, 11.857570220453999, 9.426247715732]}, {"species": [{"element": "C", "occu": 1}], "abc": [0.180295999999999, 0.313369, 0.567211999999999], "properties": {"magmom": -0.0}, "label": "C", "xyz": [1.4525576087359922, 9.10896877954599, 12.354041284267979]}, {"species": [{"element": "C", "occu": 1}], "abc": [0.319704, 0.313369, 0.067212], "properties": {"magmom": -0.0}, "label": "C", "xyz": [2.575700391264, 4.108426279545999, 1.463896784268]}, {"species": [{"element": "C", "occu": 1}], "abc": [0.680296, 0.686631, 0.932788], "properties": {"magmom": -0.0}, "label": "C", "xyz": [5.480815608736, 16.858112720454, 20.316392215731998]}, {"species": [{"element": "C", "occu": 1}], "abc": [0.507363999999999, 0.381388, 0.196635], "properties": {"magmom": 0.0}, "label": "C", "xyz": [4.087586183823992, 6.148655919127, 4.282767127515]}, {"species": [{"element": "C", "occu": 1}], "abc": [0.492635999999999, 0.618611999999999, 0.803365], "properties": {"magmom": 0.0}, "label": "C", "xyz": [3.9689298161759923, 14.817883080872988, 17.497521872485]}, {"species": [{"element": "C", "occu": 1}], "abc": [0.007364, 0.618611999999999, 0.303365], "properties": {"magmom": 0.0}, "label": "C", "xyz": [0.059328183824, 9.81734058087299, 6.607377372485]}, {"species": [{"element": "C", "occu": 1}], "abc": [0.992636, 0.381388, 0.696635], "properties": {"magmom": 0.0}, "label": "C", "xyz": [7.997187816176, 11.149198419127, 15.172911627514999]}, {"species": [{"element": "C", "occu": 1}], "abc": [0.451524999999999, 0.8901500000000001, 0.243262999999999], "properties": {"magmom": 0.0}, "label": "C", "xyz": [3.637718386899992, 12.193792818454991, 5.298338443006978]}, {"species": [{"element": "C", "occu": 1}], "abc": [0.548474999999999, 0.10985, 0.756737], "properties": {"magmom": 0.0}, "label": "C", "xyz": [4.418797613099993, 8.772746181545, 16.481950556993]}, {"species": [{"element": "C", "occu": 1}], "abc": [0.951525, 0.10985, 0.256737], "properties": {"magmom": 0.0}, "label": "C", "xyz": [7.6659763869, 3.7722036815449997, 5.591806056993]}, {"species": [{"element": "C", "occu": 1}], "abc": [0.048475, 0.8901500000000001, 0.743263], "properties": {"magmom": 0.0}, "label": "C", "xyz": [0.3905396131, 17.194335318455, 16.188482943007]}, {"species": [{"element": "C", "occu": 1}], "abc": [0.848988, 0.8256600000000001, 0.410207], "properties": {"magmom": 0.0}, "label": "C", "xyz": [6.839885405808, 13.156251824235, 8.934427009823]}, {"species": [{"element": "C", "occu": 1}], "abc": [0.151011999999999, 0.17434000000000002, 0.589793], "properties": {"magmom": 0.0}, "label": "C", "xyz": [1.2166305941919922, 7.810287175765, 12.845861990177]}, {"species": [{"element": "C", "occu": 1}], "abc": [0.348987999999999, 0.17434000000000002, 0.089793], "properties": {"magmom": 0.0}, "label": "C", "xyz": [2.811627405807992, 2.809744675765, 1.955717490177]}, {"species": [{"element": "C", "occu": 1}], "abc": [0.651011999999999, 0.8256600000000001, 0.910207], "properties": {"magmom": 0.0}, "label": "C", "xyz": [5.244888594191992, 18.156794324235, 19.824571509823]}, {"species": [{"element": "C", "occu": 1}], "abc": [0.397681, 0.896581, 0.346784], "properties": {"magmom": -0.0}, "label": "C", "xyz": [3.2039233393960003, 13.299633973414, 7.553055740575999]}, {"species": [{"element": "C", "occu": 1}], "abc": [0.602318999999999, 0.103419, 0.653216], "properties": {"magmom": -0.0}, "label": "C", "xyz": [4.852592660603992, 7.666905026586001, 14.227233259424]}, {"species": [{"element": "C", "occu": 1}], "abc": [0.897681, 0.103419, 0.153216], "properties": {"magmom": -0.0}, "label": "C", "xyz": [7.232181339396, 2.666362526586, 3.3370887594239997]}, {"species": [{"element": "C", "occu": 1}], "abc": [0.102319, 0.896581, 0.846784], "properties": {"magmom": -0.0}, "label": "C", "xyz": [0.824334660604, 18.300176473414, 18.443200240576]}, {"species": [{"element": "C", "occu": 1}], "abc": [0.860238, 0.615588, 0.397586999999999], "properties": {"magmom": -0.0}, "label": "C", "xyz": [6.930521210808, 10.72650327884699, 8.659559762642978]}, {"species": [{"element": "C", "occu": 1}], "abc": [0.139762, 0.384412, 0.602413], "properties": {"magmom": -0.0}, "label": "C", "xyz": [1.125994789192, 10.240035721153, 13.120729237356999]}, {"species": [{"element": "C", "occu": 1}], "abc": [0.360238, 0.384412, 0.102412999999999], "properties": {"magmom": -0.0}, "label": "C", "xyz": [2.902263210808, 5.23949322115299, 2.2305847373569785]}, {"species": [{"element": "C", "occu": 1}], "abc": [0.639761999999999, 0.615588, 0.897586999999999], "properties": {"magmom": -0.0}, "label": "C", "xyz": [5.154252789191992, 15.727045778846989, 19.54970426264298]}, {"species": [{"element": "C", "occu": 1}], "abc": [0.9035500000000001, 0.899374999999999, 0.348726], "properties": {"magmom": 0.0}, "label": "C", "xyz": [7.279465031800001, 13.349693558959988, 7.5953530618139995]}, {"species": [{"element": "C", "occu": 1}], "abc": [0.09645000000000001, 0.100624999999999, 0.651274], "properties": {"magmom": 0.0}, "label": "C", "xyz": [0.7770509682000001, 7.616845441039989, 14.184935938186]}, {"species": [{"element": "C", "occu": 1}], "abc": [0.40355, 0.100624999999999, 0.151274], "properties": {"magmom": 0.0}, "label": "C", "xyz": [3.2512070318000004, 2.616302941039989, 3.294791438186]}, {"species": [{"element": "C", "occu": 1}], "abc": [0.59645, 0.899374999999999, 0.848726], "properties": {"magmom": 0.0}, "label": "C", "xyz": [4.8053089682, 18.350236058959986, 18.485497561814]}, {"species": [{"element": "C", "occu": 1}], "abc": [0.930964999999999, 0.683296999999999, 0.338536], "properties": {"magmom": 0.0}, "label": "C", "xyz": [7.5003344179399924, 10.878389133397988, 7.373411916904]}, {"species": [{"element": "C", "occu": 1}], "abc": [0.069035, 0.316703, 0.661463999999999], "properties": {"magmom": 0.0}, "label": "C", "xyz": [0.55618158206, 10.088149866601992, 14.40687708309598]}, {"species": [{"element": "C", "occu": 1}], "abc": [0.430965, 0.316703, 0.161464], "properties": {"magmom": 0.0}, "label": "C", "xyz": [3.47207641794, 5.087607366602, 3.5167325830959997]}, {"species": [{"element": "C", "occu": 1}], "abc": [0.569035, 0.683296999999999, 0.838536], "properties": {"magmom": 0.0}, "label": "C", "xyz": [4.58443958206, 15.87893163339799, 18.263556416904]}, {"species": [{"element": "C", "occu": 1}], "abc": [0.9326859999999991, 0.889281999999999, 0.145486], "properties": {"magmom": 0.0}, "label": "C", "xyz": [7.5141996819759935, 11.206398716337988, 3.168727125454]}, {"species": [{"element": "C", "occu": 1}], "abc": [0.067314, 0.110718, 0.854514], "properties": {"magmom": 0.0}, "label": "C", "xyz": [0.542316318024, 9.760140283662, 18.611561874546]}, {"species": [{"element": "C", "occu": 1}], "abc": [0.432685999999999, 0.110718, 0.354514], "properties": {"magmom": 0.0}, "label": "C", "xyz": [3.485941681975992, 4.759597783662, 7.721417374546]}, {"species": [{"element": "C", "occu": 1}], "abc": [0.567314, 0.889281999999999, 0.645486], "properties": {"magmom": 0.0}, "label": "C", "xyz": [4.570574318024, 16.206941216337988, 14.058871625454]}, {"species": [{"element": "C", "occu": 1}], "abc": [0.437975, 0.958069, 0.180052], "properties": {"magmom": 0.0}, "label": "C", "xyz": [3.5285525951000003, 12.306376904746, 3.921584595028]}, {"species": [{"element": "C", "occu": 1}], "abc": [0.562025, 0.041930999999999004, 0.819948], "properties": {"magmom": 0.0}, "label": "C", "xyz": [4.5279634049, 8.66016209525399, 17.858704404972]}, {"species": [{"element": "C", "occu": 1}], "abc": [0.937975, 0.041930999999999004, 0.319948], "properties": {"magmom": 0.0}, "label": "C", "xyz": [7.5568105951, 3.659619595253989, 6.968559904972]}, {"species": [{"element": "C", "occu": 1}], "abc": [0.062025, 0.958069, 0.680052], "properties": {"magmom": 0.0}, "label": "C", "xyz": [0.4997054049, 17.306919404745997, 14.811729095028]}, {"species": [{"element": "C", "occu": 1}], "abc": [0.431463, 0.958915, 0.282798999999999], "properties": {"magmom": -0.0}, "label": "C", "xyz": [3.476088562908, 13.343235159324989, 6.159443948910979]}, {"species": [{"element": "C", "occu": 1}], "abc": [0.568537, 0.041084999999999004, 0.717201], "properties": {"magmom": -0.0}, "label": "C", "xyz": [4.580427437092, 7.623303840674988, 15.620845051088999]}, {"species": [{"element": "C", "occu": 1}], "abc": [0.931462999999999, 0.041084999999999004, 0.217200999999999], "properties": {"magmom": -0.0}, "label": "C", "xyz": [7.504346562907992, 2.6227613406749795, 4.730700551088979]}, {"species": [{"element": "C", "occu": 1}], "abc": [0.068537, 0.958915, 0.782798999999999], "properties": {"magmom": -0.0}, "label": "C", "xyz": [0.5521694370920001, 18.34377765932499, 17.049588448910978]}, {"species": [{"element": "C", "occu": 1}], "abc": [0.525092, 0.313959, 0.259446], "properties": {"magmom": 0.0}, "label": "C", "xyz": [4.230412099472, 6.037444471296, 5.650808859894]}, {"species": [{"element": "C", "occu": 1}], "abc": [0.474908, 0.686041, 0.740553999999999], "properties": {"magmom": 0.0}, "label": "C", "xyz": [3.826103900528, 14.92909452870399, 16.12948014010598]}, {"species": [{"element": "C", "occu": 1}], "abc": [0.025092, 0.686041, 0.240554], "properties": {"magmom": 0.0}, "label": "C", "xyz": [0.202154099472, 9.928552028703999, 5.239335640106]}, {"species": [{"element": "C", "occu": 1}], "abc": [0.974908, 0.313959, 0.759446], "properties": {"magmom": 0.0}, "label": "C", "xyz": [7.8543619005280005, 11.037986971296, 16.540953359893997]}, {"species": [{"element": "C", "occu": 1}], "abc": [0.39206, 0.973324, 0.381343], "properties": {"magmom": -0.0}, "label": "C", "xyz": [3.1586376629600004, 14.486783306250999, 8.305760748127]}, {"species": [{"element": "C", "occu": 1}], "abc": [0.60794, 0.026676, 0.618657], "properties": {"magmom": -0.0}, "label": "C", "xyz": [4.897878337040001, 6.479755693749, 13.474528251873]}, {"species": [{"element": "C", "occu": 1}], "abc": [0.8920600000000001, 0.026676, 0.118657], "properties": {"magmom": -0.0}, "label": "C", "xyz": [7.1868956629600005, 1.479213193749, 2.5843837518729997]}, {"species": [{"element": "C", "occu": 1}], "abc": [0.10794000000000001, 0.973324, 0.881343], "properties": {"magmom": -0.0}, "label": "C", "xyz": [0.8696203370400001, 19.487325806251, 19.195905248126998]}, {"species": [{"element": "C", "occu": 1}], "abc": [0.948175999999999, 0.8976500000000001, 0.245845999999999], "properties": {"magmom": 0.0}, "label": "C", "xyz": [7.638995114815993, 12.30186652600999, 5.354596929493979]}, {"species": [{"element": "C", "occu": 1}], "abc": [0.051823999999999, 0.10235000000000001, 0.754154], "properties": {"magmom": 0.0}, "label": "C", "xyz": [0.417520885183992, 8.66467247399, 16.425692070506]}, {"species": [{"element": "C", "occu": 1}], "abc": [0.448175999999999, 0.10235000000000001, 0.254154], "properties": {"magmom": 0.0}, "label": "C", "xyz": [3.610737114815992, 3.6641299739899997, 5.535547570506]}, {"species": [{"element": "C", "occu": 1}], "abc": [0.551824, 0.8976500000000001, 0.745846], "properties": {"magmom": 0.0}, "label": "C", "xyz": [4.445778885184, 17.30240902601, 16.244741429494]}, {"species": [{"element": "Cl", "occu": 1}], "abc": [0.918615, 0.804565, 0.099566999999999], "properties": {"magmom": -0.0}, "label": "Cl", "xyz": [7.4008364453399995, 9.818198527704988, 2.168598034862978]}, {"species": [{"element": "Cl", "occu": 1}], "abc": [0.081385, 0.195435, 0.900432999999999], "properties": {"magmom": -0.0}, "label": "Cl", "xyz": [0.65567955466, 11.14834047229499, 19.61169096513698]}, {"species": [{"element": "Cl", "occu": 1}], "abc": [0.418614999999999, 0.195435, 0.400433], "properties": {"magmom": -0.0}, "label": "Cl", "xyz": [3.3725784453399923, 6.147797972295, 8.721546465137]}, {"species": [{"element": "Cl", "occu": 1}], "abc": [0.581384999999999, 0.804565, 0.599567], "properties": {"magmom": -0.0}, "label": "Cl", "xyz": [4.683937554659993, 14.818741027704998, 13.058742534862999]}, {"species": [{"element": "Cl", "occu": 1}], "abc": [0.512818, 0.724866, 0.27274000000000004], "properties": {"magmom": 0.0}, "label": "Cl", "xyz": [4.131526422088, 10.676180702064, 5.9403560218600004]}, {"species": [{"element": "Cl", "occu": 1}], "abc": [0.487182, 0.275134, 0.72726], "properties": {"magmom": 0.0}, "label": "Cl", "xyz": [3.924989577912, 10.290358297935999, 15.83993297814]}, {"species": [{"element": "Cl", "occu": 1}], "abc": [0.012818, 0.275134, 0.22726000000000002], "properties": {"magmom": 0.0}, "label": "Cl", "xyz": [0.103268422088, 5.289815797936, 4.94978847814]}, {"species": [{"element": "Cl", "occu": 1}], "abc": [0.987182, 0.724866, 0.7727400000000001], "properties": {"magmom": 0.0}, "label": "Cl", "xyz": [7.953247577912, 15.676723202064, 16.830500521860003]}, {"species": [{"element": "Cl", "occu": 1}], "abc": [0.843920999999999, 0.269622, 0.115393], "properties": {"magmom": 0.0}, "label": "Cl", "xyz": [6.7990630392359925, 4.1105828397929995, 2.513292888577]}, {"species": [{"element": "Cl", "occu": 1}], "abc": [0.156079, 0.730378, 0.884606999999999], "properties": {"magmom": 0.0}, "label": "Cl", "xyz": [1.257452960764, 16.85595616020699, 19.26699611142298]}, {"species": [{"element": "Cl", "occu": 1}], "abc": [0.343921, 0.730378, 0.384607], "properties": {"magmom": 0.0}, "label": "Cl", "xyz": [2.770805039236, 11.855413660206999, 8.376851611423]}, {"species": [{"element": "Cl", "occu": 1}], "abc": [0.656079, 0.269622, 0.615393], "properties": {"magmom": 0.0}, "label": "Cl", "xyz": [5.285710960764, 9.111125339792999, 13.403437388576998]}, {"species": [{"element": "Cl", "occu": 1}], "abc": [0.803214, 0.449781, 0.425575999999999], "properties": {"magmom": -0.0}, "label": "Cl", "xyz": [6.471106442424, 9.18827461553399, 9.269168271463979]}, {"species": [{"element": "Cl", "occu": 1}], "abc": [0.196786, 0.550219, 0.574423999999999], "properties": {"magmom": -0.0}, "label": "Cl", "xyz": [1.5854095575759999, 11.77826438446599, 12.511120728535978]}, {"species": [{"element": "Cl", "occu": 1}], "abc": [0.303214, 0.550219, 0.074423999999999], "properties": {"magmom": -0.0}, "label": "Cl", "xyz": [2.442848442424, 6.77772188446599, 1.6209762285359783]}, {"species": [{"element": "Cl", "occu": 1}], "abc": [0.696786, 0.449781, 0.925576], "properties": {"magmom": -0.0}, "label": "Cl", "xyz": [5.613667557576, 14.188817115534, 20.159312771464]}, {"species": [{"element": "Cl", "occu": 1}], "abc": [0.637658, 0.388731, 0.297556999999999], "properties": {"magmom": -0.0}, "label": "Cl", "xyz": [5.137301879528, 7.23850474821899, 6.480877453972979]}, {"species": [{"element": "Cl", "occu": 1}], "abc": [0.362342, 0.611269, 0.702442999999999], "properties": {"magmom": -0.0}, "label": "Cl", "xyz": [2.919214120472, 13.72803425178099, 15.29941154602698]}, {"species": [{"element": "Cl", "occu": 1}], "abc": [0.137658, 0.611269, 0.202442999999999], "properties": {"magmom": -0.0}, "label": "Cl", "xyz": [1.109043879528, 8.727491751780988, 4.4092670460269785]}, {"species": [{"element": "Cl", "occu": 1}], "abc": [0.862341999999999, 0.388731, 0.797557], "properties": {"magmom": -0.0}, "label": "Cl", "xyz": [6.947472120471993, 12.239047248218998, 17.371021953973]}, {"species": [{"element": "Cl", "occu": 1}], "abc": [0.7996219999999991, 0.898697, 0.458984], "properties": {"magmom": 0.0}, "label": "Cl", "xyz": [6.442167436951992, 14.444958611078, 9.996804166376]}, {"species": [{"element": "Cl", "occu": 1}], "abc": [0.200378, 0.101302999999999, 0.541015999999999], "properties": {"magmom": 0.0}, "label": "Cl", "xyz": [1.6143485630480001, 6.521580388921979, 11.78348483362398]}, {"species": [{"element": "Cl", "occu": 1}], "abc": [0.299622, 0.101302999999999, 0.041016], "properties": {"magmom": 0.0}, "label": "Cl", "xyz": [2.413909436952, 1.521037888921989, 0.8933403336239999]}, {"species": [{"element": "Cl", "occu": 1}], "abc": [0.700378, 0.898697, 0.958984], "properties": {"magmom": 0.0}, "label": "Cl", "xyz": [5.642606563048, 19.445501111078, 20.886948666376]}, {"species": [{"element": "Cl", "occu": 1}], "abc": [0.603208, 0.534285999999999, 0.159446], "properties": {"magmom": 0.0}, "label": "Cl", "xyz": [4.859754903328, 7.453321554753989, 3.472779959894]}, {"species": [{"element": "Cl", "occu": 1}], "abc": [0.396792, 0.465713999999999, 0.840553999999999], "properties": {"magmom": 0.0}, "label": "Cl", "xyz": [3.1967610966719997, 13.513217445245978, 18.307509040105977]}, {"species": [{"element": "Cl", "occu": 1}], "abc": [0.103208, 0.465713999999999, 0.340553999999999], "properties": {"magmom": 0.0}, "label": "Cl", "xyz": [0.831496903328, 8.51267494524598, 7.417364540105979]}, {"species": [{"element": "Cl", "occu": 1}], "abc": [0.896791999999999, 0.534285999999999, 0.659446], "properties": {"magmom": 0.0}, "label": "Cl", "xyz": [7.225019096671993, 12.45386405475399, 14.362924459894]}, {"species": [{"element": "Cl", "occu": 1}], "abc": [0.768902, 0.603197, 0.0036569999999990005], "properties": {"magmom": -0.0}, "label": "Cl", "xyz": [6.1946712654319995, 6.650902924282989, 0.07965051687297822]}, {"species": [{"element": "Cl", "occu": 1}], "abc": [0.231098, 0.396802999999999, 0.996343], "properties": {"magmom": -0.0}, "label": "Cl", "xyz": [1.861844734568, 14.31563607571699, 21.700638483126998]}, {"species": [{"element": "Cl", "occu": 1}], "abc": [0.268902, 0.396802999999999, 0.496343], "properties": {"magmom": -0.0}, "label": "Cl", "xyz": [2.166413265432, 9.31509357571699, 10.810493983127]}, {"species": [{"element": "Cl", "occu": 1}], "abc": [0.731097999999999, 0.603197, 0.503657], "properties": {"magmom": -0.0}, "label": "Cl", "xyz": [5.890102734567992, 11.651445424283, 10.969795016873]}, {"species": [{"element": "Cl", "occu": 1}], "abc": [0.330707, 0.899393999999999, 0.456582], "properties": {"magmom": 0.0}, "label": "Cl", "xyz": [2.664346236812, 14.428578926345988, 9.944487912198]}, {"species": [{"element": "Cl", "occu": 1}], "abc": [0.669292999999999, 0.100606, 0.543418], "properties": {"magmom": 0.0}, "label": "Cl", "xyz": [5.392169763187992, 6.5379600736539984, 11.835801087801999]}, {"species": [{"element": "Cl", "occu": 1}], "abc": [0.830707, 0.100606, 0.043418], "properties": {"magmom": 0.0}, "label": "Cl", "xyz": [6.692604236812, 1.537417573654, 0.9456565878019999]}, {"species": [{"element": "Cl", "occu": 1}], "abc": [0.169293, 0.899393999999999, 0.956581999999999], "properties": {"magmom": 0.0}, "label": "Cl", "xyz": [1.363911763188, 19.42912142634598, 20.83463241219798]}, {"species": [{"element": "Cl", "occu": 1}], "abc": [0.480572, 0.869391999999999, 0.137193999999999], "properties": {"magmom": -0.0}, "label": "Cl", "xyz": [3.871736007152, 10.90536683945798, 2.9881249690659786]}, {"species": [{"element": "Cl", "occu": 1}], "abc": [0.519428, 0.130608, 0.862806], "properties": {"magmom": -0.0}, "label": "Cl", "xyz": [4.184779992848, 10.061172160542, 18.792164030934]}, {"species": [{"element": "Cl", "occu": 1}], "abc": [0.980572, 0.130608, 0.362805999999999], "properties": {"magmom": -0.0}, "label": "Cl", "xyz": [7.899994007152, 5.06062966054199, 7.902019530933979]}, {"species": [{"element": "Cl", "occu": 1}], "abc": [0.019428, 0.869391999999999, 0.637193999999999], "properties": {"magmom": -0.0}, "label": "Cl", "xyz": [0.156521992848, 15.905909339457981, 13.878269469065978]}]}, "task_ids": null, "uncorrected_energy_per_atom": null, "energy_per_atom": -6.568045227019231, "formation_energy_per_atom": -0.177888462403845, "energy_above_hull": 0.130900272572114, "is_stable": false, "equilibrium_reaction_energy_per_atom": null, "decomposes_to": null, "xas": null, "grain_boundaries": null, "band_gap": 2.0397, "cbm": null, "vbm": null, "efermi": 1.0213429, "is_gap_direct": null, "is_metal": null, "es_source_calc_id": null, "bandstructure": null, "dos": null, "dos_energy_up": null, "dos_energy_down": null, "is_magnetic": null, "ordering": null, "total_magnetization": 0.0017614, "total_magnetization_normalized_vol": null, "total_magnetization_normalized_formula_units": null, "num_magnetic_sites": null, "num_unique_magnetic_sites": null, "types_of_magnetic_species": null, "bulk_modulus": null, "shear_modulus": null, "universal_anisotropy": null, "homogeneous_poisson": null, "e_total": null, "e_ionic": null, "e_electronic": null, "n": null, "e_ij_max": null, "weighted_surface_energy_EV_PER_ANG2": null, "weighted_surface_energy": null, "weighted_work_function": null, "surface_anisotropy": null, "shape_factor": null, "has_reconstructed": null, "possible_species": null, "has_props": null, "theoretical": null, "database_IDs": null, "fields_not_requested": ["builder_meta", "nsites", "elements", "nelements", "composition", "composition_reduced", "chemsys", "symmetry", "property_name", "deprecated", "deprecation_reasons", "last_updated", "origins", "warnings", "task_ids", "uncorrected_energy_per_atom", "equilibrium_reaction_energy_per_atom", "decomposes_to", "xas", "grain_boundaries", "cbm", "vbm", "is_gap_direct", "is_metal", "es_source_calc_id", "bandstructure", "dos", "dos_energy_up", "dos_energy_down", "is_magnetic", "ordering", "total_magnetization_normalized_vol", "total_magnetization_normalized_formula_units", "num_magnetic_sites", "num_unique_magnetic_sites", "types_of_magnetic_species", "bulk_modulus", "shear_modulus", "universal_anisotropy", "homogeneous_poisson", "e_total", "e_ionic", "e_electronic", "n", "e_ij_max", "weighted_surface_energy_EV_PER_ANG2", "weighted_surface_energy", "weighted_work_function", "surface_anisotropy", "shape_factor", "has_reconstructed", "possible_species", "has_props", "theoretical", "database_IDs"]}