{
  "builder_meta": null,
  "nsites": null,
  "elements": null,
  "nelements": null,
  "composition": null,
  "composition_reduced": null,
  "formula_pretty": "Ca2Ag7",
  "formula_anonymous": "A2B7",
  "chemsys": null,
  "volume": 369.0092103295547,
  "density": 7.517089826514076,
  "density_atomic": 20.500511684975258,
  "symmetry": null,
  "property_name": null,
  "material_id": "mp-16770",
  "deprecated": null,
  "deprecation_reasons": null,
  "last_updated": null,
  "origins": null,
  "warnings": null,
  "structure": {
    "@module": "pymatgen.core.structure",
    "@class": "Structure",
    "charge": 0,
    "lattice": {
      "matrix": [
        [5.48352712, 0.00454092, 0.0],
        [-2.6981746600000003, 4.7737761899999995, -0.0],
        [0.0, 0.0, 14.09003048]
      ],
      "pbc": [true, true, true],
      "a": 5.483529000172237,
      "b": 5.483528572741919,
      "c": 14.09003048,
      "alpha": 90.0,
      "beta": 90.0,
      "gamma": 119.42801778735397,
      "volume": 369.00921032955466
    },
    "properties": {},
    "sites": [
      {
        "species": [{ "element": "Ca", "occu": 1 }],
        "abc": [0.32255279000000003, 0.32255279000000003, 0.11423095],
        "properties": { "magmom": -0.0 },
        "label": "Ca",
        "xyz": [0.8984232071063634, 1.5412595153352369, 1.6095175672593558]
      },
      {
        "species": [{ "element": "Ca", "occu": 1 }],
        "abc": [0.67744721, 0.67744721, 0.61423095],
        "properties": { "magmom": -0.0 },
        "label": "Ca",
        "xyz": [1.886929252893636, 3.237057594664763, 8.654532807259356]
      },
      {
        "species": [{ "element": "Ca", "occu": 1 }],
        "abc": [0.32255279000000003, 0.32255279000000003, 0.38576905],
        "properties": { "magmom": -0.0 },
        "label": "Ca",
        "xyz": [0.8984232071063634, 1.5412595153352369, 5.435497672740643]
      },
      {
        "species": [{ "element": "Ca", "occu": 1 }],
        "abc": [0.67744721, 0.67744721, 0.8857690500000001],
        "properties": { "magmom": -0.0 },
        "label": "Ca",
        "xyz": [1.886929252893636, 3.237057594664763, 12.480512912740645]
      },
      {
        "species": [{ "element": "Ag", "occu": 1 }],
        "abc": [0.82878602, 0.82878602, 0.25],
        "properties": { "magmom": 0.0 },
        "label": "Ag",
        "xyz": [2.308461179620609, 3.960202419894802, 3.52250762]
      },
      {
        "species": [{ "element": "Ag", "occu": 1 }],
        "abc": [0.17121398000000002, 0.17121398000000002, 0.75],
        "properties": { "magmom": 0.0 },
        "label": "Ag",
        "xyz": [0.4768912803793908, 0.8181146901051978, 10.56752286]
      },
      {
        "species": [{ "element": "Ag", "occu": 1 }],
        "abc": [0.32910023, 0.82669897, 0.25],
        "properties": { "magmom": 0.0 },
        "label": "Ag",
        "xyz": [-0.42594817589886325, 3.947970277099936, 3.52250762]
      },
      {
        "species": [{ "element": "Ag", "occu": 1 }],
        "abc": [0.67089977, 0.17330103, 0.75],
        "properties": { "magmom": 0.0 },
        "label": "Ag",
        "xyz": [3.2113006358988625, 0.830346832900064, 10.56752286]
      },
      {
        "species": [{ "element": "Ag", "occu": 1 }],
        "abc": [0.82669897, 0.32910023, 0.25],
        "properties": { "magmom": 0.0 },
        "label": "Ag",
        "xyz": [3.6452563208848945, 1.574804815984376, 3.52250762]
      },
      {
        "species": [{ "element": "Ag", "occu": 1 }],
        "abc": [0.17330103, 0.67089977, 0.75],
        "properties": { "magmom": 0.0 },
        "label": "Ag",
        "xyz": [-0.8599038608848948, 3.2035122940156238, 10.56752286]
      },
      {
        "species": [{ "element": "Ag", "occu": 1 }],
        "abc": [0.66477546, 0.994122899999999, 0.07608909999999901],
        "properties": { "magmom": 0.0 },
        "label": "Ag",
        "xyz": [0.9629970459147636, 4.748738922135569, 1.072097738195754]
      },
      {
        "species": [{ "element": "Ag", "occu": 1 }],
        "abc": [0.33522454, 0.0058771, 0.5760891],
        "properties": { "magmom": 0.0 },
        "label": "Ag",
        "xyz": [1.8223554140852387, 0.029578187864425797, 8.117112978195768]
      },
      {
        "species": [{ "element": "Ag", "occu": 1 }],
        "abc": [0.994122899999999, 0.66477546, 0.4239109],
        "properties": { "magmom": 0.0 },
        "label": "Ag",
        "xyz": [3.6576195820011987, 3.178003495203365, 5.972917501804232]
      },
      {
        "species": [{ "element": "Ag", "occu": 1 }],
        "abc": [0.0058771, 0.33522454, 0.9239109],
        "properties": { "magmom": 0.0 },
        "label": "Ag",
        "xyz": [-0.8722671220012046, 1.6003136147966346, 13.01793274180423]
      },
      {
        "species": [{ "element": "Ag", "occu": 1 }],
        "abc": [0.33522454, 0.0058771, 0.9239109],
        "properties": { "magmom": 0.0 },
        "label": "Ag",
        "xyz": [1.8223554140852387, 0.029578187864425797, 13.01793274180423]
      },
      {
        "species": [{ "element": "Ag", "occu": 1 }],
        "abc": [0.66477546, 0.994122899999999, 0.4239109],
        "properties": { "magmom": 0.0 },
        "label": "Ag",
        "xyz": [0.9629970459147636, 4.748738922135569, 5.972917501804232]
      },
      {
        "species": [{ "element": "Ag", "occu": 1 }],
        "abc": [0.0058771, 0.33522454, 0.5760891],
        "properties": { "magmom": 0.0 },
        "label": "Ag",
        "xyz": [-0.8722671220012046, 1.6003136147966346, 8.117112978195768]
      },
      {
        "species": [{ "element": "Ag", "occu": 1 }],
        "abc": [0.994122899999999, 0.66477546, 0.07608909999999901],
        "properties": { "magmom": 0.0 },
        "label": "Ag",
        "xyz": [3.6576195820011987, 3.178003495203365, 1.072097738195754]
      }
    ]
  },
  "task_ids": null,
  "uncorrected_energy_per_atom": null,
  "energy_per_atom": -18.394945911111108,
  "formation_energy_per_atom": -0.22075397611111003,
  "energy_above_hull": 0.0,
  "is_stable": true,
  "equilibrium_reaction_energy_per_atom": null,
  "decomposes_to": null,
  "xas": null,
  "grain_boundaries": null,
  "band_gap": 0.0,
  "cbm": null,
  "vbm": null,
  "efermi": 3.25808198,
  "is_gap_direct": null,
  "is_metal": null,
  "es_source_calc_id": null,
  "bandstructure": null,
  "dos": null,
  "dos_energy_up": null,
  "dos_energy_down": null,
  "is_magnetic": null,
  "ordering": null,
  "total_magnetization": 0.0,
  "total_magnetization_normalized_vol": null,
  "total_magnetization_normalized_formula_units": null,
  "num_magnetic_sites": null,
  "num_unique_magnetic_sites": null,
  "types_of_magnetic_species": null,
  "bulk_modulus": null,
  "shear_modulus": null,
  "universal_anisotropy": null,
  "homogeneous_poisson": null,
  "e_total": null,
  "e_ionic": null,
  "e_electronic": null,
  "n": null,
  "e_ij_max": null,
  "weighted_surface_energy_EV_PER_ANG2": null,
  "weighted_surface_energy": null,
  "weighted_work_function": null,
  "surface_anisotropy": null,
  "shape_factor": null,
  "has_reconstructed": null,
  "possible_species": null,
  "has_props": null,
  "theoretical": null,
  "database_IDs": null,
  "fields_not_requested": [
    "builder_meta",
    "nsites",
    "elements",
    "nelements",
    "composition",
    "composition_reduced",
    "chemsys",
    "symmetry",
    "property_name",
    "deprecated",
    "deprecation_reasons",
    "last_updated",
    "origins",
    "warnings",
    "task_ids",
    "uncorrected_energy_per_atom",
    "equilibrium_reaction_energy_per_atom",
    "decomposes_to",
    "xas",
    "grain_boundaries",
    "cbm",
    "vbm",
    "is_gap_direct",
    "is_metal",
    "es_source_calc_id",
    "bandstructure",
    "dos",
    "dos_energy_up",
    "dos_energy_down",
    "is_magnetic",
    "ordering",
    "total_magnetization_normalized_vol",
    "total_magnetization_normalized_formula_units",
    "num_magnetic_sites",
    "num_unique_magnetic_sites",
    "types_of_magnetic_species",
    "bulk_modulus",
    "shear_modulus",
    "universal_anisotropy",
    "homogeneous_poisson",
    "e_total",
    "e_ionic",
    "e_electronic",
    "n",
    "e_ij_max",
    "weighted_surface_energy_EV_PER_ANG2",
    "weighted_surface_energy",
    "weighted_work_function",
    "surface_anisotropy",
    "shape_factor",
    "has_reconstructed",
    "possible_species",
    "has_props",
    "theoretical",
    "database_IDs"
  ]
}
