{"builder_meta": null, "nsites": null, "elements": null, "nelements": null, "composition": null, "composition_reduced": null, "formula_pretty": "Ca2As", "formula_anonymous": "AB2", "chemsys": null, "volume": 164.5144145027538, "density": 3.130575687642953, "density_atomic": 27.419069083792298, "symmetry": null, "property_name": null, "material_id": "mp-10106", "deprecated": null, "deprecation_reasons": null, "last_updated": null, "origins": null, "warnings": null, "structure": {"@module": "pymatgen.core.structure", "@class": "Structure", "charge": 0, "lattice": {"matrix": [[4.3872976, -0.00062746, -1.25152569], [-0.3574832, 4.37270909, -1.25152568], [0.06211979, 0.06739664000000001, 8.53695267]], "pbc": [true, true, true], "a": 4.562312700528295, "b": 4.562312522367394, "c": 8.537444703493724, "alpha": 105.50404596790169, "beta": 105.50405067109446, "gamma": 90.01324674974525, "volume": 164.5144145027538}, "properties": {}, "sites": [{"species": [{"element": "Ca", "occu": 1}], "abc": [0.5, 0.0, -0.0], "properties": {"magmom": 0.0}, "label": "Ca", "xyz": [2.1936488, -0.00031373, -0.625762845]}, {"species": [{"element": "Ca", "occu": 1}], "abc": [0.0, 0.5, -0.0], "properties": {"magmom": 0.0}, "label": "Ca", "xyz": [-0.1787416, 2.186354545, -0.62576284]}, {"species": [{"element": "Ca", "occu": 1}], "abc": [0.32081307000000003, 0.32081307000000003, 0.64163632], "properties": {"magmom": 0.0}, "label": "Ca", "xyz": [1.3326754426489809, 1.4458650620808688, 4.674607300815568]}, {"species": [{"element": "Ca", "occu": 1}], "abc": [0.67918693, 0.67918693, 0.35836368], "properties": {"magmom": 0.0}, "label": "Ca", "xyz": [2.759258747351019, 2.9936132079191307, 1.3592939991844317]}, {"species": [{"element": "As", "occu": 1}], "abc": [0.13431404, 0.13431404, 0.268579], "properties": {"magmom": -0.0}, "label": "As", "xyz": [0.557944723592586, 0.6053332691096451, 1.9566512693236953]}, {"species": [{"element": "As", "occu": 1}], "abc": [0.86568596, 0.86568596, 0.731421], "properties": {"magmom": -0.0}, "label": "As", "xyz": [3.533989466407414, 3.834145000890355, 4.077250030676304]}]}, "task_ids": null, "uncorrected_energy_per_atom": null, "energy_per_atom": -10.705200793333333, "formation_energy_per_atom": -1.110494664166665, "energy_above_hull": 0.04712873611111, "is_stable": false, "equilibrium_reaction_energy_per_atom": null, "decomposes_to": null, "xas": null, "grain_boundaries": null, "band_gap": 0.0, "cbm": null, "vbm": null, "efermi": 3.75662894, "is_gap_direct": null, "is_metal": null, "es_source_calc_id": null, "bandstructure": null, "dos": null, "dos_energy_up": null, "dos_energy_down": null, "is_magnetic": null, "ordering": null, "total_magnetization": 0.0008003999999990001, "total_magnetization_normalized_vol": null, "total_magnetization_normalized_formula_units": null, "num_magnetic_sites": null, "num_unique_magnetic_sites": null, "types_of_magnetic_species": null, "bulk_modulus": null, "shear_modulus": null, "universal_anisotropy": null, "homogeneous_poisson": null, "e_total": null, "e_ionic": null, "e_electronic": null, "n": null, "e_ij_max": null, "weighted_surface_energy_EV_PER_ANG2": null, "weighted_surface_energy": null, "weighted_work_function": null, "surface_anisotropy": null, "shape_factor": null, "has_reconstructed": null, "possible_species": null, "has_props": null, "theoretical": null, "database_IDs": null, "fields_not_requested": ["builder_meta", "nsites", "elements", "nelements", "composition", "composition_reduced", "chemsys", "symmetry", "property_name", "deprecated", "deprecation_reasons", "last_updated", "origins", "warnings", "task_ids", "uncorrected_energy_per_atom", "equilibrium_reaction_energy_per_atom", "decomposes_to", "xas", "grain_boundaries", "cbm", "vbm", "is_gap_direct", "is_metal", "es_source_calc_id", "bandstructure", "dos", "dos_energy_up", "dos_energy_down", "is_magnetic", "ordering", "total_magnetization_normalized_vol", "total_magnetization_normalized_formula_units", "num_magnetic_sites", "num_unique_magnetic_sites", "types_of_magnetic_species", "bulk_modulus", "shear_modulus", "universal_anisotropy", "homogeneous_poisson", "e_total", "e_ionic", "e_electronic", "n", "e_ij_max", "weighted_surface_energy_EV_PER_ANG2", "weighted_surface_energy", "weighted_work_function", "surface_anisotropy", "shape_factor", "has_reconstructed", "possible_species", "has_props", "theoretical", "database_IDs"]}