{
  "builder_meta": null,
  "nsites": null,
  "elements": null,
  "nelements": null,
  "composition": null,
  "composition_reduced": null,
  "formula_pretty": "Ca2Bi",
  "formula_anonymous": "AB2",
  "chemsys": null,
  "volume": 200.2100833228376,
  "density": 4.7961848854724245,
  "density_atomic": 33.368347220472934,
  "symmetry": null,
  "property_name": null,
  "material_id": "mp-569535",
  "deprecated": null,
  "deprecation_reasons": null,
  "last_updated": null,
  "origins": null,
  "warnings": null,
  "structure": {
    "@module": "pymatgen.core.structure",
    "@class": "Structure",
    "charge": 0,
    "lattice": {
      "matrix": [
        [4.67811874, 6.733000000000003e-5, -1.28378732],
        [-0.352209699999999, 4.66484125, -1.28378754],
        [0.00197136, 0.00212644, 9.17322328]
      ],
      "pbc": [true, true, true],
      "a": 4.851072544609625,
      "b": 4.851072665744651,
      "c": 9.173223738290769,
      "alpha": 105.3332412046577,
      "beta": 105.33324260555793,
      "gamma": 89.99818504314402,
      "volume": 200.2100833228376
    },
    "properties": {},
    "sites": [
      {
        "species": [{ "element": "Ca", "occu": 1 }],
        "abc": [0.67419547, 0.6741954800000001, 0.34839519],
        "properties": { "magmom": 0.0 },
        "label": "Ca",
        "xyz": [2.917195087219711, 3.145801120716369, 1.4648595152122637]
      },
      {
        "species": [{ "element": "Ca", "occu": 1 }],
        "abc": [0.5, -0.0, 0.0],
        "properties": { "magmom": -0.0 },
        "label": "Ca",
        "xyz": [2.33905937, 3.366500000000002e-5, -0.64189366]
      },
      {
        "species": [{ "element": "Ca", "occu": 1 }],
        "abc": [0.32580553, 0.32580552, 0.65160481],
        "properties": { "magmom": 0.0 },
        "label": "Ca",
        "xyz": [1.4106896386893304, 1.5212385641922115, 5.140786337212877]
      },
      {
        "species": [{ "element": "Ca", "occu": 1 }],
        "abc": [-0.0, 0.5, -0.0],
        "properties": { "magmom": 0.0 },
        "label": "Ca",
        "xyz": [-0.1761048499999995, 2.332420625, -0.64189377]
      },
      {
        "species": [{ "element": "Bi", "occu": 1 }],
        "abc": [0.136241299999999, 0.136241299999999, 0.27249606],
        "properties": { "magmom": 0.0 },
        "label": "Bi",
        "xyz": [0.5899046591241895, 0.6361326558421758, 2.149857464526561]
      },
      {
        "species": [{ "element": "Bi", "occu": 1 }],
        "abc": [0.8637587, 0.8637587, 0.72750394],
        "properties": { "magmom": 0.0 },
        "label": "Bi",
        "xyz": [3.7379757408758074, 4.03090236415782, 4.45579095547344]
      }
    ]
  },
  "task_ids": null,
  "uncorrected_energy_per_atom": null,
  "energy_per_atom": -25.100860928333333,
  "formation_energy_per_atom": -0.907907213333336,
  "energy_above_hull": 0.0,
  "is_stable": true,
  "equilibrium_reaction_energy_per_atom": null,
  "decomposes_to": null,
  "xas": null,
  "grain_boundaries": null,
  "band_gap": 0.0,
  "cbm": null,
  "vbm": null,
  "efermi": 3.7250422,
  "is_gap_direct": null,
  "is_metal": null,
  "es_source_calc_id": null,
  "bandstructure": null,
  "dos": null,
  "dos_energy_up": null,
  "dos_energy_down": null,
  "is_magnetic": null,
  "ordering": null,
  "total_magnetization": 0.0,
  "total_magnetization_normalized_vol": null,
  "total_magnetization_normalized_formula_units": null,
  "num_magnetic_sites": null,
  "num_unique_magnetic_sites": null,
  "types_of_magnetic_species": null,
  "bulk_modulus": null,
  "shear_modulus": null,
  "universal_anisotropy": null,
  "homogeneous_poisson": null,
  "e_total": null,
  "e_ionic": null,
  "e_electronic": null,
  "n": null,
  "e_ij_max": null,
  "weighted_surface_energy_EV_PER_ANG2": null,
  "weighted_surface_energy": null,
  "weighted_work_function": null,
  "surface_anisotropy": null,
  "shape_factor": null,
  "has_reconstructed": null,
  "possible_species": null,
  "has_props": null,
  "theoretical": null,
  "database_IDs": null,
  "fields_not_requested": [
    "builder_meta",
    "nsites",
    "elements",
    "nelements",
    "composition",
    "composition_reduced",
    "chemsys",
    "symmetry",
    "property_name",
    "deprecated",
    "deprecation_reasons",
    "last_updated",
    "origins",
    "warnings",
    "task_ids",
    "uncorrected_energy_per_atom",
    "equilibrium_reaction_energy_per_atom",
    "decomposes_to",
    "xas",
    "grain_boundaries",
    "cbm",
    "vbm",
    "is_gap_direct",
    "is_metal",
    "es_source_calc_id",
    "bandstructure",
    "dos",
    "dos_energy_up",
    "dos_energy_down",
    "is_magnetic",
    "ordering",
    "total_magnetization_normalized_vol",
    "total_magnetization_normalized_formula_units",
    "num_magnetic_sites",
    "num_unique_magnetic_sites",
    "types_of_magnetic_species",
    "bulk_modulus",
    "shear_modulus",
    "universal_anisotropy",
    "homogeneous_poisson",
    "e_total",
    "e_ionic",
    "e_electronic",
    "n",
    "e_ij_max",
    "weighted_surface_energy_EV_PER_ANG2",
    "weighted_surface_energy",
    "weighted_work_function",
    "surface_anisotropy",
    "shape_factor",
    "has_reconstructed",
    "possible_species",
    "has_props",
    "theoretical",
    "database_IDs"
  ]
}
