{
  "builder_meta": null,
  "nsites": null,
  "elements": null,
  "nelements": null,
  "composition": null,
  "composition_reduced": null,
  "formula_pretty": "Ca2Bi7",
  "formula_anonymous": "A2B7",
  "chemsys": null,
  "volume": 289.26873799517057,
  "density": 8.857656087057112,
  "density_atomic": 32.140970888352285,
  "symmetry": null,
  "property_name": null,
  "material_id": "mp-1227392",
  "deprecated": null,
  "deprecation_reasons": null,
  "last_updated": null,
  "origins": null,
  "warnings": null,
  "structure": {
    "@module": "pymatgen.core.structure",
    "@class": "Structure",
    "charge": 0,
    "lattice": {
      "matrix": [
        [5.321152, 3.081743, 0.0],
        [-5.321152, 3.081743, 0.0],
        [0.0, 2.167538, 8.820017]
      ],
      "pbc": [true, true, true],
      "a": 6.149129899843798,
      "b": 6.149129899843798,
      "c": 9.082451258428696,
      "alpha": 83.13074017322943,
      "beta": 83.13074017322943,
      "gamma": 119.84548023780359,
      "volume": 289.26873799517057
    },
    "properties": {},
    "sites": [
      {
        "species": [{ "element": "Ca", "occu": 1 }],
        "abc": [0.666365, 0.333634999999999, 0.0],
        "properties": { "magmom": 0.0 },
        "label": "Ca",
        "xyz": [1.7705069049600048, 3.081742999999997, 0.0]
      },
      {
        "species": [{ "element": "Ca", "occu": 1 }],
        "abc": [0.333634999999999, 0.666365, 0.0],
        "properties": { "magmom": 0.0 },
        "label": "Ca",
        "xyz": [-1.7705069049600048, 3.081742999999997, 0.0]
      },
      {
        "species": [{ "element": "Bi", "occu": 1 }],
        "abc": [0.106182, 0.446306999999999, 0.677810999999999],
        "properties": { "magmom": 0.0 },
        "label": "Bi",
        "xyz": [-1.8098568239999946, 3.171810207644995, 5.978304542786992]
      },
      {
        "species": [{ "element": "Bi", "occu": 1 }],
        "abc": [0.763868, 0.763868, 0.692755999999999],
        "properties": { "magmom": 0.0 },
        "label": "Bi",
        "xyz": [0.0, 6.209664678575997, 6.110119696851991]
      },
      {
        "species": [{ "element": "Bi", "occu": 1 }],
        "abc": [0.446306999999999, 0.106182, 0.677810999999999],
        "properties": { "magmom": 0.0 },
        "label": "Bi",
        "xyz": [1.8098568239999946, 3.171810207644995, 5.978304542786992]
      },
      {
        "species": [{ "element": "Bi", "occu": 1 }],
        "abc": [0.893818, 0.553693, 0.322189],
        "properties": { "magmom": 0.0 },
        "label": "Bi",
        "xyz": [1.8098568240000001, 5.159213792355, 2.841712457213]
      },
      {
        "species": [{ "element": "Bi", "occu": 1 }],
        "abc": [0.553693, 0.893818, 0.322189],
        "properties": { "magmom": 0.0 },
        "label": "Bi",
        "xyz": [-1.8098568240000001, 5.159213792355, 2.841712457213]
      },
      {
        "species": [{ "element": "Bi", "occu": 1 }],
        "abc": [0.236131999999999, 0.236131999999999, 0.307243999999999],
        "properties": { "magmom": 0.0 },
        "label": "Bi",
        "xyz": [0.0, 2.121359321423992, 2.7098973031479914]
      },
      {
        "species": [{ "element": "Bi", "occu": 1 }],
        "abc": [0.0, 0.0, 0.0],
        "properties": { "magmom": 0.0 },
        "label": "Bi",
        "xyz": [0.0, 0.0, 0.0]
      }
    ]
  },
  "task_ids": null,
  "uncorrected_energy_per_atom": null,
  "energy_per_atom": -47.26539423277778,
  "formation_energy_per_atom": -0.199560497777787,
  "energy_above_hull": 0.202531621111113,
  "is_stable": false,
  "equilibrium_reaction_energy_per_atom": null,
  "decomposes_to": null,
  "xas": null,
  "grain_boundaries": null,
  "band_gap": 0.0,
  "cbm": null,
  "vbm": null,
  "efermi": 5.49169442,
  "is_gap_direct": null,
  "is_metal": null,
  "es_source_calc_id": null,
  "bandstructure": null,
  "dos": null,
  "dos_energy_up": null,
  "dos_energy_down": null,
  "is_magnetic": null,
  "ordering": null,
  "total_magnetization": 0.007493,
  "total_magnetization_normalized_vol": null,
  "total_magnetization_normalized_formula_units": null,
  "num_magnetic_sites": null,
  "num_unique_magnetic_sites": null,
  "types_of_magnetic_species": null,
  "bulk_modulus": null,
  "shear_modulus": null,
  "universal_anisotropy": null,
  "homogeneous_poisson": null,
  "e_total": null,
  "e_ionic": null,
  "e_electronic": null,
  "n": null,
  "e_ij_max": null,
  "weighted_surface_energy_EV_PER_ANG2": null,
  "weighted_surface_energy": null,
  "weighted_work_function": null,
  "surface_anisotropy": null,
  "shape_factor": null,
  "has_reconstructed": null,
  "possible_species": null,
  "has_props": null,
  "theoretical": null,
  "database_IDs": null,
  "fields_not_requested": [
    "builder_meta",
    "nsites",
    "elements",
    "nelements",
    "composition",
    "composition_reduced",
    "chemsys",
    "symmetry",
    "property_name",
    "deprecated",
    "deprecation_reasons",
    "last_updated",
    "origins",
    "warnings",
    "task_ids",
    "uncorrected_energy_per_atom",
    "equilibrium_reaction_energy_per_atom",
    "decomposes_to",
    "xas",
    "grain_boundaries",
    "cbm",
    "vbm",
    "is_gap_direct",
    "is_metal",
    "es_source_calc_id",
    "bandstructure",
    "dos",
    "dos_energy_up",
    "dos_energy_down",
    "is_magnetic",
    "ordering",
    "total_magnetization_normalized_vol",
    "total_magnetization_normalized_formula_units",
    "num_magnetic_sites",
    "num_unique_magnetic_sites",
    "types_of_magnetic_species",
    "bulk_modulus",
    "shear_modulus",
    "universal_anisotropy",
    "homogeneous_poisson",
    "e_total",
    "e_ionic",
    "e_electronic",
    "n",
    "e_ij_max",
    "weighted_surface_energy_EV_PER_ANG2",
    "weighted_surface_energy",
    "weighted_work_function",
    "surface_anisotropy",
    "shape_factor",
    "has_reconstructed",
    "possible_species",
    "has_props",
    "theoretical",
    "database_IDs"
  ]
}
