{
  "builder_meta": null,
  "nsites": null,
  "elements": null,
  "nelements": null,
  "composition": null,
  "composition_reduced": null,
  "formula_pretty": "Ca2Cu",
  "formula_anonymous": "AB2",
  "chemsys": null,
  "volume": 366.5395453453978,
  "density": 2.604060467458636,
  "density_atomic": 30.544962112116483,
  "symmetry": null,
  "property_name": null,
  "material_id": "mp-12614",
  "deprecated": null,
  "deprecation_reasons": null,
  "last_updated": null,
  "origins": null,
  "warnings": null,
  "structure": {
    "@module": "pymatgen.core.structure",
    "@class": "Structure",
    "charge": 0,
    "lattice": {
      "matrix": [
        [4.123908, -0.0, 0.0],
        [-0.0, 6.06484848, 0.0],
        [0.0, 0.0, 14.65520553]
      ],
      "pbc": [true, true, true],
      "a": 4.123908,
      "b": 6.06484848,
      "c": 14.65520553,
      "alpha": 90.0,
      "beta": 90.0,
      "gamma": 90.0,
      "volume": 366.5395453453978
    },
    "properties": {},
    "sites": [
      {
        "species": [{ "element": "Ca", "occu": 1 }],
        "abc": [0.75, 0.63030299, 0.33458612],
        "properties": { "magmom": 0.0 },
        "label": "Ca",
        "xyz": [3.092931, 3.8226921308409554, 4.903428356085243]
      },
      {
        "species": [{ "element": "Ca", "occu": 1 }],
        "abc": [0.25, 0.36969601, 0.66541388],
        "properties": { "magmom": 0.0 },
        "label": "Ca",
        "xyz": [1.030977, 2.242150284310565, 9.751777173914757]
      },
      {
        "species": [{ "element": "Ca", "occu": 1 }],
        "abc": [0.75, 0.13030299, 0.16541388],
        "properties": { "magmom": 0.0 },
        "label": "Ca",
        "xyz": [3.092931, 0.7902678908409553, 2.4241744089147566]
      },
      {
        "species": [{ "element": "Ca", "occu": 1 }],
        "abc": [0.25, 0.86969701, 0.83458612],
        "properties": { "magmom": 0.0 },
        "label": "Ca",
        "xyz": [1.030977, 5.274580589159045, 12.231031121085243]
      },
      {
        "species": [{ "element": "Ca", "occu": 1 }],
        "abc": [0.75, 0.86663257, 0.5913600800000001],
        "properties": { "magmom": -0.0 },
        "label": "Ca",
        "xyz": [3.092931, 5.255995224882994, 8.666503514637244]
      },
      {
        "species": [{ "element": "Ca", "occu": 1 }],
        "abc": [0.25, 0.13336743, 0.40863992],
        "properties": { "magmom": -0.0 },
        "label": "Ca",
        "xyz": [1.030977, 0.8088532551170065, 5.988702015362757]
      },
      {
        "species": [{ "element": "Ca", "occu": 1 }],
        "abc": [0.75, 0.36663257, 0.90863992],
        "properties": { "magmom": -0.0 },
        "label": "Ca",
        "xyz": [3.092931, 2.2235709848829934, 13.316304780362758]
      },
      {
        "species": [{ "element": "Ca", "occu": 1 }],
        "abc": [0.25, 0.6333674300000001, 0.09136008],
        "properties": { "magmom": -0.0 },
        "label": "Ca",
        "xyz": [1.030977, 3.841277495117007, 1.3389007496372423]
      },
      {
        "species": [{ "element": "Cu", "occu": 1 }],
        "abc": [0.75, 0.89767863, 0.98539292],
        "properties": { "magmom": -0.0 },
        "label": "Cu",
        "xyz": [3.092931, 5.444284874683983, 14.441135770406847]
      },
      {
        "species": [{ "element": "Cu", "occu": 1 }],
        "abc": [0.25, 0.10232137000000001, 0.01460708],
        "properties": { "magmom": -0.0 },
        "label": "Cu",
        "xyz": [1.030977, 0.6205636053160176, 0.2140697595931524]
      },
      {
        "species": [{ "element": "Cu", "occu": 1 }],
        "abc": [0.75, 0.39767863000000003, 0.51460708],
        "properties": { "magmom": -0.0 },
        "label": "Cu",
        "xyz": [3.092931, 2.4118606346839826, 7.541672524593152]
      },
      {
        "species": [{ "element": "Cu", "occu": 1 }],
        "abc": [0.25, 0.60232137, 0.48539292],
        "properties": { "magmom": -0.0 },
        "label": "Cu",
        "xyz": [1.030977, 3.6529878453160176, 7.113533005406848]
      }
    ]
  },
  "task_ids": null,
  "uncorrected_energy_per_atom": null,
  "energy_per_atom": -8.388755045,
  "formation_energy_per_atom": -0.080960578333333,
  "energy_above_hull": 0.0,
  "is_stable": true,
  "equilibrium_reaction_energy_per_atom": null,
  "decomposes_to": null,
  "xas": null,
  "grain_boundaries": null,
  "band_gap": 0.0,
  "cbm": null,
  "vbm": null,
  "efermi": 2.80008992,
  "is_gap_direct": null,
  "is_metal": null,
  "es_source_calc_id": null,
  "bandstructure": null,
  "dos": null,
  "dos_energy_up": null,
  "dos_energy_down": null,
  "is_magnetic": null,
  "ordering": null,
  "total_magnetization": 8e-7,
  "total_magnetization_normalized_vol": null,
  "total_magnetization_normalized_formula_units": null,
  "num_magnetic_sites": null,
  "num_unique_magnetic_sites": null,
  "types_of_magnetic_species": null,
  "bulk_modulus": null,
  "shear_modulus": null,
  "universal_anisotropy": null,
  "homogeneous_poisson": null,
  "e_total": null,
  "e_ionic": null,
  "e_electronic": null,
  "n": null,
  "e_ij_max": null,
  "weighted_surface_energy_EV_PER_ANG2": null,
  "weighted_surface_energy": null,
  "weighted_work_function": null,
  "surface_anisotropy": null,
  "shape_factor": null,
  "has_reconstructed": null,
  "possible_species": null,
  "has_props": null,
  "theoretical": null,
  "database_IDs": null,
  "fields_not_requested": [
    "builder_meta",
    "nsites",
    "elements",
    "nelements",
    "composition",
    "composition_reduced",
    "chemsys",
    "symmetry",
    "property_name",
    "deprecated",
    "deprecation_reasons",
    "last_updated",
    "origins",
    "warnings",
    "task_ids",
    "uncorrected_energy_per_atom",
    "equilibrium_reaction_energy_per_atom",
    "decomposes_to",
    "xas",
    "grain_boundaries",
    "cbm",
    "vbm",
    "is_gap_direct",
    "is_metal",
    "es_source_calc_id",
    "bandstructure",
    "dos",
    "dos_energy_up",
    "dos_energy_down",
    "is_magnetic",
    "ordering",
    "total_magnetization_normalized_vol",
    "total_magnetization_normalized_formula_units",
    "num_magnetic_sites",
    "num_unique_magnetic_sites",
    "types_of_magnetic_species",
    "bulk_modulus",
    "shear_modulus",
    "universal_anisotropy",
    "homogeneous_poisson",
    "e_total",
    "e_ionic",
    "e_electronic",
    "n",
    "e_ij_max",
    "weighted_surface_energy_EV_PER_ANG2",
    "weighted_surface_energy",
    "weighted_work_function",
    "surface_anisotropy",
    "shape_factor",
    "has_reconstructed",
    "possible_species",
    "has_props",
    "theoretical",
    "database_IDs"
  ]
}
