{"builder_meta": null, "nsites": null, "elements": null, "nelements": null, "composition": null, "composition_reduced": null, "formula_pretty": "Ca2F", "formula_anonymous": "AB2", "chemsys": null, "volume": 431.16934289974625, "density": 1.909339831905578, "density_atomic": 28.744622859983085, "symmetry": null, "property_name": null, "material_id": "mp-684949", "deprecated": null, "deprecation_reasons": null, "last_updated": null, "origins": null, "warnings": null, "structure": {"@module": "pymatgen.core.structure", "@class": "Structure", "charge": 0, "lattice": {"matrix": [[1.970262, 13.956277, 0.0], [-1.970262, 13.956277, 0.0], [0.0, 1.118638, 7.840149]], "pbc": [true, true, true], "a": 14.094665659368193, "b": 14.094665659368193, "c": 7.919550954267862, "alpha": 81.96006312950618, "beta": 81.96006312950618, "gamma": 16.071132178238212, "volume": 431.16934289974625}, "properties": {}, "sites": [{"species": [{"element": "Ca", "occu": 1}], "abc": [0.998616, 0.998616, 6.1e-05], "properties": {"magmom": 0.008}, "label": "Ca", "xyz": [0.0, 27.873991262182, 0.000478249089]}, {"species": [{"element": "Ca", "occu": 1}], "abc": [0.403576, 0.403576, 0.799036], "properties": {"magmom": 0.014}, "label": "Ca", "xyz": [0.0, 12.158668926072, 6.264561296364]}, {"species": [{"element": "Ca", "occu": 1}], "abc": [0.804353, 0.804353, 0.601507], "properties": {"magmom": 0.021}, "label": "Ca", "xyz": [0.0, 23.124415135028, 4.715904504543]}, {"species": [{"element": "Ca", "occu": 1}], "abc": [0.199525999999999, 0.199525999999999, 0.901619], "properties": {"magmom": 0.005}, "label": "Ca", "xyz": [0.0, 6.577865524325972, 7.068827301231]}, {"species": [{"element": "Ca", "occu": 1}], "abc": [0.200006, 0.200006, 0.398775], "properties": {"magmom": 0.006}, "label": "Ca", "xyz": [0.0, 6.0287631437739995, 3.126455417475]}, {"species": [{"element": "Ca", "occu": 1}], "abc": [0.606378, 0.606378, 0.6979900000000001], "properties": {"magmom": 0.013000000000000001}, "label": "Ca", "xyz": [0.0, 17.706356807031998, 5.472345600510001]}, {"species": [{"element": "Ca", "occu": 1}], "abc": [0.593071999999999, 0.593071999999999, 0.202209], "properties": {"magmom": 0.006}, "label": "Ca", "xyz": [0.0, 16.780352897229974, 1.585348689141]}, {"species": [{"element": "Ca", "occu": 1}], "abc": [0.395483, 0.395483, 0.297234], "properties": {"magmom": 0.02}, "label": "Ca", "xyz": [0.0, 11.371437840874, 2.330358847866]}, {"species": [{"element": "Ca", "occu": 1}], "abc": [0.0011, 0.0011, 0.502502999999999], "properties": {"magmom": 0.003}, "label": "Ca", "xyz": [0.0, 0.5928227603139988, 3.9396983929469926]}, {"species": [{"element": "Ca", "occu": 1}], "abc": [0.794352, 0.794352, 0.09972], "properties": {"magmom": 0.007}, "label": "Ca", "xyz": [0.0, 22.283943676367997, 0.78181965828]}, {"species": [{"element": "F", "occu": 1}], "abc": [0.045784, 0.045784, 0.22731], "properties": {"magmom": -0.001}, "label": "F", "xyz": [0.0, 1.532225976116, 1.7821442691900002]}, {"species": [{"element": "F", "occu": 1}], "abc": [0.153764999999999, 0.153764999999999, 0.672478], "properties": {"magmom": 0.003}, "label": "F", "xyz": [0.0, 5.044233310773973, 5.272327719222]}, {"species": [{"element": "F", "occu": 1}], "abc": [0.950788, 0.950788, 0.768633], "properties": {"magmom": 0.002}, "label": "F", "xyz": [0.0, 27.398743474405997, 6.026197246317]}, {"species": [{"element": "F", "occu": 1}], "abc": [0.246502, 0.246502, 0.126793], "properties": {"magmom": -0.002}, "label": "F", "xyz": [0.0, 7.022335854042001, 0.9940760121569999]}, {"species": [{"element": "F", "occu": 1}], "abc": [0.354548, 0.354548, 0.579133], "properties": {"magmom": 0.005}, "label": "F", "xyz": [0.0, 10.544180376446, 4.540489010817001]}]}, "task_ids": null, "uncorrected_energy_per_atom": null, "energy_per_atom": -7.717011227333334, "formation_energy_per_atom": -1.982806110666667, "energy_above_hull": 0.128321129333333, "is_stable": false, "equilibrium_reaction_energy_per_atom": null, "decomposes_to": null, "xas": null, "grain_boundaries": null, "band_gap": 0.0, "cbm": null, "vbm": null, "efermi": 2.6611549500000002, "is_gap_direct": null, "is_metal": null, "es_source_calc_id": null, "bandstructure": null, "dos": null, "dos_energy_up": null, "dos_energy_down": null, "is_magnetic": null, "ordering": null, "total_magnetization": 0.5666557, "total_magnetization_normalized_vol": null, "total_magnetization_normalized_formula_units": null, "num_magnetic_sites": null, "num_unique_magnetic_sites": null, "types_of_magnetic_species": null, "bulk_modulus": null, "shear_modulus": null, "universal_anisotropy": null, "homogeneous_poisson": null, "e_total": null, "e_ionic": null, "e_electronic": null, "n": null, "e_ij_max": null, "weighted_surface_energy_EV_PER_ANG2": null, "weighted_surface_energy": null, "weighted_work_function": null, "surface_anisotropy": null, "shape_factor": null, "has_reconstructed": null, "possible_species": null, "has_props": null, "theoretical": null, "database_IDs": null, "fields_not_requested": ["builder_meta", "nsites", "elements", "nelements", "composition", "composition_reduced", "chemsys", "symmetry", "property_name", "deprecated", "deprecation_reasons", "last_updated", "origins", "warnings", "task_ids", "uncorrected_energy_per_atom", "equilibrium_reaction_energy_per_atom", "decomposes_to", "xas", "grain_boundaries", "cbm", "vbm", "is_gap_direct", "is_metal", "es_source_calc_id", "bandstructure", "dos", "dos_energy_up", "dos_energy_down", "is_magnetic", "ordering", "total_magnetization_normalized_vol", "total_magnetization_normalized_formula_units", "num_magnetic_sites", "num_unique_magnetic_sites", "types_of_magnetic_species", "bulk_modulus", "shear_modulus", "universal_anisotropy", "homogeneous_poisson", "e_total", "e_ionic", "e_electronic", "n", "e_ij_max", "weighted_surface_energy_EV_PER_ANG2", "weighted_surface_energy", "weighted_work_function", "surface_anisotropy", "shape_factor", "has_reconstructed", "possible_species", "has_props", "theoretical", "database_IDs"]}