{
  "builder_meta": null,
  "nsites": null,
  "elements": null,
  "nelements": null,
  "composition": null,
  "composition_reduced": null,
  "formula_pretty": "Ca2Hg",
  "formula_anonymous": "AB2",
  "chemsys": null,
  "volume": 377.61575683969465,
  "density": 4.938244152662202,
  "density_atomic": 31.467979736641222,
  "symmetry": null,
  "property_name": null,
  "material_id": "mp-1103139",
  "deprecated": null,
  "deprecation_reasons": null,
  "last_updated": null,
  "origins": null,
  "warnings": null,
  "structure": {
    "@module": "pymatgen.core.structure",
    "@class": "Structure",
    "charge": 0,
    "lattice": {
      "matrix": [
        [0.0, -5.00652613, 0.0],
        [-7.74146232, 0.0, -3.604e-5],
        [-4.160999999999999e-5, 0.0, -9.7429532]
      ],
      "pbc": [true, true, true],
      "a": 5.00652613,
      "b": 7.741462320083891,
      "c": 9.742953200088854,
      "alpha": 89.99948856468248,
      "beta": 90.0,
      "gamma": 90.0,
      "volume": 377.61575683969465
    },
    "properties": {},
    "sites": [
      {
        "species": [{ "element": "Ca", "occu": 1 }],
        "abc": [0.75, 0.47459668, 0.6754783400000001],
        "properties": { "magmom": 0.0 },
        "label": "Ca",
        "xyz": [-3.674100422070825, -3.7548945975, -6.581170958698036]
      },
      {
        "species": [{ "element": "Ca", "occu": 1 }],
        "abc": [0.75, 0.97458644, 0.82464472],
        "properties": { "magmom": 0.0 },
        "label": "Ca",
        "xyz": [-7.544758516309741, -3.7548945975, -8.034510037682402]
      },
      {
        "species": [{ "element": "Ca", "occu": 1 }],
        "abc": [0.25, 0.52541616, 0.32450612],
        "properties": { "magmom": 0.0 },
        "label": "Ca",
        "xyz": [-4.067502907658745, -1.2516315325, -3.1616668762719904]
      },
      {
        "species": [{ "element": "Ca", "occu": 1 }],
        "abc": [0.25, 0.02541285, 0.17538658000000001],
        "properties": { "magmom": 0.0 },
        "label": "Ca",
        "xyz": [-0.1967399185544058, -1.2516315325, -1.7087841567271704]
      },
      {
        "species": [{ "element": "Ca", "occu": 1 }],
        "abc": [0.75, 0.34940836000000003, 0.06961059],
        "properties": { "magmom": 0.0 },
        "label": "Ca",
        "xyz": [-2.7049345497296455, -3.7548945975, -0.6782253132716825]
      },
      {
        "species": [{ "element": "Ca", "occu": 1 }],
        "abc": [0.75, 0.849403599999999, 0.43032565],
        "properties": { "magmom": 0.0 },
        "label": "Ca",
        "xyz": [-6.575643869722641, -3.7548945975, -4.192673281215324]
      },
      {
        "species": [{ "element": "Ca", "occu": 1 }],
        "abc": [0.25, 0.65057451, 0.93046815],
        "properties": { "magmom": 0.0 },
        "label": "Ca",
        "xyz": [-5.0364367722971854, -1.2516315325, -9.06553108624592]
      },
      {
        "species": [{ "element": "Ca", "occu": 1 }],
        "abc": [0.25, 0.15058961, 0.56957986],
        "properties": { "magmom": 0.0 },
        "label": "Ca",
        "xyz": [-1.1658074918164698, -1.2516315325, -5.549395346892097]
      },
      {
        "species": [{ "element": "Hg", "occu": 1 }],
        "abc": [0.75, 0.7531884600000001, 0.11745555],
        "properties": { "magmom": 0.0 },
        "label": "Hg",
        "xyz": [-5.830784970274264, -3.7548945975, -1.1443910716423584]
      },
      {
        "species": [{ "element": "Hg", "occu": 1 }],
        "abc": [0.75, 0.25321546, 0.38249203],
        "properties": { "magmom": -0.0 },
        "label": "Hg",
        "xyz": [-1.9602738579248355, -3.7548945975, -3.7266110735481743]
      },
      {
        "species": [{ "element": "Hg", "occu": 1 }],
        "abc": [0.25, 0.24679924, 0.88257057],
        "properties": { "magmom": -0.0 },
        "label": "Hg",
        "xyz": [-1.9106237408260545, -1.2516315325, -8.598852653851935]
      },
      {
        "species": [{ "element": "Hg", "occu": 1 }],
        "abc": [0.25, 0.74680764, 0.61748284],
        "properties": { "magmom": 0.0 },
        "label": "Hg",
        "xyz": [-5.781408898809097, -1.2516315325, -6.016133326870434]
      }
    ]
  },
  "task_ids": null,
  "uncorrected_energy_per_atom": null,
  "energy_per_atom": -21.591362374166668,
  "formation_energy_per_atom": -0.44323106666666906,
  "energy_above_hull": 0.0,
  "is_stable": true,
  "equilibrium_reaction_energy_per_atom": null,
  "decomposes_to": null,
  "xas": null,
  "grain_boundaries": null,
  "band_gap": 0.0,
  "cbm": null,
  "vbm": null,
  "efermi": 2.80557876,
  "is_gap_direct": null,
  "is_metal": null,
  "es_source_calc_id": null,
  "bandstructure": null,
  "dos": null,
  "dos_energy_up": null,
  "dos_energy_down": null,
  "is_magnetic": null,
  "ordering": null,
  "total_magnetization": 2.19e-5,
  "total_magnetization_normalized_vol": null,
  "total_magnetization_normalized_formula_units": null,
  "num_magnetic_sites": null,
  "num_unique_magnetic_sites": null,
  "types_of_magnetic_species": null,
  "bulk_modulus": null,
  "shear_modulus": null,
  "universal_anisotropy": null,
  "homogeneous_poisson": null,
  "e_total": null,
  "e_ionic": null,
  "e_electronic": null,
  "n": null,
  "e_ij_max": null,
  "weighted_surface_energy_EV_PER_ANG2": null,
  "weighted_surface_energy": null,
  "weighted_work_function": null,
  "surface_anisotropy": null,
  "shape_factor": null,
  "has_reconstructed": null,
  "possible_species": null,
  "has_props": null,
  "theoretical": null,
  "database_IDs": null,
  "fields_not_requested": [
    "builder_meta",
    "nsites",
    "elements",
    "nelements",
    "composition",
    "composition_reduced",
    "chemsys",
    "symmetry",
    "property_name",
    "deprecated",
    "deprecation_reasons",
    "last_updated",
    "origins",
    "warnings",
    "task_ids",
    "uncorrected_energy_per_atom",
    "equilibrium_reaction_energy_per_atom",
    "decomposes_to",
    "xas",
    "grain_boundaries",
    "cbm",
    "vbm",
    "is_gap_direct",
    "is_metal",
    "es_source_calc_id",
    "bandstructure",
    "dos",
    "dos_energy_up",
    "dos_energy_down",
    "is_magnetic",
    "ordering",
    "total_magnetization_normalized_vol",
    "total_magnetization_normalized_formula_units",
    "num_magnetic_sites",
    "num_unique_magnetic_sites",
    "types_of_magnetic_species",
    "bulk_modulus",
    "shear_modulus",
    "universal_anisotropy",
    "homogeneous_poisson",
    "e_total",
    "e_ionic",
    "e_electronic",
    "n",
    "e_ij_max",
    "weighted_surface_energy_EV_PER_ANG2",
    "weighted_surface_energy",
    "weighted_work_function",
    "surface_anisotropy",
    "shape_factor",
    "has_reconstructed",
    "possible_species",
    "has_props",
    "theoretical",
    "database_IDs"
  ]
}
