{"builder_meta": null, "nsites": null, "elements": null, "nelements": null, "composition": null, "composition_reduced": null, "formula_pretty": "Ca2In", "formula_anonymous": "AB2", "chemsys": null, "volume": 386.9700718256425, "density": 3.346635489859237, "density_atomic": 32.247505985470205, "symmetry": null, "property_name": null, "material_id": "mp-20669", "deprecated": null, "deprecation_reasons": null, "last_updated": null, "origins": null, "warnings": null, "structure": {"@module": "pymatgen.core.structure", "@class": "Structure", "charge": 0, "lattice": {"matrix": [[5.36490286, 0.0, 0.0], [-0.0, 7.25647359, 0.0], [0.0, 0.0, 9.94008038]], "pbc": [true, true, true], "a": 5.36490286, "b": 7.25647359, "c": 9.94008038, "alpha": 90.0, "beta": 90.0, "gamma": 90.0, "volume": 386.9700718256425}, "properties": {}, "sites": [{"species": [{"element": "Ca", "occu": 1}], "abc": [0.75, 0.96597605, 0.29914905], "properties": {"magmom": -0.0}, "label": "Ca", "xyz": [4.023677145, 7.009579695397519, 2.973565602600639]}, {"species": [{"element": "Ca", "occu": 1}], "abc": [0.25, 0.03402395, 0.70085095], "properties": {"magmom": -0.0}, "label": "Ca", "xyz": [1.341225715, 0.24689389460248046, 6.96651477739936]}, {"species": [{"element": "Ca", "occu": 1}], "abc": [0.75, 0.46597605000000003, 0.20085095], "properties": {"magmom": -0.0}, "label": "Ca", "xyz": [4.023677145, 3.3813429003975197, 1.996474587399361]}, {"species": [{"element": "Ca", "occu": 1}], "abc": [0.25, 0.53402395, 0.79914905], "properties": {"magmom": -0.0}, "label": "Ca", "xyz": [1.341225715, 3.8751306896024804, 7.943605792600639]}, {"species": [{"element": "Ca", "occu": 1}], "abc": [0.75, 0.82737221, 0.93357277], "properties": {"magmom": -0.0}, "label": "Ca", "xyz": [4.023677145, 6.0038045909649345, 9.279788374379253]}, {"species": [{"element": "Ca", "occu": 1}], "abc": [0.25, 0.17262779, 0.06642723], "properties": {"magmom": -0.0}, "label": "Ca", "xyz": [1.341225715, 1.2526689990350661, 0.6602920056207474]}, {"species": [{"element": "Ca", "occu": 1}], "abc": [0.75, 0.32737221, 0.5664272300000001], "properties": {"magmom": -0.0}, "label": "Ca", "xyz": [4.023677145, 2.3755677959649337, 5.630332195620747]}, {"species": [{"element": "Ca", "occu": 1}], "abc": [0.25, 0.6726277900000001, 0.43357277], "properties": {"magmom": -0.0}, "label": "Ca", "xyz": [1.341225715, 4.880905794035066, 4.309748184379252]}, {"species": [{"element": "In", "occu": 1}], "abc": [0.75, 0.77448233, 0.61134538], "properties": {"magmom": -0.0}, "label": "In", "xyz": [4.023677145, 5.620010573566664, 6.076822217141644]}, {"species": [{"element": "In", "occu": 1}], "abc": [0.25, 0.22551767, 0.38865462], "properties": {"magmom": -0.0}, "label": "In", "xyz": [1.341225715, 1.6364630164333354, 3.8632581628583553]}, {"species": [{"element": "In", "occu": 1}], "abc": [0.75, 0.27448233, 0.8886546200000001], "properties": {"magmom": -0.0}, "label": "In", "xyz": [4.023677145, 1.9917737785666645, 8.833298352858355]}, {"species": [{"element": "In", "occu": 1}], "abc": [0.25, 0.72551767, 0.11134538000000001], "properties": {"magmom": -0.0}, "label": "In", "xyz": [1.341225715, 5.264699811433335, 1.1067820271416444]}]}, "task_ids": null, "uncorrected_energy_per_atom": null, "energy_per_atom": -12.6797511225, "formation_energy_per_atom": -0.46135852916666603, "energy_above_hull": 0.00036513549999900004, "is_stable": false, "equilibrium_reaction_energy_per_atom": null, "decomposes_to": null, "xas": null, "grain_boundaries": null, "band_gap": 0.0, "cbm": null, "vbm": null, "efermi": 3.60823807, "is_gap_direct": null, "is_metal": null, "es_source_calc_id": null, "bandstructure": null, "dos": null, "dos_energy_up": null, "dos_energy_down": null, "is_magnetic": null, "ordering": null, "total_magnetization": 4.4800000000000005e-05, "total_magnetization_normalized_vol": null, "total_magnetization_normalized_formula_units": null, "num_magnetic_sites": null, "num_unique_magnetic_sites": null, "types_of_magnetic_species": null, "bulk_modulus": null, "shear_modulus": null, "universal_anisotropy": null, "homogeneous_poisson": null, "e_total": null, "e_ionic": null, "e_electronic": null, "n": null, "e_ij_max": null, "weighted_surface_energy_EV_PER_ANG2": null, "weighted_surface_energy": null, "weighted_work_function": null, "surface_anisotropy": null, "shape_factor": null, "has_reconstructed": null, "possible_species": null, "has_props": null, "theoretical": null, "database_IDs": null, "fields_not_requested": ["builder_meta", "nsites", "elements", "nelements", "composition", "composition_reduced", "chemsys", "symmetry", "property_name", "deprecated", "deprecation_reasons", "last_updated", "origins", "warnings", "task_ids", "uncorrected_energy_per_atom", "equilibrium_reaction_energy_per_atom", "decomposes_to", "xas", "grain_boundaries", "cbm", "vbm", "is_gap_direct", "is_metal", "es_source_calc_id", "bandstructure", "dos", "dos_energy_up", "dos_energy_down", "is_magnetic", "ordering", "total_magnetization_normalized_vol", "total_magnetization_normalized_formula_units", "num_magnetic_sites", "num_unique_magnetic_sites", "types_of_magnetic_species", "bulk_modulus", "shear_modulus", "universal_anisotropy", "homogeneous_poisson", "e_total", "e_ionic", "e_electronic", "n", "e_ij_max", "weighted_surface_energy_EV_PER_ANG2", "weighted_surface_energy", "weighted_work_function", "surface_anisotropy", "shape_factor", "has_reconstructed", "possible_species", "has_props", "theoretical", "database_IDs"]}