{"builder_meta": null, "nsites": null, "elements": null, "nelements": null, "composition": null, "composition_reduced": null, "formula_pretty": "Ca2Mg", "formula_anonymous": "AB2", "chemsys": null, "volume": 210.28218395372645, "density": 1.649798077751309, "density_atomic": 35.047030658954405, "symmetry": null, "property_name": null, "material_id": "mp-1039467", "deprecated": null, "deprecation_reasons": null, "last_updated": null, "origins": null, "warnings": null, "structure": {"@module": "pymatgen.core.structure", "@class": "Structure", "charge": 0, "lattice": {"matrix": [[1.907436, 7.058996, 0.0], [-1.907436, 7.058996, 0.0], [0.0, 2.297115, 7.808715]], "pbc": [true, true, true], "a": 7.312163607449713, "b": 7.312163607449713, "c": 8.139580288592896, "alpha": 74.19022980117214, "beta": 74.19022980117214, "gamma": 30.241951744506196, "volume": 210.28218395372645}, "properties": {}, "sites": [{"species": [{"element": "Ca", "occu": 1}], "abc": [0.840623999999999, 0.840623999999999, 0.097369], "properties": {"magmom": 0.0}, "label": "Ca", "xyz": [0.0, 12.091590697442985, 0.760326770835]}, {"species": [{"element": "Ca", "occu": 1}], "abc": [0.138486, 0.138486, 0.445428], "properties": {"magmom": 0.0}, "label": "Ca", "xyz": [0.0, 2.978343580332, 3.4782203050200002]}, {"species": [{"element": "Ca", "occu": 1}], "abc": [0.861514, 0.861514, 0.554572], "properties": {"magmom": 0.0}, "label": "Ca", "xyz": [0.0, 13.436763419667999, 4.33049469498]}, {"species": [{"element": "Ca", "occu": 1}], "abc": [0.159376, 0.159376, 0.902631], "properties": {"magmom": 0.0}, "label": "Ca", "xyz": [0.0, 4.323516302557, 7.048388229165]}, {"species": [{"element": "Mg", "occu": 1}], "abc": [0.513541, 0.513541, 0.220474999999999], "properties": {"magmom": 0.0}, "label": "Mg", "xyz": [0.0, 7.756624159296997, 1.7216264396249923]}, {"species": [{"element": "Mg", "occu": 1}], "abc": [0.486459, 0.486459, 0.779524999999999], "properties": {"magmom": 0.0}, "label": "Mg", "xyz": [0.0, 8.658482840702998, 6.087088560374992]}]}, "task_ids": null, "uncorrected_energy_per_atom": null, "energy_per_atom": -1.910152311666666, "formation_energy_per_atom": -0.029595719999999003, "energy_above_hull": 0.013408672499999, "is_stable": false, "equilibrium_reaction_energy_per_atom": null, "decomposes_to": null, "xas": null, "grain_boundaries": null, "band_gap": 0.0, "cbm": null, "vbm": null, "efermi": 1.94627215, "is_gap_direct": null, "is_metal": null, "es_source_calc_id": null, "bandstructure": null, "dos": null, "dos_energy_up": null, "dos_energy_down": null, "is_magnetic": null, "ordering": null, "total_magnetization": 0.0019037, "total_magnetization_normalized_vol": null, "total_magnetization_normalized_formula_units": null, "num_magnetic_sites": null, "num_unique_magnetic_sites": null, "types_of_magnetic_species": null, "bulk_modulus": null, "shear_modulus": null, "universal_anisotropy": null, "homogeneous_poisson": null, "e_total": null, "e_ionic": null, "e_electronic": null, "n": null, "e_ij_max": null, "weighted_surface_energy_EV_PER_ANG2": null, "weighted_surface_energy": null, "weighted_work_function": null, "surface_anisotropy": null, "shape_factor": null, "has_reconstructed": null, "possible_species": null, "has_props": null, "theoretical": null, "database_IDs": null, "fields_not_requested": ["builder_meta", "nsites", "elements", "nelements", "composition", "composition_reduced", "chemsys", "symmetry", "property_name", "deprecated", "deprecation_reasons", "last_updated", "origins", "warnings", "task_ids", "uncorrected_energy_per_atom", "equilibrium_reaction_energy_per_atom", "decomposes_to", "xas", "grain_boundaries", "cbm", "vbm", "is_gap_direct", "is_metal", "es_source_calc_id", "bandstructure", "dos", "dos_energy_up", "dos_energy_down", "is_magnetic", "ordering", "total_magnetization_normalized_vol", "total_magnetization_normalized_formula_units", "num_magnetic_sites", "num_unique_magnetic_sites", "types_of_magnetic_species", "bulk_modulus", "shear_modulus", "universal_anisotropy", "homogeneous_poisson", "e_total", "e_ionic", "e_electronic", "n", "e_ij_max", "weighted_surface_energy_EV_PER_ANG2", "weighted_surface_energy", "weighted_work_function", "surface_anisotropy", "shape_factor", "has_reconstructed", "possible_species", "has_props", "theoretical", "database_IDs"]}