{"builder_meta": null, "nsites": null, "elements": null, "nelements": null, "composition": null, "composition_reduced": null, "formula_pretty": "Ca2N", "formula_anonymous": "AB2", "chemsys": null, "volume": 72.2550748874401, "density": 2.164011901034173, "density_atomic": 24.085024962480034, "symmetry": null, "property_name": null, "material_id": "mp-2686", "deprecated": null, "deprecation_reasons": null, "last_updated": null, "origins": null, "warnings": null, "structure": {"@module": "pymatgen.core.structure", "@class": "Structure", "charge": 0, "lattice": {"matrix": [[3.54380788, 0.050803430000000004, 5.75038342], [1.66798365, 3.12713692, 5.75038342], [0.08331738, 0.050803430000000004, 6.75415062]], "pbc": [true, true, true], "a": 6.754854902650446, "b": 6.754854865214004, "c": 6.754855540420995, "alpha": 30.93677452952886, "beta": 30.936773918476703, "gamma": 30.936776958132935, "volume": 72.25507488744009}, "properties": {}, "sites": [{"species": [{"element": "Ca", "occu": 1}], "abc": [0.73140824, 0.73140824, 0.73140824], "properties": {"magmom": -0.0}, "label": "Ca", "xyz": [3.8728862884714186, 2.3615298055407474, 13.35179705076387]}, {"species": [{"element": "Ca", "occu": 1}], "abc": [0.26859176, 0.26859176, 0.26859176], "properties": {"magmom": -0.0}, "label": "Ca", "xyz": [1.4222226215285816, 0.8672139744592529, 4.903120409236131]}, {"species": [{"element": "N", "occu": 1}], "abc": [-0.0, -0.0, 0.0], "properties": {"magmom": -0.0}, "label": "N", "xyz": [0.0, 0.0, 0.0]}]}, "task_ids": null, "uncorrected_energy_per_atom": null, "energy_per_atom": -8.632833980000001, "formation_energy_per_atom": -0.8977212895833341, "energy_above_hull": 0.0, "is_stable": true, "equilibrium_reaction_energy_per_atom": null, "decomposes_to": null, "xas": null, "grain_boundaries": null, "band_gap": 0.0, "cbm": null, "vbm": null, "efermi": 2.55187925, "is_gap_direct": null, "is_metal": null, "es_source_calc_id": null, "bandstructure": null, "dos": null, "dos_energy_up": null, "dos_energy_down": null, "is_magnetic": null, "ordering": null, "total_magnetization": 1.3e-06, "total_magnetization_normalized_vol": null, "total_magnetization_normalized_formula_units": null, "num_magnetic_sites": null, "num_unique_magnetic_sites": null, "types_of_magnetic_species": null, "bulk_modulus": null, "shear_modulus": null, "universal_anisotropy": null, "homogeneous_poisson": null, "e_total": null, "e_ionic": null, "e_electronic": null, "n": null, "e_ij_max": null, "weighted_surface_energy_EV_PER_ANG2": null, "weighted_surface_energy": null, "weighted_work_function": null, "surface_anisotropy": null, "shape_factor": null, "has_reconstructed": null, "possible_species": null, "has_props": null, "theoretical": null, "database_IDs": null, "fields_not_requested": ["builder_meta", "nsites", "elements", "nelements", "composition", "composition_reduced", "chemsys", "symmetry", "property_name", "deprecated", "deprecation_reasons", "last_updated", "origins", "warnings", "task_ids", "uncorrected_energy_per_atom", "equilibrium_reaction_energy_per_atom", "decomposes_to", "xas", "grain_boundaries", "cbm", "vbm", "is_gap_direct", "is_metal", "es_source_calc_id", "bandstructure", "dos", "dos_energy_up", "dos_energy_down", "is_magnetic", "ordering", "total_magnetization_normalized_vol", "total_magnetization_normalized_formula_units", "num_magnetic_sites", "num_unique_magnetic_sites", "types_of_magnetic_species", "bulk_modulus", "shear_modulus", "universal_anisotropy", "homogeneous_poisson", "e_total", "e_ionic", "e_electronic", "n", "e_ij_max", "weighted_surface_energy_EV_PER_ANG2", "weighted_surface_energy", "weighted_work_function", "surface_anisotropy", "shape_factor", "has_reconstructed", "possible_species", "has_props", "theoretical", "database_IDs"]}