{"builder_meta": null, "nsites": null, "elements": null, "nelements": null, "composition": null, "composition_reduced": null, "formula_pretty": "Ca2Ni7", "formula_anonymous": "A2B7", "chemsys": null, "volume": 257.5590427659709, "density": 6.331293564592923, "density_atomic": 14.308835709220606, "symmetry": null, "property_name": null, "material_id": "mp-1105997", "deprecated": null, "deprecation_reasons": null, "last_updated": null, "origins": null, "warnings": null, "structure": {"@module": "pymatgen.core.structure", "@class": "Structure", "charge": 0, "lattice": {"matrix": [[-2.49427, -4.320202, 0.0], [-4.988539, 0.0, 0.0], [-2.49427, -1.440067, -11.950866]], "pbc": [true, true, true], "a": 4.988539681480343, "b": 4.988539, "c": 12.29302135145567, "alpha": 78.29332940126591, "beta": 78.29333102799932, "gamma": 59.999997887849716, "volume": 257.5590427659709}, "properties": {}, "sites": [{"species": [{"element": "Ca", "occu": 1}], "abc": [0.948593999999999, 0.948593999999999, 0.154217], "properties": {"magmom": 0.026000000000000002}, "label": "Ca", "xyz": [-7.482806557135993, -4.320200508526996, -1.843026701922]}, {"species": [{"element": "Ca", "occu": 1}], "abc": [0.051406, 0.051406, 0.845783], "properties": {"magmom": 0.026000000000000002}, "label": "Ca", "xyz": [-2.4942724428639997, -1.440068491473, -10.107839298078]}, {"species": [{"element": "Ca", "occu": 1}], "abc": [0.851833, 0.851833, 0.444501999999999], "properties": {"magmom": 0.028}, "label": "Ca", "xyz": [-7.482811642436998, -4.320203291899999, -5.312183838731988]}, {"species": [{"element": "Ca", "occu": 1}], "abc": [0.148167, 0.148167, 0.555497999999999], "properties": {"magmom": 0.028}, "label": "Ca", "xyz": [-2.4942673575629977, -1.4400657080999986, -6.6386821612679885]}, {"species": [{"element": "Ni", "occu": 1}], "abc": [0.5, 0.5, 0.5], "properties": {"magmom": -0.215}, "label": "Ni", "xyz": [-4.9885395, -2.8801345, -5.975433]}, {"species": [{"element": "Ni", "occu": 1}], "abc": [0.721787, 0.721787, 0.834638], "properties": {"magmom": -0.392}, "label": "Ni", "xyz": [-7.482806783943, -4.32020028172, -9.974646896508]}, {"species": [{"element": "Ni", "occu": 1}], "abc": [0.278213, 0.278213, 0.165361999999999], "properties": {"magmom": -0.392}, "label": "Ni", "xyz": [-2.4942722160569977, -1.4400687182799985, -1.976219103491988]}, {"species": [{"element": "Ni", "occu": 1}], "abc": [0.612266, 0.612266, 0.16320199999999901], "properties": {"magmom": -0.388}, "label": "Ni", "xyz": [-4.988539387733998, -2.8801346122659988, -1.950405232931988]}, {"species": [{"element": "Ni", "occu": 1}], "abc": [0.387733999999999, 0.387733999999999, 0.836797999999999], "properties": {"magmom": -0.388}, "label": "Ni", "xyz": [-4.98853961226599, -2.880134387733994, -10.000460767067988]}, {"species": [{"element": "Ni", "occu": 1}], "abc": [0.0, 0.5, 0.0], "properties": {"magmom": -0.481}, "label": "Ni", "xyz": [-2.4942695, 0.0, 0.0]}, {"species": [{"element": "Ni", "occu": 1}], "abc": [0.5, 0.0, 0.0], "properties": {"magmom": -0.481}, "label": "Ni", "xyz": [-1.247135, -2.160101, 0.0]}, {"species": [{"element": "Ni", "occu": 1}], "abc": [0.5, 0.5, 0.0], "properties": {"magmom": -0.481}, "label": "Ni", "xyz": [-3.7414045000000002, -2.160101, 0.0]}, {"species": [{"element": "Ni", "occu": 1}], "abc": [0.391553, 0.391553, 0.327192], "properties": {"magmom": -0.324}, "label": "Ni", "xyz": [-3.7460215022170003, -2.16276645557, -3.910227748272]}, {"species": [{"element": "Ni", "occu": 1}], "abc": [0.889702999999999, 0.391553, 0.327192], "properties": {"magmom": -0.324}, "label": "Ni", "xyz": [-4.988542102716998, -4.314875081869996, -3.910227748272]}, {"species": [{"element": "Ni", "occu": 1}], "abc": [0.391553, 0.889702999999999, 0.327192], "properties": {"magmom": -0.324}, "label": "Ni", "xyz": [-6.231062205066996, -2.16276645557, -3.910227748272]}, {"species": [{"element": "Ni", "occu": 1}], "abc": [0.608447, 0.608447, 0.672808], "properties": {"magmom": -0.324}, "label": "Ni", "xyz": [-6.231057497783, -3.5975025444299997, -8.040638251728]}, {"species": [{"element": "Ni", "occu": 1}], "abc": [0.11029699999999901, 0.608447, 0.672808], "properties": {"magmom": -0.324}, "label": "Ni", "xyz": [-4.988536897282997, -1.4453939181299957, -8.040638251728]}, {"species": [{"element": "Ni", "occu": 1}], "abc": [0.608447, 0.11029699999999901, 0.672808], "properties": {"magmom": -0.324}, "label": "Ni", "xyz": [-3.746016794932995, -3.5975025444299997, -8.040638251728]}]}, "task_ids": null, "uncorrected_energy_per_atom": null, "energy_per_atom": -5.089975013888889, "formation_energy_per_atom": -0.148624289444443, "energy_above_hull": 0.0, "is_stable": true, "equilibrium_reaction_energy_per_atom": null, "decomposes_to": null, "xas": null, "grain_boundaries": null, "band_gap": 0.0, "cbm": null, "vbm": null, "efermi": 5.79756755, "is_gap_direct": null, "is_metal": null, "es_source_calc_id": null, "bandstructure": null, "dos": null, "dos_energy_up": null, "dos_energy_down": null, "is_magnetic": null, "ordering": null, "total_magnetization": 4.5007613, "total_magnetization_normalized_vol": null, "total_magnetization_normalized_formula_units": null, "num_magnetic_sites": null, "num_unique_magnetic_sites": null, "types_of_magnetic_species": null, "bulk_modulus": null, "shear_modulus": null, "universal_anisotropy": null, "homogeneous_poisson": null, "e_total": null, "e_ionic": null, "e_electronic": null, "n": null, "e_ij_max": null, "weighted_surface_energy_EV_PER_ANG2": null, "weighted_surface_energy": null, "weighted_work_function": null, "surface_anisotropy": null, "shape_factor": null, "has_reconstructed": null, "possible_species": null, "has_props": null, "theoretical": null, "database_IDs": null, "fields_not_requested": ["builder_meta", "nsites", "elements", "nelements", "composition", "composition_reduced", "chemsys", "symmetry", "property_name", "deprecated", "deprecation_reasons", "last_updated", "origins", "warnings", "task_ids", "uncorrected_energy_per_atom", "equilibrium_reaction_energy_per_atom", "decomposes_to", "xas", "grain_boundaries", "cbm", "vbm", "is_gap_direct", "is_metal", "es_source_calc_id", "bandstructure", "dos", "dos_energy_up", "dos_energy_down", "is_magnetic", "ordering", "total_magnetization_normalized_vol", "total_magnetization_normalized_formula_units", "num_magnetic_sites", "num_unique_magnetic_sites", "types_of_magnetic_species", "bulk_modulus", "shear_modulus", "universal_anisotropy", "homogeneous_poisson", "e_total", "e_ionic", "e_electronic", "n", "e_ij_max", "weighted_surface_energy_EV_PER_ANG2", "weighted_surface_energy", "weighted_work_function", "surface_anisotropy", "shape_factor", "has_reconstructed", "possible_species", "has_props", "theoretical", "database_IDs"]}