{"builder_meta": null, "nsites": null, "elements": null, "nelements": null, "composition": null, "composition_reduced": null, "formula_pretty": "Ca2O3", "formula_anonymous": "A2B3", "chemsys": null, "volume": 648.496100209335, "density": 2.62521308091353, "density_atomic": 16.212402505233378, "symmetry": null, "property_name": null, "material_id": "mp-1120811", "deprecated": null, "deprecation_reasons": null, "last_updated": null, "origins": null, "warnings": null, "structure": {"@module": "pymatgen.core.structure", "@class": "Structure", "charge": 0, "lattice": {"matrix": [[9.47412, 0.0, 0.0], [-3.770711, 8.704306, 0.0], [-3.790944, -3.715847, 7.863834]], "pbc": [true, true, true], "a": 9.47412, "b": 9.485947732681064, "c": 9.48781642518978, "alpha": 101.56888192699535, "beta": 113.5506225920259, "gamma": 113.42229205345183, "volume": 648.496100209335}, "properties": {}, "sites": [{"species": [{"element": "Ca", "occu": 1}], "abc": [0.216212, 0.466981999999999, 0.245473], "properties": {"magmom": -0.002}, "label": "Ca", "xyz": [-0.6430101272739964, 3.152614113860992, 1.930358923482]}, {"species": [{"element": "Ca", "occu": 1}], "abc": [0.976138, 0.751869, 0.22877000000000003], "properties": {"magmom": -0.004}, "label": "Ca", "xyz": [5.5457135808209985, 5.694423529724001, 1.7990093041800002]}, {"species": [{"element": "Ca", "occu": 1}], "abc": [0.780880999999999, 0.532359, 0.747082999999999], "properties": {"magmom": -0.003}, "label": "Ca", "xyz": [2.5586385461189933, 1.8577695135530043, 5.874936696221992]}, {"species": [{"element": "Ca", "occu": 1}], "abc": [0.251795, 0.231449, 0.48016499999999906], "properties": {"magmom": 0.002}, "label": "Ca", "xyz": [-0.30746987059899666, 0.2303832446390035, 3.7759378526099927]}, {"species": [{"element": "Ca", "occu": 1}], "abc": [0.719279, 0.9692369999999991, 0.252951], "properties": {"magmom": -0.001}, "label": "Ca", "xyz": [2.200899866229003, 7.496608220024993, 1.9891646741339999]}, {"species": [{"element": "Ca", "occu": 1}], "abc": [0.748176, 0.769373, 0.519297], "properties": {"magmom": 0.001}, "label": "Ca", "xyz": [2.218600124548999, 4.767229820579001, 4.083665404698]}, {"species": [{"element": "Ca", "occu": 1}], "abc": [0.250461999999999, 0.733260999999999, 0.985016], "properties": {"magmom": -0.001}, "label": "Ca", "xyz": [-4.126148770235006, 2.7223593733139926, 7.746002311344]}, {"species": [{"element": "Ca", "occu": 1}], "abc": [0.747335, 0.267978, 0.019659], "properties": {"magmom": 0.002}, "label": "Ca", "xyz": [5.995347709745999, 2.2595126770950005, 0.15459511260599998]}, {"species": [{"element": "Ca", "occu": 1}], "abc": [0.281072, 0.026633999999999002, 0.748726], "properties": {"magmom": -0.001}, "label": "Ca", "xyz": [-0.27589759747799647, -2.550320774918009, 5.8878569754839996]}, {"species": [{"element": "Ca", "occu": 1}], "abc": [0.52493, 0.248337, 0.271677], "properties": {"magmom": -0.002}, "label": "Ca", "xyz": [3.0069304609049996, 1.1520910737030001, 2.136422829618]}, {"species": [{"element": "Ca", "occu": 1}], "abc": [0.473836, 0.752494, 0.724521], "properties": {"magmom": -0.004}, "label": "Ca", "xyz": [-1.094876816738, 3.857728854877001, 5.6975128735139995]}, {"species": [{"element": "Ca", "occu": 1}], "abc": [0.027010000000000003, 0.250994999999999, 0.779729], "properties": {"magmom": -0.005}, "label": "Ca", "xyz": [-3.6464426004209964, -0.7126163809930084, 6.131659420986]}, {"species": [{"element": "Ca", "occu": 1}], "abc": [0.995336, 0.494158, 0.495652], "properties": {"magmom": 0.0}, "label": "Ca", "xyz": [5.687616722493998, 2.459535447104, 3.897725049768]}, {"species": [{"element": "Ca", "occu": 1}], "abc": [0.995632, 0.998512, 0.998493], "properties": {"magmom": 0.0}, "label": "Ca", "xyz": [1.8824058144159999, 4.981106774101001, 7.851983202162]}, {"species": [{"element": "Ca", "occu": 1}], "abc": [0.50644, 0.504047999999999, 0.0029700000000000004], "properties": {"magmom": -0.001}, "label": "Ca", "xyz": [2.886194890992003, 4.376351965097992, 0.023355586980000002]}, {"species": [{"element": "Ca", "occu": 1}], "abc": [0.503618999999999, 0.002565999999999, 0.502109], "properties": {"magmom": 0.001}, "label": "Ca", "xyz": [2.858204094957994, -1.8434249721270088, 3.9485018259060003]}, {"species": [{"element": "O", "occu": 1}], "abc": [0.260248, 0.240290999999999, 0.234755], "properties": {"magmom": 0.577}, "label": "O", "xyz": [0.6696098061390036, 1.2192527305609917, 1.84607435067]}, {"species": [{"element": "O", "occu": 1}], "abc": [0.9749800000000001, 0.004045, 0.244882], "properties": {"magmom": 0.596}, "label": "O", "xyz": [8.293491042997, -0.8747351272839999, 1.9257113975879998]}, {"species": [{"element": "O", "occu": 1}], "abc": [0.5294179999999991, 0.02195, 0.762593], "properties": {"magmom": 0.455}, "label": "O", "xyz": [2.0420551979179904, -2.6426193945709997, 5.996904761562]}, {"species": [{"element": "O", "occu": 1}], "abc": [0.466458, 0.722418, 0.47041499999999903], "properties": {"magmom": 0.603}, "label": "O", "xyz": [-0.08806735399799681, 4.540157165403005, 3.6992654711099924]}, {"species": [{"element": "O", "occu": 1}], "abc": [0.024789, 0.763712, 0.008931], "properties": {"magmom": 0.519}, "label": "O", "xyz": [-2.678740199415999, 6.614396714315, 0.07023190145399999]}, {"species": [{"element": "O", "occu": 1}], "abc": [0.757493, 0.519829, 0.489011], "properties": {"magmom": 0.49}, "label": "O", "xyz": [3.3626413363569996, 2.707660626357, 3.8455013281739996]}, {"species": [{"element": "O", "occu": 1}], "abc": [0.741842, 0.732974999999999, 0.26394], "properties": {"magmom": 0.464}, "label": "O", "xyz": [3.2638814744550038, 5.399278033169992, 2.07558034596]}, {"species": [{"element": "O", "occu": 1}], "abc": [0.751382, 0.504354, 0.972738], "properties": {"magmom": 0.605}, "label": "O", "xyz": [1.5293147734739994, 0.775505969238, 7.649450157492]}, {"species": [{"element": "O", "occu": 1}], "abc": [0.970366, 0.232, 0.992707999999999], "properties": {"magmom": 0.46900000000000003}, "label": "O", "xyz": [4.555258539568002, -1.6693520516759963, 7.806490922471992]}, {"species": [{"element": "O", "occu": 1}], "abc": [0.760591999999999, 0.227216, 0.257728], "properties": {"magmom": 0.538}, "label": "O", "xyz": [5.37214159323199, 1.0200797764800003, 2.026730209152]}, {"species": [{"element": "O", "occu": 1}], "abc": [0.501284, 0.741885, 0.977978999999999], "properties": {"magmom": 0.593}, "label": "O", "xyz": [-1.7556727823309979, 2.8235737235970038, 7.690664511485992]}, {"species": [{"element": "O", "occu": 1}], "abc": [0.770077, 0.030081999999999002, 0.525863], "properties": {"magmom": 0.538}, "label": "O", "xyz": [5.188854194266003, -1.6921835178690086, 4.135299338742]}, {"species": [{"element": "O", "occu": 1}], "abc": [0.528222, 0.272655, 0.528061], "properties": {"magmom": 0.587}, "label": "O", "xyz": [1.974485727351, 0.411078669763, 4.152584045874]}, {"species": [{"element": "O", "occu": 1}], "abc": [0.238559, 0.9765339999999991, 0.479668999999999], "properties": {"magmom": 0.554}, "label": "O", "xyz": [-3.240489220129993, 6.717674140760997, 3.772037390945992]}, {"species": [{"element": "O", "occu": 1}], "abc": [0.029320000000000002, 0.0005600000000000001, 0.754962999999999], "properties": {"magmom": 0.619}, "label": "O", "xyz": [-2.5863528548319965, -2.8004525873009967, 5.936903708141992]}, {"species": [{"element": "O", "occu": 1}], "abc": [0.261297, 0.264406, 0.74309], "properties": {"magmom": 0.5640000000000001}, "label": "O", "xyz": [-1.338452055986, -0.459738014994, 5.84353640706]}, {"species": [{"element": "O", "occu": 1}], "abc": [0.262415, 0.505286, 0.027343], "properties": {"magmom": 0.604}, "label": "O", "xyz": [0.47720793966200004, 4.296561556995, 0.215020813062]}, {"species": [{"element": "O", "occu": 1}], "abc": [0.235981, 0.763884, 0.743788999999999], "properties": {"magmom": 0.614}, "label": "O", "xyz": [-3.4643359366199964, 3.8852739602210042, 5.849033227025992]}, {"species": [{"element": "O", "occu": 1}], "abc": [0.483670999999999, 0.255652999999999, 0.012437], "properties": {"magmom": 0.541}, "label": "O", "xyz": [3.571215544708994, 2.179067952678992, 0.097802503458]}, {"species": [{"element": "O", "occu": 1}], "abc": [0.998863, 0.476087999999999, 0.738934], "properties": {"magmom": 0.6000000000000001}, "label": "O", "xyz": [4.866900253296003, 1.3982499478299917, 5.810854312956]}, {"species": [{"element": "O", "occu": 1}], "abc": [0.245435, 0.482905, 0.506126], "properties": {"magmom": 0.523}, "label": "O", "xyz": [-1.414309876199, 2.322666110208001, 3.9800908470839995]}, {"species": [{"element": "O", "occu": 1}], "abc": [0.004782, 0.525390999999999, 0.26156], "properties": {"magmom": 0.5680000000000001}, "label": "O", "xyz": [-2.9273516938009965, 3.601247092325992, 2.0568644210400002]}, {"species": [{"element": "O", "occu": 1}], "abc": [0.733791, 0.756192, 0.761386], "properties": {"magmom": 0.548}, "label": "O", "xyz": [1.2142708080239988, 3.75293267881, 5.987413113924]}, {"species": [{"element": "O", "occu": 1}], "abc": [0.470584, 0.979443, 0.23881000000000002], "properties": {"magmom": 0.46}, "label": "O", "xyz": [-0.1401425445329999, 7.637990159488, 1.87796219754]}]}, "task_ids": null, "uncorrected_energy_per_atom": null, "energy_per_atom": -6.2031539295, "formation_energy_per_atom": -2.4321373745, "energy_above_hull": 0.21420647450000002, "is_stable": false, "equilibrium_reaction_energy_per_atom": null, "decomposes_to": null, "xas": null, "grain_boundaries": null, "band_gap": 0.19689999999999902, "cbm": null, "vbm": null, "efermi": 0.38615378, "is_gap_direct": null, "is_metal": null, "es_source_calc_id": null, "bandstructure": null, "dos": null, "dos_energy_up": null, "dos_energy_down": null, "is_magnetic": null, "ordering": null, "total_magnetization": 16.0010199, "total_magnetization_normalized_vol": null, "total_magnetization_normalized_formula_units": null, "num_magnetic_sites": null, "num_unique_magnetic_sites": null, "types_of_magnetic_species": null, "bulk_modulus": null, "shear_modulus": null, "universal_anisotropy": null, "homogeneous_poisson": null, "e_total": null, "e_ionic": null, "e_electronic": null, "n": null, "e_ij_max": null, "weighted_surface_energy_EV_PER_ANG2": null, "weighted_surface_energy": null, "weighted_work_function": null, "surface_anisotropy": null, "shape_factor": null, "has_reconstructed": null, "possible_species": null, "has_props": null, "theoretical": null, "database_IDs": null, "fields_not_requested": ["builder_meta", "nsites", "elements", "nelements", "composition", "composition_reduced", "chemsys", "symmetry", "property_name", "deprecated", "deprecation_reasons", "last_updated", "origins", "warnings", "task_ids", "uncorrected_energy_per_atom", "equilibrium_reaction_energy_per_atom", "decomposes_to", "xas", "grain_boundaries", "cbm", "vbm", "is_gap_direct", "is_metal", "es_source_calc_id", "bandstructure", "dos", "dos_energy_up", "dos_energy_down", "is_magnetic", "ordering", "total_magnetization_normalized_vol", "total_magnetization_normalized_formula_units", "num_magnetic_sites", "num_unique_magnetic_sites", "types_of_magnetic_species", "bulk_modulus", "shear_modulus", "universal_anisotropy", "homogeneous_poisson", "e_total", "e_ionic", "e_electronic", "n", "e_ij_max", "weighted_surface_energy_EV_PER_ANG2", "weighted_surface_energy", "weighted_work_function", "surface_anisotropy", "shape_factor", "has_reconstructed", "possible_species", "has_props", "theoretical", "database_IDs"]}