{
  "builder_meta": null,
  "nsites": null,
  "elements": null,
  "nelements": null,
  "composition": null,
  "composition_reduced": null,
  "formula_pretty": "Ca2Pb",
  "formula_anonymous": "AB2",
  "chemsys": null,
  "volume": 392.269055553138,
  "density": 4.865699776894802,
  "density_atomic": 32.6890879627615,
  "symmetry": null,
  "property_name": null,
  "material_id": "mp-30478",
  "deprecated": null,
  "deprecation_reasons": null,
  "last_updated": null,
  "origins": null,
  "warnings": null,
  "structure": {
    "@module": "pymatgen.core.structure",
    "@class": "Structure",
    "charge": 0,
    "lattice": {
      "matrix": [
        [5.12804421, 0.0, 0.0],
        [0.0, 7.9896268599999996, 0.0],
        [0.0, 0.0, 9.57427268]
      ],
      "pbc": [true, true, true],
      "a": 5.12804421,
      "b": 7.9896268599999996,
      "c": 9.57427268,
      "alpha": 90.0,
      "beta": 90.0,
      "gamma": 90.0,
      "volume": 392.269055553138
    },
    "properties": {},
    "sites": [
      {
        "species": [{ "element": "Ca", "occu": 1 }],
        "abc": [0.75, 0.34179327, 0.92816761],
        "properties": { "magmom": -0.0 },
        "label": "Ca",
        "xyz": [3.8460331575, 2.730800690559232, 8.886529790883895]
      },
      {
        "species": [{ "element": "Ca", "occu": 1 }],
        "abc": [0.25, 0.65820673, 0.07183239],
        "properties": { "magmom": -0.0 },
        "label": "Ca",
        "xyz": [1.2820110525, 5.258826169440767, 0.6877428891161051]
      },
      {
        "species": [{ "element": "Ca", "occu": 1 }],
        "abc": [0.75, 0.84179327, 0.57183239],
        "properties": { "magmom": -0.0 },
        "label": "Ca",
        "xyz": [3.8460331575, 6.725614120559232, 5.474879229116105]
      },
      {
        "species": [{ "element": "Ca", "occu": 1 }],
        "abc": [0.25, 0.15820673, 0.42816761000000003],
        "properties": { "magmom": -0.0 },
        "label": "Ca",
        "xyz": [1.2820110525, 1.2640127394407676, 4.099393450883895]
      },
      {
        "species": [{ "element": "Ca", "occu": 1 }],
        "abc": [0.75, 0.47902789999999906, 0.31489886],
        "properties": { "magmom": 0.0 },
        "label": "Ca",
        "xyz": [3.8460331575, 3.827254176529386, 3.014927552261145]
      },
      {
        "species": [{ "element": "Ca", "occu": 1 }],
        "abc": [0.25, 0.520972099999999, 0.68510114],
        "properties": { "magmom": 0.0 },
        "label": "Ca",
        "xyz": [1.2820110525, 4.162372683470598, 6.5593451277388555]
      },
      {
        "species": [{ "element": "Ca", "occu": 1 }],
        "abc": [0.75, 0.9790279, 0.18510114],
        "properties": { "magmom": 0.0 },
        "label": "Ca",
        "xyz": [3.8460331575, 7.8220676065293935, 1.7722087877388553]
      },
      {
        "species": [{ "element": "Ca", "occu": 1 }],
        "abc": [0.25, 0.0209721, 0.81489886],
        "properties": { "magmom": 0.0 },
        "label": "Ca",
        "xyz": [1.2820110525, 0.167559253470606, 7.8020638922611445]
      },
      {
        "species": [{ "element": "Pb", "occu": 1 }],
        "abc": [0.75, 0.74908155, 0.89366904],
        "properties": { "magmom": 0.0 },
        "label": "Pb",
        "xyz": [3.8460331575, 5.984882072210432, 8.556231074633827]
      },
      {
        "species": [{ "element": "Pb", "occu": 1 }],
        "abc": [0.25, 0.25091845, 0.10633096],
        "properties": { "magmom": 0.0 },
        "label": "Pb",
        "xyz": [1.2820110525, 2.004744787789567, 1.0180416053661727]
      },
      {
        "species": [{ "element": "Pb", "occu": 1 }],
        "abc": [0.75, 0.24908155, 0.60633096],
        "properties": { "magmom": 0.0 },
        "label": "Pb",
        "xyz": [3.8460331575, 1.990068642210433, 5.8051779453661725]
      },
      {
        "species": [{ "element": "Pb", "occu": 1 }],
        "abc": [0.25, 0.75091845, 0.39366904],
        "properties": { "magmom": 0.0 },
        "label": "Pb",
        "xyz": [1.2820110525, 5.999558217789567, 3.7690947346338275]
      }
    ]
  },
  "task_ids": null,
  "uncorrected_energy_per_atom": null,
  "energy_per_atom": -3.125554603333332,
  "formation_energy_per_atom": -0.5509389933333301,
  "energy_above_hull": 0.0,
  "is_stable": true,
  "equilibrium_reaction_energy_per_atom": null,
  "decomposes_to": null,
  "xas": null,
  "grain_boundaries": null,
  "band_gap": 0.0,
  "cbm": null,
  "vbm": null,
  "efermi": 4.06876164,
  "is_gap_direct": null,
  "is_metal": null,
  "es_source_calc_id": null,
  "bandstructure": null,
  "dos": null,
  "dos_energy_up": null,
  "dos_energy_down": null,
  "is_magnetic": null,
  "ordering": null,
  "total_magnetization": 0.0,
  "total_magnetization_normalized_vol": null,
  "total_magnetization_normalized_formula_units": null,
  "num_magnetic_sites": null,
  "num_unique_magnetic_sites": null,
  "types_of_magnetic_species": null,
  "bulk_modulus": null,
  "shear_modulus": null,
  "universal_anisotropy": null,
  "homogeneous_poisson": null,
  "e_total": null,
  "e_ionic": null,
  "e_electronic": null,
  "n": null,
  "e_ij_max": null,
  "weighted_surface_energy_EV_PER_ANG2": null,
  "weighted_surface_energy": null,
  "weighted_work_function": null,
  "surface_anisotropy": null,
  "shape_factor": null,
  "has_reconstructed": null,
  "possible_species": null,
  "has_props": null,
  "theoretical": null,
  "database_IDs": null,
  "fields_not_requested": [
    "builder_meta",
    "nsites",
    "elements",
    "nelements",
    "composition",
    "composition_reduced",
    "chemsys",
    "symmetry",
    "property_name",
    "deprecated",
    "deprecation_reasons",
    "last_updated",
    "origins",
    "warnings",
    "task_ids",
    "uncorrected_energy_per_atom",
    "equilibrium_reaction_energy_per_atom",
    "decomposes_to",
    "xas",
    "grain_boundaries",
    "cbm",
    "vbm",
    "is_gap_direct",
    "is_metal",
    "es_source_calc_id",
    "bandstructure",
    "dos",
    "dos_energy_up",
    "dos_energy_down",
    "is_magnetic",
    "ordering",
    "total_magnetization_normalized_vol",
    "total_magnetization_normalized_formula_units",
    "num_magnetic_sites",
    "num_unique_magnetic_sites",
    "types_of_magnetic_species",
    "bulk_modulus",
    "shear_modulus",
    "universal_anisotropy",
    "homogeneous_poisson",
    "e_total",
    "e_ionic",
    "e_electronic",
    "n",
    "e_ij_max",
    "weighted_surface_energy_EV_PER_ANG2",
    "weighted_surface_energy",
    "weighted_work_function",
    "surface_anisotropy",
    "shape_factor",
    "has_reconstructed",
    "possible_species",
    "has_props",
    "theoretical",
    "database_IDs"
  ]
}
