{
  "builder_meta": null,
  "nsites": null,
  "elements": null,
  "nelements": null,
  "composition": null,
  "composition_reduced": null,
  "formula_pretty": "Ca2Sb",
  "formula_anonymous": "AB2",
  "chemsys": null,
  "volume": 189.90191034210963,
  "density": 3.531185184683812,
  "density_atomic": 31.650318390351604,
  "symmetry": null,
  "property_name": null,
  "material_id": "mp-9925",
  "deprecated": null,
  "deprecation_reasons": null,
  "last_updated": null,
  "origins": null,
  "warnings": null,
  "structure": {
    "@module": "pymatgen.core.structure",
    "@class": "Structure",
    "charge": 0,
    "lattice": {
      "matrix": [
        [4.58625094, 0.00015479, -1.26173986],
        [-0.34695539000000003, 4.57310889, -1.26173984],
        [0.02080247, 0.02244307, 9.04199969]
      ],
      "pbc": [true, true, true],
      "a": 4.7566464218946996,
      "b": 4.756646968852146,
      "c": 9.042051472321381,
      "alpha": 105.25041692533624,
      "beta": 105.25043036585792,
      "gamma": 89.99627535048853,
      "volume": 189.90191034210963
    },
    "properties": {},
    "sites": [
      {
        "species": [{ "element": "Ca", "occu": 1 }],
        "abc": [0.67030117, 0.67030117, 0.34061913],
        "properties": { "magmom": 0.041 },
        "label": "Ca",
        "xyz": [2.848690486374045, 3.073108534400435, 1.3883866724868206]
      },
      {
        "species": [{ "element": "Ca", "occu": 1 }],
        "abc": [0.99481861, 0.49481412, 0.98961653],
        "properties": { "magmom": 0.0 },
        "label": "Ca",
        "xyz": [4.411395827436717, 2.2852028720981163, 7.068583375173541]
      },
      {
        "species": [{ "element": "Ca", "occu": 1 }],
        "abc": [0.31931554, 0.31931554, 0.63860276],
        "properties": { "magmom": -0.041 },
        "label": "Ca",
        "xyz": [1.3669574625246645, 1.4746463679864605, 4.968459674868607]
      },
      {
        "species": [{ "element": "Ca", "occu": 1 }],
        "abc": [0.49481412, 0.99481861, 0.98961653],
        "properties": { "magmom": 0.0 },
        "label": "Ca",
        "xyz": [1.9447705123402939, 4.571700454662025, 7.068583385173631]
      },
      {
        "species": [{ "element": "Sb", "occu": 1 }],
        "abc": [0.85943021, 0.85943021, 0.7188670500000001],
        "properties": { "magmom": -0.003 },
        "label": "Sb",
        "xyz": [3.658332875030179, 3.9465345484116168, 4.331240954749479]
      },
      {
        "species": [{ "element": "Sb", "occu": 1 }],
        "abc": [0.13022235000000001, 0.13022235000000001, 0.26047699],
        "properties": { "magmom": 0.003 },
        "label": "Sb",
        "xyz": [0.5574695936357079, 0.6013870468992074, 2.0266194061208385]
      }
    ]
  },
  "task_ids": null,
  "uncorrected_energy_per_atom": null,
  "energy_per_atom": -3.658808090000001,
  "formation_energy_per_atom": -0.9454077566666661,
  "energy_above_hull": 0.0,
  "is_stable": true,
  "equilibrium_reaction_energy_per_atom": null,
  "decomposes_to": null,
  "xas": null,
  "grain_boundaries": null,
  "band_gap": 0.0,
  "cbm": null,
  "vbm": null,
  "efermi": 4.09843871,
  "is_gap_direct": null,
  "is_metal": null,
  "es_source_calc_id": null,
  "bandstructure": null,
  "dos": null,
  "dos_energy_up": null,
  "dos_energy_down": null,
  "is_magnetic": null,
  "ordering": null,
  "total_magnetization": 0.0,
  "total_magnetization_normalized_vol": null,
  "total_magnetization_normalized_formula_units": null,
  "num_magnetic_sites": null,
  "num_unique_magnetic_sites": null,
  "types_of_magnetic_species": null,
  "bulk_modulus": null,
  "shear_modulus": null,
  "universal_anisotropy": null,
  "homogeneous_poisson": null,
  "e_total": null,
  "e_ionic": null,
  "e_electronic": null,
  "n": null,
  "e_ij_max": null,
  "weighted_surface_energy_EV_PER_ANG2": null,
  "weighted_surface_energy": null,
  "weighted_work_function": null,
  "surface_anisotropy": null,
  "shape_factor": null,
  "has_reconstructed": null,
  "possible_species": null,
  "has_props": null,
  "theoretical": null,
  "database_IDs": null,
  "fields_not_requested": [
    "builder_meta",
    "nsites",
    "elements",
    "nelements",
    "composition",
    "composition_reduced",
    "chemsys",
    "symmetry",
    "property_name",
    "deprecated",
    "deprecation_reasons",
    "last_updated",
    "origins",
    "warnings",
    "task_ids",
    "uncorrected_energy_per_atom",
    "equilibrium_reaction_energy_per_atom",
    "decomposes_to",
    "xas",
    "grain_boundaries",
    "cbm",
    "vbm",
    "is_gap_direct",
    "is_metal",
    "es_source_calc_id",
    "bandstructure",
    "dos",
    "dos_energy_up",
    "dos_energy_down",
    "is_magnetic",
    "ordering",
    "total_magnetization_normalized_vol",
    "total_magnetization_normalized_formula_units",
    "num_magnetic_sites",
    "num_unique_magnetic_sites",
    "types_of_magnetic_species",
    "bulk_modulus",
    "shear_modulus",
    "universal_anisotropy",
    "homogeneous_poisson",
    "e_total",
    "e_ionic",
    "e_electronic",
    "n",
    "e_ij_max",
    "weighted_surface_energy_EV_PER_ANG2",
    "weighted_surface_energy",
    "weighted_work_function",
    "surface_anisotropy",
    "shape_factor",
    "has_reconstructed",
    "possible_species",
    "has_props",
    "theoretical",
    "database_IDs"
  ]
}
