{
  "builder_meta": null,
  "nsites": null,
  "elements": null,
  "nelements": null,
  "composition": null,
  "composition_reduced": null,
  "formula_pretty": "Ca2Sn",
  "formula_anonymous": "AB2",
  "chemsys": null,
  "volume": 384.80664678482026,
  "density": 3.432630540845451,
  "density_atomic": 32.06722056540169,
  "symmetry": null,
  "property_name": null,
  "material_id": "mp-22735",
  "deprecated": null,
  "deprecation_reasons": null,
  "last_updated": null,
  "origins": null,
  "warnings": null,
  "structure": {
    "@module": "pymatgen.core.structure",
    "@class": "Structure",
    "charge": 0,
    "lattice": {
      "matrix": [
        [5.0667945, 0.0, 0.0],
        [0.0, 7.94400692, 0.0],
        [0.0, 0.0, 9.56025906]
      ],
      "pbc": [true, true, true],
      "a": 5.0667945,
      "b": 7.94400692,
      "c": 9.56025906,
      "alpha": 90.0,
      "beta": 90.0,
      "gamma": 90.0,
      "volume": 384.80664678482026
    },
    "properties": {},
    "sites": [
      {
        "species": [{ "element": "Ca", "occu": 1 }],
        "abc": [0.75, 0.34346834, 0.92963946],
        "properties": { "magmom": 0.0 },
        "label": "Ca",
        "xyz": [3.8000958750000002, 2.7285148697609127, 8.887594069998507]
      },
      {
        "species": [{ "element": "Ca", "occu": 1 }],
        "abc": [0.25, 0.65653166, 0.07036054],
        "properties": { "magmom": 0.0 },
        "label": "Ca",
        "xyz": [1.266698625, 5.215492050239087, 0.6726649900014924]
      },
      {
        "species": [{ "element": "Ca", "occu": 1 }],
        "abc": [0.75, 0.84346834, 0.57036054],
        "properties": { "magmom": 0.0 },
        "label": "Ca",
        "xyz": [3.8000958750000002, 6.7005183297609126, 5.4527945200014925]
      },
      {
        "species": [{ "element": "Ca", "occu": 1 }],
        "abc": [0.25, 0.15653166000000002, 0.42963946000000003],
        "properties": { "magmom": 0.0 },
        "label": "Ca",
        "xyz": [1.266698625, 1.2434885902390873, 4.1074645399985075]
      },
      {
        "species": [{ "element": "Ca", "occu": 1 }],
        "abc": [0.75, 0.47732207, 0.31714656],
        "properties": { "magmom": 0.0 },
        "label": "Ca",
        "xyz": [3.8000958750000002, 3.791849827148724, 3.0320032735878337]
      },
      {
        "species": [{ "element": "Ca", "occu": 1 }],
        "abc": [0.25, 0.52267793, 0.68285344],
        "properties": { "magmom": 0.0 },
        "label": "Ca",
        "xyz": [1.266698625, 4.152157092851275, 6.528255786412167]
      },
      {
        "species": [{ "element": "Ca", "occu": 1 }],
        "abc": [0.75, 0.97732207, 0.18285344],
        "properties": { "magmom": 0.0 },
        "label": "Ca",
        "xyz": [3.8000958750000002, 7.7638532871487245, 1.7481262564121665]
      },
      {
        "species": [{ "element": "Ca", "occu": 1 }],
        "abc": [0.25, 0.02267793, 0.81714656],
        "properties": { "magmom": 0.0 },
        "label": "Ca",
        "xyz": [1.266698625, 0.18015363285127559, 7.812132803587833]
      },
      {
        "species": [{ "element": "Sn", "occu": 1 }],
        "abc": [0.75, 0.749533599999999, 0.890706999999999],
        "properties": { "magmom": -0.0 },
        "label": "Sn",
        "xyz": [3.8000958750000002, 5.954300105172504, 8.51538966655541]
      },
      {
        "species": [{ "element": "Sn", "occu": 1 }],
        "abc": [0.25, 0.2504664, 0.109293],
        "properties": { "magmom": -0.0 },
        "label": "Sn",
        "xyz": [1.266698625, 1.9897068148274877, 1.04486939344458]
      },
      {
        "species": [{ "element": "Sn", "occu": 1 }],
        "abc": [0.75, 0.2495336, 0.609293],
        "properties": { "magmom": -0.0 },
        "label": "Sn",
        "xyz": [3.8000958750000002, 1.982296645172512, 5.824998923444579]
      },
      {
        "species": [{ "element": "Sn", "occu": 1 }],
        "abc": [0.25, 0.7504664, 0.390706999999999],
        "properties": { "magmom": -0.0 },
        "label": "Sn",
        "xyz": [1.266698625, 5.961710274827488, 3.735260136555411]
      }
    ]
  },
  "task_ids": null,
  "uncorrected_energy_per_atom": null,
  "energy_per_atom": -3.320879080833331,
  "formation_energy_per_atom": -0.647288542499997,
  "energy_above_hull": 0.0,
  "is_stable": true,
  "equilibrium_reaction_energy_per_atom": null,
  "decomposes_to": null,
  "xas": null,
  "grain_boundaries": null,
  "band_gap": 0.055900000000000005,
  "cbm": null,
  "vbm": null,
  "efermi": 4.06137784,
  "is_gap_direct": null,
  "is_metal": null,
  "es_source_calc_id": null,
  "bandstructure": null,
  "dos": null,
  "dos_energy_up": null,
  "dos_energy_down": null,
  "is_magnetic": null,
  "ordering": null,
  "total_magnetization": 0.0,
  "total_magnetization_normalized_vol": null,
  "total_magnetization_normalized_formula_units": null,
  "num_magnetic_sites": null,
  "num_unique_magnetic_sites": null,
  "types_of_magnetic_species": null,
  "bulk_modulus": null,
  "shear_modulus": null,
  "universal_anisotropy": null,
  "homogeneous_poisson": null,
  "e_total": null,
  "e_ionic": null,
  "e_electronic": null,
  "n": null,
  "e_ij_max": null,
  "weighted_surface_energy_EV_PER_ANG2": null,
  "weighted_surface_energy": null,
  "weighted_work_function": null,
  "surface_anisotropy": null,
  "shape_factor": null,
  "has_reconstructed": null,
  "possible_species": null,
  "has_props": null,
  "theoretical": null,
  "database_IDs": null,
  "fields_not_requested": [
    "builder_meta",
    "nsites",
    "elements",
    "nelements",
    "composition",
    "composition_reduced",
    "chemsys",
    "symmetry",
    "property_name",
    "deprecated",
    "deprecation_reasons",
    "last_updated",
    "origins",
    "warnings",
    "task_ids",
    "uncorrected_energy_per_atom",
    "equilibrium_reaction_energy_per_atom",
    "decomposes_to",
    "xas",
    "grain_boundaries",
    "cbm",
    "vbm",
    "is_gap_direct",
    "is_metal",
    "es_source_calc_id",
    "bandstructure",
    "dos",
    "dos_energy_up",
    "dos_energy_down",
    "is_magnetic",
    "ordering",
    "total_magnetization_normalized_vol",
    "total_magnetization_normalized_formula_units",
    "num_magnetic_sites",
    "num_unique_magnetic_sites",
    "types_of_magnetic_species",
    "bulk_modulus",
    "shear_modulus",
    "universal_anisotropy",
    "homogeneous_poisson",
    "e_total",
    "e_ionic",
    "e_electronic",
    "n",
    "e_ij_max",
    "weighted_surface_energy_EV_PER_ANG2",
    "weighted_surface_energy",
    "weighted_work_function",
    "surface_anisotropy",
    "shape_factor",
    "has_reconstructed",
    "possible_species",
    "has_props",
    "theoretical",
    "database_IDs"
  ]
}
