{"builder_meta": null, "nsites": null, "elements": null, "nelements": null, "composition": null, "composition_reduced": null, "formula_pretty": "Ca3Ag8", "formula_anonymous": "A3B8", "chemsys": null, "volume": 489.5079183974138, "density": 6.670405417052747, "density_atomic": 22.250359927155174, "symmetry": null, "property_name": null, "material_id": "mp-646824", "deprecated": null, "deprecation_reasons": null, "last_updated": null, "origins": null, "warnings": null, "structure": {"@module": "pymatgen.core.structure", "@class": "Structure", "charge": 0, "lattice": {"matrix": [[8.10744976, -0.0, -2.86641638], [-4.05372488, 7.02125787, -2.86641638], [0.0, 0.0, 8.59924914]], "pbc": [true, true, true], "a": 8.599249064566996, "b": 8.59924940580864, "c": 8.59924914, "alpha": 109.47122000832944, "beta": 109.47122081218704, "gamma": 109.47121965293675, "volume": 489.5079183974138}, "properties": {}, "sites": [{"species": [{"element": "Ca", "occu": 1}], "abc": [-0.0, 0.28281918, 0.28281918], "properties": {"magmom": 0.0}, "label": "Ca", "xyz": [-1.1464711465071984, 1.9857463933619468, 1.6213550602603366]}, {"species": [{"element": "Ca", "occu": 1}], "abc": [0.71718082, 0.0, 0.71718082], "properties": {"magmom": 0.0}, "label": "Ca", "xyz": [5.814507466985604, 0.0, 4.1114776997396625]}, {"species": [{"element": "Ca", "occu": 1}], "abc": [0.28281918, 0.28281918, -0.0], "properties": {"magmom": 0.0}, "label": "Ca", "xyz": [1.1464711465071984, 1.9857463933619468, -1.6213550602603368]}, {"species": [{"element": "Ca", "occu": 1}], "abc": [0.71718082, 0.71718082, 0.0], "properties": {"magmom": 0.0}, "label": "Ca", "xyz": [2.907253733492802, 5.035511476638054, -4.111477699739663]}, {"species": [{"element": "Ca", "occu": 1}], "abc": [0.0, 0.71718082, 0.71718082], "properties": {"magmom": 0.0}, "label": "Ca", "xyz": [-2.907253733492802, 5.035511476638054, 4.1114776997396625]}, {"species": [{"element": "Ca", "occu": 1}], "abc": [0.28281918, 0.0, 0.28281918], "properties": {"magmom": 0.0}, "label": "Ca", "xyz": [2.292942293014397, 0.0, 1.6213550602603366]}, {"species": [{"element": "Ag", "occu": 1}], "abc": [0.66079244, 0.0, 0.33920756], "properties": {"magmom": 0.0}, "label": "Ag", "xyz": [5.3573415090878145, 0.0, 1.022824044815331]}, {"species": [{"element": "Ag", "occu": 1}], "abc": [0.66079244, 0.32158489, 0.66079244], "properties": {"magmom": 0.0}, "label": "Ag", "xyz": [4.053724839462751, 2.2579304397855844, 2.866416351335836]}, {"species": [{"element": "Ag", "occu": 1}], "abc": [-0.0, 0.66079244, 0.33920756], "properties": {"magmom": 0.0}, "label": "Ag", "xyz": [-2.6786707545439072, 4.639594119786503, 1.022824044815331]}, {"species": [{"element": "Ag", "occu": 1}], "abc": [0.67841511, 0.33920756, 0.33920756], "properties": {"magmom": 0.0}, "label": "Ag", "xyz": [4.12516229529378, 2.3816637502134976, 2.8664163931324538e-08]}, {"species": [{"element": "Ag", "occu": 1}], "abc": [0.33920756, 0.33920756, 0.67841511], "properties": {"magmom": 0.0}, "label": "Ag", "xyz": [1.3750541254560928, 2.3816637502134976, 3.8892403388228396]}, {"species": [{"element": "Ag", "occu": 1}], "abc": [0.0, 0.33920756, 0.66079244], "properties": {"magmom": 0.0}, "label": "Ag", "xyz": [-1.3750541254560928, 2.3816637502134976, 4.710008715184669]}, {"species": [{"element": "Ag", "occu": 1}], "abc": [0.33920756, 0.66079244, -0.0], "properties": {"magmom": 0.0}, "label": "Ag", "xyz": [0.07143749636827845, 4.639594119786503, -2.8664163800000004]}, {"species": [{"element": "Ag", "occu": 1}], "abc": [0.66079244, 0.66079244, 0.32158489], "properties": {"magmom": 0.0}, "label": "Ag", "xyz": [2.6786707545439072, 4.639594119786503, -1.02282395882284]}, {"species": [{"element": "Ag", "occu": 1}], "abc": [0.32158489, 0.66079244, 0.66079244], "properties": {"magmom": 0.0}, "label": "Ag", "xyz": [-0.07143741529378067, 4.639594119786503, 2.866416351335836]}, {"species": [{"element": "Ag", "occu": 1}], "abc": [0.5, 0.0, 0.0], "properties": {"magmom": 0.0}, "label": "Ag", "xyz": [4.05372488, 0.0, -1.43320819]}, {"species": [{"element": "Ag", "occu": 1}], "abc": [0.66079244, 0.33920756, 0.0], "properties": {"magmom": 0.0}, "label": "Ag", "xyz": [3.9822873836317214, 2.3816637502134976, -2.8664163800000004]}, {"species": [{"element": "Ag", "occu": 1}], "abc": [0.33920756, 0.0, 0.66079244], "properties": {"magmom": 0.0}, "label": "Ag", "xyz": [2.7501082509121857, 0.0, 4.710008715184669]}, {"species": [{"element": "Ag", "occu": 1}], "abc": [0.33920756, 0.67841511, 0.33920756], "properties": {"magmom": 0.0}, "label": "Ag", "xyz": [4.053724911301515e-08, 4.7633274302144155, 2.8664163931324538e-08]}, {"species": [{"element": "Ag", "occu": 1}], "abc": [0.5, 0.5, 0.5], "properties": {"magmom": 0.0}, "label": "Ag", "xyz": [2.02686244, 3.510628935, 1.4332081899999998]}, {"species": [{"element": "Ag", "occu": 1}], "abc": [0.0, 0.5, 0.0], "properties": {"magmom": 0.0}, "label": "Ag", "xyz": [-2.02686244, 3.510628935, -1.43320819]}, {"species": [{"element": "Ag", "occu": 1}], "abc": [0.0, 0.0, 0.5], "properties": {"magmom": 0.0}, "label": "Ag", "xyz": [0.0, 0.0, 4.29962457]}]}, "task_ids": null, "uncorrected_energy_per_atom": null, "energy_per_atom": -17.66252466, "formation_energy_per_atom": -0.21144300000000002, "energy_above_hull": 0.036759585454547, "is_stable": false, "equilibrium_reaction_energy_per_atom": null, "decomposes_to": null, "xas": null, "grain_boundaries": null, "band_gap": 0.0, "cbm": null, "vbm": null, "efermi": 2.94530298, "is_gap_direct": null, "is_metal": null, "es_source_calc_id": null, "bandstructure": null, "dos": null, "dos_energy_up": null, "dos_energy_down": null, "is_magnetic": null, "ordering": null, "total_magnetization": 3.4200000000000005e-05, "total_magnetization_normalized_vol": null, "total_magnetization_normalized_formula_units": null, "num_magnetic_sites": null, "num_unique_magnetic_sites": null, "types_of_magnetic_species": null, "bulk_modulus": null, "shear_modulus": null, "universal_anisotropy": null, "homogeneous_poisson": null, "e_total": null, "e_ionic": null, "e_electronic": null, "n": null, "e_ij_max": null, "weighted_surface_energy_EV_PER_ANG2": null, "weighted_surface_energy": null, "weighted_work_function": null, "surface_anisotropy": null, "shape_factor": null, "has_reconstructed": null, "possible_species": null, "has_props": null, "theoretical": null, "database_IDs": null, "fields_not_requested": ["builder_meta", "nsites", "elements", "nelements", "composition", "composition_reduced", "chemsys", "symmetry", "property_name", "deprecated", "deprecation_reasons", "last_updated", "origins", "warnings", "task_ids", "uncorrected_energy_per_atom", "equilibrium_reaction_energy_per_atom", "decomposes_to", "xas", "grain_boundaries", "cbm", "vbm", "is_gap_direct", "is_metal", "es_source_calc_id", "bandstructure", "dos", "dos_energy_up", "dos_energy_down", "is_magnetic", "ordering", "total_magnetization_normalized_vol", "total_magnetization_normalized_formula_units", "num_magnetic_sites", "num_unique_magnetic_sites", "types_of_magnetic_species", "bulk_modulus", "shear_modulus", "universal_anisotropy", "homogeneous_poisson", "e_total", "e_ionic", "e_electronic", "n", "e_ij_max", "weighted_surface_energy_EV_PER_ANG2", "weighted_surface_energy", "weighted_work_function", "surface_anisotropy", "shape_factor", "has_reconstructed", "possible_species", "has_props", "theoretical", "database_IDs"]}