{"builder_meta": null, "nsites": null, "elements": null, "nelements": null, "composition": null, "composition_reduced": null, "formula_pretty": "Ca3Au4", "formula_anonymous": "A3B4", "chemsys": null, "volume": 326.1682026456079, "density": 9.246370262074029, "density_atomic": 23.297728760400563, "symmetry": null, "property_name": null, "material_id": "mp-12699", "deprecated": null, "deprecation_reasons": null, "last_updated": null, "origins": null, "warnings": null, "structure": {"@module": "pymatgen.core.structure", "@class": "Structure", "charge": 0, "lattice": {"matrix": [[7.44977608, 0.02648135, -3.36501795], [-5.21973411, 5.3157098, -3.36464181], [0.01122486, 0.02630746, 8.17449668]], "pbc": [true, true, true], "a": 8.17454651389667, "b": 8.174546431852571, "c": 8.174546718397583, "alpha": 114.22879421042342, "beta": 114.22880094980206, "gamma": 114.2287965404182, "volume": 326.1682026456079}, "properties": {}, "sites": [{"species": [{"element": "Ca", "occu": 1}], "abc": [0.59981119, 0.9709808400000001, 0.71677915], "properties": {"magmom": -0.0}, "label": "Ca", "xyz": [-0.5917570093164477, 5.196192815673997, 0.5739306300344422]}, {"species": [{"element": "Ca", "occu": 1}], "abc": [0.9709808400000001, 0.71677915, 0.59981119], "properties": {"magmom": -0.0}, "label": "Ca", "xyz": [3.498926054012685, 3.851682344446481, -0.77591847105049]}, {"species": [{"element": "Ca", "occu": 1}], "abc": [0.71677915, 0.59981119, 0.9709808400000001], "properties": {"magmom": -0.0}, "label": "Ca", "xyz": [2.219888362301724, 3.232947539985581, 3.507155139008015]}, {"species": [{"element": "Ca", "occu": 1}], "abc": [0.40018881, 0.029019160000000002, 0.28322085], "properties": {"magmom": -0.0}, "label": "Ca", "xyz": [2.833023839316448, 0.17230579432600251, 0.8709062899655595]}, {"species": [{"element": "Ca", "occu": 1}], "abc": [0.029019160000000002, 0.28322085, 0.40018881], "properties": {"magmom": -0.0}, "label": "Ca", "xyz": [-1.2576592240126843, 1.5168162655535185, 2.2207553910504902]}, {"species": [{"element": "Ca", "occu": 1}], "abc": [0.28322085, 0.40018881, 0.029019160000000002], "properties": {"magmom": -0.0}, "label": "Ca", "xyz": [0.021378467698276515, 2.135551070014419, -2.062318219008015]}, {"species": [{"element": "Au", "occu": 1}], "abc": [0.94532494, 0.44329467, 0.77859868], "properties": {"magmom": -0.0}, "label": "Au", "xyz": [4.737318477238427, 2.4019422558367878, 1.692089152197557]}, {"species": [{"element": "Au", "occu": 1}], "abc": [0.77859868, 0.94532494, 0.44329467], "properties": {"magmom": -0.0}, "label": "Au", "xyz": [0.8710169084413676, 5.057353348696268, -2.176967543029352]}, {"species": [{"element": "Au", "occu": 1}], "abc": [0.44329467, 0.77859868, 0.94532494], "properties": {"magmom": -0.0}, "label": "Au", "xyz": [-0.7510209189334721, 4.17541277289852, 3.6161553899230627]}, {"species": [{"element": "Au", "occu": 1}], "abc": [0.22140132, 0.054675060000000004, 0.55670533], "properties": {"magmom": -0.0}, "label": "Au", "xyz": [1.3702499215586328, 0.3111452613037318, 3.6218044630293518]}, {"species": [{"element": "Au", "occu": 1}], "abc": [0.054675060000000004, 0.55670533, 0.22140132], "properties": {"magmom": -0.0}, "label": "Au", "xyz": [-2.4960516472384264, 2.966556354163212, -0.24725223219755654]}, {"species": [{"element": "Au", "occu": 1}], "abc": [0.55670533, 0.22140132, 0.054675060000000004], "properties": {"magmom": -0.0}, "label": "Au", "xyz": [2.9922877489334727, 1.193085837101479, -2.171318469923062]}, {"species": [{"element": "Au", "occu": 1}], "abc": [0.5, 0.5, 0.5], "properties": {"magmom": 0.0}, "label": "Au", "xyz": [1.1206334150000001, 2.684249305, 0.7224184600000001]}, {"species": [{"element": "Au", "occu": 1}], "abc": [0.0, -0.0, 0.0], "properties": {"magmom": -0.0}, "label": "Au", "xyz": [0.0, 0.0, 0.0]}]}, "task_ids": null, "uncorrected_energy_per_atom": null, "energy_per_atom": -32.75033470142857, "formation_energy_per_atom": -0.8282316014285731, "energy_above_hull": 0.0, "is_stable": true, "equilibrium_reaction_energy_per_atom": null, "decomposes_to": null, "xas": null, "grain_boundaries": null, "band_gap": 0.0, "cbm": null, "vbm": null, "efermi": 3.85390855, "is_gap_direct": null, "is_metal": null, "es_source_calc_id": null, "bandstructure": null, "dos": null, "dos_energy_up": null, "dos_energy_down": null, "is_magnetic": null, "ordering": null, "total_magnetization": 0.0, "total_magnetization_normalized_vol": null, "total_magnetization_normalized_formula_units": null, "num_magnetic_sites": null, "num_unique_magnetic_sites": null, "types_of_magnetic_species": null, "bulk_modulus": null, "shear_modulus": null, "universal_anisotropy": null, "homogeneous_poisson": null, "e_total": null, "e_ionic": null, "e_electronic": null, "n": null, "e_ij_max": null, "weighted_surface_energy_EV_PER_ANG2": null, "weighted_surface_energy": null, "weighted_work_function": null, "surface_anisotropy": null, "shape_factor": null, "has_reconstructed": null, "possible_species": null, "has_props": null, "theoretical": null, "database_IDs": null, "fields_not_requested": ["builder_meta", "nsites", "elements", "nelements", "composition", "composition_reduced", "chemsys", "symmetry", "property_name", "deprecated", "deprecation_reasons", "last_updated", "origins", "warnings", "task_ids", "uncorrected_energy_per_atom", "equilibrium_reaction_energy_per_atom", "decomposes_to", "xas", "grain_boundaries", "cbm", "vbm", "is_gap_direct", "is_metal", "es_source_calc_id", "bandstructure", "dos", "dos_energy_up", "dos_energy_down", "is_magnetic", "ordering", "total_magnetization_normalized_vol", "total_magnetization_normalized_formula_units", "num_magnetic_sites", "num_unique_magnetic_sites", "types_of_magnetic_species", "bulk_modulus", "shear_modulus", "universal_anisotropy", "homogeneous_poisson", "e_total", "e_ionic", "e_electronic", "n", "e_ij_max", "weighted_surface_energy_EV_PER_ANG2", "weighted_surface_energy", "weighted_work_function", "surface_anisotropy", "shape_factor", "has_reconstructed", "possible_species", "has_props", "theoretical", "database_IDs"]}