{
  "builder_meta": null,
  "nsites": null,
  "elements": null,
  "nelements": null,
  "composition": null,
  "composition_reduced": null,
  "formula_pretty": "Ca3Au",
  "formula_anonymous": "AB3",
  "chemsys": null,
  "volume": 528.7655030611961,
  "density": 3.984555979714047,
  "density_atomic": 33.04784394132476,
  "symmetry": null,
  "property_name": null,
  "material_id": "mp-30366",
  "deprecated": null,
  "deprecation_reasons": null,
  "last_updated": null,
  "origins": null,
  "warnings": null,
  "structure": {
    "@module": "pymatgen.core.structure",
    "@class": "Structure",
    "charge": 0,
    "lattice": {
      "matrix": [
        [6.80979443, -0.0, 0.0],
        [0.0, 7.78140711, 0.0],
        [0.0, 0.0, 9.97863126]
      ],
      "pbc": [true, true, true],
      "a": 6.80979443,
      "b": 7.78140711,
      "c": 9.97863126,
      "alpha": 90.0,
      "beta": 90.0,
      "gamma": 90.0,
      "volume": 528.7655030611961
    },
    "properties": {},
    "sites": [
      {
        "species": [{ "element": "Ca", "occu": 1 }],
        "abc": [0.14406022000000002, 0.03750733, 0.25],
        "properties": { "magmom": -0.0 },
        "label": "Ca",
        "xyz": [0.9810204837405747, 0.2918598043391163, 2.494657815]
      },
      {
        "species": [{ "element": "Ca", "occu": 1 }],
        "abc": [0.64406022, 0.46249267, 0.75],
        "properties": { "magmom": -0.0 },
        "label": "Ca",
        "xyz": [4.385917698740575, 3.5988437506608837, 7.483973445]
      },
      {
        "species": [{ "element": "Ca", "occu": 1 }],
        "abc": [0.35593978, 0.5375073300000001, 0.25],
        "properties": { "magmom": -0.0 },
        "label": "Ca",
        "xyz": [2.4238767312594254, 4.182563359339117, 2.494657815]
      },
      {
        "species": [{ "element": "Ca", "occu": 1 }],
        "abc": [0.85593978, 0.96249267, 0.75],
        "properties": { "magmom": -0.0 },
        "label": "Ca",
        "xyz": [5.8287739462594255, 7.489547305660884, 7.483973445]
      },
      {
        "species": [{ "element": "Ca", "occu": 1 }],
        "abc": [0.66361236, 0.17317119, 0.06499067],
        "properties": { "magmom": -0.0 },
        "label": "Ca",
        "xyz": [4.519063752807155, 1.3475155291131609, 0.6485179312703442]
      },
      {
        "species": [{ "element": "Ca", "occu": 1 }],
        "abc": [0.16361236, 0.32682881, 0.93500933],
        "properties": { "magmom": -0.0 },
        "label": "Ca",
        "xyz": [1.114166537807155, 2.543188025886839, 9.330113328729656]
      },
      {
        "species": [{ "element": "Ca", "occu": 1 }],
        "abc": [0.83638764, 0.67317119, 0.43500933],
        "properties": { "magmom": -0.0 },
        "label": "Ca",
        "xyz": [5.695627892192845, 5.238219084113161, 4.340797698729657]
      },
      {
        "species": [{ "element": "Ca", "occu": 1 }],
        "abc": [0.33638764, 0.82682881, 0.56499067],
        "properties": { "magmom": -0.0 },
        "label": "Ca",
        "xyz": [2.2907306771928453, 6.433891580886839, 5.6378335612703445]
      },
      {
        "species": [{ "element": "Ca", "occu": 1 }],
        "abc": [0.33638764, 0.82682881, 0.93500933],
        "properties": { "magmom": -0.0 },
        "label": "Ca",
        "xyz": [2.2907306771928453, 6.433891580886839, 9.330113328729656]
      },
      {
        "species": [{ "element": "Ca", "occu": 1 }],
        "abc": [0.83638764, 0.67317119, 0.06499067],
        "properties": { "magmom": -0.0 },
        "label": "Ca",
        "xyz": [5.695627892192845, 5.238219084113161, 0.6485179312703442]
      },
      {
        "species": [{ "element": "Ca", "occu": 1 }],
        "abc": [0.16361236, 0.32682881, 0.56499067],
        "properties": { "magmom": -0.0 },
        "label": "Ca",
        "xyz": [1.114166537807155, 2.543188025886839, 5.6378335612703445]
      },
      {
        "species": [{ "element": "Ca", "occu": 1 }],
        "abc": [0.66361236, 0.17317119, 0.43500933],
        "properties": { "magmom": -0.0 },
        "label": "Ca",
        "xyz": [4.519063752807155, 1.3475155291131609, 4.340797698729657]
      },
      {
        "species": [{ "element": "Au", "occu": 1 }],
        "abc": [0.95178134, 0.37772504, 0.25],
        "properties": { "magmom": -0.0 },
        "label": "Au",
        "xyz": [6.481435267709936, 2.9392323118810344, 2.494657815]
      },
      {
        "species": [{ "element": "Au", "occu": 1 }],
        "abc": [0.45178134000000003, 0.12227496, 0.75],
        "properties": { "magmom": -0.0 },
        "label": "Au",
        "xyz": [3.0765380527099366, 0.9514712431189656, 7.483973445]
      },
      {
        "species": [{ "element": "Au", "occu": 1 }],
        "abc": [0.54821866, 0.8777250400000001, 0.25],
        "properties": { "magmom": -0.0 },
        "label": "Au",
        "xyz": [3.7332563772900635, 6.829935866881035, 2.494657815]
      },
      {
        "species": [{ "element": "Au", "occu": 1 }],
        "abc": [0.04821866, 0.62227496, 0.75],
        "properties": { "magmom": -0.0 },
        "label": "Au",
        "xyz": [0.32835916229006384, 4.842174798118966, 7.483973445]
      }
    ]
  },
  "task_ids": null,
  "uncorrected_energy_per_atom": null,
  "energy_per_atom": -18.42622489375,
  "formation_energy_per_atom": -0.5012645812500011,
  "energy_above_hull": 0.0,
  "is_stable": true,
  "equilibrium_reaction_energy_per_atom": null,
  "decomposes_to": null,
  "xas": null,
  "grain_boundaries": null,
  "band_gap": 0.0,
  "cbm": null,
  "vbm": null,
  "efermi": 2.8013484,
  "is_gap_direct": null,
  "is_metal": null,
  "es_source_calc_id": null,
  "bandstructure": null,
  "dos": null,
  "dos_energy_up": null,
  "dos_energy_down": null,
  "is_magnetic": null,
  "ordering": null,
  "total_magnetization": 0.0001003,
  "total_magnetization_normalized_vol": null,
  "total_magnetization_normalized_formula_units": null,
  "num_magnetic_sites": null,
  "num_unique_magnetic_sites": null,
  "types_of_magnetic_species": null,
  "bulk_modulus": null,
  "shear_modulus": null,
  "universal_anisotropy": null,
  "homogeneous_poisson": null,
  "e_total": null,
  "e_ionic": null,
  "e_electronic": null,
  "n": null,
  "e_ij_max": null,
  "weighted_surface_energy_EV_PER_ANG2": null,
  "weighted_surface_energy": null,
  "weighted_work_function": null,
  "surface_anisotropy": null,
  "shape_factor": null,
  "has_reconstructed": null,
  "possible_species": null,
  "has_props": null,
  "theoretical": null,
  "database_IDs": null,
  "fields_not_requested": [
    "builder_meta",
    "nsites",
    "elements",
    "nelements",
    "composition",
    "composition_reduced",
    "chemsys",
    "symmetry",
    "property_name",
    "deprecated",
    "deprecation_reasons",
    "last_updated",
    "origins",
    "warnings",
    "task_ids",
    "uncorrected_energy_per_atom",
    "equilibrium_reaction_energy_per_atom",
    "decomposes_to",
    "xas",
    "grain_boundaries",
    "cbm",
    "vbm",
    "is_gap_direct",
    "is_metal",
    "es_source_calc_id",
    "bandstructure",
    "dos",
    "dos_energy_up",
    "dos_energy_down",
    "is_magnetic",
    "ordering",
    "total_magnetization_normalized_vol",
    "total_magnetization_normalized_formula_units",
    "num_magnetic_sites",
    "num_unique_magnetic_sites",
    "types_of_magnetic_species",
    "bulk_modulus",
    "shear_modulus",
    "universal_anisotropy",
    "homogeneous_poisson",
    "e_total",
    "e_ionic",
    "e_electronic",
    "n",
    "e_ij_max",
    "weighted_surface_energy_EV_PER_ANG2",
    "weighted_surface_energy",
    "weighted_work_function",
    "surface_anisotropy",
    "shape_factor",
    "has_reconstructed",
    "possible_species",
    "has_props",
    "theoretical",
    "database_IDs"
  ]
}
