{"builder_meta": null, "nsites": null, "elements": null, "nelements": null, "composition": null, "composition_reduced": null, "formula_pretty": "Ca3Cd2", "formula_anonymous": "A2B3", "chemsys": null, "volume": 624.2170482871372, "density": 3.671664974463572, "density_atomic": 31.21085241435686, "symmetry": null, "property_name": null, "material_id": "mp-18167", "deprecated": null, "deprecation_reasons": null, "last_updated": null, "origins": null, "warnings": null, "structure": {"@module": "pymatgen.core.structure", "@class": "Structure", "charge": 0, "lattice": {"matrix": [[8.07054358, 0.0, 0.0], [0.0, 8.79460664, 1.0420000000000002e-05], [0.0, 1.0420000000000002e-05, 8.79460664]], "pbc": [true, true, true], "a": 8.07054358, "b": 8.794606640006172, "c": 8.794606640006172, "alpha": 89.99986422996571, "beta": 90.0, "gamma": 90.0, "volume": 624.2170482871372}, "properties": {}, "sites": [{"species": [{"element": "Ca", "occu": 1}], "abc": [0.2562665, 0.14540117, 0.14540117], "properties": {"magmom": 0.0}, "label": "Ca", "xyz": [2.06820995634407, 1.27874761022596, 1.27874761022596]}, {"species": [{"element": "Ca", "occu": 1}], "abc": [0.7562665, 0.35459883000000003, 0.64540117], "properties": {"magmom": 0.0}, "label": "Ca", "xyz": [6.1034817463440705, 3.1185639499344227, 5.676053110065577]}, {"species": [{"element": "Ca", "occu": 1}], "abc": [0.7562665, 0.64540117, 0.35459883000000003], "properties": {"magmom": 0.0}, "label": "Ca", "xyz": [6.1034817463440705, 5.676053110065577, 3.1185639499344227]}, {"species": [{"element": "Ca", "occu": 1}], "abc": [0.2562665, 0.85459883, 0.85459883], "properties": {"magmom": 0.0}, "label": "Ca", "xyz": [2.06820995634407, 7.51586944977404, 7.51586944977404]}, {"species": [{"element": "Ca", "occu": 1}], "abc": [0.75609373, 0.19928429, 0.19928429], "properties": {"magmom": 0.0}, "label": "Ca", "xyz": [6.102087398529754, 1.7526290166239875, 1.7526290166239875]}, {"species": [{"element": "Ca", "occu": 1}], "abc": [0.25609373, 0.30071571, 0.69928429], "properties": {"magmom": 0.0}, "label": "Ca", "xyz": [2.0668156085297538, 2.6446836664606166, 6.149933393539383]}, {"species": [{"element": "Ca", "occu": 1}], "abc": [0.25609373, 0.69928429, 0.30071571], "properties": {"magmom": 0.0}, "label": "Ca", "xyz": [2.0668156085297538, 6.149933393539383, 2.6446836664606166]}, {"species": [{"element": "Ca", "occu": 1}], "abc": [0.75609373, 0.80071571, 0.80071571], "properties": {"magmom": 0.0}, "label": "Ca", "xyz": [6.102087398529754, 7.041988043376012, 7.041988043376012]}, {"species": [{"element": "Ca", "occu": 1}], "abc": [0.5064095, 0.0, 0.5], "properties": {"magmom": -0.0}, "label": "Ca", "xyz": [4.08699993907601, 5.210000000000001e-06, 4.39730332]}, {"species": [{"element": "Ca", "occu": 1}], "abc": [0.006409499999999, 0.0, 0.5], "properties": {"magmom": -0.0}, "label": "Ca", "xyz": [0.051728149076001935, 5.210000000000001e-06, 4.39730332]}, {"species": [{"element": "Ca", "occu": 1}], "abc": [0.006409499999999, 0.5, -0.0], "properties": {"magmom": -0.0}, "label": "Ca", "xyz": [0.051728149076001935, 4.39730332, 5.210000000000001e-06]}, {"species": [{"element": "Ca", "occu": 1}], "abc": [0.5064095, 0.5, -0.0], "properties": {"magmom": -0.0}, "label": "Ca", "xyz": [4.08699993907601, 4.39730332, 5.210000000000001e-06]}, {"species": [{"element": "Cd", "occu": 1}], "abc": [0.06308125, 0.37606404, 0.37606404], "properties": {"magmom": 0.0}, "label": "Cd", "xyz": [0.5090999772058751, 3.3073392218365223, 3.3073392218365223]}, {"species": [{"element": "Cd", "occu": 1}], "abc": [0.56308125, 0.12393596, 0.87606404], "properties": {"magmom": 0.0}, "label": "Cd", "xyz": [4.544371767205876, 1.089977145338071, 7.704639914661929]}, {"species": [{"element": "Cd", "occu": 1}], "abc": [0.56308125, 0.87606404, 0.12393596], "properties": {"magmom": 0.0}, "label": "Cd", "xyz": [4.544371767205876, 7.704639914661929, 1.089977145338071]}, {"species": [{"element": "Cd", "occu": 1}], "abc": [0.06308125, 0.6239359600000001, 0.6239359600000001], "properties": {"magmom": 0.0}, "label": "Cd", "xyz": [0.5090999772058751, 5.487277838163478, 5.487277838163478]}, {"species": [{"element": "Cd", "occu": 1}], "abc": [0.44914601, 0.376043099999999, 0.376043099999999], "properties": {"magmom": 0.0}, "label": "Cd", "xyz": [3.624852447488116, 3.3071550625552772, 3.3071550625552772]}, {"species": [{"element": "Cd", "occu": 1}], "abc": [0.94914701, 0.1239559, 0.8760441], "properties": {"magmom": 0.0}, "label": "Cd", "xyz": [7.660132308031697, 1.090152509586698, 7.704464550413301]}, {"species": [{"element": "Cd", "occu": 1}], "abc": [0.94914701, 0.8760441, 0.1239559], "properties": {"magmom": 0.0}, "label": "Cd", "xyz": [7.660132308031697, 7.704464550413301, 1.090152509586698]}, {"species": [{"element": "Cd", "occu": 1}], "abc": [0.44914601, 0.6239559, 0.6239559], "properties": {"magmom": 0.0}, "label": "Cd", "xyz": [3.624852447488116, 5.487453202827655, 5.487453202827655]}]}, "task_ids": null, "uncorrected_energy_per_atom": null, "energy_per_atom": -1.8608556245, "formation_energy_per_atom": -0.27349162049999803, "energy_above_hull": 0.0, "is_stable": true, "equilibrium_reaction_energy_per_atom": null, "decomposes_to": null, "xas": null, "grain_boundaries": null, "band_gap": 0.0, "cbm": null, "vbm": null, "efermi": 2.36967648, "is_gap_direct": null, "is_metal": null, "es_source_calc_id": null, "bandstructure": null, "dos": null, "dos_energy_up": null, "dos_energy_down": null, "is_magnetic": null, "ordering": null, "total_magnetization": 1.1e-06, "total_magnetization_normalized_vol": null, "total_magnetization_normalized_formula_units": null, "num_magnetic_sites": null, "num_unique_magnetic_sites": null, "types_of_magnetic_species": null, "bulk_modulus": null, "shear_modulus": null, "universal_anisotropy": null, "homogeneous_poisson": null, "e_total": null, "e_ionic": null, "e_electronic": null, "n": null, "e_ij_max": null, "weighted_surface_energy_EV_PER_ANG2": null, "weighted_surface_energy": null, "weighted_work_function": null, "surface_anisotropy": null, "shape_factor": null, "has_reconstructed": null, "possible_species": null, "has_props": null, "theoretical": null, "database_IDs": null, "fields_not_requested": ["builder_meta", "nsites", "elements", "nelements", "composition", "composition_reduced", "chemsys", "symmetry", "property_name", "deprecated", "deprecation_reasons", "last_updated", "origins", "warnings", "task_ids", "uncorrected_energy_per_atom", "equilibrium_reaction_energy_per_atom", "decomposes_to", "xas", "grain_boundaries", "cbm", "vbm", "is_gap_direct", "is_metal", "es_source_calc_id", "bandstructure", "dos", "dos_energy_up", "dos_energy_down", "is_magnetic", "ordering", "total_magnetization_normalized_vol", "total_magnetization_normalized_formula_units", "num_magnetic_sites", "num_unique_magnetic_sites", "types_of_magnetic_species", "bulk_modulus", "shear_modulus", "universal_anisotropy", "homogeneous_poisson", "e_total", "e_ionic", "e_electronic", "n", "e_ij_max", "weighted_surface_energy_EV_PER_ANG2", "weighted_surface_energy", "weighted_work_function", "surface_anisotropy", "shape_factor", "has_reconstructed", "possible_species", "has_props", "theoretical", "database_IDs"]}