{
  "builder_meta": null,
  "nsites": null,
  "elements": null,
  "nelements": null,
  "composition": null,
  "composition_reduced": null,
  "formula_pretty": "Ca3Eu",
  "formula_anonymous": "AB3",
  "chemsys": null,
  "volume": 355.18475978707784,
  "density": 2.545128417792159,
  "density_atomic": 44.39809497338473,
  "symmetry": null,
  "property_name": null,
  "material_id": "mp-1183960",
  "deprecated": null,
  "deprecation_reasons": null,
  "last_updated": null,
  "origins": null,
  "warnings": null,
  "structure": {
    "@module": "pymatgen.core.structure",
    "@class": "Structure",
    "charge": 0,
    "lattice": {
      "matrix": [
        [3.96242589, -6.86312517, 0.0],
        [3.96242801, 6.86312521, -0.0],
        [0.0, -0.0, 6.53042036]
      ],
      "pbc": [true, true, true],
      "a": 7.924853691572471,
      "b": 7.924854786213442,
      "c": 6.53042036,
      "alpha": 90.0,
      "beta": 90.0,
      "gamma": 120.00000282919794,
      "volume": 355.18475978707784
    },
    "properties": {},
    "sites": [
      {
        "species": [{ "element": "Ca", "occu": 1 }],
        "abc": [0.16654983, 0.33309967, 0.25],
        "properties": { "magmom": 0.01 },
        "label": "Ca",
        "xyz": [1.9798248208968556, 1.1430524122874597, 1.63260509]
      },
      {
        "species": [{ "element": "Ca", "occu": 1 }],
        "abc": [0.66690033, 0.8334491700000001, 0.25],
        "properties": { "magmom": 0.01 },
        "label": "Ca",
        "xyz": [5.945025469760796, 1.1430455691762695, 1.63260509]
      },
      {
        "species": [{ "element": "Ca", "occu": 1 }],
        "abc": [0.16654983, 0.8334491700000001, 0.25],
        "properties": { "magmom": 0.01 },
        "label": "Ca",
        "xyz": [3.9624236944863505, 4.5770136795483545, 1.63260509]
      },
      {
        "species": [{ "element": "Ca", "occu": 1 }],
        "abc": [0.83345017, 0.66690033, 0.75],
        "properties": { "magmom": 0.01 },
        "label": "Ca",
        "xyz": [5.945029079103145, -1.1430523722874595, 4.89781527]
      },
      {
        "species": [{ "element": "Ca", "occu": 1 }],
        "abc": [0.33309967, 0.16655083, 0.75],
        "properties": { "magmom": 0.01 },
        "label": "Ca",
        "xyz": [1.9798284302392046, -1.1430455291762696, 4.89781527]
      },
      {
        "species": [{ "element": "Ca", "occu": 1 }],
        "abc": [0.83345017, 0.16655083, 0.75],
        "properties": { "magmom": 0.01 },
        "label": "Ca",
        "xyz": [3.96243020551365, -4.577013639548355, 4.89781527]
      },
      {
        "species": [{ "element": "Eu", "occu": 1 }],
        "abc": [0.333333, 0.666667, 0.75],
        "properties": { "magmom": 6.921 },
        "label": "Eu",
        "xyz": [3.9624273033340396, 2.28771299208346, 4.89781527]
      },
      {
        "species": [{ "element": "Eu", "occu": 1 }],
        "abc": [0.666667, 0.333333, 0.25],
        "properties": { "magmom": 6.921 },
        "label": "Eu",
        "xyz": [3.96242659666596, -2.2877129520834605, 1.63260509]
      }
    ]
  },
  "task_ids": null,
  "uncorrected_energy_per_atom": null,
  "energy_per_atom": -14.891947471249999,
  "formation_energy_per_atom": 0.016993482499998002,
  "energy_above_hull": 0.016993482499998002,
  "is_stable": false,
  "equilibrium_reaction_energy_per_atom": null,
  "decomposes_to": null,
  "xas": null,
  "grain_boundaries": null,
  "band_gap": 0.0,
  "cbm": null,
  "vbm": null,
  "efermi": 1.96958901,
  "is_gap_direct": null,
  "is_metal": null,
  "es_source_calc_id": null,
  "bandstructure": null,
  "dos": null,
  "dos_energy_up": null,
  "dos_energy_down": null,
  "is_magnetic": null,
  "ordering": null,
  "total_magnetization": 15.2966299,
  "total_magnetization_normalized_vol": null,
  "total_magnetization_normalized_formula_units": null,
  "num_magnetic_sites": null,
  "num_unique_magnetic_sites": null,
  "types_of_magnetic_species": null,
  "bulk_modulus": null,
  "shear_modulus": null,
  "universal_anisotropy": null,
  "homogeneous_poisson": null,
  "e_total": null,
  "e_ionic": null,
  "e_electronic": null,
  "n": null,
  "e_ij_max": null,
  "weighted_surface_energy_EV_PER_ANG2": null,
  "weighted_surface_energy": null,
  "weighted_work_function": null,
  "surface_anisotropy": null,
  "shape_factor": null,
  "has_reconstructed": null,
  "possible_species": null,
  "has_props": null,
  "theoretical": null,
  "database_IDs": null,
  "fields_not_requested": [
    "builder_meta",
    "nsites",
    "elements",
    "nelements",
    "composition",
    "composition_reduced",
    "chemsys",
    "symmetry",
    "property_name",
    "deprecated",
    "deprecation_reasons",
    "last_updated",
    "origins",
    "warnings",
    "task_ids",
    "uncorrected_energy_per_atom",
    "equilibrium_reaction_energy_per_atom",
    "decomposes_to",
    "xas",
    "grain_boundaries",
    "cbm",
    "vbm",
    "is_gap_direct",
    "is_metal",
    "es_source_calc_id",
    "bandstructure",
    "dos",
    "dos_energy_up",
    "dos_energy_down",
    "is_magnetic",
    "ordering",
    "total_magnetization_normalized_vol",
    "total_magnetization_normalized_formula_units",
    "num_magnetic_sites",
    "num_unique_magnetic_sites",
    "types_of_magnetic_species",
    "bulk_modulus",
    "shear_modulus",
    "universal_anisotropy",
    "homogeneous_poisson",
    "e_total",
    "e_ionic",
    "e_electronic",
    "n",
    "e_ij_max",
    "weighted_surface_energy_EV_PER_ANG2",
    "weighted_surface_energy",
    "weighted_work_function",
    "surface_anisotropy",
    "shape_factor",
    "has_reconstructed",
    "possible_species",
    "has_props",
    "theoretical",
    "database_IDs"
  ]
}
