{"builder_meta": null, "nsites": null, "elements": null, "nelements": null, "composition": null, "composition_reduced": null, "formula_pretty": "Ca3Ge4", "formula_anonymous": "A3B4", "chemsys": null, "volume": 1022.4993194724408, "density": 4.002777150072807, "density_atomic": 24.34522189220097, "symmetry": null, "property_name": null, "material_id": "mp-1204241", "deprecated": null, "deprecation_reasons": null, "last_updated": null, "origins": null, "warnings": null, "structure": {"@module": "pymatgen.core.structure", "@class": "Structure", "charge": 0, "lattice": {"matrix": [[4.394555, -7.611592, 0.0], [4.394555, 7.611592, 0.0], [0.0, 0.0, 15.284197]], "pbc": [true, true, true], "a": 8.789109535242407, "b": 8.789109535242407, "c": 15.284197, "alpha": 90.0, "beta": 90.0, "gamma": 119.99999650156651, "volume": 1022.4993194724408}, "properties": {}, "sites": [{"species": [{"element": "Ca", "occu": 1}], "abc": [0.090871, 0.665173999999999, 0.600011], "properties": {"magmom": 0.0}, "label": "Ca", "xyz": [3.3224813349749964, 4.371360120375993, 9.170686326166999]}, {"species": [{"element": "Ca", "occu": 1}], "abc": [0.334826, 0.425697, 0.600011], "properties": {"magmom": 0.0}, "label": "Ca", "xyz": [3.3421601522650004, 0.6916729766319998, 9.170686326166999]}, {"species": [{"element": "Ca", "occu": 1}], "abc": [0.574303, 0.909129, 0.600011], "properties": {"magmom": 0.0}, "label": "Ca", "xyz": [6.5190235127600005, 2.5485589029919993, 9.170686326166999]}, {"species": [{"element": "Ca", "occu": 1}], "abc": [0.909129, 0.334826, 0.100010999999999], "properties": {"magmom": 0.0}, "label": "Ca", "xyz": [5.4666286650250004, -4.371360120375999, 1.5285878261669847]}, {"species": [{"element": "Ca", "occu": 1}], "abc": [0.665173999999999, 0.574303, 0.100010999999999], "properties": {"magmom": 0.0}, "label": "Ca", "xyz": [5.446949847734997, -0.6916729766319927, 1.5285878261669847]}, {"species": [{"element": "Ca", "occu": 1}], "abc": [0.425697, 0.090871, 0.100010999999999], "properties": {"magmom": 0.0}, "label": "Ca", "xyz": [2.27008648724, -2.548558902992, 1.5285878261669847]}, {"species": [{"element": "Ca", "occu": 1}], "abc": [0.909129, 0.334826, 0.399989], "properties": {"magmom": 0.0}, "label": "Ca", "xyz": [5.4666286650250004, -4.371360120375999, 6.113510673833]}, {"species": [{"element": "Ca", "occu": 1}], "abc": [0.665173999999999, 0.574303, 0.399989], "properties": {"magmom": 0.0}, "label": "Ca", "xyz": [5.446949847734997, -0.6916729766319927, 6.113510673833]}, {"species": [{"element": "Ca", "occu": 1}], "abc": [0.425697, 0.090871, 0.399989], "properties": {"magmom": 0.0}, "label": "Ca", "xyz": [2.27008648724, -2.548558902992, 6.113510673833]}, {"species": [{"element": "Ca", "occu": 1}], "abc": [0.090871, 0.665173999999999, 0.899988999999999], "properties": {"magmom": 0.0}, "label": "Ca", "xyz": [3.3224813349749964, 4.371360120375993, 13.755609173832985]}, {"species": [{"element": "Ca", "occu": 1}], "abc": [0.334826, 0.425697, 0.899988999999999], "properties": {"magmom": 0.0}, "label": "Ca", "xyz": [3.3421601522650004, 0.6916729766319998, 13.755609173832985]}, {"species": [{"element": "Ca", "occu": 1}], "abc": [0.574303, 0.909129, 0.899988999999999], "properties": {"magmom": 0.0}, "label": "Ca", "xyz": [6.5190235127600005, 2.5485589029919993, 13.755609173832985]}, {"species": [{"element": "Ca", "occu": 1}], "abc": [0.666667, 0.333333, 0.75], "properties": {"magmom": 0.0}, "label": "Ca", "xyz": [4.394555, -2.537202407728, 11.463147750000001]}, {"species": [{"element": "Ca", "occu": 1}], "abc": [0.333333, 0.666667, 0.25], "properties": {"magmom": 0.0}, "label": "Ca", "xyz": [4.394555, 2.537202407728, 3.82104925]}, {"species": [{"element": "Ca", "occu": 1}], "abc": [0.0, 0.0, 0.5], "properties": {"magmom": 0.0}, "label": "Ca", "xyz": [0.0, 0.0, 7.6420985]}, {"species": [{"element": "Ca", "occu": 1}], "abc": [0.0, 0.0, 0.0], "properties": {"magmom": 0.0}, "label": "Ca", "xyz": [0.0, 0.0, 0.0]}, {"species": [{"element": "Ca", "occu": 1}], "abc": [0.0, 0.0, 0.75], "properties": {"magmom": 0.0}, "label": "Ca", "xyz": [0.0, 0.0, 11.463147750000001]}, {"species": [{"element": "Ca", "occu": 1}], "abc": [0.0, 0.0, 0.25], "properties": {"magmom": 0.0}, "label": "Ca", "xyz": [0.0, 0.0, 3.82104925]}, {"species": [{"element": "Ge", "occu": 1}], "abc": [0.74429, 0.65546, 0.603733], "properties": {"magmom": 0.0}, "label": "Ge", "xyz": [6.15127836125, -0.6761377173599996, 9.227574107401]}, {"species": [{"element": "Ge", "occu": 1}], "abc": [0.34454, 0.08883, 0.603733], "properties": {"magmom": 0.0}, "label": "Ge", "xyz": [1.90446830035, -1.94636019032, 9.227574107401]}, {"species": [{"element": "Ge", "occu": 1}], "abc": [0.91117, 0.25571000000000005, 0.603733], "properties": {"magmom": 0.0}, "label": "Ge", "xyz": [5.1279183384000016, -4.98909409232, 9.227574107401]}, {"species": [{"element": "Ge", "occu": 1}], "abc": [0.25571000000000005, 0.34454, 0.103732999999999], "properties": {"magmom": 0.0}, "label": "Ge", "xyz": [2.6378316387500007, 0.6761377173599998, 1.5854756074009848]}, {"species": [{"element": "Ge", "occu": 1}], "abc": [0.65546, 0.91117, 0.103732999999999], "properties": {"magmom": 0.0}, "label": "Ge", "xyz": [6.884641699650001, 1.94636019032, 1.5854756074009848]}, {"species": [{"element": "Ge", "occu": 1}], "abc": [0.08883, 0.74429, 0.103732999999999], "properties": {"magmom": 0.0}, "label": "Ge", "xyz": [3.6611916616, 4.98909409232, 1.5854756074009848]}, {"species": [{"element": "Ge", "occu": 1}], "abc": [0.25571000000000005, 0.34454, 0.396267], "properties": {"magmom": 0.0}, "label": "Ge", "xyz": [2.6378316387500007, 0.6761377173599998, 6.056622892599]}, {"species": [{"element": "Ge", "occu": 1}], "abc": [0.65546, 0.91117, 0.396267], "properties": {"magmom": 0.0}, "label": "Ge", "xyz": [6.884641699650001, 1.94636019032, 6.056622892599]}, {"species": [{"element": "Ge", "occu": 1}], "abc": [0.08883, 0.74429, 0.396267], "properties": {"magmom": 0.0}, "label": "Ge", "xyz": [3.6611916616, 4.98909409232, 6.056622892599]}, {"species": [{"element": "Ge", "occu": 1}], "abc": [0.74429, 0.65546, 0.896266999999999], "properties": {"magmom": 0.0}, "label": "Ge", "xyz": [6.15127836125, -0.6761377173599996, 13.698721392598985]}, {"species": [{"element": "Ge", "occu": 1}], "abc": [0.34454, 0.08883, 0.896266999999999], "properties": {"magmom": 0.0}, "label": "Ge", "xyz": [1.90446830035, -1.94636019032, 13.698721392598985]}, {"species": [{"element": "Ge", "occu": 1}], "abc": [0.91117, 0.25571000000000005, 0.896266999999999], "properties": {"magmom": 0.0}, "label": "Ge", "xyz": [5.1279183384000016, -4.98909409232, 13.698721392598985]}, {"species": [{"element": "Ge", "occu": 1}], "abc": [0.312228, 0.943732999999999, 0.75], "properties": {"magmom": 0.0}, "label": "Ge", "xyz": [5.519389692354996, 4.806758405959993, 11.463147750000001]}, {"species": [{"element": "Ge", "occu": 1}], "abc": [0.056267, 0.368494999999999, 0.75], "properties": {"magmom": 0.0}, "label": "Ge", "xyz": [1.866639970909996, 2.3765521469759925, 11.463147750000001]}, {"species": [{"element": "Ge", "occu": 1}], "abc": [0.631505, 0.687771999999999, 0.75], "properties": {"magmom": 0.0}, "label": "Ge", "xyz": [5.797635336734997, 0.4282814470639922, 11.463147750000001]}, {"species": [{"element": "Ge", "occu": 1}], "abc": [0.687771999999999, 0.056267, 0.25], "properties": {"magmom": 0.0}, "label": "Ge", "xyz": [3.269720307644996, -4.806758405959992, 3.82104925]}, {"species": [{"element": "Ge", "occu": 1}], "abc": [0.943732999999999, 0.631505, 0.25], "properties": {"magmom": 0.0}, "label": "Ge", "xyz": [6.922470029089996, -2.3765521469759925, 3.82104925]}, {"species": [{"element": "Ge", "occu": 1}], "abc": [0.368494999999999, 0.312228, 0.25], "properties": {"magmom": 0.0}, "label": "Ge", "xyz": [2.991474663264996, -0.4282814470639926, 3.82104925]}, {"species": [{"element": "Ge", "occu": 1}], "abc": [0.666667, 0.333333, 0.551005], "properties": {"magmom": 0.0}, "label": "Ge", "xyz": [4.394555, -2.537202407728, 8.421668967985]}, {"species": [{"element": "Ge", "occu": 1}], "abc": [0.333333, 0.666667, 0.051004999999999], "properties": {"magmom": 0.0}, "label": "Ge", "xyz": [4.394555, 2.537202407728, 0.7795704679849847]}, {"species": [{"element": "Ge", "occu": 1}], "abc": [0.333333, 0.666667, 0.448995], "properties": {"magmom": 0.0}, "label": "Ge", "xyz": [4.394555, 2.537202407728, 6.862528032015]}, {"species": [{"element": "Ge", "occu": 1}], "abc": [0.666667, 0.333333, 0.948994999999999], "properties": {"magmom": 0.0}, "label": "Ge", "xyz": [4.394555, -2.537202407728, 14.504626532014987]}, {"species": [{"element": "Ge", "occu": 1}], "abc": [0.333333, 0.666667, 0.75], "properties": {"magmom": 0.0}, "label": "Ge", "xyz": [4.394555, 2.537202407728, 11.463147750000001]}, {"species": [{"element": "Ge", "occu": 1}], "abc": [0.666667, 0.333333, 0.25], "properties": {"magmom": 0.0}, "label": "Ge", "xyz": [4.394555, -2.537202407728, 3.82104925]}]}, "task_ids": null, "uncorrected_energy_per_atom": null, "energy_per_atom": -11.601064298809526, "formation_energy_per_atom": -0.657808381666668, "energy_above_hull": 0.009776764047618, "is_stable": false, "equilibrium_reaction_energy_per_atom": null, "decomposes_to": null, "xas": null, "grain_boundaries": null, "band_gap": 0.33119999999999905, "cbm": null, "vbm": null, "efermi": 3.05966517, "is_gap_direct": null, "is_metal": null, "es_source_calc_id": null, "bandstructure": null, "dos": null, "dos_energy_up": null, "dos_energy_down": null, "is_magnetic": null, "ordering": null, "total_magnetization": 0.0001953, "total_magnetization_normalized_vol": null, "total_magnetization_normalized_formula_units": null, "num_magnetic_sites": null, "num_unique_magnetic_sites": null, "types_of_magnetic_species": null, "bulk_modulus": null, "shear_modulus": null, "universal_anisotropy": null, "homogeneous_poisson": null, "e_total": null, "e_ionic": null, "e_electronic": null, "n": null, "e_ij_max": null, "weighted_surface_energy_EV_PER_ANG2": null, "weighted_surface_energy": null, "weighted_work_function": null, "surface_anisotropy": null, "shape_factor": null, "has_reconstructed": null, "possible_species": null, "has_props": null, "theoretical": null, "database_IDs": null, "fields_not_requested": ["builder_meta", "nsites", "elements", "nelements", "composition", "composition_reduced", "chemsys", "symmetry", "property_name", "deprecated", "deprecation_reasons", "last_updated", "origins", "warnings", "task_ids", "uncorrected_energy_per_atom", "equilibrium_reaction_energy_per_atom", "decomposes_to", "xas", "grain_boundaries", "cbm", "vbm", "is_gap_direct", "is_metal", "es_source_calc_id", "bandstructure", "dos", "dos_energy_up", "dos_energy_down", "is_magnetic", "ordering", "total_magnetization_normalized_vol", "total_magnetization_normalized_formula_units", "num_magnetic_sites", "num_unique_magnetic_sites", "types_of_magnetic_species", "bulk_modulus", "shear_modulus", "universal_anisotropy", "homogeneous_poisson", "e_total", "e_ionic", "e_electronic", "n", "e_ij_max", "weighted_surface_energy_EV_PER_ANG2", "weighted_surface_energy", "weighted_work_function", "surface_anisotropy", "shape_factor", "has_reconstructed", "possible_species", "has_props", "theoretical", "database_IDs"]}