{"builder_meta": null, "nsites": null, "elements": null, "nelements": null, "composition": null, "composition_reduced": null, "formula_pretty": "Ca3Ga8", "formula_anonymous": "A3B8", "chemsys": null, "volume": 233.9529999548148, "density": 4.812399828493108, "density_atomic": 21.2684545413468, "symmetry": null, "property_name": null, "material_id": "mp-12611", "deprecated": null, "deprecation_reasons": null, "last_updated": null, "origins": null, "warnings": null, "structure": {"@module": "pymatgen.core.structure", "@class": "Structure", "charge": 0, "lattice": {"matrix": [[4.21095572, -0.0, -0.69475209], [-0.11542892, 4.23891194, -0.69962441], [6.623000000000002e-05, -0.015103990000000001, 13.10925556]], "pbc": [true, true, true], "a": 4.267883379657895, "b": 4.297810208200774, "c": 13.10926426128832, "alpha": 99.43465476310857, "beta": 99.36835283984072, "gamma": 90.00000171758745, "volume": 233.95299995481477}, "properties": {}, "sites": [{"species": [{"element": "Ca", "occu": 1}], "abc": [0.0, -0.0, 0.0], "properties": {"magmom": 0.0}, "label": "Ca", "xyz": [0.0, 0.0, 0.0]}, {"species": [{"element": "Ca", "occu": 1}], "abc": [0.35421031000000003, 0.85421031, 0.7084206200000001], "properties": {"magmom": 0.0}, "label": "Ca", "xyz": [1.3930102761389709, 3.610222304369828, 8.443152214231933]}, {"species": [{"element": "Ca", "occu": 1}], "abc": [0.64578969, 0.14578969, 0.29157938], "properties": {"magmom": 0.0}, "label": "Ca", "xyz": [2.702582753861029, 0.6135856456301725, 3.2717268457680673]}, {"species": [{"element": "Ga", "occu": 1}], "abc": [0.25035454, 0.25035454, 0.50071208], "properties": {"magmom": -0.0}, "label": "Ga", "xyz": [1.0253668902327304, 1.0536680985900084, 6.214874131454855]}, {"species": [{"element": "Ga", "occu": 1}], "abc": [0.74964546, 0.74964546, 0.49928792], "properties": {"magmom": -0.0}, "label": "Ga", "xyz": [3.07022613976727, 3.1701398514099917, 5.5000049285451444]}, {"species": [{"element": "Ga", "occu": 1}], "abc": [0.45174317, 0.45174317, 0.9034843300000001], "properties": {"magmom": 0.0}, "label": "Ga", "xyz": [1.8501860972191322, 1.9012532988409734, 11.21410691614187]}, {"species": [{"element": "Ga", "occu": 1}], "abc": [0.54825683, 0.54825683, 0.09651567], "properties": {"magmom": 0.0}, "label": "Ga", "xyz": [2.245406932780868, 2.3225546511590274, 0.5007721438581302]}, {"species": [{"element": "Ga", "occu": 1}], "abc": [0.09456225, 0.59456225, 0.18912451], "properties": {"magmom": -0.0}, "label": "Ga", "xyz": [0.3295802948595973, 2.51744048589047, 1.9976139500626504]}, {"species": [{"element": "Ga", "occu": 1}], "abc": [0.90543775, 0.40543775, 0.81087549], "properties": {"magmom": -0.0}, "label": "Ga", "xyz": [3.766012735140403, 1.7063674641095299, 9.71726510993735]}, {"species": [{"element": "Ga", "occu": 1}], "abc": [0.19100212, 0.69100212, 0.38200325], "properties": {"magmom": 0.0}, "label": "Ga", "xyz": [0.7245651413920635, 2.923327363765346, 4.39163715642239]}, {"species": [{"element": "Ga", "occu": 1}], "abc": [0.8089978800000001, 0.30899788, 0.61799675], "properties": {"magmom": 0.0}, "label": "Ga", "xyz": [3.3710278886079372, 1.300480586234655, 7.3232419035776095]}]}, "task_ids": null, "uncorrected_energy_per_atom": null, "energy_per_atom": -10.75738937, "formation_energy_per_atom": -0.515835851818181, "energy_above_hull": 0.001147761818183, "is_stable": false, "equilibrium_reaction_energy_per_atom": null, "decomposes_to": null, "xas": null, "grain_boundaries": null, "band_gap": 0.0, "cbm": null, "vbm": null, "efermi": 3.32606081, "is_gap_direct": null, "is_metal": null, "es_source_calc_id": null, "bandstructure": null, "dos": null, "dos_energy_up": null, "dos_energy_down": null, "is_magnetic": null, "ordering": null, "total_magnetization": 0.0, "total_magnetization_normalized_vol": null, "total_magnetization_normalized_formula_units": null, "num_magnetic_sites": null, "num_unique_magnetic_sites": null, "types_of_magnetic_species": null, "bulk_modulus": null, "shear_modulus": null, "universal_anisotropy": null, "homogeneous_poisson": null, "e_total": null, "e_ionic": null, "e_electronic": null, "n": null, "e_ij_max": null, "weighted_surface_energy_EV_PER_ANG2": null, "weighted_surface_energy": null, "weighted_work_function": null, "surface_anisotropy": null, "shape_factor": null, "has_reconstructed": null, "possible_species": null, "has_props": null, "theoretical": null, "database_IDs": null, "fields_not_requested": ["builder_meta", "nsites", "elements", "nelements", "composition", "composition_reduced", "chemsys", "symmetry", "property_name", "deprecated", "deprecation_reasons", "last_updated", "origins", "warnings", "task_ids", "uncorrected_energy_per_atom", "equilibrium_reaction_energy_per_atom", "decomposes_to", "xas", "grain_boundaries", "cbm", "vbm", "is_gap_direct", "is_metal", "es_source_calc_id", "bandstructure", "dos", "dos_energy_up", "dos_energy_down", "is_magnetic", "ordering", "total_magnetization_normalized_vol", "total_magnetization_normalized_formula_units", "num_magnetic_sites", "num_unique_magnetic_sites", "types_of_magnetic_species", "bulk_modulus", "shear_modulus", "universal_anisotropy", "homogeneous_poisson", "e_total", "e_ionic", "e_electronic", "n", "e_ij_max", "weighted_surface_energy_EV_PER_ANG2", "weighted_surface_energy", "weighted_work_function", "surface_anisotropy", "shape_factor", "has_reconstructed", "possible_species", "has_props", "theoretical", "database_IDs"]}