{
  "builder_meta": null,
  "nsites": null,
  "elements": null,
  "nelements": null,
  "composition": null,
  "composition_reduced": null,
  "formula_pretty": "Ca3Ga5",
  "formula_anonymous": "A3B5",
  "chemsys": null,
  "volume": 355.2766662349995,
  "density": 4.382736919296428,
  "density_atomic": 22.204791639687468,
  "symmetry": null,
  "property_name": null,
  "material_id": "mp-30473",
  "deprecated": null,
  "deprecation_reasons": null,
  "last_updated": null,
  "origins": null,
  "warnings": null,
  "structure": {
    "@module": "pymatgen.core.structure",
    "@class": "Structure",
    "charge": 0,
    "lattice": {
      "matrix": [
        [4.4418836, -1e-8, 0.0],
        [-2.22094281, 5.34537866, -0.0],
        [0.0, -0.0, 14.96308132]
      ],
      "pbc": [true, true, true],
      "a": 4.4418836,
      "b": 5.788407378897419,
      "c": 14.96308132,
      "alpha": 90.0,
      "beta": 90.0,
      "gamma": 112.56231780530919,
      "volume": 355.2766662349995
    },
    "properties": {},
    "sites": [
      {
        "species": [{ "element": "Ca", "occu": 1 }],
        "abc": [0.12881041000000001, 0.25761881000000003, 0.75],
        "properties": { "magmom": -0.0 },
        "label": "Ca",
        "xyz": [4.203898019916608e-6, 1.3770700881004907, 11.22231099]
      },
      {
        "species": [{ "element": "Ca", "occu": 1 }],
        "abc": [0.8711895900000001, 0.74238119, 0.25],
        "properties": { "magmom": -0.0 },
        "label": "Ca",
        "xyz": [2.2209365861019803, 3.968308561899509, 3.74077033]
      },
      {
        "species": [{ "element": "Ca", "occu": 1 }],
        "abc": [0.59049262, 0.18098324000000002, 0.10958089],
        "properties": { "magmom": -0.0 },
        "label": "Ca",
        "xyz": [2.2209460590905277, 0.9674239430087322, 1.6396677681879748]
      },
      {
        "species": [{ "element": "Ca", "occu": 1 }],
        "abc": [0.40950838, 0.81901676, 0.8904191100000001],
        "properties": { "magmom": -0.0 },
        "label": "Ca",
        "xyz": [-8.272069276227256e-7, 4.377954706991258, 13.323413551812028]
      },
      {
        "species": [{ "element": "Ca", "occu": 1 }],
        "abc": [0.40950838, 0.81901676, 0.60958089],
        "properties": { "magmom": -0.0 },
        "label": "Ca",
        "xyz": [-8.272069276227256e-7, 4.377954706991258, 9.121208428187975]
      },
      {
        "species": [{ "element": "Ca", "occu": 1 }],
        "abc": [0.59049262, 0.18098324000000002, 0.39041911],
        "properties": { "magmom": -0.0 },
        "label": "Ca",
        "xyz": [2.2209460590905277, 0.9674239430087322, 5.8418728918120255]
      },
      {
        "species": [{ "element": "Ga", "occu": 1 }],
        "abc": [0.8349173, 0.6698326, 0.75],
        "properties": { "magmom": -0.0 },
        "label": "Ga",
        "xyz": [2.220945565352674, 3.580508877463143, 11.22231099]
      },
      {
        "species": [{ "element": "Ga", "occu": 1 }],
        "abc": [0.1650827, 0.3301674, 0.25],
        "properties": { "magmom": -0.0 },
        "label": "Ga",
        "xyz": [-4.775352673958011e-6, 1.764869772536857, 3.74077033]
      },
      {
        "species": [{ "element": "Ga", "occu": 1 }],
        "abc": [0.29269079, 0.58538159, 0.40019842],
        "properties": { "magmom": -0.0 },
        "label": "Ga",
        "xyz": [-6.134448240491253e-7, 3.1290862562159614, 5.988201502595515]
      },
      {
        "species": [{ "element": "Ga", "occu": 1 }],
        "abc": [0.70730921, 0.41461841, 0.5998015800000001],
        "properties": { "magmom": -0.0 },
        "label": "Ga",
        "xyz": [2.2209414034448236, 2.2162923937840384, 8.974879817404487]
      },
      {
        "species": [{ "element": "Ga", "occu": 1 }],
        "abc": [0.70730921, 0.41461841, 0.90019842],
        "properties": { "magmom": -0.0 },
        "label": "Ga",
        "xyz": [2.2209414034448236, 2.2162923937840384, 13.469742162595516]
      },
      {
        "species": [{ "element": "Ga", "occu": 1 }],
        "abc": [0.29269079, 0.58538159, 0.09980158],
        "properties": { "magmom": -0.0 },
        "label": "Ga",
        "xyz": [-6.134448240491253e-7, 3.1290862562159614, 1.4933391574044856]
      },
      {
        "species": [{ "element": "Ga", "occu": 1 }],
        "abc": [0.11615842, 0.23231584, 0.533447],
        "properties": { "magmom": 0.0 },
        "label": "Ga",
        "xyz": [1.9863028015709716e-6, 1.2418161323543901, 7.98201084091004]
      },
      {
        "species": [{ "element": "Ga", "occu": 1 }],
        "abc": [0.88384158, 0.7676841600000001, 0.466553],
        "properties": { "magmom": 0.0 },
        "label": "Ga",
        "xyz": [2.220938803697198, 4.103562517645609, 6.9810704790899605]
      },
      {
        "species": [{ "element": "Ga", "occu": 1 }],
        "abc": [0.88384158, 0.7676841600000001, 0.033447],
        "properties": { "magmom": 0.0 },
        "label": "Ga",
        "xyz": [2.220938803697198, 4.103562517645609, 0.50047018091004]
      },
      {
        "species": [{ "element": "Ga", "occu": 1 }],
        "abc": [0.11615842, 0.23231584, 0.966553],
        "properties": { "magmom": 0.0 },
        "label": "Ga",
        "xyz": [1.9863028015709716e-6, 1.2418161323543901, 14.46261113908996]
      }
    ]
  },
  "task_ids": null,
  "uncorrected_energy_per_atom": null,
  "energy_per_atom": -10.375676740625,
  "formation_energy_per_atom": -0.584581634375,
  "energy_above_hull": 0.0,
  "is_stable": true,
  "equilibrium_reaction_energy_per_atom": null,
  "decomposes_to": null,
  "xas": null,
  "grain_boundaries": null,
  "band_gap": 0.0,
  "cbm": null,
  "vbm": null,
  "efermi": 3.48622132,
  "is_gap_direct": null,
  "is_metal": null,
  "es_source_calc_id": null,
  "bandstructure": null,
  "dos": null,
  "dos_energy_up": null,
  "dos_energy_down": null,
  "is_magnetic": null,
  "ordering": null,
  "total_magnetization": 8e-7,
  "total_magnetization_normalized_vol": null,
  "total_magnetization_normalized_formula_units": null,
  "num_magnetic_sites": null,
  "num_unique_magnetic_sites": null,
  "types_of_magnetic_species": null,
  "bulk_modulus": null,
  "shear_modulus": null,
  "universal_anisotropy": null,
  "homogeneous_poisson": null,
  "e_total": null,
  "e_ionic": null,
  "e_electronic": null,
  "n": null,
  "e_ij_max": null,
  "weighted_surface_energy_EV_PER_ANG2": null,
  "weighted_surface_energy": null,
  "weighted_work_function": null,
  "surface_anisotropy": null,
  "shape_factor": null,
  "has_reconstructed": null,
  "possible_species": null,
  "has_props": null,
  "theoretical": null,
  "database_IDs": null,
  "fields_not_requested": [
    "builder_meta",
    "nsites",
    "elements",
    "nelements",
    "composition",
    "composition_reduced",
    "chemsys",
    "symmetry",
    "property_name",
    "deprecated",
    "deprecation_reasons",
    "last_updated",
    "origins",
    "warnings",
    "task_ids",
    "uncorrected_energy_per_atom",
    "equilibrium_reaction_energy_per_atom",
    "decomposes_to",
    "xas",
    "grain_boundaries",
    "cbm",
    "vbm",
    "is_gap_direct",
    "is_metal",
    "es_source_calc_id",
    "bandstructure",
    "dos",
    "dos_energy_up",
    "dos_energy_down",
    "is_magnetic",
    "ordering",
    "total_magnetization_normalized_vol",
    "total_magnetization_normalized_formula_units",
    "num_magnetic_sites",
    "num_unique_magnetic_sites",
    "types_of_magnetic_species",
    "bulk_modulus",
    "shear_modulus",
    "universal_anisotropy",
    "homogeneous_poisson",
    "e_total",
    "e_ionic",
    "e_electronic",
    "n",
    "e_ij_max",
    "weighted_surface_energy_EV_PER_ANG2",
    "weighted_surface_energy",
    "weighted_work_function",
    "surface_anisotropy",
    "shape_factor",
    "has_reconstructed",
    "possible_species",
    "has_props",
    "theoretical",
    "database_IDs"
  ]
}
