{"builder_meta": null, "nsites": null, "elements": null, "nelements": null, "composition": null, "composition_reduced": null, "formula_pretty": "Ca3Hg", "formula_anonymous": "AB3", "chemsys": null, "volume": 569.982391646283, "density": 3.738647321817507, "density_atomic": 35.623899477892685, "symmetry": null, "property_name": null, "material_id": "mp-1105761", "deprecated": null, "deprecation_reasons": null, "last_updated": null, "origins": null, "warnings": null, "structure": {"@module": "pymatgen.core.structure", "@class": "Structure", "charge": 0, "lattice": {"matrix": [[7.970644, 0.0, 0.0], [0.0, 10.291765999999999, 0.0], [0.0, 0.0, 6.948293]], "pbc": [true, true, true], "a": 7.970644, "b": 10.291765999999999, "c": 6.948293, "alpha": 90.0, "beta": 90.0, "gamma": 90.0, "volume": 569.982391646283}, "properties": {}, "sites": [{"species": [{"element": "Ca", "occu": 1}], "abc": [0.679433, 0.059705999999999, 0.338325999999999], "properties": {"magmom": 0.008}, "label": "Ca", "xyz": [5.4155185648519995, 0.6144801807959897, 2.350788177517993]}, {"species": [{"element": "Ca", "occu": 1}], "abc": [0.179432999999999, 0.440293999999999, 0.161673999999999], "properties": {"magmom": 0.008}, "label": "Ca", "xyz": [1.430196564851992, 4.53140281920399, 1.1233583224819932]}, {"species": [{"element": "Ca", "occu": 1}], "abc": [0.320567, 0.559705999999999, 0.661674], "properties": {"magmom": 0.008}, "label": "Ca", "xyz": [2.555125435148, 5.76036318079599, 4.597504822482]}, {"species": [{"element": "Ca", "occu": 1}], "abc": [0.820566999999999, 0.940294, 0.838326], "properties": {"magmom": 0.008}, "label": "Ca", "xyz": [6.540447435147993, 9.677285819203998, 5.824934677518]}, {"species": [{"element": "Ca", "occu": 1}], "abc": [0.320567, 0.940294, 0.661674], "properties": {"magmom": 0.008}, "label": "Ca", "xyz": [2.555125435148, 9.677285819203998, 4.597504822482]}, {"species": [{"element": "Ca", "occu": 1}], "abc": [0.820566999999999, 0.559705999999999, 0.838326], "properties": {"magmom": 0.008}, "label": "Ca", "xyz": [6.540447435147993, 5.76036318079599, 5.824934677518]}, {"species": [{"element": "Ca", "occu": 1}], "abc": [0.679433, 0.440293999999999, 0.338325999999999], "properties": {"magmom": 0.008}, "label": "Ca", "xyz": [5.4155185648519995, 4.53140281920399, 2.350788177517993]}, {"species": [{"element": "Ca", "occu": 1}], "abc": [0.179432999999999, 0.059705999999999, 0.161673999999999], "properties": {"magmom": 0.008}, "label": "Ca", "xyz": [1.430196564851992, 0.6144801807959897, 1.1233583224819932]}, {"species": [{"element": "Ca", "occu": 1}], "abc": [0.52963, 0.25, 0.8639], "properties": {"magmom": 0.012}, "label": "Ca", "xyz": [4.22149218172, 2.5729414999999998, 6.0026303227]}, {"species": [{"element": "Ca", "occu": 1}], "abc": [0.029630000000000004, 0.25, 0.6361], "properties": {"magmom": 0.012}, "label": "Ca", "xyz": [0.23617018172000004, 2.5729414999999998, 4.4198091772999994]}, {"species": [{"element": "Ca", "occu": 1}], "abc": [0.47037000000000007, 0.75, 0.1361], "properties": {"magmom": 0.012}, "label": "Ca", "xyz": [3.7491518182800005, 7.718824499999999, 0.9456626773]}, {"species": [{"element": "Ca", "occu": 1}], "abc": [0.9703700000000001, 0.75, 0.3639], "properties": {"magmom": 0.012}, "label": "Ca", "xyz": [7.734473818280001, 7.718824499999999, 2.5284838226999997]}, {"species": [{"element": "Hg", "occu": 1}], "abc": [0.881448, 0.25, 0.056105999999999004], "properties": {"magmom": 0.001}, "label": "Hg", "xyz": [7.025708212512, 2.5729414999999998, 0.38984092705799306]}, {"species": [{"element": "Hg", "occu": 1}], "abc": [0.381448, 0.25, 0.443893999999999], "properties": {"magmom": 0.001}, "label": "Hg", "xyz": [3.0403862125120003, 2.5729414999999998, 3.084305572941993]}, {"species": [{"element": "Hg", "occu": 1}], "abc": [0.118551999999999, 0.75, 0.943894], "properties": {"magmom": 0.001}, "label": "Hg", "xyz": [0.9449357874879921, 7.718824499999999, 6.558452072942]}, {"species": [{"element": "Hg", "occu": 1}], "abc": [0.618552, 0.75, 0.556106], "properties": {"magmom": 0.001}, "label": "Hg", "xyz": [4.930257787488, 7.718824499999999, 3.863987427058]}]}, "task_ids": null, "uncorrected_energy_per_atom": null, "energy_per_atom": -17.950122018125, "formation_energy_per_atom": -0.329450112500001, "energy_above_hull": 0.0029731875, "is_stable": false, "equilibrium_reaction_energy_per_atom": null, "decomposes_to": null, "xas": null, "grain_boundaries": null, "band_gap": 0.0, "cbm": null, "vbm": null, "efermi": 2.3714636000000002, "is_gap_direct": null, "is_metal": null, "es_source_calc_id": null, "bandstructure": null, "dos": null, "dos_energy_up": null, "dos_energy_down": null, "is_magnetic": null, "ordering": null, "total_magnetization": 0.6866066, "total_magnetization_normalized_vol": null, "total_magnetization_normalized_formula_units": null, "num_magnetic_sites": null, "num_unique_magnetic_sites": null, "types_of_magnetic_species": null, "bulk_modulus": null, "shear_modulus": null, "universal_anisotropy": null, "homogeneous_poisson": null, "e_total": null, "e_ionic": null, "e_electronic": null, "n": null, "e_ij_max": null, "weighted_surface_energy_EV_PER_ANG2": null, "weighted_surface_energy": null, "weighted_work_function": null, "surface_anisotropy": null, "shape_factor": null, "has_reconstructed": null, "possible_species": null, "has_props": null, "theoretical": null, "database_IDs": null, "fields_not_requested": ["builder_meta", "nsites", "elements", "nelements", "composition", "composition_reduced", "chemsys", "symmetry", "property_name", "deprecated", "deprecation_reasons", "last_updated", "origins", "warnings", "task_ids", "uncorrected_energy_per_atom", "equilibrium_reaction_energy_per_atom", "decomposes_to", "xas", "grain_boundaries", "cbm", "vbm", "is_gap_direct", "is_metal", "es_source_calc_id", "bandstructure", "dos", "dos_energy_up", "dos_energy_down", "is_magnetic", "ordering", "total_magnetization_normalized_vol", "total_magnetization_normalized_formula_units", "num_magnetic_sites", "num_unique_magnetic_sites", "types_of_magnetic_species", "bulk_modulus", "shear_modulus", "universal_anisotropy", "homogeneous_poisson", "e_total", "e_ionic", "e_electronic", "n", "e_ij_max", "weighted_surface_energy_EV_PER_ANG2", "weighted_surface_energy", "weighted_work_function", "surface_anisotropy", "shape_factor", "has_reconstructed", "possible_species", "has_props", "theoretical", "database_IDs"]}