{"builder_meta": null, "nsites": null, "elements": null, "nelements": null, "composition": null, "composition_reduced": null, "formula_pretty": "Ca3Hg2", "formula_anonymous": "A2B3", "chemsys": null, "volume": 303.26507058499936, "density": 5.71004313290671, "density_atomic": 30.326507058499935, "symmetry": null, "property_name": null, "material_id": "mp-11288", "deprecated": null, "deprecation_reasons": null, "last_updated": null, "origins": null, "warnings": null, "structure": {"@module": "pymatgen.core.structure", "@class": "Structure", "charge": 0, "lattice": {"matrix": [[4.16472509, 0.0, -0.0], [0.0, 8.53331989, 0.0], [0.0, -0.0, 8.53331989]], "pbc": [true, true, true], "a": 4.16472509, "b": 8.53331989, "c": 8.53331989, "alpha": 90.0, "beta": 90.0, "gamma": 90.0, "volume": 303.26507058499936}, "properties": {}, "sites": [{"species": [{"element": "Ca", "occu": 1}], "abc": [-0.0, -0.0, -0.0], "properties": {"magmom": -0.0}, "label": "Ca", "xyz": [0.0, 0.0, 0.0]}, {"species": [{"element": "Ca", "occu": 1}], "abc": [-0.0, 0.5, 0.5], "properties": {"magmom": -0.0}, "label": "Ca", "xyz": [0.0, 4.266659945, 4.266659945]}, {"species": [{"element": "Ca", "occu": 1}], "abc": [0.5, 0.15577614, 0.6557761400000001], "properties": {"magmom": -0.0}, "label": "Ca", "xyz": [2.082362545, 1.3292876338494246, 5.595947578849425]}, {"species": [{"element": "Ca", "occu": 1}], "abc": [0.5, 0.34422386, 0.15577614], "properties": {"magmom": -0.0}, "label": "Ca", "xyz": [2.082362545, 2.9373723111505754, 1.3292876338494246]}, {"species": [{"element": "Ca", "occu": 1}], "abc": [0.5, 0.6557761400000001, 0.84422386], "properties": {"magmom": -0.0}, "label": "Ca", "xyz": [2.082362545, 5.595947578849425, 7.204032256150575]}, {"species": [{"element": "Ca", "occu": 1}], "abc": [0.5, 0.84422386, 0.34422386], "properties": {"magmom": -0.0}, "label": "Ca", "xyz": [2.082362545, 7.204032256150575, 2.9373723111505754]}, {"species": [{"element": "Hg", "occu": 1}], "abc": [-0.0, 0.35916201000000003, 0.85916201], "properties": {"magmom": -0.0}, "label": "Hg", "xyz": [0.0, 3.064844323665379, 7.331504268665379]}, {"species": [{"element": "Hg", "occu": 1}], "abc": [0.0, 0.14083799, 0.35916201000000003], "properties": {"magmom": -0.0}, "label": "Hg", "xyz": [0.0, 1.201815621334621, 3.064844323665379]}, {"species": [{"element": "Hg", "occu": 1}], "abc": [-0.0, 0.85916201, 0.64083799], "properties": {"magmom": -0.0}, "label": "Hg", "xyz": [0.0, 7.331504268665379, 5.468475566334621]}, {"species": [{"element": "Hg", "occu": 1}], "abc": [0.0, 0.64083799, 0.14083799], "properties": {"magmom": -0.0}, "label": "Hg", "xyz": [0.0, 5.468475566334621, 1.201815621334621]}]}, "task_ids": null, "uncorrected_energy_per_atom": null, "energy_per_atom": -24.475598274, "formation_energy_per_atom": -0.505499445000001, "energy_above_hull": 0.0, "is_stable": true, "equilibrium_reaction_energy_per_atom": null, "decomposes_to": null, "xas": null, "grain_boundaries": null, "band_gap": 0.0, "cbm": null, "vbm": null, "efermi": 2.72025066, "is_gap_direct": null, "is_metal": null, "es_source_calc_id": null, "bandstructure": null, "dos": null, "dos_energy_up": null, "dos_energy_down": null, "is_magnetic": null, "ordering": null, "total_magnetization": 1e-06, "total_magnetization_normalized_vol": null, "total_magnetization_normalized_formula_units": null, "num_magnetic_sites": null, "num_unique_magnetic_sites": null, "types_of_magnetic_species": null, "bulk_modulus": null, "shear_modulus": null, "universal_anisotropy": null, "homogeneous_poisson": null, "e_total": null, "e_ionic": null, "e_electronic": null, "n": null, "e_ij_max": null, "weighted_surface_energy_EV_PER_ANG2": null, "weighted_surface_energy": null, "weighted_work_function": null, "surface_anisotropy": null, "shape_factor": null, "has_reconstructed": null, "possible_species": null, "has_props": null, "theoretical": null, "database_IDs": null, "fields_not_requested": ["builder_meta", "nsites", "elements", "nelements", "composition", "composition_reduced", "chemsys", "symmetry", "property_name", "deprecated", "deprecation_reasons", "last_updated", "origins", "warnings", "task_ids", "uncorrected_energy_per_atom", "equilibrium_reaction_energy_per_atom", "decomposes_to", "xas", "grain_boundaries", "cbm", "vbm", "is_gap_direct", "is_metal", "es_source_calc_id", "bandstructure", "dos", "dos_energy_up", "dos_energy_down", "is_magnetic", "ordering", "total_magnetization_normalized_vol", "total_magnetization_normalized_formula_units", "num_magnetic_sites", "num_unique_magnetic_sites", "types_of_magnetic_species", "bulk_modulus", "shear_modulus", "universal_anisotropy", "homogeneous_poisson", "e_total", "e_ionic", "e_electronic", "n", "e_ij_max", "weighted_surface_energy_EV_PER_ANG2", "weighted_surface_energy", "weighted_work_function", "surface_anisotropy", "shape_factor", "has_reconstructed", "possible_species", "has_props", "theoretical", "database_IDs"]}