{"builder_meta": null, "nsites": null, "elements": null, "nelements": null, "composition": null, "composition_reduced": null, "formula_pretty": "Ca3Nd", "formula_anonymous": "AB3", "chemsys": null, "volume": 156.04582442640657, "density": 2.81438309414823, "density_atomic": 39.01145610660164, "symmetry": null, "property_name": null, "material_id": "mp-1183491", "deprecated": null, "deprecation_reasons": null, "last_updated": null, "origins": null, "warnings": null, "structure": {"@module": "pymatgen.core.structure", "@class": "Structure", "charge": 0, "lattice": {"matrix": [[0.0, 4.273077, 4.273077], [4.273077, 0.0, 4.273077], [4.273077, 4.273077, 0.0]], "pbc": [true, true, true], "a": 6.043043446464537, "b": 6.043043446464537, "c": 6.043043446464537, "alpha": 59.99999999999999, "beta": 59.99999999999999, "gamma": 59.99999999999999, "volume": 156.04582442640657}, "properties": {}, "sites": [{"species": [{"element": "Ca", "occu": 1}], "abc": [0.25, 0.25, 0.25], "properties": {"magmom": 0.001}, "label": "Ca", "xyz": [2.1365385, 2.1365385, 2.1365385]}, {"species": [{"element": "Ca", "occu": 1}], "abc": [0.75, 0.75, 0.75], "properties": {"magmom": 0.001}, "label": "Ca", "xyz": [6.409615499999999, 6.409615499999999, 6.409615499999999]}, {"species": [{"element": "Ca", "occu": 1}], "abc": [0.5, 0.5, 0.5], "properties": {"magmom": 0.001}, "label": "Ca", "xyz": [4.273077, 4.273077, 4.273077]}, {"species": [{"element": "Nd", "occu": 1}], "abc": [0.0, 0.0, 0.0], "properties": {"magmom": 0.006}, "label": "Nd", "xyz": [0.0, 0.0, 0.0]}]}, "task_ids": null, "uncorrected_energy_per_atom": null, "energy_per_atom": -12.544595255, "formation_energy_per_atom": 0.08862726562499901, "energy_above_hull": 0.08862726562499901, "is_stable": false, "equilibrium_reaction_energy_per_atom": null, "decomposes_to": null, "xas": null, "grain_boundaries": null, "band_gap": 0.0, "cbm": null, "vbm": null, "efermi": 2.33599832, "is_gap_direct": null, "is_metal": null, "es_source_calc_id": null, "bandstructure": null, "dos": null, "dos_energy_up": null, "dos_energy_down": null, "is_magnetic": null, "ordering": null, "total_magnetization": 0.026476399999999, "total_magnetization_normalized_vol": null, "total_magnetization_normalized_formula_units": null, "num_magnetic_sites": null, "num_unique_magnetic_sites": null, "types_of_magnetic_species": null, "bulk_modulus": null, "shear_modulus": null, "universal_anisotropy": null, "homogeneous_poisson": null, "e_total": null, "e_ionic": null, "e_electronic": null, "n": null, "e_ij_max": null, "weighted_surface_energy_EV_PER_ANG2": null, "weighted_surface_energy": null, "weighted_work_function": null, "surface_anisotropy": null, "shape_factor": null, "has_reconstructed": null, "possible_species": null, "has_props": null, "theoretical": null, "database_IDs": null, "fields_not_requested": ["builder_meta", "nsites", "elements", "nelements", "composition", "composition_reduced", "chemsys", "symmetry", "property_name", "deprecated", "deprecation_reasons", "last_updated", "origins", "warnings", "task_ids", "uncorrected_energy_per_atom", "equilibrium_reaction_energy_per_atom", "decomposes_to", "xas", "grain_boundaries", "cbm", "vbm", "is_gap_direct", "is_metal", "es_source_calc_id", "bandstructure", "dos", "dos_energy_up", "dos_energy_down", "is_magnetic", "ordering", "total_magnetization_normalized_vol", "total_magnetization_normalized_formula_units", "num_magnetic_sites", "num_unique_magnetic_sites", "types_of_magnetic_species", "bulk_modulus", "shear_modulus", "universal_anisotropy", "homogeneous_poisson", "e_total", "e_ionic", "e_electronic", "n", "e_ij_max", "weighted_surface_energy_EV_PER_ANG2", "weighted_surface_energy", "weighted_work_function", "surface_anisotropy", "shape_factor", "has_reconstructed", "possible_species", "has_props", "theoretical", "database_IDs"]}