{"builder_meta": null, "nsites": null, "elements": null, "nelements": null, "composition": null, "composition_reduced": null, "formula_pretty": "Ca3N2", "formula_anonymous": "A2B3", "chemsys": null, "volume": 747.4059775130344, "density": 2.634933159523292, "density_atomic": 18.68514943782586, "symmetry": null, "property_name": null, "material_id": "mp-844", "deprecated": null, "deprecation_reasons": null, "last_updated": null, "origins": null, "warnings": null, "structure": {"@module": "pymatgen.core.structure", "@class": "Structure", "charge": 0, "lattice": {"matrix": [[9.3357647, -0.0, -3.30069103], [-4.66788286, 8.085009639999999, -3.30069103], [-0.0, -0.0, 9.90207309]], "pbc": [true, true, true], "a": 9.902073712575996, "b": 9.902074153888021, "c": 9.90207309, "alpha": 109.47121845804726, "beta": 109.47121936085902, "gamma": 109.47122395629304, "volume": 747.4059775130343}, "properties": {}, "sites": [{"species": [{"element": "Ca", "occu": 1}], "abc": [0.04391261, 0.27153737, 0.00695768], "properties": {"magmom": 0.0}, "label": "Ca", "xyz": [-0.8575468409496112, 2.1953822540702466, -0.9723074635028482]}, {"species": [{"element": "Ca", "occu": 1}], "abc": [0.27237624, 0.73542131, 0.22846263], "properties": {"magmom": 0.0}, "label": "Ca", "xyz": [-0.8900200413170181, 5.945888380811428, -1.0641746727473493]}, {"species": [{"element": "Ca", "occu": 1}], "abc": [0.76457869, 0.03695393, 0.49304232000000003], "properties": {"magmom": 0.0}, "label": "Ca", "xyz": [6.965430128017603, 0.29877288028588517, 2.2365295600167707]}, {"species": [{"element": "Ca", "occu": 1}], "abc": [0.45608739000000004, 0.46304607000000003, 0.22762376], "properties": {"magmom": 0.0}, "label": "Ca", "xyz": [2.0964797421337735, 3.7437319397141144, -0.7798284582542454]}, {"species": [{"element": "Ca", "occu": 1}], "abc": [0.22762376, 0.45608739000000004, 0.46304607000000003], "properties": {"magmom": 0.0}, "label": "Ca", "xyz": [-0.003920646953863294, 3.6874709448324396, 2.3283967692612717]}, {"species": [{"element": "Ca", "occu": 1}], "abc": [0.27153737, 0.00695768, 0.04391261], "properties": {"magmom": 0.0}, "label": "Ca", "xyz": [2.502531358359474, 0.05625290987203519, -0.4844002396417367]}, {"species": [{"element": "Ca", "occu": 1}], "abc": [0.22846263, 0.27237624, 0.73542131], "properties": {"magmom": 0.0}, "label": "Ca", "xyz": [0.8614529742559149, 2.2021645261069533, 5.629081197879211]}, {"species": [{"element": "Ca", "occu": 1}], "abc": [0.03695393, 0.49304232000000003, 0.76457869], "properties": {"magmom": 0.0}, "label": "Ca", "xyz": [-1.9564705995623641, 3.9862519101279648, 5.821560203127815]}, {"species": [{"element": "Ca", "occu": 1}], "abc": [0.49304232000000003, 0.76457869, 0.03695393], "properties": {"magmom": 0.0}, "label": "Ca", "xyz": [1.033963324489851, 6.181626079188571, -3.7850978710237966]}, {"species": [{"element": "Ca", "occu": 1}], "abc": [0.73542131, 0.22846263, 0.27237624], "properties": {"magmom": 0.0}, "label": "Ca", "xyz": [5.799283510798236, 1.847122565929753, -0.4843936382596761]}, {"species": [{"element": "Ca", "occu": 1}], "abc": [0.00695768, 0.04391261, 0.27153737], "properties": {"magmom": 0.0}, "label": "Ca", "xyz": [-0.1400236562189686, 0.35503387516756035, 2.5208757745098747]}, {"species": [{"element": "Ca", "occu": 1}], "abc": [0.46304607000000003, 0.22762376, 0.45608739000000004], "properties": {"magmom": 0.0}, "label": "Ca", "xyz": [3.260368106946976, 1.8403402938930462, 2.23652295863471]}, {"species": [{"element": "Ca", "occu": 1}], "abc": [0.96304607, 0.50695768, 0.23542131], "properties": {"magmom": 0.0}, "label": "Ca", "xyz": [6.624352439562365, 4.098757729872035, -2.520869173127814]}, {"species": [{"element": "Ca", "occu": 1}], "abc": [0.77153737, 0.7276237600000001, 0.26457869], "properties": {"magmom": 0.0}, "label": "Ca", "xyz": [3.8064288657440852, 5.882845113893047, -2.328390167879212]}, {"species": [{"element": "Ca", "occu": 1}], "abc": [0.72846263, 0.99304232, 0.95608739], "properties": {"magmom": 0.0}, "label": "Ca", "xyz": [2.1653504816405267, 8.028756730127965, 3.785091269641737]}, {"species": [{"element": "Ca", "occu": 1}], "abc": [0.77237624, 0.54391261, 0.53695393], "properties": {"magmom": 0.0}, "label": "Ca", "xyz": [4.671802486953864, 4.39753869516756, 0.9722942607387282]}, {"species": [{"element": "Ca", "occu": 1}], "abc": [0.54391261, 0.53695393, 0.77237624], "properties": {"magmom": 0.0}, "label": "Ca", "xyz": [2.571402097866228, 4.341277700285885, 4.080519488254247]}, {"species": [{"element": "Ca", "occu": 1}], "abc": [0.23542131, 0.96304607, 0.50695768], "properties": {"magmom": 0.0}, "label": "Ca", "xyz": [-2.2975482880176026, 7.7862367597141136, 1.0641614699832296]}, {"species": [{"element": "Ca", "occu": 1}], "abc": [0.7276237600000001, 0.26457869, 0.77153737], "properties": {"magmom": 0.0}, "label": "Ca", "xyz": [5.55790188131702, 2.1391212591885713, 4.36486570274735]}, {"species": [{"element": "Ca", "occu": 1}], "abc": [0.95608739, 0.72846263, 0.99304232], "properties": {"magmom": 0.0}, "label": "Ca", "xyz": [5.525428680949611, 5.889627385929753, 4.272998493502849]}, {"species": [{"element": "Ca", "occu": 1}], "abc": [0.50695768, 0.23542131, 0.96304607], "properties": {"magmom": 0.0}, "label": "Ca", "xyz": [3.6339185155101497, 1.9033835608114282, 7.085788901023797]}, {"species": [{"element": "Ca", "occu": 1}], "abc": [0.26457869, 0.77153737, 0.7276237600000001], "properties": {"magmom": 0.0}, "label": "Ca", "xyz": [-1.1314016707982346, 6.237887074070246, 3.7850846682596777]}, {"species": [{"element": "Ca", "occu": 1}], "abc": [0.99304232, 0.95608739, 0.72846263], "properties": {"magmom": 0.0}, "label": "Ca", "xyz": [4.807905496218971, 7.729975764832439, 0.7798152554901252]}, {"species": [{"element": "Ca", "occu": 1}], "abc": [0.53695393, 0.77237624, 0.54391261], "properties": {"magmom": 0.0}, "label": "Ca", "xyz": [1.4075137330530252, 6.244669346106953, 1.0641680713652901]}, {"species": [{"element": "N", "occu": 1}], "abc": [0.25, 0.71035616, 0.46035616], "properties": {"magmom": 0.0}, "label": "N", "xyz": [-0.9819181687594174, 5.743236401433382, 1.3886413808344904]}, {"species": [{"element": "N", "occu": 1}], "abc": [0.03964384, 0.75, 0.78964384], "properties": {"magmom": 0.0}, "label": "N", "xyz": [-3.130806582955552, 6.063757229999999, 5.21274067916551]}, {"species": [{"element": "N", "occu": 1}], "abc": [0.78964384, 0.03964384, 0.75], "properties": {"magmom": 0.0}, "label": "N", "xyz": [7.186876285803866, 0.32052082856661757, 4.689332410834489]}, {"species": [{"element": "N", "occu": 1}], "abc": [0.46035616, 0.25, 0.71035616], "properties": {"magmom": 0.0}, "label": "N", "xyz": [3.1308060729555525, 2.0212524099999998, 4.68933241083449]}, {"species": [{"element": "N", "occu": 1}], "abc": [0.71035616, 0.46035616, 0.25], "properties": {"magmom": 0.0}, "label": "N", "xyz": [4.482829334196135, 3.7219839914333823, -1.3886413808344895]}, {"species": [{"element": "N", "occu": 1}], "abc": [0.75, 0.78964384, 0.03964384], "properties": {"magmom": 0.0}, "label": "N", "xyz": [3.3158585787594186, 6.384278058566617, -4.689332410834489]}, {"species": [{"element": "N", "occu": 1}], "abc": [0.75, 0.28964384, 0.53964384], "properties": {"magmom": 0.0}, "label": "N", "xyz": [5.649800008759419, 2.341773238566617, 1.91204964916551]}, {"species": [{"element": "N", "occu": 1}], "abc": [0.96035616, 0.25, 0.21035616000000001], "properties": {"magmom": 0.0}, "label": "N", "xyz": [7.7986884229555535, 2.0212524099999998, -1.91204964916551]}, {"species": [{"element": "N", "occu": 1}], "abc": [0.21035616000000001, 0.96035616, 0.25], "properties": {"magmom": 0.0}, "label": "N", "xyz": [-2.518994445803865, 7.764488811433382, -1.3886413808344895]}, {"species": [{"element": "N", "occu": 1}], "abc": [0.53964384, 0.75, 0.28964384], "properties": {"magmom": 0.0}, "label": "N", "xyz": [1.5370757670444481, 6.063757229999999, -1.388641380834489]}, {"species": [{"element": "N", "occu": 1}], "abc": [0.28964384, 0.53964384, 0.75], "properties": {"magmom": 0.0}, "label": "N", "xyz": [0.18505250580386567, 4.363025648566617, 4.689332410834489]}, {"species": [{"element": "N", "occu": 1}], "abc": [0.25, 0.21035616000000001, 0.96035616], "properties": {"magmom": 0.0}, "label": "N", "xyz": [1.3520232612405825, 1.7007315814333823, 7.99002344083449]}, {"species": [{"element": "N", "occu": 1}], "abc": [0.0, 0.5, -0.0], "properties": {"magmom": 0.0}, "label": "N", "xyz": [-2.33394143, 4.0425048199999996, -1.650345515]}, {"species": [{"element": "N", "occu": 1}], "abc": [0.5, -0.0, -0.0], "properties": {"magmom": 0.0}, "label": "N", "xyz": [4.66788235, 0.0, -1.650345515]}, {"species": [{"element": "N", "occu": 1}], "abc": [0.0, -0.0, 0.5], "properties": {"magmom": 0.0}, "label": "N", "xyz": [0.0, 0.0, 4.951036545]}, {"species": [{"element": "N", "occu": 1}], "abc": [0.5, 0.5, 0.5], "properties": {"magmom": 0.0}, "label": "N", "xyz": [2.3339409200000003, 4.0425048199999996, 1.6503455150000002]}]}, "task_ids": null, "uncorrected_energy_per_atom": null, "energy_per_atom": -8.834197172749999, "formation_energy_per_atom": -0.9597206842499991, "energy_above_hull": 0.0, "is_stable": true, "equilibrium_reaction_energy_per_atom": null, "decomposes_to": null, "xas": null, "grain_boundaries": null, "band_gap": 1.3497, "cbm": null, "vbm": null, "efermi": 2.54198068, "is_gap_direct": null, "is_metal": null, "es_source_calc_id": null, "bandstructure": null, "dos": null, "dos_energy_up": null, "dos_energy_down": null, "is_magnetic": null, "ordering": null, "total_magnetization": 0.0, "total_magnetization_normalized_vol": null, "total_magnetization_normalized_formula_units": null, "num_magnetic_sites": null, "num_unique_magnetic_sites": null, "types_of_magnetic_species": null, "bulk_modulus": null, "shear_modulus": null, "universal_anisotropy": null, "homogeneous_poisson": null, "e_total": null, "e_ionic": null, "e_electronic": null, "n": null, "e_ij_max": null, "weighted_surface_energy_EV_PER_ANG2": null, "weighted_surface_energy": null, "weighted_work_function": null, "surface_anisotropy": null, "shape_factor": null, "has_reconstructed": null, "possible_species": null, "has_props": null, "theoretical": null, "database_IDs": null, "fields_not_requested": ["builder_meta", "nsites", "elements", "nelements", "composition", "composition_reduced", "chemsys", "symmetry", "property_name", "deprecated", "deprecation_reasons", "last_updated", "origins", "warnings", "task_ids", "uncorrected_energy_per_atom", "equilibrium_reaction_energy_per_atom", "decomposes_to", "xas", "grain_boundaries", "cbm", "vbm", "is_gap_direct", "is_metal", "es_source_calc_id", "bandstructure", "dos", "dos_energy_up", "dos_energy_down", "is_magnetic", "ordering", "total_magnetization_normalized_vol", "total_magnetization_normalized_formula_units", "num_magnetic_sites", "num_unique_magnetic_sites", "types_of_magnetic_species", "bulk_modulus", "shear_modulus", "universal_anisotropy", "homogeneous_poisson", "e_total", "e_ionic", "e_electronic", "n", "e_ij_max", "weighted_surface_energy_EV_PER_ANG2", "weighted_surface_energy", "weighted_work_function", "surface_anisotropy", "shape_factor", "has_reconstructed", "possible_species", "has_props", "theoretical", "database_IDs"]}