{
  "builder_meta": null,
  "nsites": null,
  "elements": null,
  "nelements": null,
  "composition": null,
  "composition_reduced": null,
  "formula_pretty": "Ca3Pd2",
  "formula_anonymous": "A2B3",
  "chemsys": null,
  "volume": 390.204231630155,
  "density": 4.252253134914384,
  "density_atomic": 26.013615442010334,
  "symmetry": null,
  "property_name": null,
  "material_id": "mp-1104661",
  "deprecated": null,
  "deprecation_reasons": null,
  "last_updated": null,
  "origins": null,
  "warnings": null,
  "structure": {
    "@module": "pymatgen.core.structure",
    "@class": "Structure",
    "charge": 0,
    "lattice": {
      "matrix": [
        [4.47011902, 2.58085875, 5.63715768],
        [-4.47014939, 2.58081336, 5.63716078],
        [2.5190000000000004e-5, -5.16166384, 5.6371556]
      ],
      "pbc": [true, true, true],
      "a": 7.643320132612548,
      "b": 7.643324854253028,
      "c": 7.643317136977206,
      "alpha": 71.58364801310103,
      "beta": 71.5836636802429,
      "gamma": 71.58362421265342,
      "volume": 390.20423163015505
    },
    "properties": {},
    "sites": [
      {
        "species": [{ "element": "Ca", "occu": 1 }],
        "abc": [-0.0, 0.0, -0.0],
        "properties": { "magmom": 0.0 },
        "label": "Ca",
        "xyz": [0.0, 0.0, 0.0]
      },
      {
        "species": [{ "element": "Ca", "occu": 1 }],
        "abc": [0.79610628, 0.79610728, 0.79610628],
        "properties": { "magmom": -0.0 },
        "label": "Ca",
        "xyz": [-8.593979919121626e-6, 9.164612295720076e-6, 13.463336340383876]
      },
      {
        "species": [{ "element": "Ca", "occu": 1 }],
        "abc": [0.20389372, 0.20389272, 0.20389372],
        "properties": { "magmom": -0.0 },
        "label": "Ca",
        "xyz": [
          3.4139799206186473e-6, -8.946122955766356e-7, 3.4481377196161236
        ]
      },
      {
        "species": [{ "element": "Ca", "occu": 1 }],
        "abc": [0.60514844, 0.33168759000000003, 0.84344006],
        "properties": { "magmom": 0.0 },
        "label": "Ca",
        "xyz": [1.2224137197133704, -1.9357276488683786, 10.035696307140075]
      },
      {
        "species": [{ "element": "Ca", "occu": 1 }],
        "abc": [0.33168759000000003, 0.84344006, 0.60514844],
        "properties": { "magmom": 0.0 },
        "label": "Ca",
        "xyz": [-2.2876048212643973, -0.09077262645529549, 10.035698389219302]
      },
      {
        "species": [{ "element": "Ca", "occu": 1 }],
        "abc": [0.84344006, 0.60514844, 0.33168759000000003],
        "properties": { "magmom": 0.0 },
        "label": "Ca",
        "xyz": [1.0651818797208819, 2.0265149982069377, 10.035698219313849]
      },
      {
        "species": [{ "element": "Ca", "occu": 1 }],
        "abc": [0.39485056, 0.66831241, 0.15655994],
        "properties": { "magmom": 0.0 },
        "label": "Ca",
        "xyz": [-1.2224233698323894, 1.9357333380096282, 6.875772115702245]
      },
      {
        "species": [{ "element": "Ca", "occu": 1 }],
        "abc": [0.66831241, 0.15655994, 0.39485056],
        "properties": { "magmom": 0.0 },
        "label": "Ca",
        "xyz": [2.2875996412392077, 0.09078605811913532, 6.875770033625098]
      },
      {
        "species": [{ "element": "Ca", "occu": 1 }],
        "abc": [0.15655994, 0.39485056, 0.66831241],
        "properties": { "magmom": 0.0 },
        "label": "Ca",
        "xyz": [-1.0651825895714915, -2.0265093090202977, 6.875770203525372]
      },
      {
        "species": [{ "element": "Pd", "occu": 1 }],
        "abc": [0.95663274, 0.15377813, 0.5869276800000001],
        "properties": { "magmom": 0.0 },
        "label": "Pd",
        "xyz": [3.5888657769221335, -0.16371675260579943, 9.568164298595192]
      },
      {
        "species": [{ "element": "Pd", "occu": 1 }],
        "abc": [0.15377513, 0.58692668, 0.95663374],
        "properties": { "magmom": 0.0 },
        "label": "Pd",
        "xyz": [-1.9362327095568421, -3.026201677004629, 9.568147960894052]
      },
      {
        "species": [{ "element": "Pd", "occu": 1 }],
        "abc": [0.5869276800000001, 0.95663274, 0.15377613],
        "properties": { "magmom": 0.0 },
        "label": "Pd",
        "xyz": [-1.6526507998118392, 3.189927304874467, 9.568156414084347]
      },
      {
        "species": [{ "element": "Pd", "occu": 1 }],
        "abc": [0.04336726, 0.84622187, 0.41307232],
        "properties": { "magmom": 0.0 },
        "label": "Pd",
        "xyz": [-3.588870956922133, 0.1637250226057998, 7.343309761404807]
      },
      {
        "species": [{ "element": "Pd", "occu": 1 }],
        "abc": [0.84622487, 0.41307332, 0.043366260000000004],
        "properties": { "magmom": 0.0 },
        "label": "Pd",
        "xyz": [1.9362275295568423, 3.026209947004629, 7.343326099105946]
      },
      {
        "species": [{ "element": "Pd", "occu": 1 }],
        "abc": [0.41307232, 0.04336726, 0.84622387],
        "properties": { "magmom": 0.0 },
        "label": "Pd",
        "xyz": [1.6526456198118404, -3.1899190348744675, 7.343317645915652]
      }
    ]
  },
  "task_ids": null,
  "uncorrected_energy_per_atom": null,
  "energy_per_atom": -14.022107466666666,
  "formation_energy_per_atom": -0.6149498026666661,
  "energy_above_hull": 0.0,
  "is_stable": true,
  "equilibrium_reaction_energy_per_atom": null,
  "decomposes_to": null,
  "xas": null,
  "grain_boundaries": null,
  "band_gap": 0.0,
  "cbm": null,
  "vbm": null,
  "efermi": 3.13362552,
  "is_gap_direct": null,
  "is_metal": null,
  "es_source_calc_id": null,
  "bandstructure": null,
  "dos": null,
  "dos_energy_up": null,
  "dos_energy_down": null,
  "is_magnetic": null,
  "ordering": null,
  "total_magnetization": 0.0014785,
  "total_magnetization_normalized_vol": null,
  "total_magnetization_normalized_formula_units": null,
  "num_magnetic_sites": null,
  "num_unique_magnetic_sites": null,
  "types_of_magnetic_species": null,
  "bulk_modulus": null,
  "shear_modulus": null,
  "universal_anisotropy": null,
  "homogeneous_poisson": null,
  "e_total": null,
  "e_ionic": null,
  "e_electronic": null,
  "n": null,
  "e_ij_max": null,
  "weighted_surface_energy_EV_PER_ANG2": null,
  "weighted_surface_energy": null,
  "weighted_work_function": null,
  "surface_anisotropy": null,
  "shape_factor": null,
  "has_reconstructed": null,
  "possible_species": null,
  "has_props": null,
  "theoretical": null,
  "database_IDs": null,
  "fields_not_requested": [
    "builder_meta",
    "nsites",
    "elements",
    "nelements",
    "composition",
    "composition_reduced",
    "chemsys",
    "symmetry",
    "property_name",
    "deprecated",
    "deprecation_reasons",
    "last_updated",
    "origins",
    "warnings",
    "task_ids",
    "uncorrected_energy_per_atom",
    "equilibrium_reaction_energy_per_atom",
    "decomposes_to",
    "xas",
    "grain_boundaries",
    "cbm",
    "vbm",
    "is_gap_direct",
    "is_metal",
    "es_source_calc_id",
    "bandstructure",
    "dos",
    "dos_energy_up",
    "dos_energy_down",
    "is_magnetic",
    "ordering",
    "total_magnetization_normalized_vol",
    "total_magnetization_normalized_formula_units",
    "num_magnetic_sites",
    "num_unique_magnetic_sites",
    "types_of_magnetic_species",
    "bulk_modulus",
    "shear_modulus",
    "universal_anisotropy",
    "homogeneous_poisson",
    "e_total",
    "e_ionic",
    "e_electronic",
    "n",
    "e_ij_max",
    "weighted_surface_energy_EV_PER_ANG2",
    "weighted_surface_energy",
    "weighted_work_function",
    "surface_anisotropy",
    "shape_factor",
    "has_reconstructed",
    "possible_species",
    "has_props",
    "theoretical",
    "database_IDs"
  ]
}
