{
  "builder_meta": null,
  "nsites": null,
  "elements": null,
  "nelements": null,
  "composition": null,
  "composition_reduced": null,
  "formula_pretty": "Ca3Pd",
  "formula_anonymous": "AB3",
  "chemsys": null,
  "volume": 504.12330020228063,
  "density": 2.986315621199321,
  "density_atomic": 31.50770626264254,
  "symmetry": null,
  "property_name": null,
  "material_id": "mp-1106061",
  "deprecated": null,
  "deprecation_reasons": null,
  "last_updated": null,
  "origins": null,
  "warnings": null,
  "structure": {
    "@module": "pymatgen.core.structure",
    "@class": "Structure",
    "charge": 0,
    "lattice": {
      "matrix": [
        [-0.0, 0.0, 6.65389273],
        [7.79624976, 0.0, 0.0],
        [0.0, 9.71796279, 0.0]
      ],
      "pbc": [true, true, true],
      "a": 6.65389273,
      "b": 7.79624976,
      "c": 9.71796279,
      "alpha": 90.0,
      "beta": 90.0,
      "gamma": 90.0,
      "volume": 504.12330020228063
    },
    "properties": {},
    "sites": [
      {
        "species": [{ "element": "Ca", "occu": 1 }],
        "abc": [0.33596753, 0.66962531, 0.06631708],
        "properties": { "magmom": 0.0 },
        "label": "Ca",
        "xyz": [5.220566162377426, 0.6444669157814532, 2.235491905383057]
      },
      {
        "species": [{ "element": "Ca", "occu": 1 }],
        "abc": [0.16403247, 0.16962531, 0.43368292],
        "properties": { "magmom": 0.0 },
        "label": "Ca",
        "xyz": [1.3224412823774256, 4.214514479218547, 1.091454459616943]
      },
      {
        "species": [{ "element": "Ca", "occu": 1 }],
        "abc": [0.66403247, 0.33037469, 0.56631708],
        "properties": { "magmom": 0.0 },
        "label": "Ca",
        "xyz": [2.5756835976225747, 5.503448310781454, 4.418400824616943]
      },
      {
        "species": [{ "element": "Ca", "occu": 1 }],
        "abc": [0.83596753, 0.83037469, 0.93368292],
        "properties": { "magmom": 0.0 },
        "label": "Ca",
        "xyz": [6.473808477622574, 9.073495874218546, 5.562438270383057]
      },
      {
        "species": [{ "element": "Ca", "occu": 1 }],
        "abc": [0.66403247, 0.33037469, 0.93368292],
        "properties": { "magmom": 0.0 },
        "label": "Ca",
        "xyz": [2.5756835976225747, 9.073495874218546, 4.418400824616943]
      },
      {
        "species": [{ "element": "Ca", "occu": 1 }],
        "abc": [0.83596753, 0.83037469, 0.56631708],
        "properties": { "magmom": 0.0 },
        "label": "Ca",
        "xyz": [6.473808477622574, 5.503448310781454, 5.562438270383057]
      },
      {
        "species": [{ "element": "Ca", "occu": 1 }],
        "abc": [0.33596753, 0.66962531, 0.43368292],
        "properties": { "magmom": 0.0 },
        "label": "Ca",
        "xyz": [5.220566162377426, 4.214514479218547, 2.235491905383057]
      },
      {
        "species": [{ "element": "Ca", "occu": 1 }],
        "abc": [0.16403247, 0.16962531, 0.06631708],
        "properties": { "magmom": 0.0 },
        "label": "Ca",
        "xyz": [1.3224412823774256, 0.6444669157814532, 1.091454459616943]
      },
      {
        "species": [{ "element": "Ca", "occu": 1 }],
        "abc": [0.8580213600000001, 0.54159061, 0.25],
        "properties": { "magmom": 0.0 },
        "label": "Ca",
        "xyz": [4.222375663230753, 2.4294906975, 5.7091820894887135]
      },
      {
        "species": [{ "element": "Ca", "occu": 1 }],
        "abc": [0.64197864, 0.04159061, 0.25],
        "properties": { "magmom": 0.0 },
        "label": "Ca",
        "xyz": [0.3242507832307536, 2.4294906975, 4.271657005511288]
      },
      {
        "species": [{ "element": "Ca", "occu": 1 }],
        "abc": [0.14197864, 0.45840939, 0.75],
        "properties": { "magmom": 0.0 },
        "label": "Ca",
        "xyz": [3.573874096769247, 7.288472092499999, 0.9447106405112872]
      },
      {
        "species": [{ "element": "Ca", "occu": 1 }],
        "abc": [0.35802136, 0.95840939, 0.75],
        "properties": { "magmom": 0.0 },
        "label": "Ca",
        "xyz": [7.471998976769247, 7.288472092499999, 2.3822357244887127]
      },
      {
        "species": [{ "element": "Pd", "occu": 1 }],
        "abc": [0.04648791, 0.87731608, 0.25],
        "properties": { "magmom": -0.0 },
        "label": "Pd",
        "xyz": [6.839775278144142, 2.4294906975, 0.3093255663818943]
      },
      {
        "species": [{ "element": "Pd", "occu": 1 }],
        "abc": [0.45351209000000003, 0.37731608, 0.25],
        "properties": { "magmom": -0.0 },
        "label": "Pd",
        "xyz": [2.941650398144141, 2.4294906975, 3.017620798618106]
      },
      {
        "species": [{ "element": "Pd", "occu": 1 }],
        "abc": [0.95351209, 0.12268392, 0.75],
        "properties": { "magmom": -0.0 },
        "label": "Pd",
        "xyz": [0.9564744818558593, 7.288472092499999, 6.344567163618106]
      },
      {
        "species": [{ "element": "Pd", "occu": 1 }],
        "abc": [0.54648791, 0.6226839200000001, 0.75],
        "properties": { "magmom": -0.0 },
        "label": "Pd",
        "xyz": [4.854599361855859, 7.288472092499999, 3.636271931381894]
      }
    ]
  },
  "task_ids": null,
  "uncorrected_energy_per_atom": null,
  "energy_per_atom": -11.434110075,
  "formation_energy_per_atom": -0.415276397499999,
  "energy_above_hull": 0.002753991249999,
  "is_stable": false,
  "equilibrium_reaction_energy_per_atom": null,
  "decomposes_to": null,
  "xas": null,
  "grain_boundaries": null,
  "band_gap": 0.0,
  "cbm": null,
  "vbm": null,
  "efermi": 2.78931881,
  "is_gap_direct": null,
  "is_metal": null,
  "es_source_calc_id": null,
  "bandstructure": null,
  "dos": null,
  "dos_energy_up": null,
  "dos_energy_down": null,
  "is_magnetic": null,
  "ordering": null,
  "total_magnetization": 5.299999999999997e-6,
  "total_magnetization_normalized_vol": null,
  "total_magnetization_normalized_formula_units": null,
  "num_magnetic_sites": null,
  "num_unique_magnetic_sites": null,
  "types_of_magnetic_species": null,
  "bulk_modulus": null,
  "shear_modulus": null,
  "universal_anisotropy": null,
  "homogeneous_poisson": null,
  "e_total": null,
  "e_ionic": null,
  "e_electronic": null,
  "n": null,
  "e_ij_max": null,
  "weighted_surface_energy_EV_PER_ANG2": null,
  "weighted_surface_energy": null,
  "weighted_work_function": null,
  "surface_anisotropy": null,
  "shape_factor": null,
  "has_reconstructed": null,
  "possible_species": null,
  "has_props": null,
  "theoretical": null,
  "database_IDs": null,
  "fields_not_requested": [
    "builder_meta",
    "nsites",
    "elements",
    "nelements",
    "composition",
    "composition_reduced",
    "chemsys",
    "symmetry",
    "property_name",
    "deprecated",
    "deprecation_reasons",
    "last_updated",
    "origins",
    "warnings",
    "task_ids",
    "uncorrected_energy_per_atom",
    "equilibrium_reaction_energy_per_atom",
    "decomposes_to",
    "xas",
    "grain_boundaries",
    "cbm",
    "vbm",
    "is_gap_direct",
    "is_metal",
    "es_source_calc_id",
    "bandstructure",
    "dos",
    "dos_energy_up",
    "dos_energy_down",
    "is_magnetic",
    "ordering",
    "total_magnetization_normalized_vol",
    "total_magnetization_normalized_formula_units",
    "num_magnetic_sites",
    "num_unique_magnetic_sites",
    "types_of_magnetic_species",
    "bulk_modulus",
    "shear_modulus",
    "universal_anisotropy",
    "homogeneous_poisson",
    "e_total",
    "e_ionic",
    "e_electronic",
    "n",
    "e_ij_max",
    "weighted_surface_energy_EV_PER_ANG2",
    "weighted_surface_energy",
    "weighted_work_function",
    "surface_anisotropy",
    "shape_factor",
    "has_reconstructed",
    "possible_species",
    "has_props",
    "theoretical",
    "database_IDs"
  ]
}
