{"builder_meta": null, "nsites": null, "elements": null, "nelements": null, "composition": null, "composition_reduced": null, "formula_pretty": "Ca3Pt2", "formula_anonymous": "A2B3", "chemsys": null, "volume": 376.9363803275804, "density": 6.745508034545837, "density_atomic": 25.129092021838694, "symmetry": null, "property_name": null, "material_id": "mp-984698", "deprecated": null, "deprecation_reasons": null, "last_updated": null, "origins": null, "warnings": null, "structure": {"@module": "pymatgen.core.structure", "@class": "Structure", "charge": 0, "lattice": {"matrix": [[-4.39786743, 2.53905556, 5.62597365], [-4.729e-05, 5.07819365, -5.62597365], [-4.39782116, -2.53913809, -5.62597365]], "pbc": [true, true, true], "a": 7.578893097221786, "b": 7.578893735871416, "c": 7.5788938972601345, "alpha": 70.93981588395795, "beta": 109.06019126636566, "gamma": 109.06018953558369, "volume": 376.9363803275804}, "properties": {}, "sites": [{"species": [{"element": "Ca", "occu": 1}], "abc": [0.0, -0.0, 0.0], "properties": {"magmom": -0.0}, "label": "Ca", "xyz": [0.0, 0.0, 0.0]}, {"species": [{"element": "Ca", "occu": 1}], "abc": [0.60248405, 0.66736585, 0.15247352], "properties": {"magmom": 0.0}, "label": "Ca", "xyz": [-3.3202278129162215, 4.531602176312294, -1.2228353030073182]}, {"species": [{"element": "Ca", "occu": 1}], "abc": [0.7995553400000001, 0.20044566, 0.20044466], "properties": {"magmom": -0.0}, "label": "Ca", "xyz": [-4.397867634500844, 2.5390606381936505, 2.2428788976967233]}, {"species": [{"element": "Ca", "occu": 1}], "abc": [0.15247352, 0.60248505, 0.33263315], "properties": {"magmom": 0.0}, "label": "Ca", "xyz": [-2.1334479246509224, 2.6020729926770203, -4.403138346992681]}, {"species": [{"element": "Ca", "occu": 1}], "abc": [0.33263315, 0.15247352, 0.39751595], "properties": {"magmom": 0.0}, "label": "Ca", "xyz": [-3.211087763343567, 0.6095162199774264, -1.2228409289809679]}, {"species": [{"element": "Ca", "occu": 1}], "abc": [0.6673668500000001, 0.84752648, 0.60248605], "properties": {"magmom": 0.0}, "label": "Ca", "xyz": [-5.584656912298753, 4.468589821746393, -4.403143972966331]}, {"species": [{"element": "Ca", "occu": 1}], "abc": [0.84752648, 0.39751595, 0.66736585], "properties": {"magmom": 0.0}, "label": "Ca", "xyz": [-6.662283557575208, 2.47604574465472, -1.2228353030073187]}, {"species": [{"element": "Ca", "occu": 1}], "abc": [0.20044466, 0.7995553400000001, 0.7995553400000001], "properties": {"magmom": -0.0}, "label": "Ca", "xyz": [-4.397868245546447, 2.53905556, -7.8688581736703735]}, {"species": [{"element": "Ca", "occu": 1}], "abc": [0.39751495000000003, 0.33263315, 0.84752648], "properties": {"magmom": 0.0}, "label": "Ca", "xyz": [-5.475503669169059, 0.5465013264384968, -4.403138346992681]}, {"species": [{"element": "Pt", "occu": 1}], "abc": [0.15882547, 0.41362044000000003, 0.04576555], "properties": {"magmom": 0.0}, "label": "Pt", "xyz": [-0.8997816258670877, 2.3875063333765203, -1.690945565750298]}, {"species": [{"element": "Pt", "occu": 1}], "abc": [0.41361944, 0.95423545, 0.15882447], "properties": {"magmom": 0.0}, "label": "Pt", "xyz": [-2.517570204277055, 5.492717880249916, -3.9350337102233515]}, {"species": [{"element": "Pt", "occu": 1}], "abc": [0.95423545, 0.84117553, 0.41362044000000003], "properties": {"magmom": 0.0}, "label": "Pt", "xyz": [-6.015669508537717, 5.6442696458464265, -1.6909455657502979]}, {"species": [{"element": "Pt", "occu": 1}], "abc": [0.04576555, 0.15882447, 0.58638056], "properties": {"magmom": 0.0}, "label": "Pt", "xyz": [-2.7800751671508728, -0.5661585259289569, -3.9350280842497023]}, {"species": [{"element": "Pt", "occu": 1}], "abc": [0.58638056, 0.04576555, 0.84117553], "properties": {"magmom": 0.0}, "label": "Pt", "xyz": [-6.278165675770236, -0.41460168205626613, -1.6909455657502974]}, {"species": [{"element": "Pt", "occu": 1}], "abc": [0.84117653, 0.58638056, 0.95423545], "properties": {"magmom": 0.0}, "label": "Pt", "xyz": [-7.895967447736223, 2.690612403790161, -3.935028084249702]}]}, "task_ids": null, "uncorrected_energy_per_atom": null, "energy_per_atom": -25.728822881333333, "formation_energy_per_atom": -0.9107599013333351, "energy_above_hull": 0.0, "is_stable": true, "equilibrium_reaction_energy_per_atom": null, "decomposes_to": null, "xas": null, "grain_boundaries": null, "band_gap": 0.0, "cbm": null, "vbm": null, "efermi": 3.67778587, "is_gap_direct": null, "is_metal": null, "es_source_calc_id": null, "bandstructure": null, "dos": null, "dos_energy_up": null, "dos_energy_down": null, "is_magnetic": null, "ordering": null, "total_magnetization": 3.6e-06, "total_magnetization_normalized_vol": null, "total_magnetization_normalized_formula_units": null, "num_magnetic_sites": null, "num_unique_magnetic_sites": null, "types_of_magnetic_species": null, "bulk_modulus": null, "shear_modulus": null, "universal_anisotropy": null, "homogeneous_poisson": null, "e_total": null, "e_ionic": null, "e_electronic": null, "n": null, "e_ij_max": null, "weighted_surface_energy_EV_PER_ANG2": null, "weighted_surface_energy": null, "weighted_work_function": null, "surface_anisotropy": null, "shape_factor": null, "has_reconstructed": null, "possible_species": null, "has_props": null, "theoretical": null, "database_IDs": null, "fields_not_requested": ["builder_meta", "nsites", "elements", "nelements", "composition", "composition_reduced", "chemsys", "symmetry", "property_name", "deprecated", "deprecation_reasons", "last_updated", "origins", "warnings", "task_ids", "uncorrected_energy_per_atom", "equilibrium_reaction_energy_per_atom", "decomposes_to", "xas", "grain_boundaries", "cbm", "vbm", "is_gap_direct", "is_metal", "es_source_calc_id", "bandstructure", "dos", "dos_energy_up", "dos_energy_down", "is_magnetic", "ordering", "total_magnetization_normalized_vol", "total_magnetization_normalized_formula_units", "num_magnetic_sites", "num_unique_magnetic_sites", "types_of_magnetic_species", "bulk_modulus", "shear_modulus", "universal_anisotropy", "homogeneous_poisson", "e_total", "e_ionic", "e_electronic", "n", "e_ij_max", "weighted_surface_energy_EV_PER_ANG2", "weighted_surface_energy", "weighted_work_function", "surface_anisotropy", "shape_factor", "has_reconstructed", "possible_species", "has_props", "theoretical", "database_IDs"]}