{"builder_meta": null, "nsites": null, "elements": null, "nelements": null, "composition": null, "composition_reduced": null, "formula_pretty": "Ca3Si4", "formula_anonymous": "A3B4", "chemsys": null, "volume": 940.5229473276936, "density": 2.4637455261514383, "density_atomic": 22.39340350780223, "symmetry": null, "property_name": null, "material_id": "mp-1214046", "deprecated": null, "deprecation_reasons": null, "last_updated": null, "origins": null, "warnings": null, "structure": {"@module": "pymatgen.core.structure", "@class": "Structure", "charge": 0, "lattice": {"matrix": [[4.26797068, -7.39234181, -0.0], [4.26797145, 7.3923413700000005, 0.0], [-0.0, 0.0, 14.90513477]], "pbc": [true, true, true], "a": 8.535941140917839, "b": 8.53594114486672, "c": 14.90513477, "alpha": 90.0, "beta": 90.0, "gamma": 119.99999234922993, "volume": 940.5229473276936}, "properties": {}, "sites": [{"species": [{"element": "Ca", "occu": 1}], "abc": [-0.0, -0.0, -0.0], "properties": {"magmom": -0.0}, "label": "Ca", "xyz": [0.0, 0.0, 0.0]}, {"species": [{"element": "Ca", "occu": 1}], "abc": [-0.0, -0.0, 0.5], "properties": {"magmom": -0.0}, "label": "Ca", "xyz": [0.0, 0.0, 7.452567385]}, {"species": [{"element": "Ca", "occu": 1}], "abc": [0.666667, 0.333333, 0.75], "properties": {"magmom": -0.0}, "label": "Ca", "xyz": [4.26797093666641, -2.4641190115610594, 11.1788510775]}, {"species": [{"element": "Ca", "occu": 1}], "abc": [0.333333, 0.666667, 0.25], "properties": {"magmom": -0.0}, "label": "Ca", "xyz": [4.26797119333359, 2.4641185715610603, 3.7262836925]}, {"species": [{"element": "Ca", "occu": 1}], "abc": [0.57856263, 0.9063634500000001, 0.902571399999999], "properties": {"magmom": -0.0}, "label": "Ca", "xyz": [6.337621669307191, 2.423215308238367, 13.452948356547564]}, {"species": [{"element": "Ca", "occu": 1}], "abc": [0.42143737000000003, 0.09363655, 0.097428599999999], "properties": {"magmom": -0.0}, "label": "Ca", "xyz": [2.1983204606928095, -2.4232157482383663, 1.4521864134524072]}, {"species": [{"element": "Ca", "occu": 1}], "abc": [0.32780182, 0.42143737000000003, 0.902571399999999], "properties": {"magmom": -0.0}, "label": "Ca", "xyz": [3.1977312197337247, 0.6921858057349031, 13.452948356547564]}, {"species": [{"element": "Ca", "occu": 1}], "abc": [0.42143737000000003, 0.09363655, 0.402571399999999], "properties": {"magmom": -0.0}, "label": "Ca", "xyz": [2.1983204606928095, -2.4232157482383663, 6.000380971547563]}, {"species": [{"element": "Ca", "occu": 1}], "abc": [0.67219818, 0.57856263, 0.097428599999999], "properties": {"magmom": -0.0}, "label": "Ca", "xyz": [5.338210910266277, -0.6921862457349022, 1.4521864134524072]}, {"species": [{"element": "Ca", "occu": 1}], "abc": [0.57856263, 0.9063634500000001, 0.5974286], "properties": {"magmom": -0.0}, "label": "Ca", "xyz": [6.337621669307191, 2.423215308238367, 8.904753798452422]}, {"species": [{"element": "Ca", "occu": 1}], "abc": [0.09363655, 0.67219818, 0.902571399999999], "properties": {"magmom": -0.0}, "label": "Ca", "xyz": [3.268560690958315, 4.276925031343551, 13.452948356547564]}, {"species": [{"element": "Ca", "occu": 1}], "abc": [0.67219818, 0.57856263, 0.402571399999999], "properties": {"magmom": -0.0}, "label": "Ca", "xyz": [5.338210910266277, -0.6921862457349022, 6.000380971547563]}, {"species": [{"element": "Ca", "occu": 1}], "abc": [0.9063634500000001, 0.32780182, 0.097428599999999], "properties": {"magmom": -0.0}, "label": "Ca", "xyz": [5.267381439041686, -4.276925471343551, 1.4521864134524072]}, {"species": [{"element": "Ca", "occu": 1}], "abc": [0.32780182, 0.42143737000000003, 0.5974286], "properties": {"magmom": -0.0}, "label": "Ca", "xyz": [3.1977312197337247, 0.6921858057349031, 8.904753798452422]}, {"species": [{"element": "Ca", "occu": 1}], "abc": [0.9063634500000001, 0.32780182, 0.402571399999999], "properties": {"magmom": -0.0}, "label": "Ca", "xyz": [5.267381439041686, -4.276925471343551, 6.000380971547563]}, {"species": [{"element": "Ca", "occu": 1}], "abc": [0.09363655, 0.67219818, 0.5974286], "properties": {"magmom": -0.0}, "label": "Ca", "xyz": [3.268560690958315, 4.276925031343551, 8.904753798452422]}, {"species": [{"element": "Ca", "occu": 1}], "abc": [-0.0, -0.0, 0.75], "properties": {"magmom": -0.0}, "label": "Ca", "xyz": [0.0, 0.0, 11.1788510775]}, {"species": [{"element": "Ca", "occu": 1}], "abc": [-0.0, -0.0, 0.25], "properties": {"magmom": -0.0}, "label": "Ca", "xyz": [0.0, 0.0, 3.7262836925]}, {"species": [{"element": "Si", "occu": 1}], "abc": [0.6173341, 0.67348526, 0.75], "properties": {"magmom": 0.0}, "label": "Si", "xyz": [5.509179700240015, 0.41508827141448545, 11.1788510775]}, {"species": [{"element": "Si", "occu": 1}], "abc": [0.3826659, 0.32651474, 0.25], "properties": {"magmom": 0.0}, "label": "Si", "xyz": [3.0267624297599856, -0.415088711414485, 3.7262836925]}, {"species": [{"element": "Si", "occu": 1}], "abc": [0.056150160000000005, 0.3826659, 0.75], "properties": {"magmom": 0.0}, "label": "Si", "xyz": [1.872854372645864, 2.4137157880520936, 11.1788510775]}, {"species": [{"element": "Si", "occu": 1}], "abc": [0.94384984, 0.6173341, 0.25], "properties": {"magmom": 0.0}, "label": "Si", "xyz": [6.663087757354137, -2.4137162280520936, 3.7262836925]}, {"species": [{"element": "Si", "occu": 1}], "abc": [0.32651474, 0.94384984, 0.75], "properties": {"magmom": 0.0}, "label": "Si", "xyz": [5.421879507114892, 4.563551655216602, 11.1788510775]}, {"species": [{"element": "Si", "occu": 1}], "abc": [0.67348526, 0.056150160000000005, 0.25], "properties": {"magmom": 0.0}, "label": "Si", "xyz": [3.114062622885109, -4.563552095216601, 3.7262836925]}, {"species": [{"element": "Si", "occu": 1}], "abc": [0.333333, 0.666667, 0.75], "properties": {"magmom": -0.0}, "label": "Si", "xyz": [4.26797119333359, 2.4641185715610603, 11.1788510775]}, {"species": [{"element": "Si", "occu": 1}], "abc": [0.666667, 0.333333, 0.25], "properties": {"magmom": -0.0}, "label": "Si", "xyz": [4.26797093666641, -2.4641190115610594, 3.7262836925]}, {"species": [{"element": "Si", "occu": 1}], "abc": [0.666667, 0.333333, 0.94203663], "properties": {"magmom": -0.0}, "label": "Si", "xyz": [4.26797093666641, -2.4641190115610594, 14.041182928426625]}, {"species": [{"element": "Si", "occu": 1}], "abc": [0.333333, 0.666667, 0.05796337], "properties": {"magmom": -0.0}, "label": "Si", "xyz": [4.26797119333359, 2.4641185715610603, 0.8639518415733749]}, {"species": [{"element": "Si", "occu": 1}], "abc": [0.333333, 0.666667, 0.44203663], "properties": {"magmom": -0.0}, "label": "Si", "xyz": [4.26797119333359, 2.4641185715610603, 6.588615543426625]}, {"species": [{"element": "Si", "occu": 1}], "abc": [0.666667, 0.333333, 0.55796337], "properties": {"magmom": -0.0}, "label": "Si", "xyz": [4.26797093666641, -2.4641190115610594, 8.316519226573375]}, {"species": [{"element": "Si", "occu": 1}], "abc": [0.90891701, 0.26399941, 0.88932607], "properties": {"magmom": 0.0}, "label": "Si", "xyz": [5.005973093930112, -4.767451454644596, 13.255524927824453]}, {"species": [{"element": "Si", "occu": 1}], "abc": [0.09108299, 0.7360005900000001, 0.11067393], "properties": {"magmom": 0.0}, "label": "Si", "xyz": [3.529969036069889, 4.767451014644598, 1.649609842175546]}, {"species": [{"element": "Si", "occu": 1}], "abc": [0.355082399999999, 0.09108299, 0.88932607], "properties": {"magmom": 0.0}, "label": "Si", "xyz": [1.9042208730846633, -1.9515739164348402, 13.255524927824453]}, {"species": [{"element": "Si", "occu": 1}], "abc": [0.09108299, 0.7360005900000001, 0.38932607], "properties": {"magmom": 0.0}, "label": "Si", "xyz": [3.529969036069889, 4.767451014644598, 5.802957542824454]}, {"species": [{"element": "Si", "occu": 1}], "abc": [0.6449176, 0.90891701, 0.11067393], "properties": {"magmom": 0.0}, "label": "Si", "xyz": [6.631721256915333, 1.9515734764348487, 1.649609842175546]}, {"species": [{"element": "Si", "occu": 1}], "abc": [0.90891701, 0.26399941, 0.61067393], "properties": {"magmom": 0.0}, "label": "Si", "xyz": [5.005973093930112, -4.767451454644596, 9.102177227175547]}, {"species": [{"element": "Si", "occu": 1}], "abc": [0.7360005900000001, 0.6449176, 0.88932607], "properties": {"magmom": 0.0}, "label": "Si", "xyz": [5.893718842985222, -0.6733168789205557, 13.255524927824453]}, {"species": [{"element": "Si", "occu": 1}], "abc": [0.6449176, 0.90891701, 0.38932607], "properties": {"magmom": 0.0}, "label": "Si", "xyz": [6.631721256915333, 1.9515734764348487, 5.802957542824454]}, {"species": [{"element": "Si", "occu": 1}], "abc": [0.26399941, 0.355082399999999, 0.11067393], "properties": {"magmom": 0.0}, "label": "Si", "xyz": [2.642223287014775, 0.673316438920549, 1.649609842175546]}, {"species": [{"element": "Si", "occu": 1}], "abc": [0.355082399999999, 0.09108299, 0.61067393], "properties": {"magmom": 0.0}, "label": "Si", "xyz": [1.9042208730846633, -1.9515739164348402, 9.102177227175547]}, {"species": [{"element": "Si", "occu": 1}], "abc": [0.26399941, 0.355082399999999, 0.38932607], "properties": {"magmom": 0.0}, "label": "Si", "xyz": [2.642223287014775, 0.673316438920549, 5.802957542824454]}, {"species": [{"element": "Si", "occu": 1}], "abc": [0.7360005900000001, 0.6449176, 0.61067393], "properties": {"magmom": 0.0}, "label": "Si", "xyz": [5.893718842985222, -0.6733168789205557, 9.102177227175547]}]}, "task_ids": null, "uncorrected_energy_per_atom": null, "energy_per_atom": -8.554612408809524, "formation_energy_per_atom": -0.524621054523811, "energy_above_hull": 0.0018231876190490002, "is_stable": false, "equilibrium_reaction_energy_per_atom": null, "decomposes_to": null, "xas": null, "grain_boundaries": null, "band_gap": 0.4162, "cbm": null, "vbm": null, "efermi": 5.15950694, "is_gap_direct": null, "is_metal": null, "es_source_calc_id": null, "bandstructure": null, "dos": null, "dos_energy_up": null, "dos_energy_down": null, "is_magnetic": null, "ordering": null, "total_magnetization": 0.0, "total_magnetization_normalized_vol": null, "total_magnetization_normalized_formula_units": null, "num_magnetic_sites": null, "num_unique_magnetic_sites": null, "types_of_magnetic_species": null, "bulk_modulus": null, "shear_modulus": null, "universal_anisotropy": null, "homogeneous_poisson": null, "e_total": null, "e_ionic": null, "e_electronic": null, "n": null, "e_ij_max": null, "weighted_surface_energy_EV_PER_ANG2": null, "weighted_surface_energy": null, "weighted_work_function": null, "surface_anisotropy": null, "shape_factor": null, "has_reconstructed": null, "possible_species": null, "has_props": null, "theoretical": null, "database_IDs": null, "fields_not_requested": ["builder_meta", "nsites", "elements", "nelements", "composition", "composition_reduced", "chemsys", "symmetry", "property_name", "deprecated", "deprecation_reasons", "last_updated", "origins", "warnings", "task_ids", "uncorrected_energy_per_atom", "equilibrium_reaction_energy_per_atom", "decomposes_to", "xas", "grain_boundaries", "cbm", "vbm", "is_gap_direct", "is_metal", "es_source_calc_id", "bandstructure", "dos", "dos_energy_up", "dos_energy_down", "is_magnetic", "ordering", "total_magnetization_normalized_vol", "total_magnetization_normalized_formula_units", "num_magnetic_sites", "num_unique_magnetic_sites", "types_of_magnetic_species", "bulk_modulus", "shear_modulus", "universal_anisotropy", "homogeneous_poisson", "e_total", "e_ionic", "e_electronic", "n", "e_ij_max", "weighted_surface_energy_EV_PER_ANG2", "weighted_surface_energy", "weighted_work_function", "surface_anisotropy", "shape_factor", "has_reconstructed", "possible_species", "has_props", "theoretical", "database_IDs"]}