{
  "builder_meta": null,
  "nsites": null,
  "elements": null,
  "nelements": null,
  "composition": null,
  "composition_reduced": null,
  "formula_pretty": "Ca3Tb",
  "formula_anonymous": "AB3",
  "chemsys": null,
  "volume": 310.91732201786255,
  "density": 2.981853847660703,
  "density_atomic": 38.86466525223282,
  "symmetry": null,
  "property_name": null,
  "material_id": "mp-1183522",
  "deprecated": null,
  "deprecation_reasons": null,
  "last_updated": null,
  "origins": null,
  "warnings": null,
  "structure": {
    "@module": "pymatgen.core.structure",
    "@class": "Structure",
    "charge": 0,
    "lattice": {
      "matrix": [
        [3.78898, -6.562706, 0.0],
        [3.78898, 6.562706, 0.0],
        [0.0, 0.0, 6.251866]
      ],
      "pbc": [true, true, true],
      "a": 7.577960113568559,
      "b": 7.577960113568559,
      "c": 6.251866,
      "alpha": 90.0,
      "beta": 90.0,
      "gamma": 120.00000099151161,
      "volume": 310.91732201786255
    },
    "properties": {},
    "sites": [
      {
        "species": [{ "element": "Ca", "occu": 1 }],
        "abc": [0.170311, 0.340623, 0.25],
        "properties": { "magmom": 0.006 },
        "label": "Ca",
        "xyz": [1.93591870732, 1.1177075842720003, 1.5629665]
      },
      {
        "species": [{ "element": "Ca", "occu": 1 }],
        "abc": [0.659377, 0.829689, 0.25],
        "properties": { "magmom": 0.007 },
        "label": "Ca",
        "xyz": [5.64204129268, 1.117707584272, 1.5629665]
      },
      {
        "species": [{ "element": "Ca", "occu": 1 }],
        "abc": [0.170311, 0.829689, 0.25],
        "properties": { "magmom": 0.006 },
        "label": "Ca",
        "xyz": [3.78898, 4.3273039568680005, 1.5629665]
      },
      {
        "species": [{ "element": "Ca", "occu": 1 }],
        "abc": [0.829689, 0.659377, 0.75],
        "properties": { "magmom": 0.007 },
        "label": "Ca",
        "xyz": [5.64204129268, -1.117707584272, 4.6888995]
      },
      {
        "species": [{ "element": "Ca", "occu": 1 }],
        "abc": [0.340623, 0.170311, 0.75],
        "properties": { "magmom": 0.007 },
        "label": "Ca",
        "xyz": [1.93591870732, -1.1177075842720003, 4.6888995]
      },
      {
        "species": [{ "element": "Ca", "occu": 1 }],
        "abc": [0.829689, 0.170311, 0.75],
        "properties": { "magmom": 0.006 },
        "label": "Ca",
        "xyz": [3.78898, -4.3273039568680005, 4.6888995]
      },
      {
        "species": [{ "element": "Tb", "occu": 1 }],
        "abc": [0.333333, 0.666667, 0.75],
        "properties": { "magmom": 0.044 },
        "label": "Tb",
        "xyz": [3.7889799999999996, 2.1875730418040003, 4.6888995]
      },
      {
        "species": [{ "element": "Tb", "occu": 1 }],
        "abc": [0.666667, 0.333333, 0.25],
        "properties": { "magmom": 0.042 },
        "label": "Tb",
        "xyz": [3.7889799999999996, -2.1875730418040003, 1.5629665]
      }
    ]
  },
  "task_ids": null,
  "uncorrected_energy_per_atom": null,
  "energy_per_atom": -12.958864275,
  "formation_energy_per_atom": 0.126464537499998,
  "energy_above_hull": 0.126464537499998,
  "is_stable": false,
  "equilibrium_reaction_energy_per_atom": null,
  "decomposes_to": null,
  "xas": null,
  "grain_boundaries": null,
  "band_gap": 0.0,
  "cbm": null,
  "vbm": null,
  "efermi": 2.3201441,
  "is_gap_direct": null,
  "is_metal": null,
  "es_source_calc_id": null,
  "bandstructure": null,
  "dos": null,
  "dos_energy_up": null,
  "dos_energy_down": null,
  "is_magnetic": null,
  "ordering": null,
  "total_magnetization": 0.309589799999999,
  "total_magnetization_normalized_vol": null,
  "total_magnetization_normalized_formula_units": null,
  "num_magnetic_sites": null,
  "num_unique_magnetic_sites": null,
  "types_of_magnetic_species": null,
  "bulk_modulus": null,
  "shear_modulus": null,
  "universal_anisotropy": null,
  "homogeneous_poisson": null,
  "e_total": null,
  "e_ionic": null,
  "e_electronic": null,
  "n": null,
  "e_ij_max": null,
  "weighted_surface_energy_EV_PER_ANG2": null,
  "weighted_surface_energy": null,
  "weighted_work_function": null,
  "surface_anisotropy": null,
  "shape_factor": null,
  "has_reconstructed": null,
  "possible_species": null,
  "has_props": null,
  "theoretical": null,
  "database_IDs": null,
  "fields_not_requested": [
    "builder_meta",
    "nsites",
    "elements",
    "nelements",
    "composition",
    "composition_reduced",
    "chemsys",
    "symmetry",
    "property_name",
    "deprecated",
    "deprecation_reasons",
    "last_updated",
    "origins",
    "warnings",
    "task_ids",
    "uncorrected_energy_per_atom",
    "equilibrium_reaction_energy_per_atom",
    "decomposes_to",
    "xas",
    "grain_boundaries",
    "cbm",
    "vbm",
    "is_gap_direct",
    "is_metal",
    "es_source_calc_id",
    "bandstructure",
    "dos",
    "dos_energy_up",
    "dos_energy_down",
    "is_magnetic",
    "ordering",
    "total_magnetization_normalized_vol",
    "total_magnetization_normalized_formula_units",
    "num_magnetic_sites",
    "num_unique_magnetic_sites",
    "types_of_magnetic_species",
    "bulk_modulus",
    "shear_modulus",
    "universal_anisotropy",
    "homogeneous_poisson",
    "e_total",
    "e_ionic",
    "e_electronic",
    "n",
    "e_ij_max",
    "weighted_surface_energy_EV_PER_ANG2",
    "weighted_surface_energy",
    "weighted_work_function",
    "surface_anisotropy",
    "shape_factor",
    "has_reconstructed",
    "possible_species",
    "has_props",
    "theoretical",
    "database_IDs"
  ]
}
