{"builder_meta": null, "nsites": null, "elements": null, "nelements": null, "composition": null, "composition_reduced": null, "formula_pretty": "Ca3Tl5", "formula_anonymous": "A3B5", "chemsys": null, "volume": 458.146024451016, "density": 8.279393136541346, "density_atomic": 28.6341265281885, "symmetry": null, "property_name": null, "material_id": "mp-1189230", "deprecated": null, "deprecation_reasons": null, "last_updated": null, "origins": null, "warnings": null, "structure": {"@module": "pymatgen.core.structure", "@class": "Structure", "charge": 0, "lattice": {"matrix": [[4.12368138, -5.18155474, 0.0], [4.12368138, 5.18155474, 0.0], [-0.0, 0.0, 10.72083802]], "pbc": [true, true, true], "a": 6.622179221931038, "b": 6.622179221931038, "c": 10.72083802, "alpha": 90.0, "beta": 90.0, "gamma": 102.97174191743113, "volume": 458.146024451016}, "properties": {}, "sites": [{"species": [{"element": "Ca", "occu": 1}], "abc": [0.08224048, 0.08224048, 0.25], "properties": {"magmom": -0.0}, "label": "Ca", "xyz": [0.6782670721165248, 0.0, 2.680209505]}, {"species": [{"element": "Ca", "occu": 1}], "abc": [0.91775952, 0.91775952, 0.75], "properties": {"magmom": -0.0}, "label": "Ca", "xyz": [7.569095687883475, 0.0, 8.040628515]}, {"species": [{"element": "Ca", "occu": 1}], "abc": [0.28527126, 0.71472874, -0.0], "properties": {"magmom": 0.0}, "label": "Ca", "xyz": [4.12368138, 2.225257441122455, 0.0]}, {"species": [{"element": "Ca", "occu": 1}], "abc": [0.28527126, 0.71472874, 0.5], "properties": {"magmom": 0.0}, "label": "Ca", "xyz": [4.12368138, 2.225257441122455, 5.36041901]}, {"species": [{"element": "Ca", "occu": 1}], "abc": [0.71472874, 0.28527126, -0.0], "properties": {"magmom": 0.0}, "label": "Ca", "xyz": [4.12368138, -2.225257441122455, 0.0]}, {"species": [{"element": "Ca", "occu": 1}], "abc": [0.71472874, 0.28527126, 0.5], "properties": {"magmom": 0.0}, "label": "Ca", "xyz": [4.12368138, -2.225257441122455, 5.36041901]}, {"species": [{"element": "Tl", "occu": 1}], "abc": [0.52161007, 0.52161007, 0.75], "properties": {"magmom": 0.0}, "label": "Tl", "xyz": [4.301907466558993, 0.0, 8.040628515]}, {"species": [{"element": "Tl", "occu": 1}], "abc": [0.47838993, 0.47838993, 0.25], "properties": {"magmom": 0.0}, "label": "Tl", "xyz": [3.945455293441007, 0.0, 2.680209505]}, {"species": [{"element": "Tl", "occu": 1}], "abc": [0.45050511, 0.018548, 0.75], "properties": {"magmom": 0.0}, "label": "Tl", "xyz": [1.9342255759380915, -2.2382094107972015, 8.040628515]}, {"species": [{"element": "Tl", "occu": 1}], "abc": [0.981452, 0.54949489, 0.25], "properties": {"magmom": 0.0}, "label": "Tl", "xyz": [6.313137184061907, -2.238209410797202, 2.680209505]}, {"species": [{"element": "Tl", "occu": 1}], "abc": [0.54949489, 0.981452, 0.25], "properties": {"magmom": 0.0}, "label": "Tl", "xyz": [6.313137184061907, 2.238209410797202, 2.680209505]}, {"species": [{"element": "Tl", "occu": 1}], "abc": [0.018548, 0.45050511, 0.75], "properties": {"magmom": 0.0}, "label": "Tl", "xyz": [1.9342255759380915, 2.2382094107972015, 8.040628515]}, {"species": [{"element": "Tl", "occu": 1}], "abc": [0.20424344, 0.20424344, 0.96639301], "properties": {"magmom": 0.0}, "label": "Tl", "xyz": [1.6844697410302942, 0.0, 10.360542923870241]}, {"species": [{"element": "Tl", "occu": 1}], "abc": [0.7957565600000001, 0.7957565600000001, 0.03360699], "properties": {"magmom": 0.0}, "label": "Tl", "xyz": [6.562893018969706, 0.0, 0.36029509612975985]}, {"species": [{"element": "Tl", "occu": 1}], "abc": [0.20424344, 0.20424344, 0.53360699], "properties": {"magmom": 0.0}, "label": "Tl", "xyz": [1.6844697410302942, 0.0, 5.72071410612976]}, {"species": [{"element": "Tl", "occu": 1}], "abc": [0.7957565600000001, 0.7957565600000001, 0.46639301], "properties": {"magmom": 0.0}, "label": "Tl", "xyz": [6.562893018969706, 0.0, 5.00012391387024]}]}, "task_ids": null, "uncorrected_energy_per_atom": null, "energy_per_atom": -36.282256455, "formation_energy_per_atom": -0.40583095500000604, "energy_above_hull": 0.0, "is_stable": true, "equilibrium_reaction_energy_per_atom": null, "decomposes_to": null, "xas": null, "grain_boundaries": null, "band_gap": 0.0, "cbm": null, "vbm": null, "efermi": 5.25475281, "is_gap_direct": null, "is_metal": null, "es_source_calc_id": null, "bandstructure": null, "dos": null, "dos_energy_up": null, "dos_energy_down": null, "is_magnetic": null, "ordering": null, "total_magnetization": 0.0, "total_magnetization_normalized_vol": null, "total_magnetization_normalized_formula_units": null, "num_magnetic_sites": null, "num_unique_magnetic_sites": null, "types_of_magnetic_species": null, "bulk_modulus": null, "shear_modulus": null, "universal_anisotropy": null, "homogeneous_poisson": null, "e_total": null, "e_ionic": null, "e_electronic": null, "n": null, "e_ij_max": null, "weighted_surface_energy_EV_PER_ANG2": null, "weighted_surface_energy": null, "weighted_work_function": null, "surface_anisotropy": null, "shape_factor": null, "has_reconstructed": null, "possible_species": null, "has_props": null, "theoretical": null, "database_IDs": null, "fields_not_requested": ["builder_meta", "nsites", "elements", "nelements", "composition", "composition_reduced", "chemsys", "symmetry", "property_name", "deprecated", "deprecation_reasons", "last_updated", "origins", "warnings", "task_ids", "uncorrected_energy_per_atom", "equilibrium_reaction_energy_per_atom", "decomposes_to", "xas", "grain_boundaries", "cbm", "vbm", "is_gap_direct", "is_metal", "es_source_calc_id", "bandstructure", "dos", "dos_energy_up", "dos_energy_down", "is_magnetic", "ordering", "total_magnetization_normalized_vol", "total_magnetization_normalized_formula_units", "num_magnetic_sites", "num_unique_magnetic_sites", "types_of_magnetic_species", "bulk_modulus", "shear_modulus", "universal_anisotropy", "homogeneous_poisson", "e_total", "e_ionic", "e_electronic", "n", "e_ij_max", "weighted_surface_energy_EV_PER_ANG2", "weighted_surface_energy", "weighted_work_function", "surface_anisotropy", "shape_factor", "has_reconstructed", "possible_species", "has_props", "theoretical", "database_IDs"]}