{"builder_meta": null, "nsites": null, "elements": null, "nelements": null, "composition": null, "composition_reduced": null, "formula_pretty": "Ca3W", "formula_anonymous": "AB3", "chemsys": null, "volume": 235.49925756854344, "density": 4.28813883619456, "density_atomic": 29.43740719606793, "symmetry": null, "property_name": null, "material_id": "mp-1183518", "deprecated": null, "deprecation_reasons": null, "last_updated": null, "origins": null, "warnings": null, "structure": {"@module": "pymatgen.core.structure", "@class": "Structure", "charge": 0, "lattice": {"matrix": [[3.540651, -6.132588, 0.0], [3.540651, 6.132588, 0.0], [0.0, 0.0, 5.422913]], "pbc": [true, true, true], "a": 7.081302498943609, "b": 7.081302498943609, "c": 5.422913, "alpha": 90.0, "beta": 90.0, "gamma": 120.00000466154964, "volume": 235.49925756854344}, "properties": {}, "sites": [{"species": [{"element": "Ca", "occu": 1}], "abc": [0.179338, 0.358676999999999, 0.25], "properties": {"magmom": 0.001}, "label": "Ca", "xyz": [1.9049233477649965, 1.0998121993319943, 1.35572825]}, {"species": [{"element": "Ca", "occu": 1}], "abc": [0.641323, 0.820662, 0.25], "properties": {"magmom": 0.001}, "label": "Ca", "xyz": [5.176378652235, 1.0998121993320007, 1.35572825]}, {"species": [{"element": "Ca", "occu": 1}], "abc": [0.179338, 0.820662, 0.25], "properties": {"magmom": 0.001}, "label": "Ca", "xyz": [3.540651, 3.9329758665120007, 1.35572825]}, {"species": [{"element": "Ca", "occu": 1}], "abc": [0.820662, 0.641323, 0.75], "properties": {"magmom": 0.001}, "label": "Ca", "xyz": [5.176378652235, -1.0998121993320007, 4.06718475]}, {"species": [{"element": "Ca", "occu": 1}], "abc": [0.358676999999999, 0.179338, 0.75], "properties": {"magmom": 0.001}, "label": "Ca", "xyz": [1.9049233477649965, -1.0998121993319943, 4.06718475]}, {"species": [{"element": "Ca", "occu": 1}], "abc": [0.820662, 0.179338, 0.75], "properties": {"magmom": 0.001}, "label": "Ca", "xyz": [3.540651, -3.9329758665120007, 4.06718475]}, {"species": [{"element": "W", "occu": 1}], "abc": [0.333333, 0.666667, 0.75], "properties": {"magmom": 1.677}, "label": "W", "xyz": [3.5406509999999995, 2.044200088392, 4.06718475]}, {"species": [{"element": "W", "occu": 1}], "abc": [0.666667, 0.333333, 0.25], "properties": {"magmom": 1.678}, "label": "W", "xyz": [3.5406509999999995, -2.044200088392, 1.35572825]}]}, "task_ids": null, "uncorrected_energy_per_atom": null, "energy_per_atom": -17.23091251625, "formation_energy_per_atom": 0.8897563537499981, "energy_above_hull": 0.8897563537499981, "is_stable": false, "equilibrium_reaction_energy_per_atom": null, "decomposes_to": null, "xas": null, "grain_boundaries": null, "band_gap": 0.0, "cbm": null, "vbm": null, "efermi": 3.077289099999999, "is_gap_direct": null, "is_metal": null, "es_source_calc_id": null, "bandstructure": null, "dos": null, "dos_energy_up": null, "dos_energy_down": null, "is_magnetic": null, "ordering": null, "total_magnetization": 4.6540892, "total_magnetization_normalized_vol": null, "total_magnetization_normalized_formula_units": null, "num_magnetic_sites": null, "num_unique_magnetic_sites": null, "types_of_magnetic_species": null, "bulk_modulus": null, "shear_modulus": null, "universal_anisotropy": null, "homogeneous_poisson": null, "e_total": null, "e_ionic": null, "e_electronic": null, "n": null, "e_ij_max": null, "weighted_surface_energy_EV_PER_ANG2": null, "weighted_surface_energy": null, "weighted_work_function": null, "surface_anisotropy": null, "shape_factor": null, "has_reconstructed": null, "possible_species": null, "has_props": null, "theoretical": null, "database_IDs": null, "fields_not_requested": ["builder_meta", "nsites", "elements", "nelements", "composition", "composition_reduced", "chemsys", "symmetry", "property_name", "deprecated", "deprecation_reasons", "last_updated", "origins", "warnings", "task_ids", "uncorrected_energy_per_atom", "equilibrium_reaction_energy_per_atom", "decomposes_to", "xas", "grain_boundaries", "cbm", "vbm", "is_gap_direct", "is_metal", "es_source_calc_id", "bandstructure", "dos", "dos_energy_up", "dos_energy_down", "is_magnetic", "ordering", "total_magnetization_normalized_vol", "total_magnetization_normalized_formula_units", "num_magnetic_sites", "num_unique_magnetic_sites", "types_of_magnetic_species", "bulk_modulus", "shear_modulus", "universal_anisotropy", "homogeneous_poisson", "e_total", "e_ionic", "e_electronic", "n", "e_ij_max", "weighted_surface_energy_EV_PER_ANG2", "weighted_surface_energy", "weighted_work_function", "surface_anisotropy", "shape_factor", "has_reconstructed", "possible_species", "has_props", "theoretical", "database_IDs"]}