{
  "builder_meta": null,
  "nsites": null,
  "elements": null,
  "nelements": null,
  "composition": null,
  "composition_reduced": null,
  "formula_pretty": "Ca3Zn",
  "formula_anonymous": "AB3",
  "chemsys": null,
  "volume": 275.65846006970503,
  "density": 2.236589828317789,
  "density_atomic": 34.45730750871313,
  "symmetry": null,
  "property_name": null,
  "material_id": "mp-30485",
  "deprecated": null,
  "deprecation_reasons": null,
  "last_updated": null,
  "origins": null,
  "warnings": null,
  "structure": {
    "@module": "pymatgen.core.structure",
    "@class": "Structure",
    "charge": 0,
    "lattice": {
      "matrix": [
        [2.09760633, -6.64353807, 0.0],
        [2.09760633, 6.64353807, -0.0],
        [0.0, 0.0, 9.89049248]
      ],
      "pbc": [true, true, true],
      "a": 6.9668178103920155,
      "b": 6.9668178103920155,
      "c": 9.89049248,
      "alpha": 90.0,
      "beta": 90.0,
      "gamma": 144.95440090489305,
      "volume": 275.65846006970503
    },
    "properties": {},
    "sites": [
      {
        "species": [{ "element": "Ca", "occu": 1 }],
        "abc": [0.57060333, 0.42939667000000004, 0.75],
        "properties": { "magmom": -0.0 },
        "label": "Ca",
        "xyz": [2.09760633, -0.9381118214475457, 7.417869360000001]
      },
      {
        "species": [{ "element": "Ca", "occu": 1 }],
        "abc": [0.42939667000000004, 0.57060333, 0.25],
        "properties": { "magmom": -0.0 },
        "label": "Ca",
        "xyz": [2.09760633, 0.9381118214475457, 2.47262312]
      },
      {
        "species": [{ "element": "Ca", "occu": 1 }],
        "abc": [0.85681544, 0.14318456000000002, 0.93758939],
        "properties": { "magmom": -0.0 },
        "label": "Ca",
        "xyz": [2.09760633, -4.7410339192076005, 9.273220811122787]
      },
      {
        "species": [{ "element": "Ca", "occu": 1 }],
        "abc": [0.14318456000000002, 0.85681544, 0.06241061],
        "properties": { "magmom": -0.0 },
        "label": "Ca",
        "xyz": [2.09760633, 4.7410339192076005, 0.6172716688772129]
      },
      {
        "species": [{ "element": "Ca", "occu": 1 }],
        "abc": [0.14318456000000002, 0.85681544, 0.43758939],
        "properties": { "magmom": -0.0 },
        "label": "Ca",
        "xyz": [2.09760633, 4.7410339192076005, 4.3279745711227875]
      },
      {
        "species": [{ "element": "Ca", "occu": 1 }],
        "abc": [0.85681544, 0.14318456000000002, 0.56241061],
        "properties": { "magmom": -0.0 },
        "label": "Ca",
        "xyz": [2.09760633, -4.7410339192076005, 5.562517908877213]
      },
      {
        "species": [{ "element": "Zn", "occu": 1 }],
        "abc": [0.24577675000000002, 0.75422325, 0.75],
        "properties": { "magmom": -0.0 },
        "label": "Zn",
        "xyz": [2.09760633, 3.3778836793082547, 7.417869360000001]
      },
      {
        "species": [{ "element": "Zn", "occu": 1 }],
        "abc": [0.75422325, 0.24577675000000002, 0.25],
        "properties": { "magmom": -0.0 },
        "label": "Zn",
        "xyz": [2.09760633, -3.3778836793082547, 2.47262312]
      }
    ]
  },
  "task_ids": null,
  "uncorrected_energy_per_atom": null,
  "energy_per_atom": -1.9385435700000002,
  "formation_energy_per_atom": -0.119407757499999,
  "energy_above_hull": 0.014493396249999001,
  "is_stable": false,
  "equilibrium_reaction_energy_per_atom": null,
  "decomposes_to": null,
  "xas": null,
  "grain_boundaries": null,
  "band_gap": 0.0,
  "cbm": null,
  "vbm": null,
  "efermi": 2.11479339,
  "is_gap_direct": null,
  "is_metal": null,
  "es_source_calc_id": null,
  "bandstructure": null,
  "dos": null,
  "dos_energy_up": null,
  "dos_energy_down": null,
  "is_magnetic": null,
  "ordering": null,
  "total_magnetization": 0.004397799999999,
  "total_magnetization_normalized_vol": null,
  "total_magnetization_normalized_formula_units": null,
  "num_magnetic_sites": null,
  "num_unique_magnetic_sites": null,
  "types_of_magnetic_species": null,
  "bulk_modulus": null,
  "shear_modulus": null,
  "universal_anisotropy": null,
  "homogeneous_poisson": null,
  "e_total": null,
  "e_ionic": null,
  "e_electronic": null,
  "n": null,
  "e_ij_max": null,
  "weighted_surface_energy_EV_PER_ANG2": null,
  "weighted_surface_energy": null,
  "weighted_work_function": null,
  "surface_anisotropy": null,
  "shape_factor": null,
  "has_reconstructed": null,
  "possible_species": null,
  "has_props": null,
  "theoretical": null,
  "database_IDs": null,
  "fields_not_requested": [
    "builder_meta",
    "nsites",
    "elements",
    "nelements",
    "composition",
    "composition_reduced",
    "chemsys",
    "symmetry",
    "property_name",
    "deprecated",
    "deprecation_reasons",
    "last_updated",
    "origins",
    "warnings",
    "task_ids",
    "uncorrected_energy_per_atom",
    "equilibrium_reaction_energy_per_atom",
    "decomposes_to",
    "xas",
    "grain_boundaries",
    "cbm",
    "vbm",
    "is_gap_direct",
    "is_metal",
    "es_source_calc_id",
    "bandstructure",
    "dos",
    "dos_energy_up",
    "dos_energy_down",
    "is_magnetic",
    "ordering",
    "total_magnetization_normalized_vol",
    "total_magnetization_normalized_formula_units",
    "num_magnetic_sites",
    "num_unique_magnetic_sites",
    "types_of_magnetic_species",
    "bulk_modulus",
    "shear_modulus",
    "universal_anisotropy",
    "homogeneous_poisson",
    "e_total",
    "e_ionic",
    "e_electronic",
    "n",
    "e_ij_max",
    "weighted_surface_energy_EV_PER_ANG2",
    "weighted_surface_energy",
    "weighted_work_function",
    "surface_anisotropy",
    "shape_factor",
    "has_reconstructed",
    "possible_species",
    "has_props",
    "theoretical",
    "database_IDs"
  ]
}
