{"builder_meta": null, "nsites": null, "elements": null, "nelements": null, "composition": null, "composition_reduced": null, "formula_pretty": "Ca4As3", "formula_anonymous": "A3B4", "chemsys": null, "volume": 1453.9266604977079, "density": 3.51838968175973, "density_atomic": 25.962976080316214, "symmetry": null, "property_name": null, "material_id": "mp-1194887", "deprecated": null, "deprecation_reasons": null, "last_updated": null, "origins": null, "warnings": null, "structure": {"@module": "pymatgen.core.structure", "@class": "Structure", "charge": 0, "lattice": {"matrix": [[0.0, 0.0, 10.39259284], [11.55199636, 0.0, 0.0], [-0.0, 12.11048522, 0.0]], "pbc": [true, true, true], "a": 10.39259284, "b": 11.55199636, "c": 12.11048522, "alpha": 90.0, "beta": 90.0, "gamma": 90.0, "volume": 1453.9266604977079}, "properties": {}, "sites": [{"species": [{"element": "Ca", "occu": 1}], "abc": [0.27322687, 0.5946283, 0.26403946], "properties": {"magmom": -0.0}, "label": "Ca", "xyz": [6.869143957152988, 3.197645977826781, 2.839535612857611]}, {"species": [{"element": "Ca", "occu": 1}], "abc": [0.27322687, 0.4053717, 0.73596054], "properties": {"magmom": -0.0}, "label": "Ca", "xyz": [4.682852402847012, 8.912839242173218, 2.839535612857611]}, {"species": [{"element": "Ca", "occu": 1}], "abc": [0.72677313, 0.0946283, 0.23596054], "properties": {"magmom": -0.0}, "label": "Ca", "xyz": [1.093145777152988, 2.8575966321732187, 7.553057227142389]}, {"species": [{"element": "Ca", "occu": 1}], "abc": [0.72677313, 0.9053717, 0.76403946], "properties": {"magmom": -0.0}, "label": "Ca", "xyz": [10.458850582847012, 9.252888587826781, 7.553057227142389]}, {"species": [{"element": "Ca", "occu": 1}], "abc": [0.72677313, 0.4053717, 0.73596054], "properties": {"magmom": -0.0}, "label": "Ca", "xyz": [4.682852402847012, 8.912839242173218, 7.553057227142389]}, {"species": [{"element": "Ca", "occu": 1}], "abc": [0.72677313, 0.5946283, 0.26403946], "properties": {"magmom": -0.0}, "label": "Ca", "xyz": [6.869143957152988, 3.197645977826781, 7.553057227142389]}, {"species": [{"element": "Ca", "occu": 1}], "abc": [0.27322687, 0.9053717, 0.76403946], "properties": {"magmom": -0.0}, "label": "Ca", "xyz": [10.458850582847012, 9.252888587826781, 2.839535612857611]}, {"species": [{"element": "Ca", "occu": 1}], "abc": [0.27322687, 0.0946283, 0.23596054], "properties": {"magmom": -0.0}, "label": "Ca", "xyz": [1.093145777152988, 2.8575966321732187, 2.839535612857611]}, {"species": [{"element": "Ca", "occu": 1}], "abc": [0.32382769, 0.82439736, 0.06670857], "properties": {"magmom": -0.0}, "label": "Ca", "xyz": [9.52343530191361, 0.8078731510323353, 3.3654093324877397]}, {"species": [{"element": "Ca", "occu": 1}], "abc": [0.32382769, 0.17560264, 0.93329143], "properties": {"magmom": -0.0}, "label": "Ca", "xyz": [2.0285610580863906, 11.302612068967663, 3.3654093324877397]}, {"species": [{"element": "Ca", "occu": 1}], "abc": [0.67617231, 0.32439736, 0.43329143000000003], "properties": {"magmom": -0.0}, "label": "Ca", "xyz": [3.74743712191361, 5.247369458967665, 7.027183507512261]}, {"species": [{"element": "Ca", "occu": 1}], "abc": [0.67617231, 0.67560264, 0.56670857], "properties": {"magmom": -0.0}, "label": "Ca", "xyz": [7.804559238086391, 6.863115761032335, 7.027183507512261]}, {"species": [{"element": "Ca", "occu": 1}], "abc": [0.67617231, 0.17560264, 0.93329143], "properties": {"magmom": -0.0}, "label": "Ca", "xyz": [2.0285610580863906, 11.302612068967663, 7.027183507512261]}, {"species": [{"element": "Ca", "occu": 1}], "abc": [0.67617231, 0.82439736, 0.06670857], "properties": {"magmom": -0.0}, "label": "Ca", "xyz": [9.52343530191361, 0.8078731510323353, 7.027183507512261]}, {"species": [{"element": "Ca", "occu": 1}], "abc": [0.32382769, 0.67560264, 0.56670857], "properties": {"magmom": -0.0}, "label": "Ca", "xyz": [7.804559238086391, 6.863115761032335, 3.3654093324877397]}, {"species": [{"element": "Ca", "occu": 1}], "abc": [0.32382769, 0.32439736, 0.43329143000000003], "properties": {"magmom": -0.0}, "label": "Ca", "xyz": [3.74743712191361, 5.247369458967665, 3.3654093324877397]}, {"species": [{"element": "Ca", "occu": 1}], "abc": [0.5, 0.8763248100000001, 0.36519816], "properties": {"magmom": -0.0}, "label": "Ca", "xyz": [10.123301015297693, 4.422726919051195, 5.19629642]}, {"species": [{"element": "Ca", "occu": 1}], "abc": [0.5, 0.12367519, 0.6348018400000001], "properties": {"magmom": -0.0}, "label": "Ca", "xyz": [1.4286953447023085, 7.687758300948805, 5.19629642]}, {"species": [{"element": "Ca", "occu": 1}], "abc": [0.5, 0.37632481, 0.13480184], "properties": {"magmom": -0.0}, "label": "Ca", "xyz": [4.3473028352976915, 1.6325156909488048, 5.19629642]}, {"species": [{"element": "Ca", "occu": 1}], "abc": [0.5, 0.62367519, 0.86519816], "properties": {"magmom": -0.0}, "label": "Ca", "xyz": [7.204693524702309, 10.477969529051196, 5.19629642]}, {"species": [{"element": "Ca", "occu": 1}], "abc": [-0.0, 0.72628055, 0.42376374], "properties": {"magmom": -0.0}, "label": "Ca", "xyz": [8.3899902699388, 5.131984510041923, 0.0]}, {"species": [{"element": "Ca", "occu": 1}], "abc": [-0.0, 0.27371945000000003, 0.5762362600000001], "properties": {"magmom": -0.0}, "label": "Ca", "xyz": [3.1620060900612024, 6.978500709958078, 0.0]}, {"species": [{"element": "Ca", "occu": 1}], "abc": [-0.0, 0.22628055, 0.07623626], "properties": {"magmom": -0.0}, "label": "Ca", "xyz": [2.613992089938798, 0.9232580999580772, 0.0]}, {"species": [{"element": "Ca", "occu": 1}], "abc": [-0.0, 0.77371945, 0.92376374], "properties": {"magmom": -0.0}, "label": "Ca", "xyz": [8.938004270061201, 11.187227120041923, 0.0]}, {"species": [{"element": "Ca", "occu": 1}], "abc": [-0.0, 0.89798358, 0.20674383000000002], "properties": {"magmom": -0.0}, "label": "Ca", "xyz": [10.373503047499769, 2.5037680975411924, 0.0]}, {"species": [{"element": "Ca", "occu": 1}], "abc": [-0.0, 0.10201642, 0.79325617], "properties": {"magmom": -0.0}, "label": "Ca", "xyz": [1.1784933125002313, 9.606717122458807, 0.0]}, {"species": [{"element": "Ca", "occu": 1}], "abc": [-0.0, 0.39798358, 0.29325617], "properties": {"magmom": -0.0}, "label": "Ca", "xyz": [4.597504867499769, 3.551474512458807, 0.0]}, {"species": [{"element": "Ca", "occu": 1}], "abc": [-0.0, 0.60201642, 0.70674383], "properties": {"magmom": -0.0}, "label": "Ca", "xyz": [6.954491492500232, 8.55901070754119, 0.0]}, {"species": [{"element": "Ca", "occu": 1}], "abc": [0.18432761, 0.5, -0.0], "properties": {"magmom": 0.0}, "label": "Ca", "xyz": [5.77599818, 0.0, 1.9156417999003126]}, {"species": [{"element": "Ca", "occu": 1}], "abc": [0.81567239, 0.0, 0.5], "properties": {"magmom": 0.0}, "label": "Ca", "xyz": [0.0, 6.05524261, 8.476951040099689]}, {"species": [{"element": "Ca", "occu": 1}], "abc": [0.81567239, 0.5, -0.0], "properties": {"magmom": 0.0}, "label": "Ca", "xyz": [5.77599818, 0.0, 8.476951040099689]}, {"species": [{"element": "Ca", "occu": 1}], "abc": [0.18432761, 0.0, 0.5], "properties": {"magmom": 0.0}, "label": "Ca", "xyz": [0.0, 6.05524261, 1.9156417999003126]}, {"species": [{"element": "As", "occu": 1}], "abc": [0.23353103, 0.83744785, 0.32356238], "properties": {"magmom": 0.0}, "label": "As", "xyz": [9.674194514889827, 3.918497420738023, 2.426992910295825]}, {"species": [{"element": "As", "occu": 1}], "abc": [0.23353103, 0.16255215, 0.67643762], "properties": {"magmom": 0.0}, "label": "As", "xyz": [1.8778018451101741, 8.191987799261975, 2.426992910295825]}, {"species": [{"element": "As", "occu": 1}], "abc": [0.76646897, 0.33744785, 0.17643762000000002], "properties": {"magmom": 0.0}, "label": "As", "xyz": [3.898196334889826, 2.1367451892619767, 7.965599929704176]}, {"species": [{"element": "As", "occu": 1}], "abc": [0.76646897, 0.66255215, 0.82356238], "properties": {"magmom": 0.0}, "label": "As", "xyz": [7.653800025110175, 9.973740030738023, 7.965599929704176]}, {"species": [{"element": "As", "occu": 1}], "abc": [0.76646897, 0.16255215, 0.67643762], "properties": {"magmom": 0.0}, "label": "As", "xyz": [1.8778018451101741, 8.191987799261975, 7.965599929704176]}, {"species": [{"element": "As", "occu": 1}], "abc": [0.76646897, 0.83744785, 0.32356238], "properties": {"magmom": 0.0}, "label": "As", "xyz": [9.674194514889827, 3.918497420738023, 7.965599929704176]}, {"species": [{"element": "As", "occu": 1}], "abc": [0.23353103, 0.66255215, 0.82356238], "properties": {"magmom": 0.0}, "label": "As", "xyz": [7.653800025110175, 9.973740030738023, 2.426992910295825]}, {"species": [{"element": "As", "occu": 1}], "abc": [0.23353103, 0.33744785, 0.17643762000000002], "properties": {"magmom": 0.0}, "label": "As", "xyz": [3.898196334889826, 2.1367451892619767, 2.426992910295825]}, {"species": [{"element": "As", "occu": 1}], "abc": [0.5, 0.53835466, 0.40285557], "properties": {"magmom": -0.0}, "label": "As", "xyz": [6.2190710727090375, 4.878776426279675, 5.19629642]}, {"species": [{"element": "As", "occu": 1}], "abc": [0.5, 0.46164534, 0.5971444300000001], "properties": {"magmom": -0.0}, "label": "As", "xyz": [5.332925287290963, 7.231708793720325, 5.19629642]}, {"species": [{"element": "As", "occu": 1}], "abc": [0.5, 0.03835466, 0.09714443], "properties": {"magmom": -0.0}, "label": "As", "xyz": [0.4430728927090376, 1.1764661837203245, 5.19629642]}, {"species": [{"element": "As", "occu": 1}], "abc": [0.5, 0.96164534, 0.90285557], "properties": {"magmom": -0.0}, "label": "As", "xyz": [11.108923467290962, 10.934019036279675, 5.19629642]}, {"species": [{"element": "As", "occu": 1}], "abc": [0.5, 0.63599186, 0.11344612], "properties": {"magmom": 0.0}, "label": "As", "xyz": [7.34697565170963, 1.3738875595263462, 5.19629642]}, {"species": [{"element": "As", "occu": 1}], "abc": [0.5, 0.36400814, 0.88655388], "properties": {"magmom": 0.0}, "label": "As", "xyz": [4.205020708290371, 10.736597660473652, 5.19629642]}, {"species": [{"element": "As", "occu": 1}], "abc": [0.5, 0.13599186, 0.38655388], "properties": {"magmom": 0.0}, "label": "As", "xyz": [1.5709774717096296, 4.681355050473654, 5.19629642]}, {"species": [{"element": "As", "occu": 1}], "abc": [0.5, 0.86400814, 0.61344612], "properties": {"magmom": 0.0}, "label": "As", "xyz": [9.981018888290372, 7.429130169526346, 5.19629642]}, {"species": [{"element": "As", "occu": 1}], "abc": [-0.0, 0.63925108, 0.14237371000000001], "properties": {"magmom": 0.0}, "label": "As", "xyz": [7.384626149286069, 1.7242147106715662, 0.0]}, {"species": [{"element": "As", "occu": 1}], "abc": [-0.0, 0.36074892000000003, 0.85762629], "properties": {"magmom": 0.0}, "label": "As", "xyz": [4.167370210713932, 10.386270509328433, 0.0]}, {"species": [{"element": "As", "occu": 1}], "abc": [-0.0, 0.13925108, 0.35762629], "properties": {"magmom": 0.0}, "label": "As", "xyz": [1.6086279692860688, 4.331027899328434, 0.0]}, {"species": [{"element": "As", "occu": 1}], "abc": [-0.0, 0.86074892, 0.64237371], "properties": {"magmom": 0.0}, "label": "As", "xyz": [9.943368390713932, 7.779457320671566, 0.0]}, {"species": [{"element": "As", "occu": 1}], "abc": [0.12137381, 0.5, 0.5], "properties": {"magmom": 0.0}, "label": "As", "xyz": [5.77599818, 6.05524261, 1.2613885887695204]}, {"species": [{"element": "As", "occu": 1}], "abc": [0.87862619, 0.0, -0.0], "properties": {"magmom": 0.0}, "label": "As", "xyz": [0.0, 0.0, 9.13120425123048]}, {"species": [{"element": "As", "occu": 1}], "abc": [0.87862619, 0.5, 0.5], "properties": {"magmom": 0.0}, "label": "As", "xyz": [5.77599818, 6.05524261, 9.13120425123048]}, {"species": [{"element": "As", "occu": 1}], "abc": [0.12137381, 0.0, -0.0], "properties": {"magmom": 0.0}, "label": "As", "xyz": [0.0, 0.0, 1.2613885887695204]}]}, "task_ids": null, "uncorrected_energy_per_atom": null, "energy_per_atom": -11.688116169821429, "formation_energy_per_atom": -1.363006489464286, "energy_above_hull": 0.0, "is_stable": true, "equilibrium_reaction_energy_per_atom": null, "decomposes_to": null, "xas": null, "grain_boundaries": null, "band_gap": 0.6617000000000001, "cbm": null, "vbm": null, "efermi": 3.16202652, "is_gap_direct": null, "is_metal": null, "es_source_calc_id": null, "bandstructure": null, "dos": null, "dos_energy_up": null, "dos_energy_down": null, "is_magnetic": null, "ordering": null, "total_magnetization": 1e-07, "total_magnetization_normalized_vol": null, "total_magnetization_normalized_formula_units": null, "num_magnetic_sites": null, "num_unique_magnetic_sites": null, "types_of_magnetic_species": null, "bulk_modulus": null, "shear_modulus": null, "universal_anisotropy": null, "homogeneous_poisson": null, "e_total": null, "e_ionic": null, "e_electronic": null, "n": null, "e_ij_max": null, "weighted_surface_energy_EV_PER_ANG2": null, "weighted_surface_energy": null, "weighted_work_function": null, "surface_anisotropy": null, "shape_factor": null, "has_reconstructed": null, "possible_species": null, "has_props": null, "theoretical": null, "database_IDs": null, "fields_not_requested": ["builder_meta", "nsites", "elements", "nelements", "composition", "composition_reduced", "chemsys", "symmetry", "property_name", "deprecated", "deprecation_reasons", "last_updated", "origins", "warnings", "task_ids", "uncorrected_energy_per_atom", "equilibrium_reaction_energy_per_atom", "decomposes_to", "xas", "grain_boundaries", "cbm", "vbm", "is_gap_direct", "is_metal", "es_source_calc_id", "bandstructure", "dos", "dos_energy_up", "dos_energy_down", "is_magnetic", "ordering", "total_magnetization_normalized_vol", "total_magnetization_normalized_formula_units", "num_magnetic_sites", "num_unique_magnetic_sites", "types_of_magnetic_species", "bulk_modulus", "shear_modulus", "universal_anisotropy", "homogeneous_poisson", "e_total", "e_ionic", "e_electronic", "n", "e_ij_max", "weighted_surface_energy_EV_PER_ANG2", "weighted_surface_energy", "weighted_work_function", "surface_anisotropy", "shape_factor", "has_reconstructed", "possible_species", "has_props", "theoretical", "database_IDs"]}