{"builder_meta": null, "nsites": null, "elements": null, "nelements": null, "composition": null, "composition_reduced": null, "formula_pretty": "Ca4Al", "formula_anonymous": "AB4", "chemsys": null, "volume": 436.30027843351417, "density": 1.425661422374948, "density_atomic": 43.630027843351414, "symmetry": null, "property_name": null, "material_id": "mp-1214044", "deprecated": null, "deprecation_reasons": null, "last_updated": null, "origins": null, "warnings": null, "structure": {"@module": "pymatgen.core.structure", "@class": "Structure", "charge": 0, "lattice": {"matrix": [[-6.019843, -6.019843, 0.0], [-6.019843, 0.0, -6.019843], [0.0, -6.019843, -6.019843]], "pbc": [true, true, true], "a": 8.51334361395674, "b": 8.51334361395674, "c": 8.51334361395674, "alpha": 60.00000000000001, "beta": 60.00000000000001, "gamma": 60.00000000000001, "volume": 436.30027843351417}, "properties": {}, "sites": [{"species": [{"element": "Ca", "occu": 1}], "abc": [0.609955, 0.609955, 0.609955], "properties": {"magmom": 0.0}, "label": "Ca", "xyz": [-7.3436666741300005, -7.3436666741300005, -7.3436666741300005]}, {"species": [{"element": "Ca", "occu": 1}], "abc": [0.170135999999999, 0.609955, 0.609955], "properties": {"magmom": 0.0}, "label": "Ca", "xyz": [-4.696025345712995, -4.696025345712995, -7.3436666741300005]}, {"species": [{"element": "Ca", "occu": 1}], "abc": [0.609955, 0.170135999999999, 0.609955], "properties": {"magmom": 0.001}, "label": "Ca", "xyz": [-4.696025345712995, -7.3436666741300005, -4.696025345712995]}, {"species": [{"element": "Ca", "occu": 1}], "abc": [0.579863999999999, 0.140045, 0.140045], "properties": {"magmom": 0.0}, "label": "Ca", "xyz": [-4.333739154286994, -4.333739154286994, -1.68609782587]}, {"species": [{"element": "Ca", "occu": 1}], "abc": [0.140045, 0.140045, 0.140045], "properties": {"magmom": 0.0}, "label": "Ca", "xyz": [-1.68609782587, -1.68609782587, -1.68609782587]}, {"species": [{"element": "Ca", "occu": 1}], "abc": [0.609955, 0.609955, 0.170135999999999], "properties": {"magmom": 0.001}, "label": "Ca", "xyz": [-7.3436666741300005, -4.696025345712995, -4.696025345712995]}, {"species": [{"element": "Ca", "occu": 1}], "abc": [0.140045, 0.579863999999999, 0.140045], "properties": {"magmom": 0.001}, "label": "Ca", "xyz": [-4.333739154286994, -1.68609782587, -4.333739154286994]}, {"species": [{"element": "Ca", "occu": 1}], "abc": [0.140045, 0.140045, 0.579863999999999], "properties": {"magmom": 0.001}, "label": "Ca", "xyz": [-1.68609782587, -4.333739154286994, -4.333739154286994]}, {"species": [{"element": "Al", "occu": 1}], "abc": [0.0, 0.0, 0.0], "properties": {"magmom": 0.001}, "label": "Al", "xyz": [0.0, 0.0, 0.0]}, {"species": [{"element": "Al", "occu": 1}], "abc": [0.75, 0.75, 0.75], "properties": {"magmom": 0.001}, "label": "Al", "xyz": [-9.029764499999999, -9.029764499999999, -9.029764499999999]}]}, "task_ids": null, "uncorrected_energy_per_atom": null, "energy_per_atom": -6.6526727779999995, "formation_energy_per_atom": 0.324381848000001, "energy_above_hull": 0.45352579933333403, "is_stable": false, "equilibrium_reaction_energy_per_atom": null, "decomposes_to": null, "xas": null, "grain_boundaries": null, "band_gap": 0.0, "cbm": null, "vbm": null, "efermi": 1.53923204, "is_gap_direct": null, "is_metal": null, "es_source_calc_id": null, "bandstructure": null, "dos": null, "dos_energy_up": null, "dos_energy_down": null, "is_magnetic": null, "ordering": null, "total_magnetization": 0.0387953, "total_magnetization_normalized_vol": null, "total_magnetization_normalized_formula_units": null, "num_magnetic_sites": null, "num_unique_magnetic_sites": null, "types_of_magnetic_species": null, "bulk_modulus": null, "shear_modulus": null, "universal_anisotropy": null, "homogeneous_poisson": null, "e_total": null, "e_ionic": null, "e_electronic": null, "n": null, "e_ij_max": null, "weighted_surface_energy_EV_PER_ANG2": null, "weighted_surface_energy": null, "weighted_work_function": null, "surface_anisotropy": null, "shape_factor": null, "has_reconstructed": null, "possible_species": null, "has_props": null, "theoretical": null, "database_IDs": null, "fields_not_requested": ["builder_meta", "nsites", "elements", "nelements", "composition", "composition_reduced", "chemsys", "symmetry", "property_name", "deprecated", "deprecation_reasons", "last_updated", "origins", "warnings", "task_ids", "uncorrected_energy_per_atom", "equilibrium_reaction_energy_per_atom", "decomposes_to", "xas", "grain_boundaries", "cbm", "vbm", "is_gap_direct", "is_metal", "es_source_calc_id", "bandstructure", "dos", "dos_energy_up", "dos_energy_down", "is_magnetic", "ordering", "total_magnetization_normalized_vol", "total_magnetization_normalized_formula_units", "num_magnetic_sites", "num_unique_magnetic_sites", "types_of_magnetic_species", "bulk_modulus", "shear_modulus", "universal_anisotropy", "homogeneous_poisson", "e_total", "e_ionic", "e_electronic", "n", "e_ij_max", "weighted_surface_energy_EV_PER_ANG2", "weighted_surface_energy", "weighted_work_function", "surface_anisotropy", "shape_factor", "has_reconstructed", "possible_species", "has_props", "theoretical", "database_IDs"]}