{
  "builder_meta": null,
  "nsites": null,
  "elements": null,
  "nelements": null,
  "composition": null,
  "composition_reduced": null,
  "formula_pretty": "Ca4Ir",
  "formula_anonymous": "AB4",
  "chemsys": null,
  "volume": 393.72239978839525,
  "density": 2.973608699550984,
  "density_atomic": 39.372239978839524,
  "symmetry": null,
  "property_name": null,
  "material_id": "mp-1214053",
  "deprecated": null,
  "deprecation_reasons": null,
  "last_updated": null,
  "origins": null,
  "warnings": null,
  "structure": {
    "@module": "pymatgen.core.structure",
    "@class": "Structure",
    "charge": 0,
    "lattice": {
      "matrix": [
        [-5.8172809999999995, -5.8172809999999995, 0.0],
        [-5.8172809999999995, 0.0, -5.8172809999999995],
        [0.0, -5.8172809999999995, -5.8172809999999995]
      ],
      "pbc": [true, true, true],
      "a": 8.22687768633532,
      "b": 8.22687768633532,
      "c": 8.22687768633532,
      "alpha": 59.99999999999999,
      "beta": 59.99999999999999,
      "gamma": 59.99999999999999,
      "volume": 393.7223997883951
    },
    "properties": {},
    "sites": [
      {
        "species": [{ "element": "Ca", "occu": 1 }],
        "abc": [0.620468999999999, 0.620468999999999, 0.620468999999999],
        "properties": { "magmom": -0.0 },
        "label": "Ca",
        "xyz": [-7.218885049577988, -7.218885049577988, -7.218885049577988]
      },
      {
        "species": [{ "element": "Ca", "occu": 1 }],
        "abc": [0.138592, 0.620468999999999, 0.620468999999999],
        "properties": { "magmom": -0.001 },
        "label": "Ca",
        "xyz": [-4.415671133140994, -4.415671133140994, -7.218885049577988]
      },
      {
        "species": [{ "element": "Ca", "occu": 1 }],
        "abc": [0.620468999999999, 0.138592, 0.620468999999999],
        "properties": { "magmom": 0.002 },
        "label": "Ca",
        "xyz": [-4.415671133140994, -7.218885049577988, -4.415671133140994]
      },
      {
        "species": [{ "element": "Ca", "occu": 1 }],
        "abc": [0.611408, 0.129531, 0.129531],
        "properties": { "magmom": -0.001 },
        "label": "Ca",
        "xyz": [-4.310250366858999, -4.310250366858999, -1.507036450422]
      },
      {
        "species": [{ "element": "Ca", "occu": 1 }],
        "abc": [0.129531, 0.129531, 0.129531],
        "properties": { "magmom": -0.0 },
        "label": "Ca",
        "xyz": [-1.507036450422, -1.507036450422, -1.507036450422]
      },
      {
        "species": [{ "element": "Ca", "occu": 1 }],
        "abc": [0.620468999999999, 0.620468999999999, 0.138592],
        "properties": { "magmom": -0.001 },
        "label": "Ca",
        "xyz": [-7.218885049577988, -4.415671133140994, -4.415671133140994]
      },
      {
        "species": [{ "element": "Ca", "occu": 1 }],
        "abc": [0.129531, 0.611408, 0.129531],
        "properties": { "magmom": 0.002 },
        "label": "Ca",
        "xyz": [-4.310250366858999, -1.507036450422, -4.310250366858999]
      },
      {
        "species": [{ "element": "Ca", "occu": 1 }],
        "abc": [0.129531, 0.129531, 0.611408],
        "properties": { "magmom": -0.0 },
        "label": "Ca",
        "xyz": [-1.507036450422, -4.310250366858999, -4.310250366858999]
      },
      {
        "species": [{ "element": "Ir", "occu": 1 }],
        "abc": [0.0, 0.0, 0.0],
        "properties": { "magmom": 0.0 },
        "label": "Ir",
        "xyz": [0.0, 0.0, 0.0]
      },
      {
        "species": [{ "element": "Ir", "occu": 1 }],
        "abc": [0.75, 0.75, 0.75],
        "properties": { "magmom": 0.0 },
        "label": "Ir",
        "xyz": [-8.725921499999998, -8.725921499999998, -8.725921499999998]
      }
    ]
  },
  "task_ids": null,
  "uncorrected_energy_per_atom": null,
  "energy_per_atom": -15.974120873722223,
  "formation_energy_per_atom": 0.128384776277778,
  "energy_above_hull": 0.38540410427777605,
  "is_stable": false,
  "equilibrium_reaction_energy_per_atom": null,
  "decomposes_to": null,
  "xas": null,
  "grain_boundaries": null,
  "band_gap": 0.0,
  "cbm": null,
  "vbm": null,
  "efermi": 1.935040949999999,
  "is_gap_direct": null,
  "is_metal": null,
  "es_source_calc_id": null,
  "bandstructure": null,
  "dos": null,
  "dos_energy_up": null,
  "dos_energy_down": null,
  "is_magnetic": null,
  "ordering": null,
  "total_magnetization": 0.001232099999999,
  "total_magnetization_normalized_vol": null,
  "total_magnetization_normalized_formula_units": null,
  "num_magnetic_sites": null,
  "num_unique_magnetic_sites": null,
  "types_of_magnetic_species": null,
  "bulk_modulus": null,
  "shear_modulus": null,
  "universal_anisotropy": null,
  "homogeneous_poisson": null,
  "e_total": null,
  "e_ionic": null,
  "e_electronic": null,
  "n": null,
  "e_ij_max": null,
  "weighted_surface_energy_EV_PER_ANG2": null,
  "weighted_surface_energy": null,
  "weighted_work_function": null,
  "surface_anisotropy": null,
  "shape_factor": null,
  "has_reconstructed": null,
  "possible_species": null,
  "has_props": null,
  "theoretical": null,
  "database_IDs": null,
  "fields_not_requested": [
    "builder_meta",
    "nsites",
    "elements",
    "nelements",
    "composition",
    "composition_reduced",
    "chemsys",
    "symmetry",
    "property_name",
    "deprecated",
    "deprecation_reasons",
    "last_updated",
    "origins",
    "warnings",
    "task_ids",
    "uncorrected_energy_per_atom",
    "equilibrium_reaction_energy_per_atom",
    "decomposes_to",
    "xas",
    "grain_boundaries",
    "cbm",
    "vbm",
    "is_gap_direct",
    "is_metal",
    "es_source_calc_id",
    "bandstructure",
    "dos",
    "dos_energy_up",
    "dos_energy_down",
    "is_magnetic",
    "ordering",
    "total_magnetization_normalized_vol",
    "total_magnetization_normalized_formula_units",
    "num_magnetic_sites",
    "num_unique_magnetic_sites",
    "types_of_magnetic_species",
    "bulk_modulus",
    "shear_modulus",
    "universal_anisotropy",
    "homogeneous_poisson",
    "e_total",
    "e_ionic",
    "e_electronic",
    "n",
    "e_ij_max",
    "weighted_surface_energy_EV_PER_ANG2",
    "weighted_surface_energy",
    "weighted_work_function",
    "surface_anisotropy",
    "shape_factor",
    "has_reconstructed",
    "possible_species",
    "has_props",
    "theoretical",
    "database_IDs"
  ]
}
