{
  "builder_meta": null,
  "nsites": null,
  "elements": null,
  "nelements": null,
  "composition": null,
  "composition_reduced": null,
  "formula_pretty": "Ca4Ni",
  "formula_anonymous": "AB4",
  "chemsys": null,
  "volume": 367.08034374471015,
  "density": 1.981402865576892,
  "density_atomic": 36.70803437447101,
  "symmetry": null,
  "property_name": null,
  "material_id": "mp-1214129",
  "deprecated": null,
  "deprecation_reasons": null,
  "last_updated": null,
  "origins": null,
  "warnings": null,
  "structure": {
    "@module": "pymatgen.core.structure",
    "@class": "Structure",
    "charge": 0,
    "lattice": {
      "matrix": [
        [0.0, 5.682992, 5.682992],
        [5.682992, 0.0, 5.682992],
        [5.682992, 5.682992, 0.0]
      ],
      "pbc": [true, true, true],
      "a": 8.0369643612578,
      "b": 8.0369643612578,
      "c": 8.0369643612578,
      "alpha": 60.00000000000001,
      "beta": 60.00000000000001,
      "gamma": 60.00000000000001,
      "volume": 367.08034374471015
    },
    "properties": {},
    "sites": [
      {
        "species": [{ "element": "Ca", "occu": 1 }],
        "abc": [0.379585, 0.379585, 0.379585],
        "properties": { "magmom": 0.0 },
        "label": "Ca",
        "xyz": [4.31435703664, 4.31435703664, 4.31435703664]
      },
      {
        "species": [{ "element": "Ca", "occu": 1 }],
        "abc": [0.379585, 0.379585, 0.861244999999999],
        "properties": { "magmom": 0.0 },
        "label": "Ca",
        "xyz": [7.051626963359993, 7.051626963359993, 4.31435703664]
      },
      {
        "species": [{ "element": "Ca", "occu": 1 }],
        "abc": [0.379585, 0.861244999999999, 0.379585],
        "properties": { "magmom": 0.0 },
        "label": "Ca",
        "xyz": [7.051626963359993, 4.31435703664, 7.051626963359993]
      },
      {
        "species": [{ "element": "Ca", "occu": 1 }],
        "abc": [0.870414999999999, 0.870414999999999, 0.388754999999999],
        "properties": { "magmom": 0.0 },
        "label": "Ca",
        "xyz": [7.155853036639989, 7.155853036639989, 9.893122963359989]
      },
      {
        "species": [{ "element": "Ca", "occu": 1 }],
        "abc": [0.870414999999999, 0.870414999999999, 0.870414999999999],
        "properties": { "magmom": 0.0 },
        "label": "Ca",
        "xyz": [9.893122963359989, 9.893122963359989, 9.893122963359989]
      },
      {
        "species": [{ "element": "Ca", "occu": 1 }],
        "abc": [0.861244999999999, 0.379585, 0.379585],
        "properties": { "magmom": 0.0 },
        "label": "Ca",
        "xyz": [4.31435703664, 7.051626963359993, 7.051626963359993]
      },
      {
        "species": [{ "element": "Ca", "occu": 1 }],
        "abc": [0.870414999999999, 0.388754999999999, 0.870414999999999],
        "properties": { "magmom": 0.0 },
        "label": "Ca",
        "xyz": [7.155853036639989, 9.893122963359989, 7.155853036639989]
      },
      {
        "species": [{ "element": "Ca", "occu": 1 }],
        "abc": [0.388754999999999, 0.870414999999999, 0.870414999999999],
        "properties": { "magmom": 0.0 },
        "label": "Ca",
        "xyz": [9.893122963359989, 7.155853036639989, 7.155853036639989]
      },
      {
        "species": [{ "element": "Ni", "occu": 1 }],
        "abc": [0.0, 0.0, 0.0],
        "properties": { "magmom": 0.0 },
        "label": "Ni",
        "xyz": [0.0, 0.0, 0.0]
      },
      {
        "species": [{ "element": "Ni", "occu": 1 }],
        "abc": [0.25, 0.25, 0.25],
        "properties": { "magmom": 0.0 },
        "label": "Ni",
        "xyz": [2.841496, 2.841496, 2.841496]
      }
    ]
  },
  "task_ids": null,
  "uncorrected_energy_per_atom": null,
  "energy_per_atom": -2.543169915,
  "formation_energy_per_atom": 0.21733732500000102,
  "energy_above_hull": 0.27408151750000004,
  "is_stable": false,
  "equilibrium_reaction_energy_per_atom": null,
  "decomposes_to": null,
  "xas": null,
  "grain_boundaries": null,
  "band_gap": 0.0,
  "cbm": null,
  "vbm": null,
  "efermi": 2.04512879,
  "is_gap_direct": null,
  "is_metal": null,
  "es_source_calc_id": null,
  "bandstructure": null,
  "dos": null,
  "dos_energy_up": null,
  "dos_energy_down": null,
  "is_magnetic": null,
  "ordering": null,
  "total_magnetization": 0.005693,
  "total_magnetization_normalized_vol": null,
  "total_magnetization_normalized_formula_units": null,
  "num_magnetic_sites": null,
  "num_unique_magnetic_sites": null,
  "types_of_magnetic_species": null,
  "bulk_modulus": null,
  "shear_modulus": null,
  "universal_anisotropy": null,
  "homogeneous_poisson": null,
  "e_total": null,
  "e_ionic": null,
  "e_electronic": null,
  "n": null,
  "e_ij_max": null,
  "weighted_surface_energy_EV_PER_ANG2": null,
  "weighted_surface_energy": null,
  "weighted_work_function": null,
  "surface_anisotropy": null,
  "shape_factor": null,
  "has_reconstructed": null,
  "possible_species": null,
  "has_props": null,
  "theoretical": null,
  "database_IDs": null,
  "fields_not_requested": [
    "builder_meta",
    "nsites",
    "elements",
    "nelements",
    "composition",
    "composition_reduced",
    "chemsys",
    "symmetry",
    "property_name",
    "deprecated",
    "deprecation_reasons",
    "last_updated",
    "origins",
    "warnings",
    "task_ids",
    "uncorrected_energy_per_atom",
    "equilibrium_reaction_energy_per_atom",
    "decomposes_to",
    "xas",
    "grain_boundaries",
    "cbm",
    "vbm",
    "is_gap_direct",
    "is_metal",
    "es_source_calc_id",
    "bandstructure",
    "dos",
    "dos_energy_up",
    "dos_energy_down",
    "is_magnetic",
    "ordering",
    "total_magnetization_normalized_vol",
    "total_magnetization_normalized_formula_units",
    "num_magnetic_sites",
    "num_unique_magnetic_sites",
    "types_of_magnetic_species",
    "bulk_modulus",
    "shear_modulus",
    "universal_anisotropy",
    "homogeneous_poisson",
    "e_total",
    "e_ionic",
    "e_electronic",
    "n",
    "e_ij_max",
    "weighted_surface_energy_EV_PER_ANG2",
    "weighted_surface_energy",
    "weighted_work_function",
    "surface_anisotropy",
    "shape_factor",
    "has_reconstructed",
    "possible_species",
    "has_props",
    "theoretical",
    "database_IDs"
  ]
}
