{"builder_meta": null, "nsites": null, "elements": null, "nelements": null, "composition": null, "composition_reduced": null, "formula_pretty": "Ca4Pt", "formula_anonymous": "AB4", "chemsys": null, "volume": 396.3956203105822, "density": 2.977575492135773, "density_atomic": 39.63956203105822, "symmetry": null, "property_name": null, "material_id": "mp-1214057", "deprecated": null, "deprecation_reasons": null, "last_updated": null, "origins": null, "warnings": null, "structure": {"@module": "pymatgen.core.structure", "@class": "Structure", "charge": 0, "lattice": {"matrix": [[-5.830417, -5.830417, 0.0], [-5.830417, 0.0, -5.830417], [0.0, -5.830417, -5.830417]], "pbc": [true, true, true], "a": 8.245454795690653, "b": 8.245454795690653, "c": 8.245454795690653, "alpha": 59.99999999999999, "beta": 59.99999999999999, "gamma": 59.99999999999999, "volume": 396.3956203105822}, "properties": {}, "sites": [{"species": [{"element": "Ca", "occu": 1}], "abc": [0.616637, 0.616637, 0.616637], "properties": {"magmom": 0.0}, "label": "Ca", "xyz": [-7.190501695258, -7.190501695258, -7.190501695258]}, {"species": [{"element": "Ca", "occu": 1}], "abc": [0.150089, 0.616637, 0.616637], "properties": {"magmom": 0.0}, "label": "Ca", "xyz": [-4.470332304742, -4.470332304742, -7.190501695258]}, {"species": [{"element": "Ca", "occu": 1}], "abc": [0.616637, 0.150089, 0.616637], "properties": {"magmom": 0.0}, "label": "Ca", "xyz": [-4.470332304742, -7.190501695258, -4.470332304742]}, {"species": [{"element": "Ca", "occu": 1}], "abc": [0.599911, 0.133362999999999, 0.133362999999999], "properties": {"magmom": 0.0}, "label": "Ca", "xyz": [-4.275293195257993, -4.275293195257993, -1.5551238047419884]}, {"species": [{"element": "Ca", "occu": 1}], "abc": [0.133362999999999, 0.133362999999999, 0.133362999999999], "properties": {"magmom": 0.0}, "label": "Ca", "xyz": [-1.5551238047419884, -1.5551238047419884, -1.5551238047419884]}, {"species": [{"element": "Ca", "occu": 1}], "abc": [0.616637, 0.616637, 0.150089], "properties": {"magmom": 0.0}, "label": "Ca", "xyz": [-7.190501695258, -4.470332304742, -4.470332304742]}, {"species": [{"element": "Ca", "occu": 1}], "abc": [0.133362999999999, 0.599911, 0.133362999999999], "properties": {"magmom": 0.0}, "label": "Ca", "xyz": [-4.275293195257993, -1.5551238047419884, -4.275293195257993]}, {"species": [{"element": "Ca", "occu": 1}], "abc": [0.133362999999999, 0.133362999999999, 0.599911], "properties": {"magmom": 0.0}, "label": "Ca", "xyz": [-1.5551238047419884, -4.275293195257993, -4.275293195257993]}, {"species": [{"element": "Pt", "occu": 1}], "abc": [0.0, 0.0, 0.0], "properties": {"magmom": -0.006}, "label": "Pt", "xyz": [0.0, 0.0, 0.0]}, {"species": [{"element": "Pt", "occu": 1}], "abc": [0.75, 0.75, 0.75], "properties": {"magmom": -0.006}, "label": "Pt", "xyz": [-8.7456255, -8.7456255, -8.7456255]}]}, "task_ids": null, "uncorrected_energy_per_atom": null, "energy_per_atom": -16.1030318, "formation_energy_per_atom": -0.17485345999999902, "energy_above_hull": 0.340245090500001, "is_stable": false, "equilibrium_reaction_energy_per_atom": null, "decomposes_to": null, "xas": null, "grain_boundaries": null, "band_gap": 0.0, "cbm": null, "vbm": null, "efermi": 1.92928874, "is_gap_direct": null, "is_metal": null, "es_source_calc_id": null, "bandstructure": null, "dos": null, "dos_energy_up": null, "dos_energy_down": null, "is_magnetic": null, "ordering": null, "total_magnetization": 0.030981099999999002, "total_magnetization_normalized_vol": null, "total_magnetization_normalized_formula_units": null, "num_magnetic_sites": null, "num_unique_magnetic_sites": null, "types_of_magnetic_species": null, "bulk_modulus": null, "shear_modulus": null, "universal_anisotropy": null, "homogeneous_poisson": null, "e_total": null, "e_ionic": null, "e_electronic": null, "n": null, "e_ij_max": null, "weighted_surface_energy_EV_PER_ANG2": null, "weighted_surface_energy": null, "weighted_work_function": null, "surface_anisotropy": null, "shape_factor": null, "has_reconstructed": null, "possible_species": null, "has_props": null, "theoretical": null, "database_IDs": null, "fields_not_requested": ["builder_meta", "nsites", "elements", "nelements", "composition", "composition_reduced", "chemsys", "symmetry", "property_name", "deprecated", "deprecation_reasons", "last_updated", "origins", "warnings", "task_ids", "uncorrected_energy_per_atom", "equilibrium_reaction_energy_per_atom", "decomposes_to", "xas", "grain_boundaries", "cbm", "vbm", "is_gap_direct", "is_metal", "es_source_calc_id", "bandstructure", "dos", "dos_energy_up", "dos_energy_down", "is_magnetic", "ordering", "total_magnetization_normalized_vol", "total_magnetization_normalized_formula_units", "num_magnetic_sites", "num_unique_magnetic_sites", "types_of_magnetic_species", "bulk_modulus", "shear_modulus", "universal_anisotropy", "homogeneous_poisson", "e_total", "e_ionic", "e_electronic", "n", "e_ij_max", "weighted_surface_energy_EV_PER_ANG2", "weighted_surface_energy", "weighted_work_function", "surface_anisotropy", "shape_factor", "has_reconstructed", "possible_species", "has_props", "theoretical", "database_IDs"]}