{
  "builder_meta": null,
  "nsites": null,
  "elements": null,
  "nelements": null,
  "composition": null,
  "composition_reduced": null,
  "formula_pretty": "Ca4Rh",
  "formula_anonymous": "AB4",
  "chemsys": null,
  "volume": 382.1080200902937,
  "density": 2.287745447789873,
  "density_atomic": 38.210802009029365,
  "symmetry": null,
  "property_name": null,
  "material_id": "mp-1214055",
  "deprecated": null,
  "deprecation_reasons": null,
  "last_updated": null,
  "origins": null,
  "warnings": null,
  "structure": {
    "@module": "pymatgen.core.structure",
    "@class": "Structure",
    "charge": 0,
    "lattice": {
      "matrix": [
        [0.0, 5.759508, 5.759508],
        [5.759508, 0.0, 5.759508],
        [5.759508, 5.759508, 0.0]
      ],
      "pbc": [true, true, true],
      "a": 8.14517432619634,
      "b": 8.14517432619634,
      "c": 8.14517432619634,
      "alpha": 59.99999999999999,
      "beta": 59.99999999999999,
      "gamma": 59.99999999999999,
      "volume": 382.1080200902937
    },
    "properties": {},
    "sites": [
      {
        "species": [{ "element": "Ca", "occu": 1 }],
        "abc": [0.380608, 0.380608, 0.380608],
        "properties": { "magmom": -0.0 },
        "label": "Ca",
        "xyz": [4.384229641728, 4.384229641728, 4.384229641728]
      },
      {
        "species": [{ "element": "Ca", "occu": 1 }],
        "abc": [0.380608, 0.380608, 0.858174999999999],
        "properties": { "magmom": 0.0 },
        "label": "Ca",
        "xyz": [7.134780598763995, 7.134780598763995, 4.384229641728]
      },
      {
        "species": [{ "element": "Ca", "occu": 1 }],
        "abc": [0.380608, 0.858174999999999, 0.380608],
        "properties": { "magmom": -0.0 },
        "label": "Ca",
        "xyz": [7.134780598763995, 4.384229641728, 7.134780598763995]
      },
      {
        "species": [{ "element": "Ca", "occu": 1 }],
        "abc": [0.869391999999999, 0.869391999999999, 0.391825],
        "properties": { "magmom": 0.0 },
        "label": "Ca",
        "xyz": [7.263989401235995, 7.263989401235995, 10.01454035827199]
      },
      {
        "species": [{ "element": "Ca", "occu": 1 }],
        "abc": [0.869391999999999, 0.869391999999999, 0.869391999999999],
        "properties": { "magmom": -0.0 },
        "label": "Ca",
        "xyz": [10.01454035827199, 10.01454035827199, 10.01454035827199]
      },
      {
        "species": [{ "element": "Ca", "occu": 1 }],
        "abc": [0.858174999999999, 0.380608, 0.380608],
        "properties": { "magmom": 0.0 },
        "label": "Ca",
        "xyz": [4.384229641728, 7.134780598763995, 7.134780598763995]
      },
      {
        "species": [{ "element": "Ca", "occu": 1 }],
        "abc": [0.869391999999999, 0.391825, 0.869391999999999],
        "properties": { "magmom": -0.0 },
        "label": "Ca",
        "xyz": [7.263989401235995, 10.01454035827199, 7.263989401235995]
      },
      {
        "species": [{ "element": "Ca", "occu": 1 }],
        "abc": [0.391825, 0.869391999999999, 0.869391999999999],
        "properties": { "magmom": 0.0 },
        "label": "Ca",
        "xyz": [10.01454035827199, 7.263989401235995, 7.263989401235995]
      },
      {
        "species": [{ "element": "Rh", "occu": 1 }],
        "abc": [0.0, 0.0, 0.0],
        "properties": { "magmom": -0.0 },
        "label": "Rh",
        "xyz": [0.0, 0.0, 0.0]
      },
      {
        "species": [{ "element": "Rh", "occu": 1 }],
        "abc": [0.25, 0.25, 0.25],
        "properties": { "magmom": -0.0 },
        "label": "Rh",
        "xyz": [2.879754, 2.879754, 2.879754]
      }
    ]
  },
  "task_ids": null,
  "uncorrected_energy_per_atom": null,
  "energy_per_atom": -10.374974774277778,
  "formation_energy_per_atom": 0.082905911722222,
  "energy_above_hull": 0.30835701472222005,
  "is_stable": false,
  "equilibrium_reaction_energy_per_atom": null,
  "decomposes_to": null,
  "xas": null,
  "grain_boundaries": null,
  "band_gap": 0.0,
  "cbm": null,
  "vbm": null,
  "efermi": 1.91206461,
  "is_gap_direct": null,
  "is_metal": null,
  "es_source_calc_id": null,
  "bandstructure": null,
  "dos": null,
  "dos_energy_up": null,
  "dos_energy_down": null,
  "is_magnetic": null,
  "ordering": null,
  "total_magnetization": 0.0003474,
  "total_magnetization_normalized_vol": null,
  "total_magnetization_normalized_formula_units": null,
  "num_magnetic_sites": null,
  "num_unique_magnetic_sites": null,
  "types_of_magnetic_species": null,
  "bulk_modulus": null,
  "shear_modulus": null,
  "universal_anisotropy": null,
  "homogeneous_poisson": null,
  "e_total": null,
  "e_ionic": null,
  "e_electronic": null,
  "n": null,
  "e_ij_max": null,
  "weighted_surface_energy_EV_PER_ANG2": null,
  "weighted_surface_energy": null,
  "weighted_work_function": null,
  "surface_anisotropy": null,
  "shape_factor": null,
  "has_reconstructed": null,
  "possible_species": null,
  "has_props": null,
  "theoretical": null,
  "database_IDs": null,
  "fields_not_requested": [
    "builder_meta",
    "nsites",
    "elements",
    "nelements",
    "composition",
    "composition_reduced",
    "chemsys",
    "symmetry",
    "property_name",
    "deprecated",
    "deprecation_reasons",
    "last_updated",
    "origins",
    "warnings",
    "task_ids",
    "uncorrected_energy_per_atom",
    "equilibrium_reaction_energy_per_atom",
    "decomposes_to",
    "xas",
    "grain_boundaries",
    "cbm",
    "vbm",
    "is_gap_direct",
    "is_metal",
    "es_source_calc_id",
    "bandstructure",
    "dos",
    "dos_energy_up",
    "dos_energy_down",
    "is_magnetic",
    "ordering",
    "total_magnetization_normalized_vol",
    "total_magnetization_normalized_formula_units",
    "num_magnetic_sites",
    "num_unique_magnetic_sites",
    "types_of_magnetic_species",
    "bulk_modulus",
    "shear_modulus",
    "universal_anisotropy",
    "homogeneous_poisson",
    "e_total",
    "e_ionic",
    "e_electronic",
    "n",
    "e_ij_max",
    "weighted_surface_energy_EV_PER_ANG2",
    "weighted_surface_energy",
    "weighted_work_function",
    "surface_anisotropy",
    "shape_factor",
    "has_reconstructed",
    "possible_species",
    "has_props",
    "theoretical",
    "database_IDs"
  ]
}
