{
  "builder_meta": null,
  "nsites": null,
  "elements": null,
  "nelements": null,
  "composition": null,
  "composition_reduced": null,
  "formula_pretty": "Ca5Ag3",
  "formula_anonymous": "A3B5",
  "chemsys": null,
  "volume": 475.0012135231433,
  "density": 3.663626446482945,
  "density_atomic": 29.687575845196456,
  "symmetry": null,
  "property_name": null,
  "material_id": "mp-31172",
  "deprecated": null,
  "deprecation_reasons": null,
  "last_updated": null,
  "origins": null,
  "warnings": null,
  "structure": {
    "@module": "pymatgen.core.structure",
    "@class": "Structure",
    "charge": 0,
    "lattice": {
      "matrix": [
        [7.20107594, 1e-8, -3.3996469],
        [-1.60498117, 7.01993992, -3.39964691],
        [0.02100905, 0.02635362, 9.3709271]
      ],
      "pbc": [true, true, true],
      "a": 7.96323387439591,
      "b": 7.96323553269252,
      "c": 9.370987707119426,
      "alpha": 115.14355912380326,
      "beta": 115.1435595001165,
      "gamma": 89.99999289694051,
      "volume": 475.0012135231433
    },
    "properties": {},
    "sites": [
      {
        "species": [{ "element": "Ca", "occu": 1 }],
        "abc": [0.0, -0.0, 0.0],
        "properties": { "magmom": 0.0 },
        "label": "Ca",
        "xyz": [0.0, 0.0, 0.0]
      },
      {
        "species": [{ "element": "Ca", "occu": 1 }],
        "abc": [0.5, 0.5, 0.0],
        "properties": { "magmom": 0.0 },
        "label": "Ca",
        "xyz": [2.798047385, 3.509969965, -3.399646905]
      },
      {
        "species": [{ "element": "Ca", "occu": 1 }],
        "abc": [0.31475061, 0.81475061, 0.28998783],
        "properties": { "magmom": -0.0 },
        "label": "Ca",
        "xyz": [0.9649760262951708, 5.727142564207302, -1.1224505144495311]
      },
      {
        "species": [{ "element": "Ca", "occu": 1 }],
        "abc": [0.47523722, 0.31475061, 0.28998783],
        "properties": { "magmom": -0.0 },
        "label": "Ca",
        "xyz": [2.9231428772583348, 2.2171726058121677, 0.031775134372459934]
      },
      {
        "species": [{ "element": "Ca", "occu": 1 }],
        "abc": [0.81475061, 0.97523722, 0.28998783],
        "properties": { "magmom": -0.0 },
        "label": "Ca",
        "xyz": [4.307936009208038, 6.853748929371773, -3.3678717722324065]
      },
      {
        "species": [{ "element": "Ca", "occu": 1 }],
        "abc": [0.52476278, 0.6852493900000001, 0.71001217],
        "properties": { "magmom": -0.0 },
        "label": "Ca",
        "xyz": [2.6939609427416653, 4.829120944187832, 2.53985815562754]
      },
      {
        "species": [{ "element": "Ca", "occu": 1 }],
        "abc": [0.18524939, 0.02476278, 0.71001217],
        "properties": { "magmom": -0.0 },
        "label": "Ca",
        "xyz": [1.3091678107919624, 0.19254462062822691, 5.939505062232406]
      },
      {
        "species": [{ "element": "Ca", "occu": 1 }],
        "abc": [0.02476278, 0.52476278, 0.71001217],
        "properties": { "magmom": -0.0 },
        "label": "Ca",
        "xyz": [-0.6489990401712009, 3.7025145790233607, 4.785279413410415]
      },
      {
        "species": [{ "element": "Ca", "occu": 1 }],
        "abc": [0.6852493900000001, 0.18524939, 0.71001217],
        "properties": { "magmom": -0.0 },
        "label": "Ca",
        "xyz": [4.652127793704829, 1.3191509857926982, 3.6940838044495306]
      },
      {
        "species": [{ "element": "Ca", "occu": 1 }],
        "abc": [0.97523722, 0.47523722, 0.28998783],
        "properties": { "magmom": -0.0 },
        "label": "Ca",
        "xyz": [6.266102860171201, 3.343778970976639, -2.2136461234104154]
      },
      {
        "species": [{ "element": "Ag", "occu": 1 }],
        "abc": [0.25, 0.25, 0.5],
        "properties": { "magmom": -0.0 },
        "label": "Ag",
        "xyz": [1.4095282175, 1.7681617925, 2.9856400974999997]
      },
      {
        "species": [{ "element": "Ag", "occu": 1 }],
        "abc": [0.75, 0.75, 0.5],
        "properties": { "magmom": -0.0 },
        "label": "Ag",
        "xyz": [4.2075756025, 5.2781317575, -0.41400680749999985]
      },
      {
        "species": [{ "element": "Ag", "occu": 1 }],
        "abc": [0.37533832, 0.87533832, -0.0],
        "properties": { "magmom": 0.0 },
        "label": "Ag",
        "xyz": [1.2979382245325866, 6.1448224198271175, -4.251858970831799]
      },
      {
        "species": [{ "element": "Ag", "occu": 1 }],
        "abc": [0.12466168, 0.37533832, 0.0],
        "properties": { "magmom": 0.0 },
        "label": "Ag",
        "xyz": [0.2952872885085448, 2.634852457320351, -1.6998234537533832]
      },
      {
        "species": [{ "element": "Ag", "occu": 1 }],
        "abc": [0.87533832, 0.62466168, -0.0],
        "properties": { "magmom": 0.0 },
        "label": "Ag",
        "xyz": [5.300807481491455, 4.385087472679649, -5.099470356246616]
      },
      {
        "species": [{ "element": "Ag", "occu": 1 }],
        "abc": [0.62466168, 0.12466168, 0.0],
        "properties": { "magmom": 0.0 },
        "label": "Ag",
        "xyz": [4.298156545467413, 0.8751175101728823, -2.5474348391682007]
      }
    ]
  },
  "task_ids": null,
  "uncorrected_energy_per_atom": null,
  "energy_per_atom": -12.66214207375,
  "formation_energy_per_atom": -0.254754581874998,
  "energy_above_hull": 0.0,
  "is_stable": true,
  "equilibrium_reaction_energy_per_atom": null,
  "decomposes_to": null,
  "xas": null,
  "grain_boundaries": null,
  "band_gap": 0.0,
  "cbm": null,
  "vbm": null,
  "efermi": 2.6470252,
  "is_gap_direct": null,
  "is_metal": null,
  "es_source_calc_id": null,
  "bandstructure": null,
  "dos": null,
  "dos_energy_up": null,
  "dos_energy_down": null,
  "is_magnetic": null,
  "ordering": null,
  "total_magnetization": 1e-7,
  "total_magnetization_normalized_vol": null,
  "total_magnetization_normalized_formula_units": null,
  "num_magnetic_sites": null,
  "num_unique_magnetic_sites": null,
  "types_of_magnetic_species": null,
  "bulk_modulus": null,
  "shear_modulus": null,
  "universal_anisotropy": null,
  "homogeneous_poisson": null,
  "e_total": null,
  "e_ionic": null,
  "e_electronic": null,
  "n": null,
  "e_ij_max": null,
  "weighted_surface_energy_EV_PER_ANG2": null,
  "weighted_surface_energy": null,
  "weighted_work_function": null,
  "surface_anisotropy": null,
  "shape_factor": null,
  "has_reconstructed": null,
  "possible_species": null,
  "has_props": null,
  "theoretical": null,
  "database_IDs": null,
  "fields_not_requested": [
    "builder_meta",
    "nsites",
    "elements",
    "nelements",
    "composition",
    "composition_reduced",
    "chemsys",
    "symmetry",
    "property_name",
    "deprecated",
    "deprecation_reasons",
    "last_updated",
    "origins",
    "warnings",
    "task_ids",
    "uncorrected_energy_per_atom",
    "equilibrium_reaction_energy_per_atom",
    "decomposes_to",
    "xas",
    "grain_boundaries",
    "cbm",
    "vbm",
    "is_gap_direct",
    "is_metal",
    "es_source_calc_id",
    "bandstructure",
    "dos",
    "dos_energy_up",
    "dos_energy_down",
    "is_magnetic",
    "ordering",
    "total_magnetization_normalized_vol",
    "total_magnetization_normalized_formula_units",
    "num_magnetic_sites",
    "num_unique_magnetic_sites",
    "types_of_magnetic_species",
    "bulk_modulus",
    "shear_modulus",
    "universal_anisotropy",
    "homogeneous_poisson",
    "e_total",
    "e_ionic",
    "e_electronic",
    "n",
    "e_ij_max",
    "weighted_surface_energy_EV_PER_ANG2",
    "weighted_surface_energy",
    "weighted_work_function",
    "surface_anisotropy",
    "shape_factor",
    "has_reconstructed",
    "possible_species",
    "has_props",
    "theoretical",
    "database_IDs"
  ]
}
