{
  "builder_meta": null,
  "nsites": null,
  "elements": null,
  "nelements": null,
  "composition": null,
  "composition_reduced": null,
  "formula_pretty": "Ca5Au2",
  "formula_anonymous": "A2B5",
  "chemsys": null,
  "volume": 445.2460652011548,
  "density": 4.433039911930223,
  "density_atomic": 31.803290371511057,
  "symmetry": null,
  "property_name": null,
  "material_id": "mp-30367",
  "deprecated": null,
  "deprecation_reasons": null,
  "last_updated": null,
  "origins": null,
  "warnings": null,
  "structure": {
    "@module": "pymatgen.core.structure",
    "@class": "Structure",
    "charge": 0,
    "lattice": {
      "matrix": [
        [6.40482968, -0.00589838, -2.59365547],
        [-0.38026723, 7.66274186, -0.92636783],
        [-0.058776470000000004, -0.02018553, 9.09918007]
      ],
      "pbc": [true, true, true],
      "a": 6.910059820128654,
      "b": 7.727895789648501,
      "c": 9.099392291539706,
      "alpha": 96.99323910805131,
      "beta": 112.41555245868827,
      "gamma": 90.0837605475422,
      "volume": 445.2460652011548
    },
    "properties": {},
    "sites": [
      {
        "species": [{ "element": "Ca", "occu": 1 }],
        "abc": [0.20073498, 0.18485535, 0.56414734],
        "properties": { "magmom": 0.0 },
        "label": "Ca",
        "xyz": [1.182220336617936, 1.4039272042426283, 4.441396804330782]
      },
      {
        "species": [{ "element": "Ca", "occu": 1 }],
        "abc": [0.63676014, 0.31517201, 0.43593285],
        "properties": { "magmom": 0.0 },
        "label": "Ca",
        "xyz": [3.9328680624166834, 2.402526365231105, 2.023129869408895]
      },
      {
        "species": [{ "element": "Ca", "occu": 1 }],
        "abc": [0.79926502, 0.81514465, 0.43585266],
        "properties": { "magmom": 0.0 },
        "label": "Ca",
        "xyz": [4.7835656433820635, 6.232730745757371, 1.137759965669217]
      },
      {
        "species": [{ "element": "Ca", "occu": 1 }],
        "abc": [0.36323986, 0.68482799, 0.56406715],
        "properties": { "magmom": 0.0 },
        "label": "Ca",
        "xyz": [2.0329179175833163, 5.234131584768895, 3.556026900591104]
      },
      {
        "species": [{ "element": "Ca", "occu": 1 }],
        "abc": [0.57479401, 0.75002919, 2.9760000000000003e-5],
        "properties": { "magmom": -0.0 },
        "label": "Ca",
        "xyz": [3.396244463446026, 5.743889116220816, -2.1853497497378087]
      },
      {
        "species": [{ "element": "Ca", "occu": 1 }],
        "abc": [0.42520599000000003, 0.24997081000000002, 0.99997024],
        "properties": { "magmom": -0.0 },
        "label": "Ca",
        "xyz": [2.5695415165539743, 1.8927688337791835, 7.764506519737809]
      },
      {
        "species": [{ "element": "Ca", "occu": 1 }],
        "abc": [0.015548890000000001, 0.57889325, 0.818191599999999],
        "properties": { "magmom": 0.0 },
        "label": "Ca",
        "xyz": [-0.16863655451179424, 4.419302194897099, 6.8682761527563265]
      },
      {
        "species": [{ "element": "Ca", "occu": 1 }],
        "abc": [0.19733223, 0.92106314, 0.18198908],
        "properties": { "magmom": 0.0 },
        "label": "Ca",
        "xyz": [0.9029325189207367, 7.0530315920682405, 0.29089632965205103]
      },
      {
        "species": [{ "element": "Ca", "occu": 1 }],
        "abc": [0.98445011, 0.42110575, 0.181807399999999],
        "properties": { "magmom": 0.0 },
        "label": "Ca",
        "xyz": [6.134416568725814, 3.2173481184449515, -1.2891249619131155]
      },
      {
        "species": [{ "element": "Ca", "occu": 1 }],
        "abc": [0.80266777, 0.07893686, 0.81801092],
        "properties": { "magmom": 0.0 },
        "label": "Ca",
        "xyz": [5.062853461079263, 0.5836263579317593, 5.288260440347948]
      },
      {
        "species": [{ "element": "Au", "occu": 1 }],
        "abc": [0.59740616, 0.4185714, 0.77836263],
        "properties": { "magmom": 0.0 },
        "label": "Au",
        "xyz": [3.6213663099762905, 3.188169197414039, 5.1452448959150265]
      },
      {
        "species": [{ "element": "Au", "occu": 1 }],
        "abc": [0.81893657, 0.08158792000000001, 0.22162835],
        "properties": { "magmom": 0.0 },
        "label": "Au",
        "xyz": [5.201097505168611, 0.6158830850607991, -0.18298347350116684]
      },
      {
        "species": [{ "element": "Au", "occu": 1 }],
        "abc": [0.40259584, 0.5814286, 0.22163837],
        "properties": { "magmom": 0.0 },
        "label": "Au",
        "xyz": [2.3444324209065988, 4.44848872060367, 0.4339157859541034]
      },
      {
        "species": [{ "element": "Au", "occu": 1 }],
        "abc": [0.18106343, 0.91841208, 0.77837065],
        "properties": { "magmom": 0.0 },
        "label": "Au",
        "xyz": [0.7646885336078585, 7.02077488512473, 5.762131144321097]
      }
    ]
  },
  "task_ids": null,
  "uncorrected_energy_per_atom": null,
  "energy_per_atom": -20.052945219285714,
  "formation_energy_per_atom": -0.572746819285717,
  "energy_above_hull": 0.0,
  "is_stable": true,
  "equilibrium_reaction_energy_per_atom": null,
  "decomposes_to": null,
  "xas": null,
  "grain_boundaries": null,
  "band_gap": 0.0,
  "cbm": null,
  "vbm": null,
  "efermi": 2.91712626,
  "is_gap_direct": null,
  "is_metal": null,
  "es_source_calc_id": null,
  "bandstructure": null,
  "dos": null,
  "dos_energy_up": null,
  "dos_energy_down": null,
  "is_magnetic": null,
  "ordering": null,
  "total_magnetization": 9.230000000000001e-5,
  "total_magnetization_normalized_vol": null,
  "total_magnetization_normalized_formula_units": null,
  "num_magnetic_sites": null,
  "num_unique_magnetic_sites": null,
  "types_of_magnetic_species": null,
  "bulk_modulus": null,
  "shear_modulus": null,
  "universal_anisotropy": null,
  "homogeneous_poisson": null,
  "e_total": null,
  "e_ionic": null,
  "e_electronic": null,
  "n": null,
  "e_ij_max": null,
  "weighted_surface_energy_EV_PER_ANG2": null,
  "weighted_surface_energy": null,
  "weighted_work_function": null,
  "surface_anisotropy": null,
  "shape_factor": null,
  "has_reconstructed": null,
  "possible_species": null,
  "has_props": null,
  "theoretical": null,
  "database_IDs": null,
  "fields_not_requested": [
    "builder_meta",
    "nsites",
    "elements",
    "nelements",
    "composition",
    "composition_reduced",
    "chemsys",
    "symmetry",
    "property_name",
    "deprecated",
    "deprecation_reasons",
    "last_updated",
    "origins",
    "warnings",
    "task_ids",
    "uncorrected_energy_per_atom",
    "equilibrium_reaction_energy_per_atom",
    "decomposes_to",
    "xas",
    "grain_boundaries",
    "cbm",
    "vbm",
    "is_gap_direct",
    "is_metal",
    "es_source_calc_id",
    "bandstructure",
    "dos",
    "dos_energy_up",
    "dos_energy_down",
    "is_magnetic",
    "ordering",
    "total_magnetization_normalized_vol",
    "total_magnetization_normalized_formula_units",
    "num_magnetic_sites",
    "num_unique_magnetic_sites",
    "types_of_magnetic_species",
    "bulk_modulus",
    "shear_modulus",
    "universal_anisotropy",
    "homogeneous_poisson",
    "e_total",
    "e_ionic",
    "e_electronic",
    "n",
    "e_ij_max",
    "weighted_surface_energy_EV_PER_ANG2",
    "weighted_surface_energy",
    "weighted_work_function",
    "surface_anisotropy",
    "shape_factor",
    "has_reconstructed",
    "possible_species",
    "has_props",
    "theoretical",
    "database_IDs"
  ]
}
