{"builder_meta": null, "nsites": null, "elements": null, "nelements": null, "composition": null, "composition_reduced": null, "formula_pretty": "Ca5Au4", "formula_anonymous": "A4B5", "chemsys": null, "volume": 473.04076582577807, "density": 6.938252567919399, "density_atomic": 26.280042545876558, "symmetry": null, "property_name": null, "material_id": "mp-571264", "deprecated": null, "deprecation_reasons": null, "last_updated": null, "origins": null, "warnings": null, "structure": {"@module": "pymatgen.core.structure", "@class": "Structure", "charge": 0, "lattice": {"matrix": [[7.28997979, 0.0, -2.53935451], [0.0, 8.06022237, 0.0], [0.003168, 0.0, 8.04944035]], "pbc": [true, true, true], "a": 7.719593685296253, "b": 8.06022237, "c": 8.049440973411265, "alpha": 90.0, "beta": 109.18246154932059, "gamma": 90.0, "volume": 473.040765825778}, "properties": {}, "sites": [{"species": [{"element": "Ca", "occu": 1}], "abc": [0.06855707, 0.32107179, 0.69171989], "properties": {"magmom": 0.0}, "label": "Ca", "xyz": [0.5019710233731353, 2.5879100241339423, 5.393867288566676]}, {"species": [{"element": "Ca", "occu": 1}], "abc": [0.56855707, 0.17892821, 0.69171989], "properties": {"magmom": 0.0}, "label": "Ca", "xyz": [4.146960918373135, 1.4422011608660577, 4.124190033566675]}, {"species": [{"element": "Ca", "occu": 1}], "abc": [0.43144293, 0.82107179, 0.30828011], "properties": {"magmom": 0.0}, "label": "Ca", "xyz": [3.1461868716268646, 6.618021209133942, 1.385895806433324]}, {"species": [{"element": "Ca", "occu": 1}], "abc": [0.2526193, 0.32908606, 0.25663593], "properties": {"magmom": -0.0}, "label": "Ca", "xyz": [1.842402614190187, 2.652506822467162, 1.4242856514337323]}, {"species": [{"element": "Ca", "occu": 1}], "abc": [-0.0, -0.0, -0.0], "properties": {"magmom": -0.0}, "label": "Ca", "xyz": [0.0, 0.0, 0.0]}, {"species": [{"element": "Ca", "occu": 1}], "abc": [0.93144293, 0.67892821, 0.30828011], "properties": {"magmom": 0.0}, "label": "Ca", "xyz": [6.791176766626865, 5.472312345866058, 0.11621855143332427]}, {"species": [{"element": "Ca", "occu": 1}], "abc": [0.247380699999999, 0.8290860600000001, 0.74336407], "properties": {"magmom": -0.0}, "label": "Ca", "xyz": [1.8057552808098059, 6.682618007467163, 5.35547744356627]}, {"species": [{"element": "Ca", "occu": 1}], "abc": [0.7526193, 0.17091394000000001, 0.25663593], "properties": {"magmom": -0.0}, "label": "Ca", "xyz": [5.487392509190188, 1.3776043625328378, 0.15460839643373236]}, {"species": [{"element": "Ca", "occu": 1}], "abc": [0.7473807, 0.67091394, 0.74336407], "properties": {"magmom": -0.0}, "label": "Ca", "xyz": [5.450745175809813, 5.407715547532838, 4.085800188566267]}, {"species": [{"element": "Ca", "occu": 1}], "abc": [0.5, 0.5, -0.0], "properties": {"magmom": -0.0}, "label": "Ca", "xyz": [3.644989895, 4.030111185, -1.269677255]}, {"species": [{"element": "Au", "occu": 1}], "abc": [0.6290739200000001, 0.86944727, 0.01254151], "properties": {"magmom": -0.0}, "label": "Au", "xyz": [4.585975894719757, 7.00793833518943, -1.4964895592314507]}, {"species": [{"element": "Au", "occu": 1}], "abc": [0.85604802, 0.96708023, 0.58049659], "properties": {"magmom": 0.0}, "label": "Au", "xyz": [6.242411778266637, 7.794881703430745, 2.4988632742198353]}, {"species": [{"element": "Au", "occu": 1}], "abc": [0.37092608, 0.13055273, 0.98745849], "properties": {"magmom": -0.0}, "label": "Au", "xyz": [2.7071718952802435, 1.0522840348105702, 7.00657539923145]}, {"species": [{"element": "Au", "occu": 1}], "abc": [0.35604802, 0.53291977, 0.58049659], "properties": {"magmom": 0.0}, "label": "Au", "xyz": [2.5974218832666365, 4.295451851569255, 3.7685405292198353]}, {"species": [{"element": "Au", "occu": 1}], "abc": [0.87092608, 0.36944727, 0.98745849], "properties": {"magmom": -0.0}, "label": "Au", "xyz": [6.352161790280244, 2.97782715018943, 5.73689814423145]}, {"species": [{"element": "Au", "occu": 1}], "abc": [0.64395198, 0.46708023, 0.41950341], "properties": {"magmom": 0.0}, "label": "Au", "xyz": [4.695725906733364, 3.764770518430745, 1.7415453107801637]}, {"species": [{"element": "Au", "occu": 1}], "abc": [0.14395198, 0.03291977, 0.41950341], "properties": {"magmom": 0.0}, "label": "Au", "xyz": [1.0507360117333644, 0.2653406665692549, 3.0112225657801637]}, {"species": [{"element": "Au", "occu": 1}], "abc": [0.12907392, 0.63055273, 0.01254151], "properties": {"magmom": -0.0}, "label": "Au", "xyz": [0.9409859997197568, 5.08239521981057, -0.2268123042314507]}]}, "task_ids": null, "uncorrected_energy_per_atom": null, "energy_per_atom": -27.192922796111112, "formation_energy_per_atom": -0.800555118333335, "energy_above_hull": 0.0, "is_stable": true, "equilibrium_reaction_energy_per_atom": null, "decomposes_to": null, "xas": null, "grain_boundaries": null, "band_gap": 0.0, "cbm": null, "vbm": null, "efermi": 3.51710827, "is_gap_direct": null, "is_metal": null, "es_source_calc_id": null, "bandstructure": null, "dos": null, "dos_energy_up": null, "dos_energy_down": null, "is_magnetic": null, "ordering": null, "total_magnetization": 4e-07, "total_magnetization_normalized_vol": null, "total_magnetization_normalized_formula_units": null, "num_magnetic_sites": null, "num_unique_magnetic_sites": null, "types_of_magnetic_species": null, "bulk_modulus": null, "shear_modulus": null, "universal_anisotropy": null, "homogeneous_poisson": null, "e_total": null, "e_ionic": null, "e_electronic": null, "n": null, "e_ij_max": null, "weighted_surface_energy_EV_PER_ANG2": null, "weighted_surface_energy": null, "weighted_work_function": null, "surface_anisotropy": null, "shape_factor": null, "has_reconstructed": null, "possible_species": null, "has_props": null, "theoretical": null, "database_IDs": null, "fields_not_requested": ["builder_meta", "nsites", "elements", "nelements", "composition", "composition_reduced", "chemsys", "symmetry", "property_name", "deprecated", "deprecation_reasons", "last_updated", "origins", "warnings", "task_ids", "uncorrected_energy_per_atom", "equilibrium_reaction_energy_per_atom", "decomposes_to", "xas", "grain_boundaries", "cbm", "vbm", "is_gap_direct", "is_metal", "es_source_calc_id", "bandstructure", "dos", "dos_energy_up", "dos_energy_down", "is_magnetic", "ordering", "total_magnetization_normalized_vol", "total_magnetization_normalized_formula_units", "num_magnetic_sites", "num_unique_magnetic_sites", "types_of_magnetic_species", "bulk_modulus", "shear_modulus", "universal_anisotropy", "homogeneous_poisson", "e_total", "e_ionic", "e_electronic", "n", "e_ij_max", "weighted_surface_energy_EV_PER_ANG2", "weighted_surface_energy", "weighted_work_function", "surface_anisotropy", "shape_factor", "has_reconstructed", "possible_species", "has_props", "theoretical", "database_IDs"]}