{"builder_meta": null, "nsites": null, "elements": null, "nelements": null, "composition": null, "composition_reduced": null, "formula_pretty": "Ca5As3", "formula_anonymous": "A3B5", "chemsys": null, "volume": 423.6448275609784, "density": 3.332915257419928, "density_atomic": 26.47780172256115, "symmetry": null, "property_name": null, "material_id": "mp-10047", "deprecated": null, "deprecation_reasons": null, "last_updated": null, "origins": null, "warnings": null, "structure": {"@module": "pymatgen.core.structure", "@class": "Structure", "charge": 0, "lattice": {"matrix": [[8.49880806, 1.003e-05, -4.44e-06], [-4.24939686, 7.36019877, 2.109999999999999e-06], [-3.709999999999998e-06, 4.5e-07, 6.77257851]], "pbc": [true, true, true], "a": 8.498808060007079, "b": 8.498817541734368, "c": 6.772578510001031, "alpha": 89.99996678504645, "beta": 90.00006131928332, "gamma": 119.99983966080808, "volume": 423.6448275609784}, "properties": {}, "sites": [{"species": [{"element": "Ca", "occu": 1}], "abc": [0.33333276, 0.66666619, 5e-08], "properties": {"magmom": 0.005}, "label": "Ca", "xyz": [1.9328956965175047e-06, 4.906799014966192, 2.6529713199999936e-07]}, {"species": [{"element": "Ca", "occu": 1}], "abc": [0.66666714, 0.33333359, 0.50000006], "properties": {"magmom": 0.005}, "label": "Ca", "xyz": [4.249407497090399, 2.453408390789126, 3.3862874046864837]}, {"species": [{"element": "Ca", "occu": 1}], "abc": [0.66666724, 0.33333381, -5e-08], "properties": {"magmom": 0.005}, "label": "Ca", "xyz": [4.249409267104304, 2.4534097850338084, -2.595297132e-06]}, {"species": [{"element": "Ca", "occu": 1}], "abc": [0.33333286, 0.66666641, 0.49999994000000003], "properties": {"magmom": 0.005}, "label": "Ca", "xyz": [-7.0903985507327825e-09, 4.906800859210875, 3.3862887753135165]}, {"species": [{"element": "Ca", "occu": 1}], "abc": [0.74609989, 3.2e-07, 0.24998663000000002], "properties": {"magmom": 0.056}, "label": "Ca", "xyz": [6.3409574714397205, 9.9511394866e-06, 1.693050765442485]}, {"species": [{"element": "Ca", "occu": 1}], "abc": [0.74609959, 0.74609926, 0.75001239], "properties": {"magmom": 0.056}, "label": "Ca", "xyz": [3.170482573816405, 5.491446676634374, 5.079516056334998]}, {"species": [{"element": "Ca", "occu": 1}], "abc": [5e-07, 0.25390009, 0.75001237], "properties": {"magmom": 0.056}, "label": "Ca", "xyz": [-1.0789207783415804, 1.8687554676314713, 5.079518195023139]}, {"species": [{"element": "Ca", "occu": 1}], "abc": [-5e-07, 0.74609991, 0.24998763000000002], "properties": {"magmom": 0.056}, "label": "Ca", "xyz": [-3.17047979165842, 5.4914437523685296, 1.6930624249768615]}, {"species": [{"element": "Ca", "occu": 1}], "abc": [0.25390041, 0.25390074, 0.24998761], "properties": {"magmom": 0.056}, "label": "Ca", "xyz": [1.0789249161835952, 1.8687625733656266, 1.693060123665002]}, {"species": [{"element": "Ca", "occu": 1}], "abc": [0.25390011, -3.2e-07, 0.75001337], "properties": {"magmom": 0.056}, "label": "Ca", "xyz": [2.157846878560279, 5.288605134000006e-07, 5.079523304557515]}, {"species": [{"element": "As", "occu": 1}], "abc": [0.38917618, -2.799999999999998e-07, 0.24999483], "properties": {"magmom": 0.016}, "label": "As", "xyz": [3.307533917694312, 1.955079103300001e-06, 1.6931078853262733]}, {"species": [{"element": "As", "occu": 1}], "abc": [0.38918227, 0.38918632000000003, 0.75000257], "properties": {"magmom": 0.016}, "label": "As", "xyz": [1.6537755044126061, 2.8644929147641514, 5.079450381240627]}, {"species": [{"element": "As", "occu": 1}], "abc": [-4.02e-06, 0.61081421, 0.75000257], "properties": {"magmom": 0.016}, "label": "As", "xyz": [-2.5956289337353167, 4.495714334601359, 5.079452576862603]}, {"species": [{"element": "As", "occu": 1}], "abc": [4.02e-06, 0.38918579000000003, 0.24999743], "properties": {"magmom": 0.016}, "label": "As", "xyz": [-1.6537716362646837, 2.864484885398643, 1.6931280431373972]}, {"species": [{"element": "As", "occu": 1}], "abc": [0.6108177300000001, 0.61081368, 0.24999743], "properties": {"magmom": 0.016}, "label": "As", "xyz": [2.5956319855873944, 4.495716335235849, 1.6931257987593729]}, {"species": [{"element": "As", "occu": 1}], "abc": [0.61082382, 2.799999999999998e-07, 0.75000517], "properties": {"magmom": 0.016}, "label": "As", "xyz": [5.191270432305688, 8.5249208967e-06, 5.079466184673727]}]}, "task_ids": null, "uncorrected_energy_per_atom": null, "energy_per_atom": -11.216584008125, "formation_energy_per_atom": -1.302326325312499, "energy_above_hull": 0.0, "is_stable": true, "equilibrium_reaction_energy_per_atom": null, "decomposes_to": null, "xas": null, "grain_boundaries": null, "band_gap": 0.0, "cbm": null, "vbm": null, "efermi": 3.88864381, "is_gap_direct": null, "is_metal": null, "es_source_calc_id": null, "bandstructure": null, "dos": null, "dos_energy_up": null, "dos_energy_down": null, "is_magnetic": null, "ordering": null, "total_magnetization": 1.9003516, "total_magnetization_normalized_vol": null, "total_magnetization_normalized_formula_units": null, "num_magnetic_sites": null, "num_unique_magnetic_sites": null, "types_of_magnetic_species": null, "bulk_modulus": null, "shear_modulus": null, "universal_anisotropy": null, "homogeneous_poisson": null, "e_total": null, "e_ionic": null, "e_electronic": null, "n": null, "e_ij_max": null, "weighted_surface_energy_EV_PER_ANG2": null, "weighted_surface_energy": null, "weighted_work_function": null, "surface_anisotropy": null, "shape_factor": null, "has_reconstructed": null, "possible_species": null, "has_props": null, "theoretical": null, "database_IDs": null, "fields_not_requested": ["builder_meta", "nsites", "elements", "nelements", "composition", "composition_reduced", "chemsys", "symmetry", "property_name", "deprecated", "deprecation_reasons", "last_updated", "origins", "warnings", "task_ids", "uncorrected_energy_per_atom", "equilibrium_reaction_energy_per_atom", "decomposes_to", "xas", "grain_boundaries", "cbm", "vbm", "is_gap_direct", "is_metal", "es_source_calc_id", "bandstructure", "dos", "dos_energy_up", "dos_energy_down", "is_magnetic", "ordering", "total_magnetization_normalized_vol", "total_magnetization_normalized_formula_units", "num_magnetic_sites", "num_unique_magnetic_sites", "types_of_magnetic_species", "bulk_modulus", "shear_modulus", "universal_anisotropy", "homogeneous_poisson", "e_total", "e_ionic", "e_electronic", "n", "e_ij_max", "weighted_surface_energy_EV_PER_ANG2", "weighted_surface_energy", "weighted_work_function", "surface_anisotropy", "shape_factor", "has_reconstructed", "possible_species", "has_props", "theoretical", "database_IDs"]}