{"builder_meta": null, "nsites": null, "elements": null, "nelements": null, "composition": null, "composition_reduced": null, "formula_pretty": "Ca5Au3", "formula_anonymous": "A3B5", "chemsys": null, "volume": 445.9147339506062, "density": 5.8933575028158405, "density_atomic": 27.869670871912888, "symmetry": null, "property_name": null, "material_id": "mp-30368", "deprecated": null, "deprecation_reasons": null, "last_updated": null, "origins": null, "warnings": null, "structure": {"@module": "pymatgen.core.structure", "@class": "Structure", "charge": 0, "lattice": {"matrix": [[7.05647905, -0.00448143, -3.38424906], [-1.62809235, 6.86609845, -3.38424289], [0.04500775, 0.05689603, 9.14877959]], "pbc": [true, true, true], "a": 7.826049984916697, "b": 7.8260521697556085, "c": 9.149067211589955, "alpha": 115.33986453420657, "beta": 115.33995369694698, "gamma": 90.06197472199814, "volume": 445.9147339506062}, "properties": {}, "sites": [{"species": [{"element": "Ca", "occu": 1}], "abc": [0.9734689, 0.4734699, 0.28795062], "properties": {"magmom": -0.0}, "label": "Ca", "xyz": [6.1113701860485845, 3.2629116608931663, -2.2624015972843994]}, {"species": [{"element": "Ca", "occu": 1}], "abc": [0.68554328, 0.18554428, 0.71173344], "properties": {"magmom": 0.0}, "label": "Ca", "xyz": [4.567472091068185, 1.311387886247319, 3.5635162580930047]}, {"species": [{"element": "Ca", "occu": 1}], "abc": [0.0265311, 0.5265301, 0.7120493800000001], "properties": {"magmom": -0.0}, "label": "Ca", "xyz": [-0.637975736048585, 3.6556013891068337, 4.6426892372844]}, {"species": [{"element": "Ca", "occu": 1}], "abc": [0.18520537, 0.02592007, 0.71178288], "properties": {"magmom": -0.0}, "label": "Ca", "xyz": [1.296733291591354, 0.2176373876435788, 5.797443773120165]}, {"species": [{"element": "Ca", "occu": 1}], "abc": [0.52591907, 0.68520537, 0.71178188], "properties": {"magmom": -0.0}, "label": "Ca", "xyz": [2.627594979284134, 4.742828222588743, 2.4131930163799353]}, {"species": [{"element": "Ca", "occu": 1}], "abc": [0.81479463, 0.97407993, 0.28821712], "properties": {"magmom": -0.0}, "label": "Ca", "xyz": [4.176661158408646, 6.700875662356421, -3.417156133120165]}, {"species": [{"element": "Ca", "occu": 1}], "abc": [0.0, -0.0, 0.0], "properties": {"magmom": -0.0}, "label": "Ca", "xyz": [0.0, 0.0, 0.0]}, {"species": [{"element": "Ca", "occu": 1}], "abc": [0.5, 0.5, 0.0], "properties": {"magmom": -0.0}, "label": "Ca", "xyz": [2.71419335, 3.43080851, -3.384245975]}, {"species": [{"element": "Ca", "occu": 1}], "abc": [0.31445672, 0.81445572, 0.28826656], "properties": {"magmom": 0.0}, "label": "Ca", "xyz": [0.9059223589318145, 5.6071251637526816, -1.1832286180930036]}, {"species": [{"element": "Ca", "occu": 1}], "abc": [0.47408093, 0.31479463, 0.28821812], "properties": {"magmom": -0.0}, "label": "Ca", "xyz": [2.845799470715866, 2.1756848274112577, -0.032905376379935625]}, {"species": [{"element": "Au", "occu": 1}], "abc": [0.62807609, 0.12807609, 0.99919759], "properties": {"magmom": 0.0}, "label": "Au", "xyz": [4.268457703875325, 0.9334187400556195, 6.582432003616713]}, {"species": [{"element": "Au", "occu": 1}], "abc": [0.87161016, 0.62839184, 1e-06], "properties": {"magmom": -0.0}, "label": "Au", "xyz": [5.127418931308474, 4.31069423559335, -5.076367332540878]}, {"species": [{"element": "Au", "occu": 1}], "abc": [0.12838984, 0.37160816, 0.999999], "properties": {"magmom": -0.0}, "label": "Au", "xyz": [0.34597551869152604, 2.6078188144066514, 7.4566549725408775]}, {"species": [{"element": "Au", "occu": 1}], "abc": [0.37192391, 0.87192391, 0.00080241], "properties": {"magmom": 0.0}, "label": "Au", "xyz": [1.2049367461246747, 5.9850943099443805, -4.202144363616713]}, {"species": [{"element": "Au", "occu": 1}], "abc": [0.75045035, 0.74954665, 0.499998999999999], "properties": {"magmom": 0.0}, "label": "Au", "xyz": [4.097709835999289, 5.171545959159662, -0.5019781663295877]}, {"species": [{"element": "Au", "occu": 1}], "abc": [0.24954965, 0.25045335, 0.500001], "properties": {"magmom": 0.0}, "label": "Au", "xyz": [1.37568461400071, 1.7469670908403383, 2.8822658063295794]}]}, "task_ids": null, "uncorrected_energy_per_atom": null, "energy_per_atom": -24.080405675, "formation_energy_per_atom": -0.7121120562499991, "energy_above_hull": 0.0, "is_stable": true, "equilibrium_reaction_energy_per_atom": null, "decomposes_to": null, "xas": null, "grain_boundaries": null, "band_gap": 0.0, "cbm": null, "vbm": null, "efermi": 3.36520811, "is_gap_direct": null, "is_metal": null, "es_source_calc_id": null, "bandstructure": null, "dos": null, "dos_energy_up": null, "dos_energy_down": null, "is_magnetic": null, "ordering": null, "total_magnetization": 9e-07, "total_magnetization_normalized_vol": null, "total_magnetization_normalized_formula_units": null, "num_magnetic_sites": null, "num_unique_magnetic_sites": null, "types_of_magnetic_species": null, "bulk_modulus": null, "shear_modulus": null, "universal_anisotropy": null, "homogeneous_poisson": null, "e_total": null, "e_ionic": null, "e_electronic": null, "n": null, "e_ij_max": null, "weighted_surface_energy_EV_PER_ANG2": null, "weighted_surface_energy": null, "weighted_work_function": null, "surface_anisotropy": null, "shape_factor": null, "has_reconstructed": null, "possible_species": null, "has_props": null, "theoretical": null, "database_IDs": null, "fields_not_requested": ["builder_meta", "nsites", "elements", "nelements", "composition", "composition_reduced", "chemsys", "symmetry", "property_name", "deprecated", "deprecation_reasons", "last_updated", "origins", "warnings", "task_ids", "uncorrected_energy_per_atom", "equilibrium_reaction_energy_per_atom", "decomposes_to", "xas", "grain_boundaries", "cbm", "vbm", "is_gap_direct", "is_metal", "es_source_calc_id", "bandstructure", "dos", "dos_energy_up", "dos_energy_down", "is_magnetic", "ordering", "total_magnetization_normalized_vol", "total_magnetization_normalized_formula_units", "num_magnetic_sites", "num_unique_magnetic_sites", "types_of_magnetic_species", "bulk_modulus", "shear_modulus", "universal_anisotropy", "homogeneous_poisson", "e_total", "e_ionic", "e_electronic", "n", "e_ij_max", "weighted_surface_energy_EV_PER_ANG2", "weighted_surface_energy", "weighted_work_function", "surface_anisotropy", "shape_factor", "has_reconstructed", "possible_species", "has_props", "theoretical", "database_IDs"]}