{"builder_meta": null, "nsites": null, "elements": null, "nelements": null, "composition": null, "composition_reduced": null, "formula_pretty": "Ca5Bi3", "formula_anonymous": "A3B5", "chemsys": null, "volume": 1054.1012004465026, "density": 5.213221569371625, "density_atomic": 32.94066251395321, "symmetry": null, "property_name": null, "material_id": "mp-27145", "deprecated": null, "deprecation_reasons": null, "last_updated": null, "origins": null, "warnings": null, "structure": {"@module": "pymatgen.core.structure", "@class": "Structure", "charge": 0, "lattice": {"matrix": [[8.45646583, -0.0, -2.059999999999999e-06], [0.0, 9.74661443, 0.0], [-2.09e-06, 0.0, 12.78908941]], "pbc": [true, true, true], "a": 8.456465830000251, "b": 9.74661443, "c": 12.789089410000171, "alpha": 90.0, "beta": 90.00002332059294, "gamma": 90.0, "volume": 1054.1012004465024}, "properties": {}, "sites": [{"species": [{"element": "Ca", "occu": 1}], "abc": [0.30591055, 0.95678998, 0.92500034], "properties": {"magmom": 0.056}, "label": "Ca", "xyz": [2.586920179860796, 9.32546302554741, 11.829911422364667]}, {"species": [{"element": "Ca", "occu": 1}], "abc": [0.80591055, 0.04321002, 0.57500066], "properties": {"magmom": 0.056}, "label": "Ca", "xyz": [6.815153826360128, 0.4211514044525886, 7.353733191373279]}, {"species": [{"element": "Ca", "occu": 1}], "abc": [0.69409045, 0.45678998, 0.07499966], "properties": {"magmom": 0.056}, "label": "Ca", "xyz": [5.869552016605035, 4.452155810547411, 0.9591759276332736]}, {"species": [{"element": "Ca", "occu": 1}], "abc": [0.19408945, 0.54321002, 0.42500034000000003], "properties": {"magmom": 0.056}, "label": "Ca", "xyz": [1.6413099136377831, 5.2944586194525876, 5.435366947716133]}, {"species": [{"element": "Ca", "occu": 1}], "abc": [0.69408945, 0.04321002, 0.07499966], "properties": {"magmom": 0.056}, "label": "Ca", "xyz": [5.8695435601392045, 0.4211514044525886, 0.9591759276353337]}, {"species": [{"element": "Ca", "occu": 1}], "abc": [0.19408945, 0.95678998, 0.42500034000000003], "properties": {"magmom": 0.056}, "label": "Ca", "xyz": [1.6413099136377831, 9.32546302554741, 5.435366947716133]}, {"species": [{"element": "Ca", "occu": 1}], "abc": [0.30591055, 0.54321002, 0.92500034], "properties": {"magmom": 0.056}, "label": "Ca", "xyz": [2.586920179860796, 5.2944586194525876, 11.829911422364667]}, {"species": [{"element": "Ca", "occu": 1}], "abc": [0.80591055, 0.45678998, 0.57500066], "properties": {"magmom": 0.056}, "label": "Ca", "xyz": [6.815153826360128, 4.452155810547411, 7.353733191373279]}, {"species": [{"element": "Ca", "occu": 1}], "abc": [0.680291, 0.75, 0.7712458], "properties": {"magmom": 0.008}, "label": "Ca", "xyz": [5.752855984052808, 7.309960822499999, 9.863530091887517]}, {"species": [{"element": "Ca", "occu": 1}], "abc": [0.180290999999999, 0.25, 0.728755199999999], "properties": {"magmom": 0.008}, "label": "Ca", "xyz": [1.5246231578581537, 2.4366536075, 9.32011503940296]}, {"species": [{"element": "Ca", "occu": 1}], "abc": [0.31971000000000005, 0.25, 0.2287542], "properties": {"magmom": 0.008}, "label": "Ca", "xyz": [2.7036162124130225, 2.4366536075, 2.925557258110422]}, {"species": [{"element": "Ca", "occu": 1}], "abc": [0.819708999999999, 0.75, 0.2712448], "properties": {"magmom": 0.008}, "label": "Ca", "xyz": [6.93184058214183, 7.309960822499999, 3.4689723105970285]}, {"species": [{"element": "Ca", "occu": 1}], "abc": [0.15176291, 0.75, 0.70998138], "properties": {"magmom": 0.052000000000000005}, "label": "Ca", "xyz": [1.2833763788152812, 7.309960822499999, 9.08001503562359]}, {"species": [{"element": "Ca", "occu": 1}], "abc": [0.65176391, 0.25, 0.79001862], "properties": {"magmom": 0.052000000000000005}, "label": "Ca", "xyz": [5.5116175830032805, 2.4366536075, 10.10361742411116]}, {"species": [{"element": "Ca", "occu": 1}], "abc": [0.84823609, 0.25, 0.29001862], "properties": {"magmom": 0.052000000000000005}, "label": "Ca", "xyz": [7.173078904718889, 2.4366536075, 3.709072314378469]}, {"species": [{"element": "Ca", "occu": 1}], "abc": [0.34823609, 0.75, 0.20998138], "properties": {"magmom": 0.052000000000000005}, "label": "Ca", "xyz": [2.9448461569967206, 7.309960822499999, 2.6854699258888406]}, {"species": [{"element": "Ca", "occu": 1}], "abc": [0.53527692, 0.75, 0.49426034], "properties": {"magmom": 0.055}, "label": "Ca", "xyz": [4.526549950563534, 7.309960822499999, 6.321138577406544]}, {"species": [{"element": "Ca", "occu": 1}], "abc": [0.03527592, 0.25, 0.00573966], "properties": {"magmom": 0.055}, "label": "Ca", "xyz": [0.2983096001059243, 2.4366536075, 0.0734049522546054]}, {"species": [{"element": "Ca", "occu": 1}], "abc": [0.46472308, 0.25, 0.5057406600000001], "properties": {"magmom": 0.055}, "label": "Ca", "xyz": [3.9299137894343774, 2.4366536075, 6.467961561682867]}, {"species": [{"element": "Ca", "occu": 1}], "abc": [0.9647230800000001, 0.75, 0.99425934], "properties": {"magmom": 0.055}, "label": "Ca", "xyz": [8.158145683430337, 7.309960822499999, 12.715669608658045]}, {"species": [{"element": "Bi", "occu": 1}], "abc": [0.93489512, 0.01310661, 0.82907949], "properties": {"magmom": 0.013000000000000001}, "label": "Bi", "xyz": [7.905906904137616, 0.1277450741543823, 10.603169799723256]}, {"species": [{"element": "Bi", "occu": 1}], "abc": [0.43489512, 0.98689339, 0.67092151], "properties": {"magmom": 0.013000000000000001}, "label": "Bi", "xyz": [3.6776743196877946, 9.618869355845616, 8.580474282598264]}, {"species": [{"element": "Bi", "occu": 1}], "abc": [0.06510488, 0.51310661, 0.17091951], "properties": {"magmom": 0.013000000000000001}, "label": "Bi", "xyz": [0.5505568358644746, 5.001052289154382, 2.185904761187336]}, {"species": [{"element": "Bi", "occu": 1}], "abc": [0.56510488, 0.48689339000000004, 0.32907949000000003], "properties": {"magmom": 0.013000000000000001}, "label": "Bi", "xyz": [4.778789420310117, 4.7455621408456174, 4.208625856491149]}, {"species": [{"element": "Bi", "occu": 1}], "abc": [0.06510488, 0.98689339, 0.17091951], "properties": {"magmom": 0.013000000000000001}, "label": "Bi", "xyz": [0.5505568358644746, 9.618869355845616, 2.185904761187336]}, {"species": [{"element": "Bi", "occu": 1}], "abc": [0.56510488, 0.01310661, 0.32907949000000003], "properties": {"magmom": 0.013000000000000001}, "label": "Bi", "xyz": [4.778789420310117, 0.1277450741543823, 4.208625856491149]}, {"species": [{"element": "Bi", "occu": 1}], "abc": [0.93489512, 0.48689339000000004, 0.82907949], "properties": {"magmom": 0.013000000000000001}, "label": "Bi", "xyz": [7.905906904137616, 4.7455621408456174, 10.603169799723256]}, {"species": [{"element": "Bi", "occu": 1}], "abc": [0.43489512, 0.51310661, 0.67092151], "properties": {"magmom": 0.013000000000000001}, "label": "Bi", "xyz": [3.6776743196877946, 5.001052289154382, 8.580474282598264]}, {"species": [{"element": "Bi", "occu": 1}], "abc": [0.57765925, 0.75, 0.01651836], "properties": {"magmom": 0.007}, "label": "Bi", "xyz": [4.884955674485055, 7.309960822499999, 0.2112535929685126]}, {"species": [{"element": "Bi", "occu": 1}], "abc": [0.07765925, 0.25, 0.48348164], "properties": {"magmom": 0.007}, "label": "Bi", "xyz": [0.6567217835318, 2.4366536075, 6.183289762075378]}, {"species": [{"element": "Bi", "occu": 1}], "abc": [0.42234075, 0.25, 0.98348164], "properties": {"magmom": 0.007}, "label": "Bi", "xyz": [3.571508065514945, 2.4366536075, 12.57783375703149]}, {"species": [{"element": "Bi", "occu": 1}], "abc": [0.9223417500000001, 0.75, 0.5165183600000001], "properties": {"magmom": 0.007}, "label": "Bi", "xyz": [7.799750412934032, 7.309960822499999, 6.605797587922564]}]}, "task_ids": null, "uncorrected_energy_per_atom": null, "energy_per_atom": -27.3530952615625, "formation_energy_per_atom": -1.0158090446875, "energy_above_hull": 0.0, "is_stable": true, "equilibrium_reaction_energy_per_atom": null, "decomposes_to": null, "xas": null, "grain_boundaries": null, "band_gap": 0.0, "cbm": null, "vbm": null, "efermi": 3.94653689, "is_gap_direct": null, "is_metal": null, "es_source_calc_id": null, "bandstructure": null, "dos": null, "dos_energy_up": null, "dos_energy_down": null, "is_magnetic": null, "ordering": null, "total_magnetization": 4.0001442, "total_magnetization_normalized_vol": null, "total_magnetization_normalized_formula_units": null, "num_magnetic_sites": null, "num_unique_magnetic_sites": null, "types_of_magnetic_species": null, "bulk_modulus": null, "shear_modulus": null, "universal_anisotropy": null, "homogeneous_poisson": null, "e_total": null, "e_ionic": null, "e_electronic": null, "n": null, "e_ij_max": null, "weighted_surface_energy_EV_PER_ANG2": null, "weighted_surface_energy": null, "weighted_work_function": null, "surface_anisotropy": null, "shape_factor": null, "has_reconstructed": null, "possible_species": null, "has_props": null, "theoretical": null, "database_IDs": null, "fields_not_requested": ["builder_meta", "nsites", "elements", "nelements", "composition", "composition_reduced", "chemsys", "symmetry", "property_name", "deprecated", "deprecation_reasons", "last_updated", "origins", "warnings", "task_ids", "uncorrected_energy_per_atom", "equilibrium_reaction_energy_per_atom", "decomposes_to", "xas", "grain_boundaries", "cbm", "vbm", "is_gap_direct", "is_metal", "es_source_calc_id", "bandstructure", "dos", "dos_energy_up", "dos_energy_down", "is_magnetic", "ordering", "total_magnetization_normalized_vol", "total_magnetization_normalized_formula_units", "num_magnetic_sites", "num_unique_magnetic_sites", "types_of_magnetic_species", "bulk_modulus", "shear_modulus", "universal_anisotropy", "homogeneous_poisson", "e_total", "e_ionic", "e_electronic", "n", "e_ij_max", "weighted_surface_energy_EV_PER_ANG2", "weighted_surface_energy", "weighted_work_function", "surface_anisotropy", "shape_factor", "has_reconstructed", "possible_species", "has_props", "theoretical", "database_IDs"]}