{
  "builder_meta": null,
  "nsites": null,
  "elements": null,
  "nelements": null,
  "composition": null,
  "composition_reduced": null,
  "formula_pretty": "Ca5Ga3",
  "formula_anonymous": "A3B5",
  "chemsys": null,
  "volume": 467.57606751259283,
  "density": 2.908997131506578,
  "density_atomic": 29.223504219537052,
  "symmetry": null,
  "property_name": null,
  "material_id": "mp-1189870",
  "deprecated": null,
  "deprecation_reasons": null,
  "last_updated": null,
  "origins": null,
  "warnings": null,
  "structure": {
    "@module": "pymatgen.core.structure",
    "@class": "Structure",
    "charge": 0,
    "lattice": {
      "matrix": [
        [7.92631423, -0.00033379, -0.0020234100000000002],
        [-0.00033379, 7.92632763, -0.00202238],
        [-3.964885439999999, -3.96489163, 7.44435466]
      ],
      "pbc": [true, true, true],
      "a": 7.92631449529378,
      "b": 7.926327895030463,
      "c": 9.319822878887331,
      "alpha": 115.18937646179613,
      "beta": 115.18934099763611,
      "gamma": 90.00482190089821,
      "volume": 467.57606751259283
    },
    "properties": {},
    "sites": [
      {
        "species": [{ "element": "Ca", "occu": 1 }],
        "abc": [0.5, 0.5, -0.0],
        "properties": { "magmom": -0.0 },
        "label": "Ca",
        "xyz": [3.96299022, 3.96299692, -0.0020228950000000002]
      },
      {
        "species": [{ "element": "Ca", "occu": 1 }],
        "abc": [-0.0, 0.0, -0.0],
        "properties": { "magmom": -0.0 },
        "label": "Ca",
        "xyz": [0.0, 0.0, 0.0]
      },
      {
        "species": [{ "element": "Ca", "occu": 1 }],
        "abc": [0.03527894, 0.53527894, 0.71280869],
        "properties": { "magmom": -0.0 },
        "label": "Ca",
        "xyz": [-2.546751503102539, 1.4165752673494652, 5.305246771907333]
      },
      {
        "species": [{ "element": "Ca", "occu": 1 }],
        "abc": [0.677352899999999, 0.177351899999999, 0.71272269],
        "properties": { "magmom": -0.0 },
        "label": "Ca",
        "xyz": [2.5429889153724266, -1.4203450565135864, 5.304031243022324]
      },
      {
        "species": [{ "element": "Ca", "occu": 1 }],
        "abc": [0.17745805, 0.03519846, 0.7128232800000001],
        "properties": { "magmom": -0.0 },
        "label": "Ca",
        "xyz": [-1.4196861261159543, -2.547331764232206, 5.306079051169999]
      },
      {
        "species": [{ "element": "Ca", "occu": 1 }],
        "abc": [0.53519946, 0.6774590500000001, 0.7128232800000001],
        "properties": { "magmom": -0.0 },
        "label": "Ca",
        "xyz": [1.4156703224649738, 2.5433166854396516, 5.304056298651587]
      },
      {
        "species": [{ "element": "Ca", "occu": 1 }],
        "abc": [0.96472106, 0.46472106, 0.28719231],
        "properties": { "magmom": -0.0 },
        "label": "Ca",
        "xyz": [6.5078425382171, 2.5445229777589056, 2.135069542447327]
      },
      {
        "species": [{ "element": "Ca", "occu": 1 }],
        "abc": [0.3226481, 0.8226481, 0.28727731],
        "properties": { "magmom": -0.0 },
        "label": "Ca",
        "xyz": [1.4181140109417978, 5.381447266179789, 2.1362776249542654]
      },
      {
        "species": [{ "element": "Ca", "occu": 1 }],
        "abc": [0.82254195, 0.9648015400000001, 0.28717672],
        "properties": { "magmom": -0.0 },
        "label": "Ca",
        "xyz": [5.380781126115956, 6.508433974232206, 2.13422981883]
      },
      {
        "species": [{ "element": "Ca", "occu": 1 }],
        "abc": [0.46480154, 0.32254095, 0.28717672],
        "properties": { "magmom": -0.0 },
        "label": "Ca",
        "xyz": [2.545432603849257, 1.4177855242265582, 2.1362525693250025]
      },
      {
        "species": [{ "element": "Ga", "occu": 1 }],
        "abc": [0.25009551, 0.24990549, 0.5],
        "properties": { "magmom": 0.001 },
        "label": "Ga",
        "xyz": [
          -0.00019053618139897033, -0.0016965041045939877, 3.7211658803792447
        ]
      },
      {
        "species": [{ "element": "Ga", "occu": 1 }],
        "abc": [0.74990449, 0.75009451, 0.5],
        "properties": { "magmom": 0.001 },
        "label": "Ga",
        "xyz": [3.9612855361814012, 3.9627987141045944, 3.7191429896207553]
      },
      {
        "species": [{ "element": "Ga", "occu": 1 }],
        "abc": [0.39095193, 0.8909519300000001, -0.00013471000000000002],
        "properties": { "magmom": -0.0 },
        "label": "Ga",
        "xyz": [3.0990445648778717, 7.062380514467589, -0.0035957284251233006]
      },
      {
        "species": [{ "element": "Ga", "occu": 1 }],
        "abc": [0.60904807, 0.10904807, 1.00013471],
        "properties": { "magmom": -0.0 },
        "label": "Ga",
        "xyz": [0.8620504351221299, -3.1012783044675887, 7.443904598425123]
      },
      {
        "species": [{ "element": "Ga", "occu": 1 }],
        "abc": [0.10888863, 0.39111037, 1.0],
        "properties": { "magmom": -0.0 },
        "label": "Ga",
        "xyz": [-3.101930491276196, -0.8648590438252843, 7.443343359867091]
      },
      {
        "species": [{ "element": "Ga", "occu": 1 }],
        "abc": [0.8911113700000001, 0.60888963, 0.0],
        "properties": { "magmom": -0.0 },
        "label": "Ga",
        "xyz": [7.063025491276198, 4.825961253825285, -0.0030344898670911]
      }
    ]
  },
  "task_ids": null,
  "uncorrected_energy_per_atom": null,
  "energy_per_atom": -9.119355923125,
  "formation_energy_per_atom": -0.42938137937499804,
  "energy_above_hull": 0.00022438176470600003,
  "is_stable": false,
  "equilibrium_reaction_energy_per_atom": null,
  "decomposes_to": null,
  "xas": null,
  "grain_boundaries": null,
  "band_gap": 0.0,
  "cbm": null,
  "vbm": null,
  "efermi": 2.40891228,
  "is_gap_direct": null,
  "is_metal": null,
  "es_source_calc_id": null,
  "bandstructure": null,
  "dos": null,
  "dos_energy_up": null,
  "dos_energy_down": null,
  "is_magnetic": null,
  "ordering": null,
  "total_magnetization": 0.014551399999999002,
  "total_magnetization_normalized_vol": null,
  "total_magnetization_normalized_formula_units": null,
  "num_magnetic_sites": null,
  "num_unique_magnetic_sites": null,
  "types_of_magnetic_species": null,
  "bulk_modulus": null,
  "shear_modulus": null,
  "universal_anisotropy": null,
  "homogeneous_poisson": null,
  "e_total": null,
  "e_ionic": null,
  "e_electronic": null,
  "n": null,
  "e_ij_max": null,
  "weighted_surface_energy_EV_PER_ANG2": null,
  "weighted_surface_energy": null,
  "weighted_work_function": null,
  "surface_anisotropy": null,
  "shape_factor": null,
  "has_reconstructed": null,
  "possible_species": null,
  "has_props": null,
  "theoretical": null,
  "database_IDs": null,
  "fields_not_requested": [
    "builder_meta",
    "nsites",
    "elements",
    "nelements",
    "composition",
    "composition_reduced",
    "chemsys",
    "symmetry",
    "property_name",
    "deprecated",
    "deprecation_reasons",
    "last_updated",
    "origins",
    "warnings",
    "task_ids",
    "uncorrected_energy_per_atom",
    "equilibrium_reaction_energy_per_atom",
    "decomposes_to",
    "xas",
    "grain_boundaries",
    "cbm",
    "vbm",
    "is_gap_direct",
    "is_metal",
    "es_source_calc_id",
    "bandstructure",
    "dos",
    "dos_energy_up",
    "dos_energy_down",
    "is_magnetic",
    "ordering",
    "total_magnetization_normalized_vol",
    "total_magnetization_normalized_formula_units",
    "num_magnetic_sites",
    "num_unique_magnetic_sites",
    "types_of_magnetic_species",
    "bulk_modulus",
    "shear_modulus",
    "universal_anisotropy",
    "homogeneous_poisson",
    "e_total",
    "e_ionic",
    "e_electronic",
    "n",
    "e_ij_max",
    "weighted_surface_energy_EV_PER_ANG2",
    "weighted_surface_energy",
    "weighted_work_function",
    "surface_anisotropy",
    "shape_factor",
    "has_reconstructed",
    "possible_species",
    "has_props",
    "theoretical",
    "database_IDs"
  ]
}
