{
  "builder_meta": null,
  "nsites": null,
  "elements": null,
  "nelements": null,
  "composition": null,
  "composition_reduced": null,
  "formula_pretty": "Ca5Ge3",
  "formula_anonymous": "A3B5",
  "chemsys": null,
  "volume": 439.62245568391387,
  "density": 3.160075596542657,
  "density_atomic": 27.476403480244617,
  "symmetry": null,
  "property_name": null,
  "material_id": "mp-1884",
  "deprecated": null,
  "deprecation_reasons": null,
  "last_updated": null,
  "origins": null,
  "warnings": null,
  "structure": {
    "@module": "pymatgen.core.structure",
    "@class": "Structure",
    "charge": 0,
    "lattice": {
      "matrix": [
        [7.00328333, 0.00052404, -3.22208912],
        [-1.48265591, 6.84453932, -3.22209219],
        [-0.014327020000000001, -0.0177661, 9.18794063]
      ],
      "pbc": [true, true, true],
      "a": 7.708945191924521,
      "b": 7.708947083184771,
      "c": 9.187968976776972,
      "alpha": 114.79567041946693,
      "beta": 114.79563998211232,
      "gamma": 89.99807601199396,
      "volume": 439.62245568391387
    },
    "properties": {},
    "sites": [
      {
        "species": [{ "element": "Ca", "occu": 1 }],
        "abc": [-0.0, 0.0, 0.0],
        "properties": { "magmom": 0.0 },
        "label": "Ca",
        "xyz": [0.0, 0.0, 0.0]
      },
      {
        "species": [{ "element": "Ca", "occu": 1 }],
        "abc": [0.5, 0.5, 0.0],
        "properties": { "magmom": 0.0 },
        "label": "Ca",
        "xyz": [2.76031371, 3.42253168, -3.222090655]
      },
      {
        "species": [{ "element": "Ca", "occu": 1 }],
        "abc": [0.31810668000000003, 0.81810868, 0.27783897],
        "properties": { "magmom": -0.0 },
        "label": "Ca",
        "xyz": [1.0108369353013762, 5.594807613992967, -1.10822169996618]
      },
      {
        "species": [{ "element": "Ca", "occu": 1 }],
        "abc": [0.45971199, 0.31794716, 0.27783293000000003],
        "properties": { "magmom": -0.0 },
        "label": "Ca",
        "xyz": [2.744106562381643, 2.171506738155898, 0.04702440351771697]
      },
      {
        "species": [{ "element": "Ca", "occu": 1 }],
        "abc": [0.81794616, 0.9597119900000001, 0.27783293000000003],
        "properties": { "magmom": -0.0 },
        "label": "Ca",
        "xyz": [4.301405535349383, 6.56427908031846, -3.1750634646111915]
      },
      {
        "species": [{ "element": "Ca", "occu": 1 }],
        "abc": [0.54028801, 0.68205284, 0.72216707],
        "properties": { "magmom": -0.0 },
        "label": "Ca",
        "xyz": [2.7621938376183577, 4.655790521844102, 2.696734916482283]
      },
      {
        "species": [{ "element": "Ca", "occu": 1 }],
        "abc": [0.18205384, 0.04028801, 0.72216707],
        "properties": { "magmom": -0.0 },
        "label": "Ca",
        "xyz": [1.2048948646506168, 0.26301817968153973, 5.918822784611192]
      },
      {
        "species": [{ "element": "Ca", "occu": 1 }],
        "abc": [0.04032546, 0.54032546, 0.72210969],
        "properties": { "magmom": -0.0 },
        "label": "Ca",
        "xyz": [-0.5290517947707107, 3.6854709157576364, 4.7637902894185515]
      },
      {
        "species": [{ "element": "Ca", "occu": 1 }],
        "abc": [0.68189332, 0.18189132, 0.72216103],
        "properties": { "magmom": -0.0 },
        "label": "Ca",
        "xyz": [4.495463464698624, 1.2324896460070323, 3.851981019966179]
      },
      {
        "species": [{ "element": "Ca", "occu": 1 }],
        "abc": [0.95967454, 0.45967454, 0.27789031000000003],
        "properties": { "magmom": -0.0 },
        "label": "Ca",
        "xyz": [6.03535219477071, 3.1418263442423635, -2.0200309694185523]
      },
      {
        "species": [{ "element": "Ge", "occu": 1 }],
        "abc": [0.25010763, 0.24989137, 0.5],
        "properties": { "magmom": 0.0 },
        "label": "Ge",
        "xyz": [1.3739081692963113, 1.7016393240960936, 2.9829282099226138]
      },
      {
        "species": [{ "element": "Ge", "occu": 1 }],
        "abc": [0.74989237, 0.75010863, 0.5],
        "properties": { "magmom": 0.0 },
        "label": "Ge",
        "xyz": [4.132392230703689, 5.125657935903907, -0.23916888992261498]
      },
      {
        "species": [{ "element": "Ge", "occu": 1 }],
        "abc": [0.38252138, 0.88252038, 0.99988074],
        "properties": { "magmom": 0.0 },
        "label": "Ge",
        "xyz": [1.3561062354605553, 6.022881916900403, 5.110764875621248]
      },
      {
        "species": [{ "element": "Ge", "occu": 1 }],
        "abc": [0.11737642000000001, 0.38262158, 0.999999],
        "properties": { "magmom": 0.0 },
        "label": "Ge",
        "xyz": [0.24039717296756086, 2.6011638766957623, 7.576892151589359]
      },
      {
        "species": [{ "element": "Ge", "occu": 1 }],
        "abc": [0.88262358, 0.61737842, 1e-6],
        "properties": { "magmom": 0.0 },
        "label": "Ge",
        "xyz": [5.26590322703244, 4.226133383304238, -4.83313283158936]
      },
      {
        "species": [{ "element": "Ge", "occu": 1 }],
        "abc": [0.61747862, 0.11747962, 0.00011926],
        "properties": { "magmom": 0.0 },
        "label": "Ge",
        "xyz": [4.150194164539445, 0.8044153430995972, -2.3670055556212484]
      }
    ]
  },
  "task_ids": null,
  "uncorrected_energy_per_atom": null,
  "energy_per_atom": -10.32323728125,
  "formation_energy_per_atom": -0.7223121262500011,
  "energy_above_hull": 0.0018216525000000002,
  "is_stable": false,
  "equilibrium_reaction_energy_per_atom": null,
  "decomposes_to": null,
  "xas": null,
  "grain_boundaries": null,
  "band_gap": 0.0,
  "cbm": null,
  "vbm": null,
  "efermi": 3.24216008,
  "is_gap_direct": null,
  "is_metal": null,
  "es_source_calc_id": null,
  "bandstructure": null,
  "dos": null,
  "dos_energy_up": null,
  "dos_energy_down": null,
  "is_magnetic": null,
  "ordering": null,
  "total_magnetization": 2e-7,
  "total_magnetization_normalized_vol": null,
  "total_magnetization_normalized_formula_units": null,
  "num_magnetic_sites": null,
  "num_unique_magnetic_sites": null,
  "types_of_magnetic_species": null,
  "bulk_modulus": null,
  "shear_modulus": null,
  "universal_anisotropy": null,
  "homogeneous_poisson": null,
  "e_total": null,
  "e_ionic": null,
  "e_electronic": null,
  "n": null,
  "e_ij_max": null,
  "weighted_surface_energy_EV_PER_ANG2": null,
  "weighted_surface_energy": null,
  "weighted_work_function": null,
  "surface_anisotropy": null,
  "shape_factor": null,
  "has_reconstructed": null,
  "possible_species": null,
  "has_props": null,
  "theoretical": null,
  "database_IDs": null,
  "fields_not_requested": [
    "builder_meta",
    "nsites",
    "elements",
    "nelements",
    "composition",
    "composition_reduced",
    "chemsys",
    "symmetry",
    "property_name",
    "deprecated",
    "deprecation_reasons",
    "last_updated",
    "origins",
    "warnings",
    "task_ids",
    "uncorrected_energy_per_atom",
    "equilibrium_reaction_energy_per_atom",
    "decomposes_to",
    "xas",
    "grain_boundaries",
    "cbm",
    "vbm",
    "is_gap_direct",
    "is_metal",
    "es_source_calc_id",
    "bandstructure",
    "dos",
    "dos_energy_up",
    "dos_energy_down",
    "is_magnetic",
    "ordering",
    "total_magnetization_normalized_vol",
    "total_magnetization_normalized_formula_units",
    "num_magnetic_sites",
    "num_unique_magnetic_sites",
    "types_of_magnetic_species",
    "bulk_modulus",
    "shear_modulus",
    "universal_anisotropy",
    "homogeneous_poisson",
    "e_total",
    "e_ionic",
    "e_electronic",
    "n",
    "e_ij_max",
    "weighted_surface_energy_EV_PER_ANG2",
    "weighted_surface_energy",
    "weighted_work_function",
    "surface_anisotropy",
    "shape_factor",
    "has_reconstructed",
    "possible_species",
    "has_props",
    "theoretical",
    "database_IDs"
  ]
}
