{
  "builder_meta": null,
  "nsites": null,
  "elements": null,
  "nelements": null,
  "composition": null,
  "composition_reduced": null,
  "formula_pretty": "Ca5Hg3",
  "formula_anonymous": "A3B5",
  "chemsys": null,
  "volume": 492.59449630401656,
  "density": 5.408172554334707,
  "density_atomic": 30.787156019001035,
  "symmetry": null,
  "property_name": null,
  "material_id": "mp-31154",
  "deprecated": null,
  "deprecation_reasons": null,
  "last_updated": null,
  "origins": null,
  "warnings": null,
  "structure": {
    "@module": "pymatgen.core.structure",
    "@class": "Structure",
    "charge": 0,
    "lattice": {
      "matrix": [
        [7.39495453, 0.00111294, -3.60088293],
        [-1.7519771, 7.18375711, -3.60471714],
        [-0.04008604, -0.04691981, 9.32090879]
      ],
      "pbc": [true, true, true],
      "a": 8.22506605535593,
      "b": 8.22616408989085,
      "c": 9.321113078955356,
      "alpha": 116.2105966651835,
      "beta": 116.20929564409035,
      "gamma": 89.97259002322762,
      "volume": 492.59449630401656
    },
    "properties": {},
    "sites": [
      {
        "species": [{ "element": "Ca", "occu": 1 }],
        "abc": [-0.0, -0.0, -0.0],
        "properties": { "magmom": -0.0 },
        "label": "Ca",
        "xyz": [0.0, 0.0, 0.0]
      },
      {
        "species": [{ "element": "Ca", "occu": 1 }],
        "abc": [0.5, 0.5, -0.0],
        "properties": { "magmom": -0.0 },
        "label": "Ca",
        "xyz": [2.821488715, 3.592435025, -3.602800035]
      },
      {
        "species": [{ "element": "Ca", "occu": 1 }],
        "abc": [0.31182559, 0.8118101400000001, 0.29405075],
        "properties": { "magmom": 0.0 },
        "label": "Ca",
        "xyz": [0.8718759543860982, 5.818397103046873, -1.308373149870885]
      },
      {
        "species": [{ "element": "Ca", "occu": 1 }],
        "abc": [0.48221732, 0.31175955, 0.29402863],
        "properties": { "magmom": -0.0 },
        "label": "Ca",
        "xyz": [3.0079931192488294, 2.226345795412861, -0.11959906770337625]
      },
      {
        "species": [{ "element": "Ca", "occu": 1 }],
        "abc": [0.81184582, 0.98177123, 0.29373138],
        "properties": { "magmom": 0.0 },
        "label": "Ca",
        "xyz": [4.271747684023796, 7.039927769052219, -3.7245259336289043]
      },
      {
        "species": [{ "element": "Ca", "occu": 1 }],
        "abc": [0.51778368, 0.68824045, 0.70597137],
        "properties": { "magmom": -0.0 },
        "label": "Ca",
        "xyz": [2.5949056657057, 4.911604445700079, 2.2349041868204473]
      },
      {
        "species": [{ "element": "Ca", "occu": 1 }],
        "abc": [0.18815418, 0.018228770000000002, 0.70626862],
        "properties": { "magmom": 0.0 },
        "label": "Ca",
        "xyz": [1.3311437059762037, 0.09802247094778171, 5.8398346536289045]
      },
      {
        "species": [{ "element": "Ca", "occu": 1 }],
        "abc": [0.0181202, 0.5181688, 0.70627166],
        "properties": { "magmom": 0.0 },
        "label": "Ca",
        "xyz": [-0.8021334504736003, 3.689280835779971, 4.649993050180473]
      },
      {
        "species": [{ "element": "Ca", "occu": 1 }],
        "abc": [0.68817441, 0.18818986000000001, 0.70594925],
        "properties": { "magmom": 0.0 },
        "label": "Ca",
        "xyz": [4.731015435613902, 1.3195531369531277, 3.4236818698708857]
      },
      {
        "species": [{ "element": "Ca", "occu": 1 }],
        "abc": [0.9818798, 0.481831199999999, 0.29372834000000003],
        "properties": { "magmom": 0.0 },
        "label": "Ca",
        "xyz": [6.405024840473602, 3.4486694042200217, -2.5346843301804687]
      },
      {
        "species": [{ "element": "Hg", "occu": 1 }],
        "abc": [0.24880621, 0.24998429, 0.50000124],
        "properties": { "magmom": 0.0 },
        "label": "Hg",
        "xyz": [1.3819007885851826, 1.772643363878595, 2.8634212635661744]
      },
      {
        "species": [{ "element": "Hg", "occu": 1 }],
        "abc": [0.75119379, 0.75001571, 0.49999876],
        "properties": { "magmom": 0.0 },
        "label": "Hg",
        "xyz": [4.220990601414817, 5.365306876121405, -0.7481125435661733]
      },
      {
        "species": [{ "element": "Hg", "occu": 1 }],
        "abc": [0.36665296, 0.86657534, 0.00018671],
        "properties": { "magmom": -0.0 },
        "label": "Hg",
        "xyz": [1.1931543319206666, 6.225666062423245, -4.44229305921712]
      },
      {
        "species": [{ "element": "Hg", "occu": 1 }],
        "abc": [0.13336613, 0.36666304, 0.00010664000000000001],
        "properties": { "magmom": 0.0 },
        "label": "Hg",
        "xyz": [0.3438469429203792, 2.6341616455463983, -1.800958384136301]
      },
      {
        "species": [{ "element": "Hg", "occu": 1 }],
        "abc": [0.86663387, 0.6333369600000001, 0.9998933600000001],
        "properties": { "magmom": 0.0 },
        "label": "Hg",
        "xyz": [5.259044447079621, 4.503788594453603, 3.9162671041363026]
      },
      {
        "species": [{ "element": "Hg", "occu": 1 }],
        "abc": [0.63334704, 0.13342466, 0.99981329],
        "properties": { "magmom": -0.0 },
        "label": "Hg",
        "xyz": [4.409737058079333, 0.9122841775767553, 6.557601779217119]
      }
    ]
  },
  "task_ids": null,
  "uncorrected_energy_per_atom": null,
  "energy_per_atom": -23.385248681875,
  "formation_energy_per_atom": -0.47338767343750304,
  "energy_above_hull": 0.008761129687496,
  "is_stable": false,
  "equilibrium_reaction_energy_per_atom": null,
  "decomposes_to": null,
  "xas": null,
  "grain_boundaries": null,
  "band_gap": 0.0,
  "cbm": null,
  "vbm": null,
  "efermi": 2.69770015,
  "is_gap_direct": null,
  "is_metal": null,
  "es_source_calc_id": null,
  "bandstructure": null,
  "dos": null,
  "dos_energy_up": null,
  "dos_energy_down": null,
  "is_magnetic": null,
  "ordering": null,
  "total_magnetization": 1.0500000000000001e-5,
  "total_magnetization_normalized_vol": null,
  "total_magnetization_normalized_formula_units": null,
  "num_magnetic_sites": null,
  "num_unique_magnetic_sites": null,
  "types_of_magnetic_species": null,
  "bulk_modulus": null,
  "shear_modulus": null,
  "universal_anisotropy": null,
  "homogeneous_poisson": null,
  "e_total": null,
  "e_ionic": null,
  "e_electronic": null,
  "n": null,
  "e_ij_max": null,
  "weighted_surface_energy_EV_PER_ANG2": null,
  "weighted_surface_energy": null,
  "weighted_work_function": null,
  "surface_anisotropy": null,
  "shape_factor": null,
  "has_reconstructed": null,
  "possible_species": null,
  "has_props": null,
  "theoretical": null,
  "database_IDs": null,
  "fields_not_requested": [
    "builder_meta",
    "nsites",
    "elements",
    "nelements",
    "composition",
    "composition_reduced",
    "chemsys",
    "symmetry",
    "property_name",
    "deprecated",
    "deprecation_reasons",
    "last_updated",
    "origins",
    "warnings",
    "task_ids",
    "uncorrected_energy_per_atom",
    "equilibrium_reaction_energy_per_atom",
    "decomposes_to",
    "xas",
    "grain_boundaries",
    "cbm",
    "vbm",
    "is_gap_direct",
    "is_metal",
    "es_source_calc_id",
    "bandstructure",
    "dos",
    "dos_energy_up",
    "dos_energy_down",
    "is_magnetic",
    "ordering",
    "total_magnetization_normalized_vol",
    "total_magnetization_normalized_formula_units",
    "num_magnetic_sites",
    "num_unique_magnetic_sites",
    "types_of_magnetic_species",
    "bulk_modulus",
    "shear_modulus",
    "universal_anisotropy",
    "homogeneous_poisson",
    "e_total",
    "e_ionic",
    "e_electronic",
    "n",
    "e_ij_max",
    "weighted_surface_energy_EV_PER_ANG2",
    "weighted_surface_energy",
    "weighted_work_function",
    "surface_anisotropy",
    "shape_factor",
    "has_reconstructed",
    "possible_species",
    "has_props",
    "theoretical",
    "database_IDs"
  ]
}
