{"builder_meta": null, "nsites": null, "elements": null, "nelements": null, "composition": null, "composition_reduced": null, "formula_pretty": "Ca5Ir", "formula_anonymous": "AB5", "chemsys": null, "volume": 819.3765959352181, "density": 3.182611095092445, "density_atomic": 34.14069149730076, "symmetry": null, "property_name": null, "material_id": "mp-570356", "deprecated": null, "deprecation_reasons": null, "last_updated": null, "origins": null, "warnings": null, "structure": {"@module": "pymatgen.core.structure", "@class": "Structure", "charge": 0, "lattice": {"matrix": [[6.78579519, 6.259999999999998e-06, 0.0], [6.269999999999997e-06, 7.66031565, 0.0], [0.0, 0.0, 15.76290078]], "pbc": [true, true, true], "a": 6.7857951900028874, "b": 7.660315650002566, "c": 15.76290078, "alpha": 90.0, "beta": 90.0, "gamma": 89.99990024693362, "volume": 819.3765959352181}, "properties": {}, "sites": [{"species": [{"element": "Ca", "occu": 1}], "abc": [0.15392006, 0.09239369, 0.25], "properties": {"magmom": 0.0}, "label": "Ca", "xyz": [1.0444705821009477, 0.707765793007824, 3.940725195]}, {"species": [{"element": "Ca", "occu": 1}], "abc": [0.85847122, 0.19329087, 0.56686651], "properties": {"magmom": 0.0}, "label": "Ca", "xyz": [5.825411087363187, 1.4806744504929528, 8.935460552634877]}, {"species": [{"element": "Ca", "occu": 1}], "abc": [0.84607994, 0.90760631, 0.75], "properties": {"magmom": 0.0}, "label": "Ca", "xyz": [5.741330877899052, 6.952556116992176, 11.822175585]}, {"species": [{"element": "Ca", "occu": 1}], "abc": [0.82257971, 0.46645042000000003, 0.1460265], "properties": {"magmom": 0.0}, "label": "Ca", "xyz": [5.581860364153727, 3.573162601624058, 2.3018012307506703]}, {"species": [{"element": "Ca", "occu": 1}], "abc": [0.17742029, 0.53354958, 0.6460265], "properties": {"magmom": 0.0}, "label": "Ca", "xyz": [1.2039410958462717, 4.087159308375942, 10.183251620750669]}, {"species": [{"element": "Ca", "occu": 1}], "abc": [0.35847122000000003, 0.30670813, 0.06686651], "properties": {"magmom": 0.0}, "label": "Ca", "xyz": [2.4325142034894074, 2.3494833322510718, 1.054010162634878]}, {"species": [{"element": "Ca", "occu": 1}], "abc": [0.34607994000000003, 0.59239469, 0.25], "properties": {"magmom": 0.0}, "label": "Ca", "xyz": [2.3484313065221953, 4.537932481244323, 3.940725195]}, {"species": [{"element": "Ca", "occu": 1}], "abc": [0.82257971, 0.46645042000000003, 0.3539735], "properties": {"magmom": 0.0}, "label": "Ca", "xyz": [5.581860364153727, 3.573162601624058, 5.57964915924933]}, {"species": [{"element": "Ca", "occu": 1}], "abc": [0.32258071, 0.03354858, 0.853973499999999], "properties": {"magmom": 0.0}, "label": "Ca", "xyz": [2.1889668406543814, 0.2569947317645216, 13.461099549249315]}, {"species": [{"element": "Ca", "occu": 1}], "abc": [0.14152878, 0.80670913, 0.06686651], "properties": {"magmom": 0.0}, "label": "Ca", "xyz": [0.9603903726368133, 6.179647459507048, 1.054010162634878]}, {"species": [{"element": "Ca", "occu": 1}], "abc": [0.64152878, 0.69329187, 0.56686651], "properties": {"magmom": 0.0}, "label": "Ca", "xyz": [4.353287256510593, 5.310838577748928, 8.935460552634877]}, {"species": [{"element": "Ca", "occu": 1}], "abc": [0.67741929, 0.9664514200000001, 0.3539735], "properties": {"magmom": 0.0}, "label": "Ca", "xyz": [4.596834619345619, 7.403327178235479, 5.57964915924933]}, {"species": [{"element": "Ca", "occu": 1}], "abc": [0.64152878, 0.69329187, 0.93313349], "properties": {"magmom": 0.0}, "label": "Ca", "xyz": [4.353287256510593, 5.310838577748928, 14.708890617365123]}, {"species": [{"element": "Ca", "occu": 1}], "abc": [0.32258071, 0.03354858, 0.6460265], "properties": {"magmom": 0.0}, "label": "Ca", "xyz": [2.1889668406543814, 0.2569947317645216, 10.183251620750669]}, {"species": [{"element": "Ca", "occu": 1}], "abc": [0.14152878, 0.80670913, 0.43313349], "properties": {"magmom": 0.0}, "label": "Ca", "xyz": [0.9603903726368133, 6.179647459507048, 6.8274402273651225]}, {"species": [{"element": "Ca", "occu": 1}], "abc": [0.65392006, 0.40760531, 0.75], "properties": {"magmom": 0.0}, "label": "Ca", "xyz": [4.437370153477805, 3.1223894287556773, 11.822175585]}, {"species": [{"element": "Ca", "occu": 1}], "abc": [0.17742029, 0.53354958, 0.853973499999999], "properties": {"magmom": 0.0}, "label": "Ca", "xyz": [1.2039410958462717, 4.087159308375942, 13.461099549249315]}, {"species": [{"element": "Ca", "occu": 1}], "abc": [0.35847122000000003, 0.30670813, 0.43313349], "properties": {"magmom": 0.0}, "label": "Ca", "xyz": [2.4325142034894074, 2.3494833322510718, 6.8274402273651225]}, {"species": [{"element": "Ca", "occu": 1}], "abc": [0.67741929, 0.9664514200000001, 0.1460265], "properties": {"magmom": 0.0}, "label": "Ca", "xyz": [4.596834619345619, 7.403327178235479, 2.3018012307506703]}, {"species": [{"element": "Ca", "occu": 1}], "abc": [0.85847122, 0.19329087, 0.93313349], "properties": {"magmom": 0.0}, "label": "Ca", "xyz": [5.825411087363187, 1.4806744504929528, 14.708890617365123]}, {"species": [{"element": "Ir", "occu": 1}], "abc": [0.03437794, 0.23869765, 0.75], "properties": {"magmom": 0.0}, "label": "Ir", "xyz": [0.2332831565283741, 1.828499559119127, 11.822175585]}, {"species": [{"element": "Ir", "occu": 1}], "abc": [0.46562106000000003, 0.73869865, 0.75], "properties": {"magmom": 0.0}, "label": "Ir", "xyz": [3.1596137809512372, 5.658667744016709, 11.822175585]}, {"species": [{"element": "Ir", "occu": 1}], "abc": [0.53437894, 0.26130135, 0.25], "properties": {"magmom": 0.0}, "label": "Ir", "xyz": [3.626187679048763, 2.0016541659832923, 3.940725195]}, {"species": [{"element": "Ir", "occu": 1}], "abc": [0.96562106, 0.76130235, 0.25], "properties": {"magmom": 0.0}, "label": "Ir", "xyz": [6.552511517676436, 5.831822350874614, 3.940725195]}]}, "task_ids": null, "uncorrected_energy_per_atom": null, "energy_per_atom": -14.828990728333332, "formation_energy_per_atom": -0.23718706999999903, "energy_above_hull": 0.0, "is_stable": true, "equilibrium_reaction_energy_per_atom": null, "decomposes_to": null, "xas": null, "grain_boundaries": null, "band_gap": 0.0, "cbm": null, "vbm": null, "efermi": 2.66092192, "is_gap_direct": null, "is_metal": null, "es_source_calc_id": null, "bandstructure": null, "dos": null, "dos_energy_up": null, "dos_energy_down": null, "is_magnetic": null, "ordering": null, "total_magnetization": 0.0011882, "total_magnetization_normalized_vol": null, "total_magnetization_normalized_formula_units": null, "num_magnetic_sites": null, "num_unique_magnetic_sites": null, "types_of_magnetic_species": null, "bulk_modulus": null, "shear_modulus": null, "universal_anisotropy": null, "homogeneous_poisson": null, "e_total": null, "e_ionic": null, "e_electronic": null, "n": null, "e_ij_max": null, "weighted_surface_energy_EV_PER_ANG2": null, "weighted_surface_energy": null, "weighted_work_function": null, "surface_anisotropy": null, "shape_factor": null, "has_reconstructed": null, "possible_species": null, "has_props": null, "theoretical": null, "database_IDs": null, "fields_not_requested": ["builder_meta", "nsites", "elements", "nelements", "composition", "composition_reduced", "chemsys", "symmetry", "property_name", "deprecated", "deprecation_reasons", "last_updated", "origins", "warnings", "task_ids", "uncorrected_energy_per_atom", "equilibrium_reaction_energy_per_atom", "decomposes_to", "xas", "grain_boundaries", "cbm", "vbm", "is_gap_direct", "is_metal", "es_source_calc_id", "bandstructure", "dos", "dos_energy_up", "dos_energy_down", "is_magnetic", "ordering", "total_magnetization_normalized_vol", "total_magnetization_normalized_formula_units", "num_magnetic_sites", "num_unique_magnetic_sites", "types_of_magnetic_species", "bulk_modulus", "shear_modulus", "universal_anisotropy", "homogeneous_poisson", "e_total", "e_ionic", "e_electronic", "n", "e_ij_max", "weighted_surface_energy_EV_PER_ANG2", "weighted_surface_energy", "weighted_work_function", "surface_anisotropy", "shape_factor", "has_reconstructed", "possible_species", "has_props", "theoretical", "database_IDs"]}