{"builder_meta": null, "nsites": null, "elements": null, "nelements": null, "composition": null, "composition_reduced": null, "formula_pretty": "Ca5Mg", "formula_anonymous": "AB5", "chemsys": null, "volume": 234.7462329619758, "density": 1.5894390332138961, "density_atomic": 39.1243721603293, "symmetry": null, "property_name": null, "material_id": "mp-1094702", "deprecated": null, "deprecation_reasons": null, "last_updated": null, "origins": null, "warnings": null, "structure": {"@module": "pymatgen.core.structure", "@class": "Structure", "charge": 0, "lattice": {"matrix": [[3.30330553, -5.72149443, -0.0], [3.30330553, 5.72149443, -0.0], [-0.0, -0.0, 6.210269]], "pbc": [true, true, true], "a": 6.606612288991205, "b": 6.606612288991205, "c": 6.210269, "alpha": 90.0, "beta": 90.0, "gamma": 120.00001230727602, "volume": 234.7462329619758}, "properties": {}, "sites": [{"species": [{"element": "Ca", "occu": 1}], "abc": [0.67810561, 0.0, 0.5], "properties": {"magmom": -0.0}, "label": "Ca", "xyz": [2.2399900114370235, -3.8797774705667525, 3.1051345]}, {"species": [{"element": "Ca", "occu": 1}], "abc": [0.32189439000000003, 0.32189439000000003, 0.5], "properties": {"magmom": -0.0}, "label": "Ca", "xyz": [2.1266310371259536, 0.0, 3.1051345]}, {"species": [{"element": "Ca", "occu": 1}], "abc": [0.0, 0.67810561, 0.5], "properties": {"magmom": -0.0}, "label": "Ca", "xyz": [2.2399900114370235, 3.8797774705667525, 3.1051345]}, {"species": [{"element": "Ca", "occu": 1}], "abc": [0.666667, 0.333333, -0.0], "properties": {"magmom": -0.0}, "label": "Ca", "xyz": [3.3033055300000003, -1.9071686243296202, 0.0]}, {"species": [{"element": "Ca", "occu": 1}], "abc": [0.333333, 0.666667, -0.0], "properties": {"magmom": -0.0}, "label": "Ca", "xyz": [3.3033055300000003, 1.9071686243296202, 0.0]}, {"species": [{"element": "Mg", "occu": 1}], "abc": [0.0, -0.0, 0.0], "properties": {"magmom": -0.0}, "label": "Mg", "xyz": [0.0, 0.0, 0.0]}]}, "task_ids": null, "uncorrected_energy_per_atom": null, "energy_per_atom": -1.930458138333333, "formation_energy_per_atom": 0.012620097500001001, "energy_above_hull": 0.034122293750000005, "is_stable": false, "equilibrium_reaction_energy_per_atom": null, "decomposes_to": null, "xas": null, "grain_boundaries": null, "band_gap": 0.0, "cbm": null, "vbm": null, "efermi": 2.25446285, "is_gap_direct": null, "is_metal": null, "es_source_calc_id": null, "bandstructure": null, "dos": null, "dos_energy_up": null, "dos_energy_down": null, "is_magnetic": null, "ordering": null, "total_magnetization": 2.25e-05, "total_magnetization_normalized_vol": null, "total_magnetization_normalized_formula_units": null, "num_magnetic_sites": null, "num_unique_magnetic_sites": null, "types_of_magnetic_species": null, "bulk_modulus": null, "shear_modulus": null, "universal_anisotropy": null, "homogeneous_poisson": null, "e_total": null, "e_ionic": null, "e_electronic": null, "n": null, "e_ij_max": null, "weighted_surface_energy_EV_PER_ANG2": null, "weighted_surface_energy": null, "weighted_work_function": null, "surface_anisotropy": null, "shape_factor": null, "has_reconstructed": null, "possible_species": null, "has_props": null, "theoretical": null, "database_IDs": null, "fields_not_requested": ["builder_meta", "nsites", "elements", "nelements", "composition", "composition_reduced", "chemsys", "symmetry", "property_name", "deprecated", "deprecation_reasons", "last_updated", "origins", "warnings", "task_ids", "uncorrected_energy_per_atom", "equilibrium_reaction_energy_per_atom", "decomposes_to", "xas", "grain_boundaries", "cbm", "vbm", "is_gap_direct", "is_metal", "es_source_calc_id", "bandstructure", "dos", "dos_energy_up", "dos_energy_down", "is_magnetic", "ordering", "total_magnetization_normalized_vol", "total_magnetization_normalized_formula_units", "num_magnetic_sites", "num_unique_magnetic_sites", "types_of_magnetic_species", "bulk_modulus", "shear_modulus", "universal_anisotropy", "homogeneous_poisson", "e_total", "e_ionic", "e_electronic", "n", "e_ij_max", "weighted_surface_energy_EV_PER_ANG2", "weighted_surface_energy", "weighted_work_function", "surface_anisotropy", "shape_factor", "has_reconstructed", "possible_species", "has_props", "theoretical", "database_IDs"]}