{"builder_meta": null, "nsites": null, "elements": null, "nelements": null, "composition": null, "composition_reduced": null, "formula_pretty": "Ca5Pt2", "formula_anonymous": "A2B5", "chemsys": null, "volume": 407.982772189208, "density": 4.807284507780022, "density_atomic": 29.141626584943428, "symmetry": null, "property_name": null, "material_id": "mp-1103570", "deprecated": null, "deprecation_reasons": null, "last_updated": null, "origins": null, "warnings": null, "structure": {"@module": "pymatgen.core.structure", "@class": "Structure", "charge": 0, "lattice": {"matrix": [[-0.0, 6.66443242, -0.0], [0.00356444, -0.0, 7.64566874], [8.00639029, -3.33221673, -1.04483791]], "pbc": [true, true, true], "a": 6.66443242, "b": 7.6456695708777325, "c": 8.73485203478979, "alpha": 96.84534542628923, "beta": 112.42570942294539, "gamma": 90.0, "volume": 407.982772189208}, "properties": {}, "sites": [{"species": [{"element": "Ca", "occu": 1}], "abc": [0.9803837200000001, 0.91791667, 0.17797376], "properties": {"magmom": 0.0}, "label": "Ca", "xyz": [1.4281992428340053, 5.940653907035197, 6.832133058310654]}, {"species": [{"element": "Ca", "occu": 1}], "abc": [0.80240996, 0.58208333, 0.82202624], "properties": {"magmom": 0.0}, "label": "Ca", "xyz": [6.583537707165996, 2.608437362127908, 3.5915321416893455]}, {"species": [{"element": "Ca", "occu": 1}], "abc": [0.01961628, 0.08208333, 0.82202624], "properties": {"magmom": 0.0}, "label": "Ca", "xyz": [6.581755487165996, -2.6084382170351974, -0.23130222831065428]}, {"species": [{"element": "Ca", "occu": 1}], "abc": [0.19759004, 0.41791667, 0.17797376], "properties": {"magmom": 0.0}, "label": "Ca", "xyz": [1.4264170228340054, 0.7237783278720918, 3.009298688310654]}, {"species": [{"element": "Ca", "occu": 1}], "abc": [0.63819287, 0.82204369, 0.43445109], "properties": {"magmom": 0.0}, "label": "Ca", "xyz": [3.4813151138663, 2.80550806257611, 5.831142774674428]}, {"species": [{"element": "Ca", "occu": 1}], "abc": [0.20374178, 0.67795631, 0.56554891], "properties": {"magmom": 0.0}, "label": "Ca", "xyz": [4.5304218361337005, -0.5267082155947564, 4.592522425325571]}, {"species": [{"element": "Ca", "occu": 1}], "abc": [0.36180713000000003, 0.17795631, 0.56554891], "properties": {"magmom": 0.0}, "label": "Ca", "xyz": [4.528639616133701, 0.5267076274238907, 0.7696880553255712]}, {"species": [{"element": "Ca", "occu": 1}], "abc": [0.79625822, 0.32204369, 0.43445109], "properties": {"magmom": 0.0}, "label": "Ca", "xyz": [3.4795328938663, 3.8589239055947573, 2.0083084046744286]}, {"species": [{"element": "Ca", "occu": 1}], "abc": [0.42731615, 0.75, 0.0], "properties": {"magmom": -0.0}, "label": "Ca", "xyz": [0.00267333, 2.847819603649583, 5.734251555]}, {"species": [{"element": "Ca", "occu": 1}], "abc": [0.57268385, 0.25, -0.0], "properties": {"magmom": -0.0}, "label": "Ca", "xyz": [0.00089111, 3.8166128163504167, 1.911417185]}, {"species": [{"element": "Pt", "occu": 1}], "abc": [0.82407925, 0.58353661, 0.22145171], "properties": {"magmom": 0.0}, "label": "Pt", "xyz": [1.7751088018820442, 4.754095377400176, 4.230146475880245]}, {"species": [{"element": "Pt", "occu": 1}], "abc": [0.60262754, 0.91646339, 0.77854829], "properties": {"magmom": 0.0}, "label": "Pt", "xyz": [6.236628148117957, 1.4218788777099545, 6.1935187241197545]}, {"species": [{"element": "Pt", "occu": 1}], "abc": [0.17592075000000001, 0.41646339, 0.77854829], "properties": {"magmom": 0.0}, "label": "Pt", "xyz": [6.234845928117957, -1.4218796874001767, 2.3706843541197546]}, {"species": [{"element": "Pt", "occu": 1}], "abc": [0.39737246, 0.08353661, 0.22145171], "properties": {"magmom": 0.0}, "label": "Pt", "xyz": [1.7733265818820443, 1.910336812290045, 0.4073121058802452]}]}, "task_ids": null, "uncorrected_energy_per_atom": null, "energy_per_atom": -20.473983972142857, "formation_energy_per_atom": -0.7358550721428561, "energy_above_hull": 0.0, "is_stable": true, "equilibrium_reaction_energy_per_atom": null, "decomposes_to": null, "xas": null, "grain_boundaries": null, "band_gap": 0.0, "cbm": null, "vbm": null, "efermi": 3.315689, "is_gap_direct": null, "is_metal": null, "es_source_calc_id": null, "bandstructure": null, "dos": null, "dos_energy_up": null, "dos_energy_down": null, "is_magnetic": null, "ordering": null, "total_magnetization": 0.0006060999999990001, "total_magnetization_normalized_vol": null, "total_magnetization_normalized_formula_units": null, "num_magnetic_sites": null, "num_unique_magnetic_sites": null, "types_of_magnetic_species": null, "bulk_modulus": null, "shear_modulus": null, "universal_anisotropy": null, "homogeneous_poisson": null, "e_total": null, "e_ionic": null, "e_electronic": null, "n": null, "e_ij_max": null, "weighted_surface_energy_EV_PER_ANG2": null, "weighted_surface_energy": null, "weighted_work_function": null, "surface_anisotropy": null, "shape_factor": null, "has_reconstructed": null, "possible_species": null, "has_props": null, "theoretical": null, "database_IDs": null, "fields_not_requested": ["builder_meta", "nsites", "elements", "nelements", "composition", "composition_reduced", "chemsys", "symmetry", "property_name", "deprecated", "deprecation_reasons", "last_updated", "origins", "warnings", "task_ids", "uncorrected_energy_per_atom", "equilibrium_reaction_energy_per_atom", "decomposes_to", "xas", "grain_boundaries", "cbm", "vbm", "is_gap_direct", "is_metal", "es_source_calc_id", "bandstructure", "dos", "dos_energy_up", "dos_energy_down", "is_magnetic", "ordering", "total_magnetization_normalized_vol", "total_magnetization_normalized_formula_units", "num_magnetic_sites", "num_unique_magnetic_sites", "types_of_magnetic_species", "bulk_modulus", "shear_modulus", "universal_anisotropy", "homogeneous_poisson", "e_total", "e_ionic", "e_electronic", "n", "e_ij_max", "weighted_surface_energy_EV_PER_ANG2", "weighted_surface_energy", "weighted_work_function", "surface_anisotropy", "shape_factor", "has_reconstructed", "possible_species", "has_props", "theoretical", "database_IDs"]}