{
  "builder_meta": null,
  "nsites": null,
  "elements": null,
  "nelements": null,
  "composition": null,
  "composition_reduced": null,
  "formula_pretty": "Ca5P8",
  "formula_anonymous": "A5B8",
  "chemsys": null,
  "volume": 293.08513802771955,
  "density": 2.539264062615659,
  "density_atomic": 22.545010617516887,
  "symmetry": null,
  "property_name": null,
  "material_id": "mp-28879",
  "deprecated": null,
  "deprecation_reasons": null,
  "last_updated": null,
  "origins": null,
  "warnings": null,
  "structure": {
    "@module": "pymatgen.core.structure",
    "@class": "Structure",
    "charge": 0,
    "lattice": {
      "matrix": [
        [6.79683639, 0.00307021, -1.07938746],
        [-3.62505874, 5.74943282, -1.07938743],
        [0.0028715900000000003, 0.0052099, 7.49592188]
      ],
      "pbc": [true, true, true],
      "a": 6.8820107256108605,
      "b": 6.882013211567204,
      "c": 7.495924240555655,
      "alpha": 99.0016497110884,
      "beta": 99.00166512277225,
      "gamma": 119.6864145019036,
      "volume": 293.08513802771955
    },
    "properties": {},
    "sites": [
      {
        "species": [{ "element": "Ca", "occu": 1 }],
        "abc": [0.5, 0.5, 0.5],
        "properties": { "magmom": -0.0 },
        "label": "Ca",
        "xyz": [1.58732462, 2.8788564649999997, 2.668573495]
      },
      {
        "species": [{ "element": "Ca", "occu": 1 }],
        "abc": [0.82461951, 0.17538049, 0.5],
        "properties": { "magmom": 0.0 },
        "label": "Ca",
        "xyz": [4.970475110371986, 1.013475050259479, 2.6685734852614145]
      },
      {
        "species": [{ "element": "Ca", "occu": 1 }],
        "abc": [0.17538049, 0.82461951, 0.5],
        "properties": { "magmom": 0.0 },
        "label": "Ca",
        "xyz": [-1.7958258703719865, 4.744237879740521, 2.6685735047385855]
      },
      {
        "species": [{ "element": "Ca", "occu": 1 }],
        "abc": [0.33463594, 0.66536406, 0.0],
        "properties": { "magmom": -0.0 },
        "label": "Ca",
        "xyz": [-0.1375180665910274, 3.8264933664217966, -1.0793874400390782]
      },
      {
        "species": [{ "element": "Ca", "occu": 1 }],
        "abc": [0.66536406, 0.33463594, -0.0],
        "properties": { "magmom": -0.0 },
        "label": "Ca",
        "xyz": [3.3092957165910284, 1.9260096635782036, -1.0793874499609217]
      },
      {
        "species": [{ "element": "P", "occu": 1 }],
        "abc": [0.22067446000000002, 0.22067446000000002, 0.7579052900000001],
        "properties": { "magmom": 0.0 },
        "label": "P",
        "xyz": [0.7021067134055303, 1.273379110563985, 5.204812363166437]
      },
      {
        "species": [{ "element": "P", "occu": 1 }],
        "abc": [0.77932554, 0.77932554, 0.24209471000000002],
        "properties": { "magmom": 0.0 },
        "label": "P",
        "xyz": [2.47254252659447, 4.4843338194360145, 0.13233462683356434]
      },
      {
        "species": [{ "element": "P", "occu": 1 }],
        "abc": [0.6172026700000001, 0.92116595, 0.7603409600000001],
        "properties": { "magmom": 0.0 },
        "label": "P",
        "xyz": [0.857928276920585, 5.302037987773444, 4.0389606686736785]
      },
      {
        "species": [{ "element": "P", "occu": 1 }],
        "abc": [0.07883405, 0.38279733, 0.23965904000000002],
        "properties": { "magmom": 0.0 },
        "label": "P",
        "xyz": [-0.851152464451411, 2.202358169231517, 1.2981863304452204]
      },
      {
        "species": [{ "element": "P", "occu": 1 }],
        "abc": [0.38279733, 0.07883405, 0.23965904000000002],
        "properties": { "magmom": 0.0 },
        "label": "P",
        "xyz": [2.3167209630794154, 0.45567494222655636, 1.2981863213263218]
      },
      {
        "species": [{ "element": "P", "occu": 1 }],
        "abc": [0.92116595, 0.6172026700000001, 0.7603409600000001],
        "properties": { "magmom": 0.0 },
        "label": "P",
        "xyz": [4.025801704451411, 3.5553547607684832, 4.03896065955478]
      },
      {
        "species": [{ "element": "P", "occu": 1 }],
        "abc": [0.9477616, 0.9477616, 0.83698779],
        "properties": { "magmom": 0.0 },
        "label": "P",
        "xyz": [3.008492546176126, 5.456362098404768, 4.227991144567621]
      },
      {
        "species": [{ "element": "P", "occu": 1 }],
        "abc": [0.0522384, 0.0522384, 0.16301221],
        "properties": { "magmom": 0.0 },
        "label": "P",
        "xyz": [0.1661566938238739, 0.301350831595231, 1.1091558454323787]
      }
    ]
  },
  "task_ids": null,
  "uncorrected_energy_per_atom": null,
  "energy_per_atom": -9.304107062307692,
  "formation_energy_per_atom": -1.057331754908424,
  "energy_above_hull": 0.0,
  "is_stable": true,
  "equilibrium_reaction_energy_per_atom": null,
  "decomposes_to": null,
  "xas": null,
  "grain_boundaries": null,
  "band_gap": 1.1418,
  "cbm": null,
  "vbm": null,
  "efermi": 3.96668551,
  "is_gap_direct": null,
  "is_metal": null,
  "es_source_calc_id": null,
  "bandstructure": null,
  "dos": null,
  "dos_energy_up": null,
  "dos_energy_down": null,
  "is_magnetic": null,
  "ordering": null,
  "total_magnetization": 0.0,
  "total_magnetization_normalized_vol": null,
  "total_magnetization_normalized_formula_units": null,
  "num_magnetic_sites": null,
  "num_unique_magnetic_sites": null,
  "types_of_magnetic_species": null,
  "bulk_modulus": null,
  "shear_modulus": null,
  "universal_anisotropy": null,
  "homogeneous_poisson": null,
  "e_total": null,
  "e_ionic": null,
  "e_electronic": null,
  "n": null,
  "e_ij_max": null,
  "weighted_surface_energy_EV_PER_ANG2": null,
  "weighted_surface_energy": null,
  "weighted_work_function": null,
  "surface_anisotropy": null,
  "shape_factor": null,
  "has_reconstructed": null,
  "possible_species": null,
  "has_props": null,
  "theoretical": null,
  "database_IDs": null,
  "fields_not_requested": [
    "builder_meta",
    "nsites",
    "elements",
    "nelements",
    "composition",
    "composition_reduced",
    "chemsys",
    "symmetry",
    "property_name",
    "deprecated",
    "deprecation_reasons",
    "last_updated",
    "origins",
    "warnings",
    "task_ids",
    "uncorrected_energy_per_atom",
    "equilibrium_reaction_energy_per_atom",
    "decomposes_to",
    "xas",
    "grain_boundaries",
    "cbm",
    "vbm",
    "is_gap_direct",
    "is_metal",
    "es_source_calc_id",
    "bandstructure",
    "dos",
    "dos_energy_up",
    "dos_energy_down",
    "is_magnetic",
    "ordering",
    "total_magnetization_normalized_vol",
    "total_magnetization_normalized_formula_units",
    "num_magnetic_sites",
    "num_unique_magnetic_sites",
    "types_of_magnetic_species",
    "bulk_modulus",
    "shear_modulus",
    "universal_anisotropy",
    "homogeneous_poisson",
    "e_total",
    "e_ionic",
    "e_electronic",
    "n",
    "e_ij_max",
    "weighted_surface_energy_EV_PER_ANG2",
    "weighted_surface_energy",
    "weighted_work_function",
    "surface_anisotropy",
    "shape_factor",
    "has_reconstructed",
    "possible_species",
    "has_props",
    "theoretical",
    "database_IDs"
  ]
}
