{"builder_meta": null, "nsites": null, "elements": null, "nelements": null, "composition": null, "composition_reduced": null, "formula_pretty": "Ca5Pb3", "formula_anonymous": "A3B5", "chemsys": null, "volume": 532.9638410819736, "density": 5.12209798167, "density_atomic": 33.31024006762335, "symmetry": null, "property_name": null, "material_id": "mp-1182146", "deprecated": null, "deprecation_reasons": null, "last_updated": null, "origins": null, "warnings": null, "structure": {"@module": "pymatgen.core.structure", "@class": "Structure", "charge": 0, "lattice": {"matrix": [[4.71257064, -8.16241294, 0.0], [4.71257064, 8.16241294, -0.0], [-0.0, 0.0, 6.92773576]], "pbc": [true, true, true], "a": 9.425142282218845, "b": 9.425142282218845, "c": 6.92773576, "alpha": 90.0, "beta": 90.0, "gamma": 120.00000703504115, "volume": 532.9638410819736}, "properties": {}, "sites": [{"species": [{"element": "Ca", "occu": 1}], "abc": [0.666667, 0.333333, 0.5], "properties": {"magmom": 0.0}, "label": "Ca", "xyz": [4.71257064, -2.72080975494196, 3.46386788]}, {"species": [{"element": "Ca", "occu": 1}], "abc": [0.333333, 0.666667, 0.5], "properties": {"magmom": 0.0}, "label": "Ca", "xyz": [4.71257064, 2.72080975494196, 3.46386788]}, {"species": [{"element": "Ca", "occu": 1}], "abc": [0.333333, 0.666667, -0.0], "properties": {"magmom": 0.0}, "label": "Ca", "xyz": [4.71257064, 2.72080975494196, 0.0]}, {"species": [{"element": "Ca", "occu": 1}], "abc": [0.666667, 0.333333, -0.0], "properties": {"magmom": 0.0}, "label": "Ca", "xyz": [4.71257064, -2.72080975494196, 0.0]}, {"species": [{"element": "Ca", "occu": 1}], "abc": [0.72784216, 0.72784216, 0.25], "properties": {"magmom": 0.0}, "label": "Ca", "xyz": [6.860015187540365, 0.0, 1.73193394]}, {"species": [{"element": "Ca", "occu": 1}], "abc": [0.27215684, -0.0, 0.25], "properties": {"magmom": 0.0}, "label": "Ca", "xyz": [1.2825583336591777, -2.2214565125255095, 1.73193394]}, {"species": [{"element": "Ca", "occu": 1}], "abc": [-0.0, 0.27215684, 0.25], "properties": {"magmom": 0.0}, "label": "Ca", "xyz": [1.2825583336591777, 2.2214565125255095, 1.73193394]}, {"species": [{"element": "Ca", "occu": 1}], "abc": [0.27215784, 0.27215784, 0.75], "properties": {"magmom": 0.0}, "label": "Ca", "xyz": [2.565126092459635, 0.0, 5.19580182]}, {"species": [{"element": "Ca", "occu": 1}], "abc": [0.72784316, 0.0, 0.75], "properties": {"magmom": 0.0}, "label": "Ca", "xyz": [3.4300123063408225, -5.94095642747449, 5.19580182]}, {"species": [{"element": "Ca", "occu": 1}], "abc": [0.0, 0.72784316, 0.75], "properties": {"magmom": 0.0}, "label": "Ca", "xyz": [3.4300123063408225, 5.94095642747449, 5.19580182]}, {"species": [{"element": "Pb", "occu": 1}], "abc": [0.38455839, 0.38455839, 0.25], "properties": {"magmom": 0.0}, "label": "Pb", "xyz": [3.6245171561593397, 0.0, 1.73193394]}, {"species": [{"element": "Pb", "occu": 1}], "abc": [0.61544161, -0.0, 0.25], "properties": {"magmom": 0.0}, "label": "Pb", "xyz": [2.90031206192033, -5.023488561278433, 1.73193394]}, {"species": [{"element": "Pb", "occu": 1}], "abc": [-0.0, 0.61544161, 0.25], "properties": {"magmom": 0.0}, "label": "Pb", "xyz": [2.90031206192033, 5.023488561278433, 1.73193394]}, {"species": [{"element": "Pb", "occu": 1}], "abc": [0.61544161, 0.61544161, 0.75], "properties": {"magmom": 0.0}, "label": "Pb", "xyz": [5.80062412384066, 0.0, 5.19580182]}, {"species": [{"element": "Pb", "occu": 1}], "abc": [0.38455839, 0.0, 0.75], "properties": {"magmom": 0.0}, "label": "Pb", "xyz": [1.8122585780796698, -3.1389243787215664, 5.19580182]}, {"species": [{"element": "Pb", "occu": 1}], "abc": [0.0, 0.38455839, 0.75], "properties": {"magmom": 0.0}, "label": "Pb", "xyz": [1.8122585780796698, 3.1389243787215664, 5.19580182]}]}, "task_ids": null, "uncorrected_energy_per_atom": null, "energy_per_atom": -3.167262958125, "formation_energy_per_atom": -0.521520381874998, "energy_above_hull": 0.021904420624998002, "is_stable": false, "equilibrium_reaction_energy_per_atom": null, "decomposes_to": null, "xas": null, "grain_boundaries": null, "band_gap": 0.0, "cbm": null, "vbm": null, "efermi": 3.87315584, "is_gap_direct": null, "is_metal": null, "es_source_calc_id": null, "bandstructure": null, "dos": null, "dos_energy_up": null, "dos_energy_down": null, "is_magnetic": null, "ordering": null, "total_magnetization": 0.0036174999999990004, "total_magnetization_normalized_vol": null, "total_magnetization_normalized_formula_units": null, "num_magnetic_sites": null, "num_unique_magnetic_sites": null, "types_of_magnetic_species": null, "bulk_modulus": null, "shear_modulus": null, "universal_anisotropy": null, "homogeneous_poisson": null, "e_total": null, "e_ionic": null, "e_electronic": null, "n": null, "e_ij_max": null, "weighted_surface_energy_EV_PER_ANG2": null, "weighted_surface_energy": null, "weighted_work_function": null, "surface_anisotropy": null, "shape_factor": null, "has_reconstructed": null, "possible_species": null, "has_props": null, "theoretical": null, "database_IDs": null, "fields_not_requested": ["builder_meta", "nsites", "elements", "nelements", "composition", "composition_reduced", "chemsys", "symmetry", "property_name", "deprecated", "deprecation_reasons", "last_updated", "origins", "warnings", "task_ids", "uncorrected_energy_per_atom", "equilibrium_reaction_energy_per_atom", "decomposes_to", "xas", "grain_boundaries", "cbm", "vbm", "is_gap_direct", "is_metal", "es_source_calc_id", "bandstructure", "dos", "dos_energy_up", "dos_energy_down", "is_magnetic", "ordering", "total_magnetization_normalized_vol", "total_magnetization_normalized_formula_units", "num_magnetic_sites", "num_unique_magnetic_sites", "types_of_magnetic_species", "bulk_modulus", "shear_modulus", "universal_anisotropy", "homogeneous_poisson", "e_total", "e_ionic", "e_electronic", "n", "e_ij_max", "weighted_surface_energy_EV_PER_ANG2", "weighted_surface_energy", "weighted_work_function", "surface_anisotropy", "shape_factor", "has_reconstructed", "possible_species", "has_props", "theoretical", "database_IDs"]}