{
  "builder_meta": null,
  "nsites": null,
  "elements": null,
  "nelements": null,
  "composition": null,
  "composition_reduced": null,
  "formula_pretty": "Ca5Pt3",
  "formula_anonymous": "A3B5",
  "chemsys": null,
  "volume": 389.31785480117406,
  "density": 6.701923465739916,
  "density_atomic": 24.33236592507338,
  "symmetry": null,
  "property_name": null,
  "material_id": "mp-1105651",
  "deprecated": null,
  "deprecation_reasons": null,
  "last_updated": null,
  "origins": null,
  "warnings": null,
  "structure": {
    "@module": "pymatgen.core.structure",
    "@class": "Structure",
    "charge": 0,
    "lattice": {
      "matrix": [
        [-5.71638742, 5.71638742, 2.97852343],
        [5.71638742, -5.71638742, 2.97852343],
        [5.71638742, 5.71638742, -2.97852343]
      ],
      "pbc": [true, true, true],
      "a": 8.61543800941818,
      "b": 8.61543800941818,
      "c": 8.61543800941818,
      "alpha": 96.86450817196764,
      "beta": 96.86450817196764,
      "gamma": 139.54857532944638,
      "volume": 389.31785480117406
    },
    "properties": {},
    "sites": [
      {
        "species": [{ "element": "Ca", "occu": 1 }],
        "abc": [0.7110124800000001, 0.5830586600000001, 0.29407114],
        "properties": { "magmom": 0.0 },
        "label": "Ca",
        "xyz": [0.9495909582921145, 2.4124581722700036, 2.97852343]
      },
      {
        "species": [{ "element": "Ca", "occu": 1 }],
        "abc": [0.28898752, 0.41694134, 0.70592886],
        "properties": { "magmom": 0.0 },
        "label": "Ca",
        "xyz": [4.7667964617078855, 3.3039292477299966, 4.440892098500626e-16]
      },
      {
        "species": [{ "element": "Ca", "occu": 1 }],
        "abc": [0.78898752, 0.08305866, 0.87204618],
        "properties": { "magmom": 0.0 },
        "label": "Ca",
        "xyz": [0.9495909582921138, 9.020316667729997, 4.440892098500626e-16]
      },
      {
        "species": [{ "element": "Ca", "occu": 1 }],
        "abc": [0.21101248, 0.91694134, 0.12795382],
        "properties": { "magmom": 0.0 },
        "label": "Ca",
        "xyz": [4.7667964617078855, -3.3039292477299966, 2.9785234300000005]
      },
      {
        "species": [{ "element": "Ca", "occu": 1 }],
        "abc": [0.5830586600000001, 0.28898752, 0.87204618],
        "properties": { "magmom": 0.0 },
        "label": "Ca",
        "xyz": [3.3039292477299966, 6.665978378292115, 0.0]
      },
      {
        "species": [{ "element": "Ca", "occu": 1 }],
        "abc": [0.41694134, 0.7110124800000001, 0.12795382],
        "properties": { "magmom": 0.0 },
        "label": "Ca",
        "xyz": [2.4124581722700036, -0.9495909582921147, 2.97852343]
      },
      {
        "species": [{ "element": "Ca", "occu": 1 }],
        "abc": [0.08305866, 0.21101248, 0.29407114],
        "properties": { "magmom": 0.0 },
        "label": "Ca",
        "xyz": [2.412458172270003, 0.9495909582921146, 0.0]
      },
      {
        "species": [{ "element": "Ca", "occu": 1 }],
        "abc": [0.91694134, 0.78898752, 0.70592886],
        "properties": { "magmom": 0.0 },
        "label": "Ca",
        "xyz": [3.3039292477299975, 4.766796461707885, 2.978523430000001]
      },
      {
        "species": [{ "element": "Ca", "occu": 1 }],
        "abc": [0.75, 0.25, 0.5],
        "properties": { "magmom": 0.0 },
        "label": "Ca",
        "xyz": [0.0, 5.71638742, 1.489261715]
      },
      {
        "species": [{ "element": "Ca", "occu": 1 }],
        "abc": [0.25, 0.75, 0.5],
        "properties": { "magmom": 0.0 },
        "label": "Ca",
        "xyz": [5.71638742, 0.0, 1.489261715]
      },
      {
        "species": [{ "element": "Pt", "occu": 1 }],
        "abc": [0.15551445, 0.65551445, 0.811028899999999],
        "properties": { "magmom": -0.0 },
        "label": "Pt",
        "xyz": [7.494349111216433, 1.7779616912164333, 2.6645352591003757e-15]
      },
      {
        "species": [{ "element": "Pt", "occu": 1 }],
        "abc": [0.84448555, 0.34448555000000003, 0.1889711],
        "properties": { "magmom": -0.0 },
        "label": "Pt",
        "xyz": [-1.777961691216438, 3.938425728783562, 2.97852343]
      },
      {
        "species": [{ "element": "Pt", "occu": 1 }],
        "abc": [0.34448555000000003, 0.15551445, 0.5],
        "properties": { "magmom": -0.0 },
        "label": "Pt",
        "xyz": [1.7779616912164378, 3.9384257287835625, 0.0]
      },
      {
        "species": [{ "element": "Pt", "occu": 1 }],
        "abc": [0.65551445, 0.84448555, 0.5],
        "properties": { "magmom": -0.0 },
        "label": "Pt",
        "xyz": [3.9384257287835625, 1.7779616912164378, 2.9785234300000005]
      },
      {
        "species": [{ "element": "Pt", "occu": 1 }],
        "abc": [0.25, 0.25, 0.0],
        "properties": { "magmom": 0.0 },
        "label": "Pt",
        "xyz": [0.0, 0.0, 1.489261715]
      },
      {
        "species": [{ "element": "Pt", "occu": 1 }],
        "abc": [0.75, 0.75, -0.0],
        "properties": { "magmom": 0.0 },
        "label": "Pt",
        "xyz": [0.0, 0.0, 4.467785145000001]
      }
    ]
  },
  "task_ids": null,
  "uncorrected_energy_per_atom": null,
  "energy_per_atom": -24.550313511875,
  "formation_energy_per_atom": -0.8434861118749981,
  "energy_above_hull": 0.029013358072912002,
  "is_stable": false,
  "equilibrium_reaction_energy_per_atom": null,
  "decomposes_to": null,
  "xas": null,
  "grain_boundaries": null,
  "band_gap": 0.0,
  "cbm": null,
  "vbm": null,
  "efermi": 4.08978976,
  "is_gap_direct": null,
  "is_metal": null,
  "es_source_calc_id": null,
  "bandstructure": null,
  "dos": null,
  "dos_energy_up": null,
  "dos_energy_down": null,
  "is_magnetic": null,
  "ordering": null,
  "total_magnetization": 1e-7,
  "total_magnetization_normalized_vol": null,
  "total_magnetization_normalized_formula_units": null,
  "num_magnetic_sites": null,
  "num_unique_magnetic_sites": null,
  "types_of_magnetic_species": null,
  "bulk_modulus": null,
  "shear_modulus": null,
  "universal_anisotropy": null,
  "homogeneous_poisson": null,
  "e_total": null,
  "e_ionic": null,
  "e_electronic": null,
  "n": null,
  "e_ij_max": null,
  "weighted_surface_energy_EV_PER_ANG2": null,
  "weighted_surface_energy": null,
  "weighted_work_function": null,
  "surface_anisotropy": null,
  "shape_factor": null,
  "has_reconstructed": null,
  "possible_species": null,
  "has_props": null,
  "theoretical": null,
  "database_IDs": null,
  "fields_not_requested": [
    "builder_meta",
    "nsites",
    "elements",
    "nelements",
    "composition",
    "composition_reduced",
    "chemsys",
    "symmetry",
    "property_name",
    "deprecated",
    "deprecation_reasons",
    "last_updated",
    "origins",
    "warnings",
    "task_ids",
    "uncorrected_energy_per_atom",
    "equilibrium_reaction_energy_per_atom",
    "decomposes_to",
    "xas",
    "grain_boundaries",
    "cbm",
    "vbm",
    "is_gap_direct",
    "is_metal",
    "es_source_calc_id",
    "bandstructure",
    "dos",
    "dos_energy_up",
    "dos_energy_down",
    "is_magnetic",
    "ordering",
    "total_magnetization_normalized_vol",
    "total_magnetization_normalized_formula_units",
    "num_magnetic_sites",
    "num_unique_magnetic_sites",
    "types_of_magnetic_species",
    "bulk_modulus",
    "shear_modulus",
    "universal_anisotropy",
    "homogeneous_poisson",
    "e_total",
    "e_ionic",
    "e_electronic",
    "n",
    "e_ij_max",
    "weighted_surface_energy_EV_PER_ANG2",
    "weighted_surface_energy",
    "weighted_work_function",
    "surface_anisotropy",
    "shape_factor",
    "has_reconstructed",
    "possible_species",
    "has_props",
    "theoretical",
    "database_IDs"
  ]
}
