{"builder_meta": null, "nsites": null, "elements": null, "nelements": null, "composition": null, "composition_reduced": null, "formula_pretty": "Ca5Pd2", "formula_anonymous": "A2B5", "chemsys": null, "volume": 422.36378492973944, "density": 3.249258496938914, "density_atomic": 30.168841780695676, "symmetry": null, "property_name": null, "material_id": "mp-1104669", "deprecated": null, "deprecation_reasons": null, "last_updated": null, "origins": null, "warnings": null, "structure": {"@module": "pymatgen.core.structure", "@class": "Structure", "charge": 0, "lattice": {"matrix": [[-1e-08, 6.6774499800000005, -0.0], [0.00308002, -0.0, 7.71543475], [8.19772281, -3.33872602, -1.05908478]], "pbc": [true, true, true], "a": 6.6774499800000005, "b": 7.71543536477565, "c": 8.914673929956551, "alpha": 96.80180830923618, "beta": 111.99466532186361, "gamma": 90.00000000003425, "volume": 422.3637849297395}, "properties": {}, "sites": [{"species": [{"element": "Ca", "occu": 1}], "abc": [0.98267414, 0.91757354, 0.18179829], "properties": {"magmom": 0.0}, "label": "Ca", "xyz": [1.4931581237799245, 5.954782735275012, 6.886938974227489]}, {"species": [{"element": "Ca", "occu": 1}], "abc": [0.80087686, 0.58242646, 0.81820171], "properties": {"magmom": 0.0}, "label": "Ca", "xyz": [6.709184698384566, 2.616063834003969, 3.6271283707725113]}, {"species": [{"element": "Ca", "occu": 1}], "abc": [0.017325860000000002, 0.08242646000000001, 0.81820171], "properties": {"magmom": 0.0}, "label": "Ca", "xyz": [6.7076446962200755, -2.6160587752750115, -0.23058900422748885]}, {"species": [{"element": "Ca", "occu": 1}], "abc": [0.19912314, 0.41757354, 0.18179829], "properties": {"magmom": 0.0}, "label": "Ca", "xyz": [1.4916181216154345, 0.7226601259960315, 3.0292215992274887]}, {"species": [{"element": "Ca", "occu": 1}], "abc": [0.63672538, 0.82035811, 0.43363236], "properties": {"magmom": 0.0}, "label": "Ca", "xyz": [3.55732460174484, 2.8039222325004856, 5.870166036746841]}, {"species": [{"element": "Ca", "occu": 1}], "abc": [0.20309302, 0.67964189, 0.5663676400000001], "properties": {"magmom": 0.0}, "label": "Ca", "xyz": [4.645018229856976, -0.5348028942168532, 4.643901308253158]}, {"species": [{"element": "Ca", "occu": 1}], "abc": [0.36327462, 0.17964189, 0.5663676400000001], "properties": {"magmom": 0.0}, "label": "Ca", "xyz": [4.643478218255161, 0.5348017274995145, 0.7861839332531582]}, {"species": [{"element": "Ca", "occu": 1}], "abc": [0.79690698, 0.32035811000000003, 0.43363236], "properties": {"magmom": 0.0}, "label": "Ca", "xyz": [3.555784590143024, 3.8735268542168537, 2.012448661746842]}, {"species": [{"element": "Ca", "occu": 1}], "abc": [0.42338116000000003, 0.75, 0.0], "properties": {"magmom": -0.0}, "label": "Ca", "xyz": [0.0023100107661884004, 2.8271065183743773, 5.7865760625]}, {"species": [{"element": "Ca", "occu": 1}], "abc": [0.57661884, 0.25, 1.0], "properties": {"magmom": -0.0}, "label": "Ca", "xyz": [8.198492809233812, 0.511617441625623, 0.8697739074999999]}, {"species": [{"element": "Pd", "occu": 1}], "abc": [0.81914122, 0.58183796, 0.22120409], "properties": {"magmom": 0.0}, "label": "Pd", "xyz": [1.8151618786204398, 4.7312346720927545, 4.25485893046036]}, {"species": [{"element": "Pd", "occu": 1}], "abc": [0.5979381300000001, 0.91816204, 0.77879591], "properties": {"magmom": 0.0}, "label": "Pd", "xyz": [6.387180947208767, 1.3925157852231598, 6.25920841453964]}, {"species": [{"element": "Pd", "occu": 1}], "abc": [0.18085878, 0.41816204, 0.77879591], "properties": {"magmom": 0.0}, "label": "Pd", "xyz": [6.3856409413795605, -1.392510712092754, 2.40149103953964]}, {"species": [{"element": "Pd", "occu": 1}], "abc": [0.40206187, 0.08183796, 0.22120409], "properties": {"magmom": 0.0}, "label": "Pd", "xyz": [1.8136218727912332, 1.946208174776841, 0.39714155546035984]}]}, "task_ids": null, "uncorrected_energy_per_atom": null, "energy_per_atom": -12.06523126142857, "formation_energy_per_atom": -0.477749015714284, "energy_above_hull": 0.0, "is_stable": true, "equilibrium_reaction_energy_per_atom": null, "decomposes_to": null, "xas": null, "grain_boundaries": null, "band_gap": 0.0, "cbm": null, "vbm": null, "efermi": 2.90905796, "is_gap_direct": null, "is_metal": null, "es_source_calc_id": null, "bandstructure": null, "dos": null, "dos_energy_up": null, "dos_energy_down": null, "is_magnetic": null, "ordering": null, "total_magnetization": 0.0029595, "total_magnetization_normalized_vol": null, "total_magnetization_normalized_formula_units": null, "num_magnetic_sites": null, "num_unique_magnetic_sites": null, "types_of_magnetic_species": null, "bulk_modulus": null, "shear_modulus": null, "universal_anisotropy": null, "homogeneous_poisson": null, "e_total": null, "e_ionic": null, "e_electronic": null, "n": null, "e_ij_max": null, "weighted_surface_energy_EV_PER_ANG2": null, "weighted_surface_energy": null, "weighted_work_function": null, "surface_anisotropy": null, "shape_factor": null, "has_reconstructed": null, "possible_species": null, "has_props": null, "theoretical": null, "database_IDs": null, "fields_not_requested": ["builder_meta", "nsites", "elements", "nelements", "composition", "composition_reduced", "chemsys", "symmetry", "property_name", "deprecated", "deprecation_reasons", "last_updated", "origins", "warnings", "task_ids", "uncorrected_energy_per_atom", "equilibrium_reaction_energy_per_atom", "decomposes_to", "xas", "grain_boundaries", "cbm", "vbm", "is_gap_direct", "is_metal", "es_source_calc_id", "bandstructure", "dos", "dos_energy_up", "dos_energy_down", "is_magnetic", "ordering", "total_magnetization_normalized_vol", "total_magnetization_normalized_formula_units", "num_magnetic_sites", "num_unique_magnetic_sites", "types_of_magnetic_species", "bulk_modulus", "shear_modulus", "universal_anisotropy", "homogeneous_poisson", "e_total", "e_ionic", "e_electronic", "n", "e_ij_max", "weighted_surface_energy_EV_PER_ANG2", "weighted_surface_energy", "weighted_work_function", "surface_anisotropy", "shape_factor", "has_reconstructed", "possible_species", "has_props", "theoretical", "database_IDs"]}