{
  "builder_meta": null,
  "nsites": null,
  "elements": null,
  "nelements": null,
  "composition": null,
  "composition_reduced": null,
  "formula_pretty": "Ca5Rh",
  "formula_anonymous": "AB5",
  "chemsys": null,
  "volume": 828.595229078386,
  "density": 2.431266841997884,
  "density_atomic": 34.52480121159942,
  "symmetry": null,
  "property_name": null,
  "material_id": "mp-1214063",
  "deprecated": null,
  "deprecation_reasons": null,
  "last_updated": null,
  "origins": null,
  "warnings": null,
  "structure": {
    "@module": "pymatgen.core.structure",
    "@class": "Structure",
    "charge": 0,
    "lattice": {
      "matrix": [
        [0.0, 0.0, 6.77470065],
        [7.63026784, 0.0, 0.0],
        [0.0, 16.02922538, 0.0]
      ],
      "pbc": [true, true, true],
      "a": 6.77470065,
      "b": 7.63026784,
      "c": 16.02922538,
      "alpha": 90.0,
      "beta": 90.0,
      "gamma": 90.0,
      "volume": 828.595229078386
    },
    "properties": {},
    "sites": [
      {
        "species": [{ "element": "Ca", "occu": 1 }],
        "abc": [0.35406614000000003, 0.30821932, 0.0643242],
        "properties": { "magmom": 0.0 },
        "label": "Ca",
        "xyz": [2.351795965062669, 1.031067099188196, 2.398692108800991]
      },
      {
        "species": [{ "element": "Ca", "occu": 1 }],
        "abc": [0.64593386, 0.69178068, 0.9356758],
        "properties": { "magmom": 0.0 },
        "label": "Ca",
        "xyz": [5.278471874937331, 14.998158280811802, 4.376008541199009]
      },
      {
        "species": [{ "element": "Ca", "occu": 1 }],
        "abc": [0.85406614, 0.19178068, 0.9356758],
        "properties": { "magmom": 0.0 },
        "label": "Ca",
        "xyz": [1.4633379549373313, 14.998158280811802, 5.786042433800991]
      },
      {
        "species": [{ "element": "Ca", "occu": 1 }],
        "abc": [0.64593386, 0.69178068, 0.564324199999999],
        "properties": { "magmom": 0.0 },
        "label": "Ca",
        "xyz": [5.278471874937331, 9.045679789188181, 4.376008541199009]
      },
      {
        "species": [{ "element": "Ca", "occu": 1 }],
        "abc": [0.14593386, 0.80821932, 0.0643242],
        "properties": { "magmom": 0.0 },
        "label": "Ca",
        "xyz": [6.166929885062669, 1.031067099188196, 0.988658216199009]
      },
      {
        "species": [{ "element": "Ca", "occu": 1 }],
        "abc": [0.35406614000000003, 0.30821932, 0.4356758],
        "properties": { "magmom": 0.0 },
        "label": "Ca",
        "xyz": [2.351795965062669, 6.983545590811804, 2.398692108800991]
      },
      {
        "species": [{ "element": "Ca", "occu": 1 }],
        "abc": [0.14593386, 0.80821932, 0.4356758],
        "properties": { "magmom": 0.0 },
        "label": "Ca",
        "xyz": [6.166929885062669, 6.983545590811804, 0.988658216199009]
      },
      {
        "species": [{ "element": "Ca", "occu": 1 }],
        "abc": [0.85406614, 0.19178068, 0.564324199999999],
        "properties": { "magmom": 0.0 },
        "label": "Ca",
        "xyz": [1.4633379549373313, 9.045679789188181, 5.786042433800991]
      },
      {
        "species": [{ "element": "Ca", "occu": 1 }],
        "abc": [0.15438547, 0.09207876, 0.25],
        "properties": { "magmom": 0.0 },
        "label": "Ca",
        "xyz": [0.7025856011750784, 4.007306345, 1.0459153439595554]
      },
      {
        "species": [{ "element": "Ca", "occu": 1 }],
        "abc": [0.84561453, 0.9079212400000001, 0.75],
        "properties": { "magmom": 0.0 },
        "label": "Ca",
        "xyz": [6.927682238824922, 12.021919035, 5.728785306040444]
      },
      {
        "species": [{ "element": "Ca", "occu": 1 }],
        "abc": [0.65438547, 0.40792124, 0.75],
        "properties": { "magmom": 0.0 },
        "label": "Ca",
        "xyz": [3.112548318824922, 12.021919035, 4.433265668959556]
      },
      {
        "species": [{ "element": "Ca", "occu": 1 }],
        "abc": [0.34561453000000003, 0.59207876, 0.25],
        "properties": { "magmom": 0.0 },
        "label": "Ca",
        "xyz": [4.517719521175079, 4.007306345, 2.3414349810404445]
      },
      {
        "species": [{ "element": "Ca", "occu": 1 }],
        "abc": [0.32326484, 0.03443379, 0.64580212],
        "properties": { "magmom": 0.0 },
        "label": "Ca",
        "xyz": [0.2627390404463136, 10.351707732361806, 2.190022521670146]
      },
      {
        "species": [{ "element": "Ca", "occu": 1 }],
        "abc": [0.67673516, 0.96556621, 0.35419688],
        "properties": { "magmom": 0.0 },
        "label": "Ca",
        "xyz": [7.3675287995536864, 5.677501618412814, 4.584678128329854]
      },
      {
        "species": [{ "element": "Ca", "occu": 1 }],
        "abc": [0.82326484, 0.46556621000000004, 0.35419688],
        "properties": { "magmom": 0.0 },
        "label": "Ca",
        "xyz": [3.552394879553687, 5.677501618412814, 5.577372846670146]
      },
      {
        "species": [{ "element": "Ca", "occu": 1 }],
        "abc": [0.67673516, 0.96556621, 0.14580312],
        "properties": { "magmom": 0.0 },
        "label": "Ca",
        "xyz": [7.3675287995536864, 2.3371110715871857, 4.584678128329854]
      },
      {
        "species": [{ "element": "Ca", "occu": 1 }],
        "abc": [0.17673516, 0.53443379, 0.64580212],
        "properties": { "magmom": 0.0 },
        "label": "Ca",
        "xyz": [4.077872960446314, 10.351707732361806, 1.197327803329854]
      },
      {
        "species": [{ "element": "Ca", "occu": 1 }],
        "abc": [0.32326484, 0.03443379, 0.85419788],
        "properties": { "magmom": 0.0 },
        "label": "Ca",
        "xyz": [0.2627390404463136, 13.692130337638194, 2.190022521670146]
      },
      {
        "species": [{ "element": "Ca", "occu": 1 }],
        "abc": [0.17673516, 0.53443379, 0.85419788],
        "properties": { "magmom": 0.0 },
        "label": "Ca",
        "xyz": [4.077872960446314, 13.692130337638194, 1.197327803329854]
      },
      {
        "species": [{ "element": "Ca", "occu": 1 }],
        "abc": [0.82326484, 0.46556621000000004, 0.14580312],
        "properties": { "magmom": 0.0 },
        "label": "Ca",
        "xyz": [3.552394879553687, 2.3371110715871857, 5.577372846670146]
      },
      {
        "species": [{ "element": "Rh", "occu": 1 }],
        "abc": [0.53483565, 0.26020483, 0.25],
        "properties": { "magmom": 0.0 },
        "label": "Rh",
        "xyz": [1.9854325461616673, 4.007306345, 3.6233514256981723]
      },
      {
        "species": [{ "element": "Rh", "occu": 1 }],
        "abc": [0.46516435, 0.7397951700000001, 0.75],
        "properties": { "magmom": 0.0 },
        "label": "Rh",
        "xyz": [5.644835293838334, 12.021919035, 3.1513492243018275]
      },
      {
        "species": [{ "element": "Rh", "occu": 1 }],
        "abc": [0.03483565, 0.23979517, 0.75],
        "properties": { "magmom": 0.0 },
        "label": "Rh",
        "xyz": [1.8297013738383328, 12.021919035, 0.2360011006981725]
      },
      {
        "species": [{ "element": "Rh", "occu": 1 }],
        "abc": [0.96516435, 0.76020483, 0.25],
        "properties": { "magmom": 0.0 },
        "label": "Rh",
        "xyz": [5.800566466161667, 4.007306345, 6.538699549301827]
      }
    ]
  },
  "task_ids": null,
  "uncorrected_energy_per_atom": null,
  "energy_per_atom": -10.098256210833332,
  "formation_energy_per_atom": -0.210306689166665,
  "energy_above_hull": 0.0,
  "is_stable": true,
  "equilibrium_reaction_energy_per_atom": null,
  "decomposes_to": null,
  "xas": null,
  "grain_boundaries": null,
  "band_gap": 0.0,
  "cbm": null,
  "vbm": null,
  "efermi": 2.4385811,
  "is_gap_direct": null,
  "is_metal": null,
  "es_source_calc_id": null,
  "bandstructure": null,
  "dos": null,
  "dos_energy_up": null,
  "dos_energy_down": null,
  "is_magnetic": null,
  "ordering": null,
  "total_magnetization": 0.0064103,
  "total_magnetization_normalized_vol": null,
  "total_magnetization_normalized_formula_units": null,
  "num_magnetic_sites": null,
  "num_unique_magnetic_sites": null,
  "types_of_magnetic_species": null,
  "bulk_modulus": null,
  "shear_modulus": null,
  "universal_anisotropy": null,
  "homogeneous_poisson": null,
  "e_total": null,
  "e_ionic": null,
  "e_electronic": null,
  "n": null,
  "e_ij_max": null,
  "weighted_surface_energy_EV_PER_ANG2": null,
  "weighted_surface_energy": null,
  "weighted_work_function": null,
  "surface_anisotropy": null,
  "shape_factor": null,
  "has_reconstructed": null,
  "possible_species": null,
  "has_props": null,
  "theoretical": null,
  "database_IDs": null,
  "fields_not_requested": [
    "builder_meta",
    "nsites",
    "elements",
    "nelements",
    "composition",
    "composition_reduced",
    "chemsys",
    "symmetry",
    "property_name",
    "deprecated",
    "deprecation_reasons",
    "last_updated",
    "origins",
    "warnings",
    "task_ids",
    "uncorrected_energy_per_atom",
    "equilibrium_reaction_energy_per_atom",
    "decomposes_to",
    "xas",
    "grain_boundaries",
    "cbm",
    "vbm",
    "is_gap_direct",
    "is_metal",
    "es_source_calc_id",
    "bandstructure",
    "dos",
    "dos_energy_up",
    "dos_energy_down",
    "is_magnetic",
    "ordering",
    "total_magnetization_normalized_vol",
    "total_magnetization_normalized_formula_units",
    "num_magnetic_sites",
    "num_unique_magnetic_sites",
    "types_of_magnetic_species",
    "bulk_modulus",
    "shear_modulus",
    "universal_anisotropy",
    "homogeneous_poisson",
    "e_total",
    "e_ionic",
    "e_electronic",
    "n",
    "e_ij_max",
    "weighted_surface_energy_EV_PER_ANG2",
    "weighted_surface_energy",
    "weighted_work_function",
    "surface_anisotropy",
    "shape_factor",
    "has_reconstructed",
    "possible_species",
    "has_props",
    "theoretical",
    "database_IDs"
  ]
}
