{
  "builder_meta": null,
  "nsites": null,
  "elements": null,
  "nelements": null,
  "composition": null,
  "composition_reduced": null,
  "formula_pretty": "Ca5Sn3",
  "formula_anonymous": "A3B5",
  "chemsys": null,
  "volume": 514.5355353102727,
  "density": 3.59206755578882,
  "density_atomic": 32.158470956892046,
  "symmetry": null,
  "property_name": null,
  "material_id": "mp-1214016",
  "deprecated": null,
  "deprecation_reasons": null,
  "last_updated": null,
  "origins": null,
  "warnings": null,
  "structure": {
    "@module": "pymatgen.core.structure",
    "@class": "Structure",
    "charge": 0,
    "lattice": {
      "matrix": [
        [-4.0751562, 4.0751562, 7.74581041],
        [4.0751562, -4.0751562, 7.74581041],
        [4.0751562, 4.0751562, -7.74581041]
      ],
      "pbc": [true, true, true],
      "a": 9.654603824935606,
      "b": 9.654603824935606,
      "c": 9.654603824935606,
      "alpha": 130.06620093258158,
      "beta": 130.06620093258158,
      "gamma": 73.30095388928598,
      "volume": 514.5355353102727
    },
    "properties": {},
    "sites": [
      {
        "species": [{ "element": "Ca", "occu": 1 }],
        "abc": [0.81775888, 0.31775888, 0.85397849],
        "properties": { "magmom": -0.0 },
        "label": "Ca",
        "xyz": [1.4425176381901381, 5.517673838190138, 2.1807498083898]
      },
      {
        "species": [{ "element": "Ca", "occu": 1 }],
        "abc": [0.18224112, 0.68224112, 0.14602151],
        "properties": { "magmom": -0.0 },
        "label": "Ca",
        "xyz": [2.632638561809862, -1.4425176381901381, 5.5650606016102]
      },
      {
        "species": [{ "element": "Ca", "occu": 1 }],
        "abc": [0.46377938, 0.9637793800000001, 0.14602151],
        "properties": { "magmom": -0.0 },
        "label": "Ca",
        "xyz": [2.632638561809862, -1.4425176381901381, 9.926544571852773]
      },
      {
        "species": [{ "element": "Ca", "occu": 1 }],
        "abc": [0.31775888, 0.46377938, 0.5],
        "properties": { "magmom": -0.0 },
        "label": "Ca",
        "xyz": [2.6326344459021, 1.4425217540979003, 2.1807419851212866]
      },
      {
        "species": [{ "element": "Ca", "occu": 1 }],
        "abc": [0.03622062, 0.18224112, 0.5],
        "properties": { "magmom": -0.0 },
        "label": "Ca",
        "xyz": [2.6326344459021, 1.4425217540979003, -2.1807419851212866]
      },
      {
        "species": [{ "element": "Ca", "occu": 1 }],
        "abc": [0.53622062, 0.03622062, 0.85397849],
        "properties": { "magmom": -0.0 },
        "label": "Ca",
        "xyz": [1.4425176381901377, 5.517673838190139, -2.1807341618527722]
      },
      {
        "species": [{ "element": "Ca", "occu": 1 }],
        "abc": [0.68224112, 0.53622062, 0.5],
        "properties": { "magmom": -0.0 },
        "label": "Ca",
        "xyz": [1.4425217540979003, 2.6326344459021, 5.565068424878714]
      },
      {
        "species": [{ "element": "Ca", "occu": 1 }],
        "abc": [0.9637793800000001, 0.81775888, 0.5],
        "properties": { "magmom": -0.0 },
        "label": "Ca",
        "xyz": [1.4425217540978998, 2.6326344459021005, 9.926552395121286]
      },
      {
        "species": [{ "element": "Ca", "occu": 1 }],
        "abc": [-0.0, -0.0, -0.0],
        "properties": { "magmom": 0.0 },
        "label": "Ca",
        "xyz": [0.0, 0.0, 0.0]
      },
      {
        "species": [{ "element": "Ca", "occu": 1 }],
        "abc": [0.5, 0.5, -0.0],
        "properties": { "magmom": 0.0 },
        "label": "Ca",
        "xyz": [0.0, 0.0, 7.74581041]
      },
      {
        "species": [{ "element": "Sn", "occu": 1 }],
        "abc": [0.12443217000000001, 0.6244321700000001, 0.74886635],
        "properties": { "magmom": -0.0 },
        "label": "Sn",
        "xyz": [5.08932544917387, 1.0141692491738703, -1.5569078923860502e-5]
      },
      {
        "species": [{ "element": "Sn", "occu": 1 }],
        "abc": [0.87556783, 0.37556783, 0.25113365],
        "properties": { "magmom": -0.0 },
        "label": "Sn",
        "xyz": [-1.01416924917387, 3.0609869508261305, 7.745825979078924]
      },
      {
        "species": [{ "element": "Sn", "occu": 1 }],
        "abc": [0.6244321700000001, 0.87556783, 0.5],
        "properties": { "magmom": -0.0 },
        "label": "Sn",
        "xyz": [3.0609951418900923, 1.014161058109908, 7.745810409999999]
      },
      {
        "species": [{ "element": "Sn", "occu": 1 }],
        "abc": [0.37556783, 0.12443217000000001, 0.5],
        "properties": { "magmom": -0.0 },
        "label": "Sn",
        "xyz": [1.014161058109908, 3.0609951418900923, 0.0]
      },
      {
        "species": [{ "element": "Sn", "occu": 1 }],
        "abc": [0.25, 0.25, -0.0],
        "properties": { "magmom": -0.0 },
        "label": "Sn",
        "xyz": [0.0, 0.0, 3.872905205]
      },
      {
        "species": [{ "element": "Sn", "occu": 1 }],
        "abc": [0.75, 0.75, -0.0],
        "properties": { "magmom": -0.0 },
        "label": "Sn",
        "xyz": [0.0, 0.0, 11.618715615]
      }
    ]
  },
  "task_ids": null,
  "uncorrected_energy_per_atom": null,
  "energy_per_atom": -3.402799250624999,
  "formation_energy_per_atom": -0.6457098799999981,
  "energy_above_hull": 0.007840859131943,
  "is_stable": false,
  "equilibrium_reaction_energy_per_atom": null,
  "decomposes_to": null,
  "xas": null,
  "grain_boundaries": null,
  "band_gap": 0.0,
  "cbm": null,
  "vbm": null,
  "efermi": 3.90058921,
  "is_gap_direct": null,
  "is_metal": null,
  "es_source_calc_id": null,
  "bandstructure": null,
  "dos": null,
  "dos_energy_up": null,
  "dos_energy_down": null,
  "is_magnetic": null,
  "ordering": null,
  "total_magnetization": 3e-7,
  "total_magnetization_normalized_vol": null,
  "total_magnetization_normalized_formula_units": null,
  "num_magnetic_sites": null,
  "num_unique_magnetic_sites": null,
  "types_of_magnetic_species": null,
  "bulk_modulus": null,
  "shear_modulus": null,
  "universal_anisotropy": null,
  "homogeneous_poisson": null,
  "e_total": null,
  "e_ionic": null,
  "e_electronic": null,
  "n": null,
  "e_ij_max": null,
  "weighted_surface_energy_EV_PER_ANG2": null,
  "weighted_surface_energy": null,
  "weighted_work_function": null,
  "surface_anisotropy": null,
  "shape_factor": null,
  "has_reconstructed": null,
  "possible_species": null,
  "has_props": null,
  "theoretical": null,
  "database_IDs": null,
  "fields_not_requested": [
    "builder_meta",
    "nsites",
    "elements",
    "nelements",
    "composition",
    "composition_reduced",
    "chemsys",
    "symmetry",
    "property_name",
    "deprecated",
    "deprecation_reasons",
    "last_updated",
    "origins",
    "warnings",
    "task_ids",
    "uncorrected_energy_per_atom",
    "equilibrium_reaction_energy_per_atom",
    "decomposes_to",
    "xas",
    "grain_boundaries",
    "cbm",
    "vbm",
    "is_gap_direct",
    "is_metal",
    "es_source_calc_id",
    "bandstructure",
    "dos",
    "dos_energy_up",
    "dos_energy_down",
    "is_magnetic",
    "ordering",
    "total_magnetization_normalized_vol",
    "total_magnetization_normalized_formula_units",
    "num_magnetic_sites",
    "num_unique_magnetic_sites",
    "types_of_magnetic_species",
    "bulk_modulus",
    "shear_modulus",
    "universal_anisotropy",
    "homogeneous_poisson",
    "e_total",
    "e_ionic",
    "e_electronic",
    "n",
    "e_ij_max",
    "weighted_surface_energy_EV_PER_ANG2",
    "weighted_surface_energy",
    "weighted_work_function",
    "surface_anisotropy",
    "shape_factor",
    "has_reconstructed",
    "possible_species",
    "has_props",
    "theoretical",
    "database_IDs"
  ]
}
