{"builder_meta": null, "nsites": null, "elements": null, "nelements": null, "composition": null, "composition_reduced": null, "formula_pretty": "Ca5Si3", "formula_anonymous": "A3B5", "chemsys": null, "volume": 432.7852623823539, "density": 2.184300966345609, "density_atomic": 27.04907889889712, "symmetry": null, "property_name": null, "material_id": "mp-793", "deprecated": null, "deprecation_reasons": null, "last_updated": null, "origins": null, "warnings": null, "structure": {"@module": "pymatgen.core.structure", "@class": "Structure", "charge": 0, "lattice": {"matrix": [[6.95789948, -0.00031156, -3.18877709], [-1.46164789, 6.80278872, -3.18860786], [-0.01248049, -0.01568496, 9.15809629]], "pbc": [true, true, true], "a": 7.6538006637593305, "b": 7.653859745785421, "c": 9.158118225788122, "alpha": 114.69969817833478, "beta": 114.69983281548154, "gamma": 90.00426323886475, "volume": 432.7852623823539}, "properties": {}, "sites": [{"species": [{"element": "Ca", "occu": 1}], "abc": [0.18040255, 0.041559650000000004, 0.72197674], "properties": {"magmom": -0.0}, "label": "Ca", "xyz": [1.185466610620233, 0.2713411357208396, 5.904151558993866]}, {"species": [{"element": "Ca", "occu": 1}], "abc": [0.04161094, 0.54160542, 0.72195314], "properties": {"magmom": -0.0}, "label": "Ca", "xyz": [-0.5111220105114912, 3.6730904714396218, 4.752061061591884]}, {"species": [{"element": "Ca", "occu": 1}], "abc": [0.680317699999999, 0.18032236000000001, 0.7220826300000001], "properties": {"magmom": -0.0}, "label": "Ca", "xyz": [4.46100242900808, 1.2151571196209225, 3.8685434647652035]}, {"species": [{"element": "Ca", "occu": 1}], "abc": [0.95838906, 0.45839458, 0.27804686], "properties": {"magmom": -0.0}, "label": "Ca", "xyz": [5.994893110511491, 3.113701728560378, -1.9713497215918845]}, {"species": [{"element": "Ca", "occu": 1}], "abc": [0.54168696, 0.68039654, 0.72209172], "properties": {"magmom": -0.0}, "label": "Ca", "xyz": [2.765491191761938, 4.617099159705241, 2.7161487786111675]}, {"species": [{"element": "Ca", "occu": 1}], "abc": [0.8195974500000001, 0.95844035, 0.27802326], "properties": {"magmom": -0.0}, "label": "Ca", "xyz": [4.298304489379767, 6.515451064279159, -3.123440218993866]}, {"species": [{"element": "Ca", "occu": 1}], "abc": [0.45831304, 0.31960346, 0.27790828], "properties": {"magmom": -0.0}, "label": "Ca", "xyz": [2.7182799082380624, 2.1696930402947605, 0.06456256138883187]}, {"species": [{"element": "Ca", "occu": 1}], "abc": [0.3196823, 0.81967764, 0.27791737], "properties": {"magmom": -0.0}, "label": "Ca", "xyz": [1.0227686709919128, 5.571635080379076, -1.0878321247652]}, {"species": [{"element": "Ca", "occu": 1}], "abc": [0.5, 0.5, 0.0], "properties": {"magmom": 0.0}, "label": "Ca", "xyz": [2.748125795, 3.40123858, -3.188692475]}, {"species": [{"element": "Ca", "occu": 1}], "abc": [0.0, 0.0, 0.0], "properties": {"magmom": 0.0}, "label": "Ca", "xyz": [0.0, 0.0, 0.0]}, {"species": [{"element": "Si", "occu": 1}], "abc": [0.61226274, 0.11226211, 0.00025265], "properties": {"magmom": 0.0}, "label": "Si", "xyz": [4.095971770865129, 0.7635006962069808, -2.308015451671143]}, {"species": [{"element": "Si", "occu": 1}], "abc": [0.8879800000000001, 0.61219713, 0.00017183], "properties": {"magmom": 0.0}, "label": "Si", "xyz": [5.283656792399248, 4.164368376184897, -4.782053225280131]}, {"species": [{"element": "Si", "occu": 1}], "abc": [0.11202000000000001, 0.38780287, 0.99982817], "properties": {"magmom": 0.0}, "label": "Si", "xyz": [0.20011430760075236, 2.622423823815103, 7.562764565280132]}, {"species": [{"element": "Si", "occu": 1}], "abc": [0.38773726000000003, 0.88773789, 0.99974735], "properties": {"magmom": 0.0}, "label": "Si", "xyz": [1.3877993291348711, 6.023291503793019, 5.088726791671143]}, {"species": [{"element": "Si", "occu": 1}], "abc": [0.74982159, 0.75003754, 0.5000058], "properties": {"magmom": 0.0}, "label": "Si", "xyz": [4.114652146005141, 5.094270731301201, -0.20348824115995612]}, {"species": [{"element": "Si", "occu": 1}], "abc": [0.25017841, 0.24996246, 0.4999942], "properties": {"magmom": 0.0}, "label": "Si", "xyz": [1.3691189539948596, 1.6925214686987993, 2.984199581159955]}]}, "task_ids": null, "uncorrected_energy_per_atom": null, "energy_per_atom": -8.24334057875, "formation_energy_per_atom": -0.554245293125001, "energy_above_hull": 0.0, "is_stable": true, "equilibrium_reaction_energy_per_atom": null, "decomposes_to": null, "xas": null, "grain_boundaries": null, "band_gap": 0.0, "cbm": null, "vbm": null, "efermi": 3.47737053, "is_gap_direct": null, "is_metal": null, "es_source_calc_id": null, "bandstructure": null, "dos": null, "dos_energy_up": null, "dos_energy_down": null, "is_magnetic": null, "ordering": null, "total_magnetization": 0.0003968, "total_magnetization_normalized_vol": null, "total_magnetization_normalized_formula_units": null, "num_magnetic_sites": null, "num_unique_magnetic_sites": null, "types_of_magnetic_species": null, "bulk_modulus": null, "shear_modulus": null, "universal_anisotropy": null, "homogeneous_poisson": null, "e_total": null, "e_ionic": null, "e_electronic": null, "n": null, "e_ij_max": null, "weighted_surface_energy_EV_PER_ANG2": null, "weighted_surface_energy": null, "weighted_work_function": null, "surface_anisotropy": null, "shape_factor": null, "has_reconstructed": null, "possible_species": null, "has_props": null, "theoretical": null, "database_IDs": null, "fields_not_requested": ["builder_meta", "nsites", "elements", "nelements", "composition", "composition_reduced", "chemsys", "symmetry", "property_name", "deprecated", "deprecation_reasons", "last_updated", "origins", "warnings", "task_ids", "uncorrected_energy_per_atom", "equilibrium_reaction_energy_per_atom", "decomposes_to", "xas", "grain_boundaries", "cbm", "vbm", "is_gap_direct", "is_metal", "es_source_calc_id", "bandstructure", "dos", "dos_energy_up", "dos_energy_down", "is_magnetic", "ordering", "total_magnetization_normalized_vol", "total_magnetization_normalized_formula_units", "num_magnetic_sites", "num_unique_magnetic_sites", "types_of_magnetic_species", "bulk_modulus", "shear_modulus", "universal_anisotropy", "homogeneous_poisson", "e_total", "e_ionic", "e_electronic", "n", "e_ij_max", "weighted_surface_energy_EV_PER_ANG2", "weighted_surface_energy", "weighted_work_function", "surface_anisotropy", "shape_factor", "has_reconstructed", "possible_species", "has_props", "theoretical", "database_IDs"]}