{
  "builder_meta": null,
  "nsites": null,
  "elements": null,
  "nelements": null,
  "composition": null,
  "composition_reduced": null,
  "formula_pretty": "Ca5Zn3",
  "formula_anonymous": "A3B5",
  "chemsys": null,
  "volume": 471.7854918076252,
  "density": 2.791938431401539,
  "density_atomic": 29.486593237976574,
  "symmetry": null,
  "property_name": null,
  "material_id": "mp-2786",
  "deprecated": null,
  "deprecation_reasons": null,
  "last_updated": null,
  "origins": null,
  "warnings": null,
  "structure": {
    "@module": "pymatgen.core.structure",
    "@class": "Structure",
    "charge": 0,
    "lattice": {
      "matrix": [
        [7.14414448, 0.00152648, -3.28254188],
        [-1.5045889, 6.98389232, -3.28254922],
        [0.00856667, 0.01060346, 9.44536471]
      ],
      "pbc": [true, true, true],
      "a": 7.8621806056087005,
      "b": 7.862166945383493,
      "c": 9.445374546629278,
      "alpha": 114.62565989731306,
      "beta": 114.62550992530765,
      "gamma": 89.96592163540097,
      "volume": 471.78549180762525
    },
    "properties": {},
    "sites": [
      {
        "species": [{ "element": "Ca", "occu": 1 }],
        "abc": [3.799999999999998e-7, 4.099999999999998e-7, 0.99999931],
        "properties": { "magmom": -0.0 },
        "label": "Ca",
        "xyz": [0.008568761982451099, 0.0106063166595262, 9.445355599487256]
      },
      {
        "species": [{ "element": "Ca", "occu": 1 }],
        "abc": [0.49999979, 0.4999994, 0.99999936],
        "properties": { "magmom": -0.0 },
        "label": "Ca",
        "xyz": [2.82834385700033, 3.5033086625578327, 6.162815773829912]
      },
      {
        "species": [{ "element": "Ca", "occu": 1 }],
        "abc": [0.31785699, 0.81785657, 0.29332139],
        "properties": { "magmom": -0.0 },
        "label": "Ca",
        "xyz": [1.0427911310759137, 5.715417642048647, -0.9575058216569698]
      },
      {
        "species": [{ "element": "Ca", "occu": 1 }],
        "abc": [0.47554629, 0.31784063, 0.29327807],
        "properties": { "magmom": -0.0 },
        "label": "Ca",
        "xyz": [2.9216643352648983, 2.2236004090258428, 0.1657902077004758]
      },
      {
        "species": [{ "element": "Ca", "occu": 1 }],
        "abc": [0.81784037, 0.97554669, 0.2932771],
        "properties": { "magmom": -0.0 },
        "label": "Ca",
        "xyz": [4.377485451785173, 6.817471205059184, -3.1167661214216373]
      },
      {
        "species": [{ "element": "Ca", "occu": 1 }],
        "abc": [0.52445439, 0.68216012, 0.7067235900000001],
        "properties": { "magmom": -0.0 },
        "label": "Ca",
        "xyz": [2.7264616585323447, 4.772427107533147, 2.714494387564549]
      },
      {
        "species": [{ "element": "Ca", "occu": 1 }],
        "abc": [0.18216064, 0.02445243, 0.7067215],
        "properties": { "magmom": -0.0 },
        "label": "Ca",
        "xyz": [1.2706453258456452, 0.17854489581247482, 5.997026081187057]
      },
      {
        "species": [{ "element": "Ca", "occu": 1 }],
        "abc": [0.02459308, 0.52459255, 0.7069289400000001],
        "properties": { "magmom": -0.0 },
        "label": "Ca",
        "xyz": [-0.6075435840820668, 3.671231314657107, 4.874472981475206]
      },
      {
        "species": [{ "element": "Ca", "occu": 1 }],
        "abc": [0.68214364, 0.18214357, 0.706678599999999],
        "properties": { "magmom": -0.0 },
        "label": "Ca",
        "xyz": [4.6053354090069964, 1.2806055965519256, 3.837776809645038]
      },
      {
        "species": [{ "element": "Ca", "occu": 1 }],
        "abc": [0.9754064800000001, 0.47540738, 0.29307065],
        "properties": { "magmom": -0.0 },
        "label": "Ca",
        "xyz": [6.255662792467384, 3.324790451451361, -1.9942015699778648]
      },
      {
        "species": [{ "element": "Zn", "occu": 1 }],
        "abc": [0.25000887, 0.24999058000000002, 0.49999942],
        "properties": { "magmom": -0.0 },
        "label": "Zn",
        "xyz": [1.414249766820307, 1.7515906491242166, 3.081405907155645]
      },
      {
        "species": [{ "element": "Zn", "occu": 1 }],
        "abc": [0.74999245, 0.75001061, 0.50000192],
        "properties": { "magmom": -0.0 },
        "label": "Zn",
        "xyz": [4.233880134468953, 5.244439937931234, -0.20112787955578781]
      },
      {
        "species": [{ "element": "Zn", "occu": 1 }],
        "abc": [0.38510427, 0.8851039700000001, 0.99966263],
        "properties": { "magmom": -0.0 },
        "label": "Zn",
        "xyz": [1.428086715999539, 6.19265855516128, 5.272659886523556]
      },
      {
        "species": [{ "element": "Zn", "occu": 1 }],
        "abc": [0.1148777, 0.38511742, -2.549999999999999e-6],
        "properties": { "magmom": -0.0 },
        "label": "Zn",
        "xyz": [0.24125946915644944, 2.689793923308887, -1.6412818336374988]
      },
      {
        "species": [{ "element": "Zn", "occu": 1 }],
        "abc": [0.8851195900000001, 0.61488236, 5.8e-7],
        "properties": { "magmom": -0.0 },
        "label": "Zn",
        "xyz": [5.398277064345229, 4.295623315209225, -4.923818255881657]
      },
      {
        "species": [{ "element": "Zn", "occu": 1 }],
        "abc": [0.6148960800000001, 0.11489632, 0.0003385],
        "properties": { "magmom": -0.0 },
        "label": "Zn",
        "xyz": [4.2200376078005855, 0.8033657426836708, -2.392377704090366]
      }
    ]
  },
  "task_ids": null,
  "uncorrected_energy_per_atom": null,
  "energy_per_atom": -1.926755509375,
  "formation_energy_per_atom": -0.200851730624999,
  "energy_above_hull": 0.0,
  "is_stable": true,
  "equilibrium_reaction_energy_per_atom": null,
  "decomposes_to": null,
  "xas": null,
  "grain_boundaries": null,
  "band_gap": 0.0,
  "cbm": null,
  "vbm": null,
  "efermi": 2.25613418,
  "is_gap_direct": null,
  "is_metal": null,
  "es_source_calc_id": null,
  "bandstructure": null,
  "dos": null,
  "dos_energy_up": null,
  "dos_energy_down": null,
  "is_magnetic": null,
  "ordering": null,
  "total_magnetization": 0.000373499999999,
  "total_magnetization_normalized_vol": null,
  "total_magnetization_normalized_formula_units": null,
  "num_magnetic_sites": null,
  "num_unique_magnetic_sites": null,
  "types_of_magnetic_species": null,
  "bulk_modulus": null,
  "shear_modulus": null,
  "universal_anisotropy": null,
  "homogeneous_poisson": null,
  "e_total": null,
  "e_ionic": null,
  "e_electronic": null,
  "n": null,
  "e_ij_max": null,
  "weighted_surface_energy_EV_PER_ANG2": null,
  "weighted_surface_energy": null,
  "weighted_work_function": null,
  "surface_anisotropy": null,
  "shape_factor": null,
  "has_reconstructed": null,
  "possible_species": null,
  "has_props": null,
  "theoretical": null,
  "database_IDs": null,
  "fields_not_requested": [
    "builder_meta",
    "nsites",
    "elements",
    "nelements",
    "composition",
    "composition_reduced",
    "chemsys",
    "symmetry",
    "property_name",
    "deprecated",
    "deprecation_reasons",
    "last_updated",
    "origins",
    "warnings",
    "task_ids",
    "uncorrected_energy_per_atom",
    "equilibrium_reaction_energy_per_atom",
    "decomposes_to",
    "xas",
    "grain_boundaries",
    "cbm",
    "vbm",
    "is_gap_direct",
    "is_metal",
    "es_source_calc_id",
    "bandstructure",
    "dos",
    "dos_energy_up",
    "dos_energy_down",
    "is_magnetic",
    "ordering",
    "total_magnetization_normalized_vol",
    "total_magnetization_normalized_formula_units",
    "num_magnetic_sites",
    "num_unique_magnetic_sites",
    "types_of_magnetic_species",
    "bulk_modulus",
    "shear_modulus",
    "universal_anisotropy",
    "homogeneous_poisson",
    "e_total",
    "e_ionic",
    "e_electronic",
    "n",
    "e_ij_max",
    "weighted_surface_energy_EV_PER_ANG2",
    "weighted_surface_energy",
    "weighted_work_function",
    "surface_anisotropy",
    "shape_factor",
    "has_reconstructed",
    "possible_species",
    "has_props",
    "theoretical",
    "database_IDs"
  ]
}
