{
  "builder_meta": null,
  "nsites": null,
  "elements": null,
  "nelements": null,
  "composition": null,
  "composition_reduced": null,
  "formula_pretty": "Ca7Ge6",
  "formula_anonymous": "A6B7",
  "chemsys": null,
  "volume": 1355.2648293127927,
  "density": 3.511009550416815,
  "density_atomic": 26.062785179092167,
  "symmetry": null,
  "property_name": null,
  "material_id": "mp-16571",
  "deprecated": null,
  "deprecation_reasons": null,
  "last_updated": null,
  "origins": null,
  "warnings": null,
  "structure": {
    "@module": "pymatgen.core.structure",
    "@class": "Structure",
    "charge": 0,
    "lattice": {
      "matrix": [
        [7.440578, 0.0, 0.0],
        [0.0, 8.110373, 0.0],
        [0.0, 0.0, 22.458289]
      ],
      "pbc": [true, true, true],
      "a": 7.440578,
      "b": 8.110373,
      "c": 22.458289,
      "alpha": 90.0,
      "beta": 90.0,
      "gamma": 90.0,
      "volume": 1355.2648293127927
    },
    "properties": {},
    "sites": [
      {
        "species": [{ "element": "Ca", "occu": 1 }],
        "abc": [0.016038, 0.178628999999999, 0.837213],
        "properties": { "magmom": 0.0 },
        "label": "Ca",
        "xyz": [0.119331989964, 1.4487478186169918, 18.802371508557002]
      },
      {
        "species": [{ "element": "Ca", "occu": 1 }],
        "abc": [0.516038, 0.321370999999999, 0.662787],
        "properties": { "magmom": 0.0 },
        "label": "Ca",
        "xyz": [3.839620989964, 2.6064386813829916, 14.885061991443001]
      },
      {
        "species": [{ "element": "Ca", "occu": 1 }],
        "abc": [0.483962, 0.678628999999999, 0.162787],
        "properties": { "magmom": 0.0 },
        "label": "Ca",
        "xyz": [3.600957010036, 5.503934318616992, 3.6559174914429997]
      },
      {
        "species": [{ "element": "Ca", "occu": 1 }],
        "abc": [0.983962, 0.821371, 0.337213],
        "properties": { "magmom": 0.0 },
        "label": "Ca",
        "xyz": [7.321246010036, 6.661625181382999, 7.573227008557]
      },
      {
        "species": [{ "element": "Ca", "occu": 1 }],
        "abc": [0.983962, 0.821371, 0.162787],
        "properties": { "magmom": 0.0 },
        "label": "Ca",
        "xyz": [7.321246010036, 6.661625181382999, 3.6559174914429997]
      },
      {
        "species": [{ "element": "Ca", "occu": 1 }],
        "abc": [0.483962, 0.678628999999999, 0.337213],
        "properties": { "magmom": 0.0 },
        "label": "Ca",
        "xyz": [3.600957010036, 5.503934318616992, 7.573227008557]
      },
      {
        "species": [{ "element": "Ca", "occu": 1 }],
        "abc": [0.516038, 0.321370999999999, 0.837213],
        "properties": { "magmom": 0.0 },
        "label": "Ca",
        "xyz": [3.839620989964, 2.6064386813829916, 18.802371508557002]
      },
      {
        "species": [{ "element": "Ca", "occu": 1 }],
        "abc": [0.016038, 0.178628999999999, 0.662787],
        "properties": { "magmom": 0.0 },
        "label": "Ca",
        "xyz": [0.119331989964, 1.4487478186169918, 14.885061991443001]
      },
      {
        "species": [{ "element": "Ca", "occu": 1 }],
        "abc": [0.852258, 0.682157999999999, 0.856266],
        "properties": { "magmom": 0.0 },
        "label": "Ca",
        "xyz": [6.341292125124, 5.532555824933992, 19.230269288874]
      },
      {
        "species": [{ "element": "Ca", "occu": 1 }],
        "abc": [0.352257999999999, 0.817842, 0.643733999999999],
        "properties": { "magmom": 0.0 },
        "label": "Ca",
        "xyz": [2.621003125123993, 6.633003675065999, 14.457164211125978]
      },
      {
        "species": [{ "element": "Ca", "occu": 1 }],
        "abc": [0.647741999999999, 0.182158, 0.143734],
        "properties": { "magmom": 0.0 },
        "label": "Ca",
        "xyz": [4.819574874875993, 1.4773693249339996, 3.228019711126]
      },
      {
        "species": [{ "element": "Ca", "occu": 1 }],
        "abc": [0.147741999999999, 0.317841999999999, 0.35626599999999903],
        "properties": { "magmom": 0.0 },
        "label": "Ca",
        "xyz": [1.0992858748759926, 2.577817175065992, 8.001124788873978]
      },
      {
        "species": [{ "element": "Ca", "occu": 1 }],
        "abc": [0.147741999999999, 0.317841999999999, 0.143734],
        "properties": { "magmom": 0.0 },
        "label": "Ca",
        "xyz": [1.0992858748759926, 2.577817175065992, 3.228019711126]
      },
      {
        "species": [{ "element": "Ca", "occu": 1 }],
        "abc": [0.647741999999999, 0.182158, 0.35626599999999903],
        "properties": { "magmom": 0.0 },
        "label": "Ca",
        "xyz": [4.819574874875993, 1.4773693249339996, 8.001124788873978]
      },
      {
        "species": [{ "element": "Ca", "occu": 1 }],
        "abc": [0.352257999999999, 0.817842, 0.856266],
        "properties": { "magmom": 0.0 },
        "label": "Ca",
        "xyz": [2.621003125123993, 6.633003675065999, 19.230269288874]
      },
      {
        "species": [{ "element": "Ca", "occu": 1 }],
        "abc": [0.852258, 0.682157999999999, 0.643733999999999],
        "properties": { "magmom": 0.0 },
        "label": "Ca",
        "xyz": [6.341292125124, 5.532555824933992, 14.457164211125978]
      },
      {
        "species": [{ "element": "Ca", "occu": 1 }],
        "abc": [0.665712, 0.821817999999999, 0.481271],
        "properties": { "magmom": 0.0 },
        "label": "Ca",
        "xyz": [4.953282061536, 6.665250518113991, 10.808523205319]
      },
      {
        "species": [{ "element": "Ca", "occu": 1 }],
        "abc": [0.165712, 0.678182, 0.018729],
        "properties": { "magmom": 0.0 },
        "label": "Ca",
        "xyz": [1.232993061536, 5.500308981885999, 0.420621294681]
      },
      {
        "species": [{ "element": "Ca", "occu": 1 }],
        "abc": [0.834287999999999, 0.321818, 0.518729],
        "properties": { "magmom": 0.0 },
        "label": "Ca",
        "xyz": [6.207584938463993, 2.6100640181139996, 11.649765794681]
      },
      {
        "species": [{ "element": "Ca", "occu": 1 }],
        "abc": [0.334288, 0.178181999999999, 0.981271],
        "properties": { "magmom": 0.0 },
        "label": "Ca",
        "xyz": [2.487295938464, 1.4451224818859918, 22.037667705319002]
      },
      {
        "species": [{ "element": "Ca", "occu": 1 }],
        "abc": [0.334288, 0.178181999999999, 0.518729],
        "properties": { "magmom": 0.0 },
        "label": "Ca",
        "xyz": [2.487295938464, 1.4451224818859918, 11.649765794681]
      },
      {
        "species": [{ "element": "Ca", "occu": 1 }],
        "abc": [0.834287999999999, 0.321818, 0.981271],
        "properties": { "magmom": 0.0 },
        "label": "Ca",
        "xyz": [6.207584938463993, 2.6100640181139996, 22.037667705319002]
      },
      {
        "species": [{ "element": "Ca", "occu": 1 }],
        "abc": [0.165712, 0.678182, 0.481271],
        "properties": { "magmom": 0.0 },
        "label": "Ca",
        "xyz": [1.232993061536, 5.500308981885999, 10.808523205319]
      },
      {
        "species": [{ "element": "Ca", "occu": 1 }],
        "abc": [0.665712, 0.821817999999999, 0.018729],
        "properties": { "magmom": 0.0 },
        "label": "Ca",
        "xyz": [4.953282061536, 6.665250518113991, 0.420621294681]
      },
      {
        "species": [{ "element": "Ca", "occu": 1 }],
        "abc": [0.684526, 0.982862999999999, 0.75],
        "properties": { "magmom": 0.0 },
        "label": "Ca",
        "xyz": [5.093269096028, 7.971385537898992, 16.84371675]
      },
      {
        "species": [{ "element": "Ca", "occu": 1 }],
        "abc": [0.184526, 0.517137, 0.75],
        "properties": { "magmom": 0.0 },
        "label": "Ca",
        "xyz": [1.372980096028, 4.194173962100999, 16.84371675]
      },
      {
        "species": [{ "element": "Ca", "occu": 1 }],
        "abc": [0.815473999999999, 0.482863, 0.25],
        "properties": { "magmom": 0.0 },
        "label": "Ca",
        "xyz": [6.067597903971993, 3.9161990378989997, 5.61457225]
      },
      {
        "species": [{ "element": "Ca", "occu": 1 }],
        "abc": [0.315474, 0.017137, 0.25],
        "properties": { "magmom": 0.0 },
        "label": "Ca",
        "xyz": [2.347308903972, 0.138987462101, 5.61457225]
      },
      {
        "species": [{ "element": "Ge", "occu": 1 }],
        "abc": [0.996894, 0.9580519999999991, 0.945195999999999],
        "properties": { "magmom": 0.0 },
        "label": "Ge",
        "xyz": [7.417467564732, 7.770159073395992, 21.22748492964398]
      },
      {
        "species": [{ "element": "Ge", "occu": 1 }],
        "abc": [0.496894, 0.541948, 0.554804],
        "properties": { "magmom": 0.0 },
        "label": "Ge",
        "xyz": [3.6971785647320003, 4.395400426604, 12.459948570356]
      },
      {
        "species": [{ "element": "Ge", "occu": 1 }],
        "abc": [0.503105999999999, 0.458051999999999, 0.054804],
        "properties": { "magmom": 0.0 },
        "label": "Ge",
        "xyz": [3.7433994352679933, 3.7149725733959915, 1.230804070356]
      },
      {
        "species": [{ "element": "Ge", "occu": 1 }],
        "abc": [0.003106, 0.041948, 0.445196],
        "properties": { "magmom": 0.0 },
        "label": "Ge",
        "xyz": [0.023110435268, 0.34021392660399996, 9.998340429644]
      },
      {
        "species": [{ "element": "Ge", "occu": 1 }],
        "abc": [0.003106, 0.041948, 0.054804],
        "properties": { "magmom": 0.0 },
        "label": "Ge",
        "xyz": [0.023110435268, 0.34021392660399996, 1.230804070356]
      },
      {
        "species": [{ "element": "Ge", "occu": 1 }],
        "abc": [0.503105999999999, 0.458051999999999, 0.445196],
        "properties": { "magmom": 0.0 },
        "label": "Ge",
        "xyz": [3.7433994352679933, 3.7149725733959915, 9.998340429644]
      },
      {
        "species": [{ "element": "Ge", "occu": 1 }],
        "abc": [0.496894, 0.541948, 0.945195999999999],
        "properties": { "magmom": 0.0 },
        "label": "Ge",
        "xyz": [3.6971785647320003, 4.395400426604, 21.22748492964398]
      },
      {
        "species": [{ "element": "Ge", "occu": 1 }],
        "abc": [0.996894, 0.9580519999999991, 0.554804],
        "properties": { "magmom": 0.0 },
        "label": "Ge",
        "xyz": [7.417467564732, 7.770159073395992, 12.459948570356]
      },
      {
        "species": [{ "element": "Ge", "occu": 1 }],
        "abc": [0.817180999999999, 0.526895, 0.402124],
        "properties": { "magmom": 0.0 },
        "label": "Ge",
        "xyz": [6.080298970617993, 4.273314981834999, 9.031017005836]
      },
      {
        "species": [{ "element": "Ge", "occu": 1 }],
        "abc": [0.317181, 0.973105, 0.097875999999999],
        "properties": { "magmom": 0.0 },
        "label": "Ge",
        "xyz": [2.360009970618, 7.892244518165, 2.1981274941639777]
      },
      {
        "species": [{ "element": "Ge", "occu": 1 }],
        "abc": [0.682819, 0.026895, 0.597876],
        "properties": { "magmom": 0.0 },
        "label": "Ge",
        "xyz": [5.0805680293819995, 0.21812848183499997, 13.427271994164]
      },
      {
        "species": [{ "element": "Ge", "occu": 1 }],
        "abc": [0.182818999999999, 0.473105, 0.902123999999999],
        "properties": { "magmom": 0.0 },
        "label": "Ge",
        "xyz": [1.3602790293819926, 3.8370580181649996, 20.260161505835978]
      },
      {
        "species": [{ "element": "Ge", "occu": 1 }],
        "abc": [0.182818999999999, 0.473105, 0.597876],
        "properties": { "magmom": 0.0 },
        "label": "Ge",
        "xyz": [1.3602790293819926, 3.8370580181649996, 13.427271994164]
      },
      {
        "species": [{ "element": "Ge", "occu": 1 }],
        "abc": [0.682819, 0.026895, 0.902123999999999],
        "properties": { "magmom": 0.0 },
        "label": "Ge",
        "xyz": [5.0805680293819995, 0.21812848183499997, 20.260161505835978]
      },
      {
        "species": [{ "element": "Ge", "occu": 1 }],
        "abc": [0.317181, 0.973105, 0.402124],
        "properties": { "magmom": 0.0 },
        "label": "Ge",
        "xyz": [2.360009970618, 7.892244518165, 9.031017005836]
      },
      {
        "species": [{ "element": "Ge", "occu": 1 }],
        "abc": [0.817180999999999, 0.526895, 0.097875999999999],
        "properties": { "magmom": 0.0 },
        "label": "Ge",
        "xyz": [6.080298970617993, 4.273314981834999, 2.1981274941639777]
      },
      {
        "species": [{ "element": "Ge", "occu": 1 }],
        "abc": [0.809307, 0.395308999999999, 0.75],
        "properties": { "magmom": 0.0 },
        "label": "Ge",
        "xyz": [6.021711859446, 3.206103440256992, 16.84371675]
      },
      {
        "species": [{ "element": "Ge", "occu": 1 }],
        "abc": [0.309307, 0.10469099999999901, 0.75],
        "properties": { "magmom": 0.0 },
        "label": "Ge",
        "xyz": [2.3014228594460002, 0.8490830597429918, 16.84371675]
      },
      {
        "species": [{ "element": "Ge", "occu": 1 }],
        "abc": [0.690693, 0.895308999999999, 0.25],
        "properties": { "magmom": 0.0 },
        "label": "Ge",
        "xyz": [5.139155140554, 7.261289940256991, 5.61457225]
      },
      {
        "species": [{ "element": "Ge", "occu": 1 }],
        "abc": [0.190693, 0.604691, 0.25],
        "properties": { "magmom": 0.0 },
        "label": "Ge",
        "xyz": [1.4188661405540002, 4.904269559743, 5.61457225]
      },
      {
        "species": [{ "element": "Ge", "occu": 1 }],
        "abc": [0.575004, 0.624217, 0.75],
        "properties": { "magmom": 0.0 },
        "label": "Ge",
        "xyz": [4.278362112312, 5.062632702940999, 16.84371675]
      },
      {
        "species": [{ "element": "Ge", "occu": 1 }],
        "abc": [0.075004, 0.875783, 0.75],
        "properties": { "magmom": 0.0 },
        "label": "Ge",
        "xyz": [0.5580731123120001, 7.102926797058999, 16.84371675]
      },
      {
        "species": [{ "element": "Ge", "occu": 1 }],
        "abc": [0.924995999999999, 0.124217, 0.25],
        "properties": { "magmom": 0.0 },
        "label": "Ge",
        "xyz": [6.882504887687993, 1.0074462029409998, 5.61457225]
      },
      {
        "species": [{ "element": "Ge", "occu": 1 }],
        "abc": [0.424996, 0.375783, 0.25],
        "properties": { "magmom": 0.0 },
        "label": "Ge",
        "xyz": [3.162215887688, 3.0477402970589993, 5.61457225]
      }
    ]
  },
  "task_ids": null,
  "uncorrected_energy_per_atom": null,
  "energy_per_atom": -10.920357243653847,
  "formation_energy_per_atom": -0.7280555990384631,
  "energy_above_hull": 0.015158128653846002,
  "is_stable": false,
  "equilibrium_reaction_energy_per_atom": null,
  "decomposes_to": null,
  "xas": null,
  "grain_boundaries": null,
  "band_gap": 0.0,
  "cbm": null,
  "vbm": null,
  "efermi": 2.82958218,
  "is_gap_direct": null,
  "is_metal": null,
  "es_source_calc_id": null,
  "bandstructure": null,
  "dos": null,
  "dos_energy_up": null,
  "dos_energy_down": null,
  "is_magnetic": null,
  "ordering": null,
  "total_magnetization": 0.0046761,
  "total_magnetization_normalized_vol": null,
  "total_magnetization_normalized_formula_units": null,
  "num_magnetic_sites": null,
  "num_unique_magnetic_sites": null,
  "types_of_magnetic_species": null,
  "bulk_modulus": null,
  "shear_modulus": null,
  "universal_anisotropy": null,
  "homogeneous_poisson": null,
  "e_total": null,
  "e_ionic": null,
  "e_electronic": null,
  "n": null,
  "e_ij_max": null,
  "weighted_surface_energy_EV_PER_ANG2": null,
  "weighted_surface_energy": null,
  "weighted_work_function": null,
  "surface_anisotropy": null,
  "shape_factor": null,
  "has_reconstructed": null,
  "possible_species": null,
  "has_props": null,
  "theoretical": null,
  "database_IDs": null,
  "fields_not_requested": [
    "builder_meta",
    "nsites",
    "elements",
    "nelements",
    "composition",
    "composition_reduced",
    "chemsys",
    "symmetry",
    "property_name",
    "deprecated",
    "deprecation_reasons",
    "last_updated",
    "origins",
    "warnings",
    "task_ids",
    "uncorrected_energy_per_atom",
    "equilibrium_reaction_energy_per_atom",
    "decomposes_to",
    "xas",
    "grain_boundaries",
    "cbm",
    "vbm",
    "is_gap_direct",
    "is_metal",
    "es_source_calc_id",
    "bandstructure",
    "dos",
    "dos_energy_up",
    "dos_energy_down",
    "is_magnetic",
    "ordering",
    "total_magnetization_normalized_vol",
    "total_magnetization_normalized_formula_units",
    "num_magnetic_sites",
    "num_unique_magnetic_sites",
    "types_of_magnetic_species",
    "bulk_modulus",
    "shear_modulus",
    "universal_anisotropy",
    "homogeneous_poisson",
    "e_total",
    "e_ionic",
    "e_electronic",
    "n",
    "e_ij_max",
    "weighted_surface_energy_EV_PER_ANG2",
    "weighted_surface_energy",
    "weighted_work_function",
    "surface_anisotropy",
    "shape_factor",
    "has_reconstructed",
    "possible_species",
    "has_props",
    "theoretical",
    "database_IDs"
  ]
}
