{
  "builder_meta": null,
  "nsites": null,
  "elements": null,
  "nelements": null,
  "composition": null,
  "composition_reduced": null,
  "formula_pretty": "Ca7Sn6",
  "formula_anonymous": "A6B7",
  "chemsys": null,
  "volume": 1614.0975793841849,
  "density": 4.085485709442314,
  "density_atomic": 31.04033806508048,
  "symmetry": null,
  "property_name": null,
  "material_id": "mp-31394",
  "deprecated": null,
  "deprecation_reasons": null,
  "last_updated": null,
  "origins": null,
  "warnings": null,
  "structure": {
    "@module": "pymatgen.core.structure",
    "@class": "Structure",
    "charge": 0,
    "lattice": {
      "matrix": [
        [7.936946, 0.0, 0.0],
        [0.0, 8.50655, 0.0],
        [0.0, 0.0, 23.90688]
      ],
      "pbc": [true, true, true],
      "a": 7.936946,
      "b": 8.50655,
      "c": 23.90688,
      "alpha": 90.0,
      "beta": 90.0,
      "gamma": 90.0,
      "volume": 1614.0975793841849
    },
    "properties": {},
    "sites": [
      {
        "species": [{ "element": "Ca", "occu": 1 }],
        "abc": [0.996742999999999, 0.674789, 0.663586],
        "properties": { "magmom": 0.0 },
        "label": "Ca",
        "xyz": [7.911095366877992, 5.74012636795, 15.86427087168]
      },
      {
        "species": [{ "element": "Ca", "occu": 1 }],
        "abc": [0.496743, 0.825210999999999, 0.836414],
        "properties": { "magmom": 0.0 },
        "label": "Ca",
        "xyz": [3.942622366878, 7.019698632049992, 19.99604912832]
      },
      {
        "species": [{ "element": "Ca", "occu": 1 }],
        "abc": [0.503257, 0.174789, 0.336414],
        "properties": { "magmom": 0.0 },
        "label": "Ca",
        "xyz": [3.9943236331219993, 1.4868513679500002, 8.04260912832]
      },
      {
        "species": [{ "element": "Ca", "occu": 1 }],
        "abc": [0.003257, 0.325211, 0.163585999999999],
        "properties": { "magmom": 0.0 },
        "label": "Ca",
        "xyz": [0.025850633121999998, 2.76642363205, 3.9108308716799765]
      },
      {
        "species": [{ "element": "Ca", "occu": 1 }],
        "abc": [0.003257, 0.325211, 0.336414],
        "properties": { "magmom": 0.0 },
        "label": "Ca",
        "xyz": [0.025850633121999998, 2.76642363205, 8.04260912832]
      },
      {
        "species": [{ "element": "Ca", "occu": 1 }],
        "abc": [0.503257, 0.174789, 0.163585999999999],
        "properties": { "magmom": 0.0 },
        "label": "Ca",
        "xyz": [3.9943236331219993, 1.4868513679500002, 3.9108308716799765]
      },
      {
        "species": [{ "element": "Ca", "occu": 1 }],
        "abc": [0.496743, 0.825210999999999, 0.663586],
        "properties": { "magmom": 0.0 },
        "label": "Ca",
        "xyz": [3.942622366878, 7.019698632049992, 15.86427087168]
      },
      {
        "species": [{ "element": "Ca", "occu": 1 }],
        "abc": [0.996742999999999, 0.674789, 0.836414],
        "properties": { "magmom": 0.0 },
        "label": "Ca",
        "xyz": [7.911095366877992, 5.74012636795, 19.99604912832]
      },
      {
        "species": [{ "element": "Ca", "occu": 1 }],
        "abc": [0.828573, 0.17975000000000002, 0.647482],
        "properties": { "magmom": 0.0 },
        "label": "Ca",
        "xyz": [6.5763391580579995, 1.5290523625000003, 15.47927447616]
      },
      {
        "species": [{ "element": "Ca", "occu": 1 }],
        "abc": [0.328573, 0.32025000000000003, 0.852518],
        "properties": { "magmom": 0.0 },
        "label": "Ca",
        "xyz": [2.607866158058, 2.7242226375000005, 20.38104552384]
      },
      {
        "species": [{ "element": "Ca", "occu": 1 }],
        "abc": [0.671427, 0.6797500000000001, 0.352518],
        "properties": { "magmom": 0.0 },
        "label": "Ca",
        "xyz": [5.329079841942, 5.782327362500001, 8.42760552384]
      },
      {
        "species": [{ "element": "Ca", "occu": 1 }],
        "abc": [0.171427, 0.82025, 0.147482],
        "properties": { "magmom": 0.0 },
        "label": "Ca",
        "xyz": [1.3606068419419999, 6.977497637500001, 3.52583447616]
      },
      {
        "species": [{ "element": "Ca", "occu": 1 }],
        "abc": [0.171427, 0.82025, 0.352518],
        "properties": { "magmom": 0.0 },
        "label": "Ca",
        "xyz": [1.3606068419419999, 6.977497637500001, 8.42760552384]
      },
      {
        "species": [{ "element": "Ca", "occu": 1 }],
        "abc": [0.671427, 0.6797500000000001, 0.147482],
        "properties": { "magmom": 0.0 },
        "label": "Ca",
        "xyz": [5.329079841942, 5.782327362500001, 3.52583447616]
      },
      {
        "species": [{ "element": "Ca", "occu": 1 }],
        "abc": [0.328573, 0.32025000000000003, 0.647482],
        "properties": { "magmom": 0.0 },
        "label": "Ca",
        "xyz": [2.607866158058, 2.7242226375000005, 15.47927447616]
      },
      {
        "species": [{ "element": "Ca", "occu": 1 }],
        "abc": [0.828573, 0.17975000000000002, 0.852518],
        "properties": { "magmom": 0.0 },
        "label": "Ca",
        "xyz": [6.5763391580579995, 1.5290523625000003, 20.38104552384]
      },
      {
        "species": [{ "element": "Ca", "occu": 1 }],
        "abc": [0.669567999999999, 0.325843999999999, 0.021518],
        "properties": { "magmom": -0.0 },
        "label": "Ca",
        "xyz": [5.3143250593279925, 2.771808278199992, 0.51442824384]
      },
      {
        "species": [{ "element": "Ca", "occu": 1 }],
        "abc": [0.169568, 0.174156, 0.478481999999999],
        "properties": { "magmom": -0.0 },
        "label": "Ca",
        "xyz": [1.345852059328, 1.4814667218000002, 11.439011756159976]
      },
      {
        "species": [{ "element": "Ca", "occu": 1 }],
        "abc": [0.830432, 0.825843999999999, 0.978482],
        "properties": { "magmom": -0.0 },
        "label": "Ca",
        "xyz": [6.591093940672, 7.025083278199992, 23.39245175616]
      },
      {
        "species": [{ "element": "Ca", "occu": 1 }],
        "abc": [0.330432, 0.674156, 0.521517999999999],
        "properties": { "magmom": -0.0 },
        "label": "Ca",
        "xyz": [2.622620940672, 5.7347417218, 12.467868243839977]
      },
      {
        "species": [{ "element": "Ca", "occu": 1 }],
        "abc": [0.330432, 0.674156, 0.978482],
        "properties": { "magmom": -0.0 },
        "label": "Ca",
        "xyz": [2.622620940672, 5.7347417218, 23.39245175616]
      },
      {
        "species": [{ "element": "Ca", "occu": 1 }],
        "abc": [0.830432, 0.825843999999999, 0.521517999999999],
        "properties": { "magmom": -0.0 },
        "label": "Ca",
        "xyz": [6.591093940672, 7.025083278199992, 12.467868243839977]
      },
      {
        "species": [{ "element": "Ca", "occu": 1 }],
        "abc": [0.169568, 0.174156, 0.021518],
        "properties": { "magmom": -0.0 },
        "label": "Ca",
        "xyz": [1.345852059328, 1.4814667218000002, 0.51442824384]
      },
      {
        "species": [{ "element": "Ca", "occu": 1 }],
        "abc": [0.669567999999999, 0.325843999999999, 0.478481999999999],
        "properties": { "magmom": -0.0 },
        "label": "Ca",
        "xyz": [5.3143250593279925, 2.771808278199992, 11.439011756159976]
      },
      {
        "species": [{ "element": "Ca", "occu": 1 }],
        "abc": [0.665818, 0.493764, 0.75],
        "properties": { "magmom": 0.001 },
        "label": "Ca",
        "xyz": [5.2845615118280005, 4.2002281542, 17.93016]
      },
      {
        "species": [{ "element": "Ca", "occu": 1 }],
        "abc": [0.165818, 0.006235999999999, 0.75],
        "properties": { "magmom": 0.001 },
        "label": "Ca",
        "xyz": [1.316088511828, 0.0530468457999915, 17.93016]
      },
      {
        "species": [{ "element": "Ca", "occu": 1 }],
        "abc": [0.834182, 0.993764, 0.25],
        "properties": { "magmom": 0.001 },
        "label": "Ca",
        "xyz": [6.620857488172, 8.4535031542, 5.97672]
      },
      {
        "species": [{ "element": "Ca", "occu": 1 }],
        "abc": [0.334182, 0.506236, 0.25],
        "properties": { "magmom": 0.001 },
        "label": "Ca",
        "xyz": [2.652384488172, 4.3063218458, 5.97672]
      },
      {
        "species": [{ "element": "Sn", "occu": 1 }],
        "abc": [0.000279, 0.444538, 0.558124],
        "properties": { "magmom": 0.0 },
        "label": "Sn",
        "xyz": [0.002214407934, 3.7814847239000002, 13.34300349312]
      },
      {
        "species": [{ "element": "Sn", "occu": 1 }],
        "abc": [0.500279, 0.055462, 0.941875999999999],
        "properties": { "magmom": 0.0 },
        "label": "Sn",
        "xyz": [3.970687407934, 0.4717902761, 22.51731650687998]
      },
      {
        "species": [{ "element": "Sn", "occu": 1 }],
        "abc": [0.499720999999999, 0.944538, 0.441876],
        "properties": { "magmom": 0.0 },
        "label": "Sn",
        "xyz": [3.966258592065992, 8.0347597239, 10.56387650688]
      },
      {
        "species": [{ "element": "Sn", "occu": 1 }],
        "abc": [0.999721, 0.555462, 0.058123999999999],
        "properties": { "magmom": 0.0 },
        "label": "Sn",
        "xyz": [7.934731592066, 4.7250652761000005, 1.3895634931199763]
      },
      {
        "species": [{ "element": "Sn", "occu": 1 }],
        "abc": [0.999721, 0.555462, 0.441876],
        "properties": { "magmom": 0.0 },
        "label": "Sn",
        "xyz": [7.934731592066, 4.7250652761000005, 10.56387650688]
      },
      {
        "species": [{ "element": "Sn", "occu": 1 }],
        "abc": [0.499720999999999, 0.944538, 0.058123999999999],
        "properties": { "magmom": 0.0 },
        "label": "Sn",
        "xyz": [3.966258592065992, 8.0347597239, 1.3895634931199763]
      },
      {
        "species": [{ "element": "Sn", "occu": 1 }],
        "abc": [0.500279, 0.055462, 0.558124],
        "properties": { "magmom": 0.0 },
        "label": "Sn",
        "xyz": [3.970687407934, 0.4717902761, 13.34300349312]
      },
      {
        "species": [{ "element": "Sn", "occu": 1 }],
        "abc": [0.000279, 0.444538, 0.941875999999999],
        "properties": { "magmom": 0.0 },
        "label": "Sn",
        "xyz": [0.002214407934, 3.7814847239000002, 22.51731650687998]
      },
      {
        "species": [{ "element": "Sn", "occu": 1 }],
        "abc": [0.841413, 0.024832, 0.099143],
        "properties": { "magmom": 0.0 },
        "label": "Sn",
        "xyz": [6.678249544698, 0.21123464960000002, 2.37019980384]
      },
      {
        "species": [{ "element": "Sn", "occu": 1 }],
        "abc": [0.341412999999999, 0.475168, 0.400856999999999],
        "properties": { "magmom": 0.0 },
        "label": "Sn",
        "xyz": [2.7097765446979922, 4.0420403504, 9.583240196159977]
      },
      {
        "species": [{ "element": "Sn", "occu": 1 }],
        "abc": [0.658586999999999, 0.524832, 0.900856999999999],
        "properties": { "magmom": 0.0 },
        "label": "Sn",
        "xyz": [5.2271694553019925, 4.4645096496, 21.536680196159978]
      },
      {
        "species": [{ "element": "Sn", "occu": 1 }],
        "abc": [0.158587, 0.975167999999999, 0.599143],
        "properties": { "magmom": 0.0 },
        "label": "Sn",
        "xyz": [1.258696455302, 8.295315350399992, 14.32363980384]
      },
      {
        "species": [{ "element": "Sn", "occu": 1 }],
        "abc": [0.158587, 0.975167999999999, 0.900856999999999],
        "properties": { "magmom": 0.0 },
        "label": "Sn",
        "xyz": [1.258696455302, 8.295315350399992, 21.536680196159978]
      },
      {
        "species": [{ "element": "Sn", "occu": 1 }],
        "abc": [0.658586999999999, 0.524832, 0.599143],
        "properties": { "magmom": 0.0 },
        "label": "Sn",
        "xyz": [5.2271694553019925, 4.4645096496, 14.32363980384]
      },
      {
        "species": [{ "element": "Sn", "occu": 1 }],
        "abc": [0.341412999999999, 0.475168, 0.099143],
        "properties": { "magmom": 0.0 },
        "label": "Sn",
        "xyz": [2.7097765446979922, 4.0420403504, 2.37019980384]
      },
      {
        "species": [{ "element": "Sn", "occu": 1 }],
        "abc": [0.841413, 0.024832, 0.400856999999999],
        "properties": { "magmom": 0.0 },
        "label": "Sn",
        "xyz": [6.678249544698, 0.21123464960000002, 9.583240196159977]
      },
      {
        "species": [{ "element": "Sn", "occu": 1 }],
        "abc": [0.7931300000000001, 0.886726, 0.75],
        "properties": { "magmom": 0.001 },
        "label": "Sn",
        "xyz": [6.295029980980001, 7.542979055300001, 17.93016]
      },
      {
        "species": [{ "element": "Sn", "occu": 1 }],
        "abc": [0.29313, 0.613274, 0.75],
        "properties": { "magmom": 0.001 },
        "label": "Sn",
        "xyz": [2.32655698098, 5.2168459447, 17.93016]
      },
      {
        "species": [{ "element": "Sn", "occu": 1 }],
        "abc": [0.7068700000000001, 0.386725999999999, 0.25],
        "properties": { "magmom": 0.001 },
        "label": "Sn",
        "xyz": [5.61038901902, 3.289704055299992, 5.97672]
      },
      {
        "species": [{ "element": "Sn", "occu": 1 }],
        "abc": [0.20687000000000003, 0.113274, 0.25],
        "properties": { "magmom": 0.001 },
        "label": "Sn",
        "xyz": [1.6419160190200002, 0.9635709447, 5.97672]
      },
      {
        "species": [{ "element": "Sn", "occu": 1 }],
        "abc": [0.541908, 0.135286, 0.75],
        "properties": { "magmom": 0.001 },
        "label": "Sn",
        "xyz": [4.3010945329679995, 1.1508171233, 17.93016]
      },
      {
        "species": [{ "element": "Sn", "occu": 1 }],
        "abc": [0.041908, 0.364714, 0.75],
        "properties": { "magmom": 0.001 },
        "label": "Sn",
        "xyz": [0.332621532968, 3.1024578767, 17.93016]
      },
      {
        "species": [{ "element": "Sn", "occu": 1 }],
        "abc": [0.958091999999999, 0.635286, 0.25],
        "properties": { "magmom": 0.001 },
        "label": "Sn",
        "xyz": [7.604324467031993, 5.404092123300001, 5.97672]
      },
      {
        "species": [{ "element": "Sn", "occu": 1 }],
        "abc": [0.458092, 0.864714, 0.25],
        "properties": { "magmom": 0.001 },
        "label": "Sn",
        "xyz": [3.635851467032, 7.3557328767, 5.97672]
      }
    ]
  },
  "task_ids": null,
  "uncorrected_energy_per_atom": null,
  "energy_per_atom": -3.570177758653846,
  "formation_energy_per_atom": -0.639667736346153,
  "energy_above_hull": 0.011303027045454,
  "is_stable": false,
  "equilibrium_reaction_energy_per_atom": null,
  "decomposes_to": null,
  "xas": null,
  "grain_boundaries": null,
  "band_gap": 0.0,
  "cbm": null,
  "vbm": null,
  "efermi": 4.40754442,
  "is_gap_direct": null,
  "is_metal": null,
  "es_source_calc_id": null,
  "bandstructure": null,
  "dos": null,
  "dos_energy_up": null,
  "dos_energy_down": null,
  "is_magnetic": null,
  "ordering": null,
  "total_magnetization": 0.071888899999999,
  "total_magnetization_normalized_vol": null,
  "total_magnetization_normalized_formula_units": null,
  "num_magnetic_sites": null,
  "num_unique_magnetic_sites": null,
  "types_of_magnetic_species": null,
  "bulk_modulus": null,
  "shear_modulus": null,
  "universal_anisotropy": null,
  "homogeneous_poisson": null,
  "e_total": null,
  "e_ionic": null,
  "e_electronic": null,
  "n": null,
  "e_ij_max": null,
  "weighted_surface_energy_EV_PER_ANG2": null,
  "weighted_surface_energy": null,
  "weighted_work_function": null,
  "surface_anisotropy": null,
  "shape_factor": null,
  "has_reconstructed": null,
  "possible_species": null,
  "has_props": null,
  "theoretical": null,
  "database_IDs": null,
  "fields_not_requested": [
    "builder_meta",
    "nsites",
    "elements",
    "nelements",
    "composition",
    "composition_reduced",
    "chemsys",
    "symmetry",
    "property_name",
    "deprecated",
    "deprecation_reasons",
    "last_updated",
    "origins",
    "warnings",
    "task_ids",
    "uncorrected_energy_per_atom",
    "equilibrium_reaction_energy_per_atom",
    "decomposes_to",
    "xas",
    "grain_boundaries",
    "cbm",
    "vbm",
    "is_gap_direct",
    "is_metal",
    "es_source_calc_id",
    "bandstructure",
    "dos",
    "dos_energy_up",
    "dos_energy_down",
    "is_magnetic",
    "ordering",
    "total_magnetization_normalized_vol",
    "total_magnetization_normalized_formula_units",
    "num_magnetic_sites",
    "num_unique_magnetic_sites",
    "types_of_magnetic_species",
    "bulk_modulus",
    "shear_modulus",
    "universal_anisotropy",
    "homogeneous_poisson",
    "e_total",
    "e_ionic",
    "e_electronic",
    "n",
    "e_ij_max",
    "weighted_surface_energy_EV_PER_ANG2",
    "weighted_surface_energy",
    "weighted_work_function",
    "surface_anisotropy",
    "shape_factor",
    "has_reconstructed",
    "possible_species",
    "has_props",
    "theoretical",
    "database_IDs"
  ]
}
