{
  "builder_meta": null,
  "nsites": null,
  "elements": null,
  "nelements": null,
  "composition": null,
  "composition_reduced": null,
  "formula_pretty": "Ca8Al3",
  "formula_anonymous": "A3B8",
  "chemsys": null,
  "volume": 709.3846098773414,
  "density": 1.879996732863107,
  "density_atomic": 32.24475499442461,
  "symmetry": null,
  "property_name": null,
  "material_id": "mp-1190736",
  "deprecated": null,
  "deprecation_reasons": null,
  "last_updated": null,
  "origins": null,
  "warnings": null,
  "structure": {
    "@module": "pymatgen.core.structure",
    "@class": "Structure",
    "charge": 0,
    "lattice": {
      "matrix": [
        [9.295869, -0.00105474, -1.81176703],
        [-5.11536862, 7.92867035, -1.50231395],
        [0.01041068, -0.00050019, 9.62362606]
      ],
      "pbc": [true, true, true],
      "a": 9.47078039807874,
      "b": 9.554462666304916,
      "c": 9.623631704048073,
      "alpha": 99.08265253687401,
      "beta": 100.96672001820014,
      "gamma": 119.70375013942473,
      "volume": 709.3846098773414
    },
    "properties": {},
    "sites": [
      {
        "species": [{ "element": "Ca", "occu": 1 }],
        "abc": [0.53189337, 0.70095167, 0.65002898],
        "properties": { "magmom": 0.009000000000000001 },
        "label": "Ca",
        "xyz": [1.3655521563354411, 5.556728575503405, 4.2389194883248305]
      },
      {
        "species": [{ "element": "Ca", "occu": 1 }],
        "abc": [0.46810663, 0.29904833000000003, 0.34997102],
        "properties": { "magmom": 0.009000000000000001 },
        "label": "Ca",
        "xyz": [2.8253589036645588, 2.370386844496596, 2.070625591675169]
      },
      {
        "species": [{ "element": "Ca", "occu": 1 }],
        "abc": [0.07932169, 0.23067064, 0.10620951000000001],
        "properties": { "magmom": 0.022 },
        "label": "Ca",
        "xyz": [-0.4414956010911401, 1.8287746752894065, 0.5318684652225218]
      },
      {
        "species": [{ "element": "Ca", "occu": 1 }],
        "abc": [0.92067831, 0.76932936, 0.89379049],
        "properties": { "magmom": 0.022 },
        "label": "Ca",
        "xyz": [4.6324066610911405, 6.098340744710593, 5.777676614777477]
      },
      {
        "species": [{ "element": "Ca", "occu": 1 }],
        "abc": [0.87913809, 0.40122985, 0.64952027],
        "properties": { "magmom": 0.014 },
        "label": "Ca",
        "xyz": [6.126675881137386, 3.1799670695770494, 4.055173589779656]
      },
      {
        "species": [{ "element": "Ca", "occu": 1 }],
        "abc": [0.12086191, 0.59877015, 0.35047973],
        "properties": { "magmom": 0.014 },
        "label": "Ca",
        "xyz": [-1.9357648211373866, 4.74714835042295, 2.2543714902203433]
      },
      {
        "species": [{ "element": "Ca", "occu": 1 }],
        "abc": [0.33247801, 0.87760855, 0.10935389000000001],
        "properties": { "magmom": 0.022 },
        "label": "Ca",
        "xyz": [-1.397480762617466, 6.9578635137129865, -0.8684353184559093]
      },
      {
        "species": [{ "element": "Ca", "occu": 1 }],
        "abc": [0.66752199, 0.12239145, 0.89064611],
        "properties": { "magmom": 0.022 },
        "label": "Ca",
        "xyz": [5.588391822617465, 0.969251906287014, 7.177980398455909]
      },
      {
        "species": [{ "element": "Ca", "occu": 1 }],
        "abc": [0.95973248, 0.060969550000000004, 0.66961363],
        "properties": { "magmom": 0.019 },
        "label": "Ca",
        "xyz": [8.616636819505166, 0.48206026106029765, 4.61370410942484]
      },
      {
        "species": [{ "element": "Ca", "occu": 1 }],
        "abc": [0.04026752, 0.9390304500000001, 0.33038637],
        "properties": { "magmom": 0.019 },
        "label": "Ca",
        "xyz": [-4.425725759505168, 7.445055158939704, 1.6958409705751585]
      },
      {
        "species": [{ "element": "Ca", "occu": 1 }],
        "abc": [0.7020414500000001, 0.49846262, 0.10972071],
        "properties": { "magmom": 0.021 },
        "label": "Ca",
        "xyz": [3.9774075743802486, 3.951350443376409, -0.9648718163052399]
      },
      {
        "species": [{ "element": "Ca", "occu": 1 }],
        "abc": [0.29795855, 0.50153738, 0.8902792900000001],
        "properties": { "magmom": 0.021 },
        "label": "Ca",
        "xyz": [0.2135034856197511, 3.975764976623591, 7.27441689630524]
      },
      {
        "species": [{ "element": "Ca", "occu": 1 }],
        "abc": [0.7747495400000001, 0.15270525000000001, 0.30023984],
        "properties": { "magmom": 0.019 },
        "label": "Ca",
        "xyz": [6.423952288588496, 1.2097822516689483, 1.2563190480813262]
      },
      {
        "species": [{ "element": "Ca", "occu": 1 }],
        "abc": [0.22525046, 0.84729475, 0.69976016],
        "properties": { "magmom": 0.019 },
        "label": "Ca",
        "xyz": [-2.233041228588496, 6.717333168331051, 5.053226031918673]
      },
      {
        "species": [{ "element": "Ca", "occu": 1 }],
        "abc": [0.54584118, 0.71219586, 0.29818225],
        "properties": { "magmom": 0.017 },
        "label": "Ca",
        "xyz": [1.4340280305339368, 5.646041330268931, 0.8107156425788924]
      },
      {
        "species": [{ "element": "Ca", "occu": 1 }],
        "abc": [0.45415882, 0.28780414, 0.70181775],
        "properties": { "magmom": 0.017 },
        "label": "Ca",
        "xyz": [2.756883029466063, 2.2810740897310695, 5.498829437421108]
      },
      {
        "species": [{ "element": "Al", "occu": 1 }],
        "abc": [-0.0, 0.5, -0.0],
        "properties": { "magmom": -0.047 },
        "label": "Al",
        "xyz": [-2.55768431, 3.964335175, -0.751156975]
      },
      {
        "species": [{ "element": "Al", "occu": 1 }],
        "abc": [0.5, -0.0, 0.5],
        "properties": { "magmom": -0.004 },
        "label": "Al",
        "xyz": [4.65313984, -0.000777465, 3.9059295149999995]
      },
      {
        "species": [{ "element": "Al", "occu": 1 }],
        "abc": [0.17293012, 0.33708215, 0.50026747],
        "properties": { "magmom": -0.005 },
        "label": "Al",
        "xyz": [-0.1115555862532736, 2.6721806231186647, 3.994674755111332]
      },
      {
        "species": [{ "element": "Al", "occu": 1 }],
        "abc": [0.82706988, 0.66291785, 0.49973253],
        "properties": { "magmom": -0.005 },
        "label": "Al",
        "xyz": [4.302466646253273, 5.254934796881336, 2.3148703248886675]
      },
      {
        "species": [{ "element": "Al", "occu": 1 }],
        "abc": [0.67604527, 0.84066246, 0.02652189],
        "properties": { "magmom": -0.016 },
        "label": "Al",
        "xyz": [1.98440601100341, 6.664609202987822, -2.2325387201083116]
      },
      {
        "species": [{ "element": "Al", "occu": 1 }],
        "abc": [0.32395473, 0.15933754, 0.9734781100000001],
        "properties": { "magmom": -0.016 },
        "label": "Al",
        "xyz": [2.20650504899659, 1.262506217012178, 8.542083800108312]
      }
    ]
  },
  "task_ids": null,
  "uncorrected_energy_per_atom": null,
  "energy_per_atom": -7.130891259999999,
  "formation_energy_per_atom": -0.176105388181817,
  "energy_above_hull": 0.0,
  "is_stable": true,
  "equilibrium_reaction_energy_per_atom": null,
  "decomposes_to": null,
  "xas": null,
  "grain_boundaries": null,
  "band_gap": 0.0,
  "cbm": null,
  "vbm": null,
  "efermi": 2.96917476,
  "is_gap_direct": null,
  "is_metal": null,
  "es_source_calc_id": null,
  "bandstructure": null,
  "dos": null,
  "dos_energy_up": null,
  "dos_energy_down": null,
  "is_magnetic": null,
  "ordering": null,
  "total_magnetization": 1.1733147,
  "total_magnetization_normalized_vol": null,
  "total_magnetization_normalized_formula_units": null,
  "num_magnetic_sites": null,
  "num_unique_magnetic_sites": null,
  "types_of_magnetic_species": null,
  "bulk_modulus": null,
  "shear_modulus": null,
  "universal_anisotropy": null,
  "homogeneous_poisson": null,
  "e_total": null,
  "e_ionic": null,
  "e_electronic": null,
  "n": null,
  "e_ij_max": null,
  "weighted_surface_energy_EV_PER_ANG2": null,
  "weighted_surface_energy": null,
  "weighted_work_function": null,
  "surface_anisotropy": null,
  "shape_factor": null,
  "has_reconstructed": null,
  "possible_species": null,
  "has_props": null,
  "theoretical": null,
  "database_IDs": null,
  "fields_not_requested": [
    "builder_meta",
    "nsites",
    "elements",
    "nelements",
    "composition",
    "composition_reduced",
    "chemsys",
    "symmetry",
    "property_name",
    "deprecated",
    "deprecation_reasons",
    "last_updated",
    "origins",
    "warnings",
    "task_ids",
    "uncorrected_energy_per_atom",
    "equilibrium_reaction_energy_per_atom",
    "decomposes_to",
    "xas",
    "grain_boundaries",
    "cbm",
    "vbm",
    "is_gap_direct",
    "is_metal",
    "es_source_calc_id",
    "bandstructure",
    "dos",
    "dos_energy_up",
    "dos_energy_down",
    "is_magnetic",
    "ordering",
    "total_magnetization_normalized_vol",
    "total_magnetization_normalized_formula_units",
    "num_magnetic_sites",
    "num_unique_magnetic_sites",
    "types_of_magnetic_species",
    "bulk_modulus",
    "shear_modulus",
    "universal_anisotropy",
    "homogeneous_poisson",
    "e_total",
    "e_ionic",
    "e_electronic",
    "n",
    "e_ij_max",
    "weighted_surface_energy_EV_PER_ANG2",
    "weighted_surface_energy",
    "weighted_work_function",
    "surface_anisotropy",
    "shape_factor",
    "has_reconstructed",
    "possible_species",
    "has_props",
    "theoretical",
    "database_IDs"
  ]
}
