{"builder_meta": null, "nsites": null, "elements": null, "nelements": null, "composition": null, "composition_reduced": null, "formula_pretty": "Ca8In3", "formula_anonymous": "A3B8", "chemsys": null, "volume": 737.6828932045603, "density": 2.994207976109178, "density_atomic": 33.531040600207284, "symmetry": null, "property_name": null, "material_id": "mp-1191538", "deprecated": null, "deprecation_reasons": null, "last_updated": null, "origins": null, "warnings": null, "structure": {"@module": "pymatgen.core.structure", "@class": "Structure", "charge": 0.0, "lattice": {"matrix": [[9.59116386, -0.00774176, 0.00540246], [-4.7892376500000005, 8.41406428, -0.02017915], [-1.86644227, -2.81027749, 9.14997109]], "pbc": [true, true, true], "a": 9.59116850601594, "b": 9.681615679949507, "c": 9.752088866795628, "alpha": 99.07480936237516, "beta": 100.98942287156183, "gamma": 119.6945355212395, "volume": 737.6828932045604}, "properties": {}, "sites": [{"species": [{"element": "Ca", "occu": 1}], "abc": [0.29576917, 0.94115314, 0.78168675], "properties": {"magmom": -0.021}, "label": "Ca", "xyz": [-3.129608670396448, 5.719876565598042, 7.135017374661183]}, {"species": [{"element": "Ca", "occu": 1}], "abc": [0.8689393, 0.581587499999999, 0.76185556], "properties": {"magmom": -0.012}, "label": "Ca", "xyz": [4.126819038105805, 2.7457619590299793, 6.963914817165812]}, {"species": [{"element": "Ca", "occu": 1}], "abc": [0.03833675, 0.37959324, 0.22218628], "properties": {"magmom": -0.022}, "label": "Ca", "xyz": [-1.864966050389687, 2.56922002642495, 2.0255452824241043]}, {"species": [{"element": "Ca", "occu": 1}], "abc": [0.80402499, 0.17849683, 0.46134678], "properties": {"magmom": -0.012}, "label": "Ca", "xyz": [5.995594556662821, 0.1991467619716678, 4.222051498004971]}, {"species": [{"element": "Ca", "occu": 1}], "abc": [0.66928109, 0.75791335, 0.22129533], "properties": {"magmom": -0.024}, "label": "Ca", "xyz": [2.3763224932661804, 5.750048947457699, 2.0131675889928387]}, {"species": [{"element": "Ca", "occu": 1}], "abc": [0.37629991, 0.81909241, 0.44103711], "properties": {"magmom": -0.021}, "label": "Ca", "xyz": [-1.1368444162306237, 5.649546302921219, 4.020981162723677]}, {"species": [{"element": "Ca", "occu": 1}], "abc": [0.25776919, 0.64979905, 0.00472087], "properties": {"magmom": -0.024}, "label": "Ca", "xyz": [-0.6485467671639346, 5.452188433884344, 0.031476019258048195]}, {"species": [{"element": "Ca", "occu": 1}], "abc": [0.216387399999999, 0.28151793, 0.75994927], "properties": {"magmom": -0.015}, "label": "Ca", "xyz": [-0.6912506994503531, 0.23136641265178426, 6.9490020821024485]}, {"species": [{"element": "Ca", "occu": 1}], "abc": [0.41457897, 0.11065946, 0.21849475000000002], "properties": {"magmom": -0.024}, "label": "Ca", "xyz": [3.0385125448462724, 0.313855361135124, 1.9992273782767847]}, {"species": [{"element": "Ca", "occu": 1}], "abc": [0.10986135, 0.032443440000000004, 0.41119067000000004], "properties": {"magmom": -0.021}, "label": "Ca", "xyz": [0.1308552178696739, -0.8834292145796712, 3.7623215834843755]}, {"species": [{"element": "Ca", "occu": 1}], "abc": [0.8779624300000001, 0.58916565, 0.408273599999999], "properties": {"magmom": -0.019}, "label": "Ca", "xyz": [4.837008111221987, 3.803118568404644, 3.728545931693595]}, {"species": [{"element": "Ca", "occu": 1}], "abc": [0.0037031, 0.00296312, 0.00186535], "properties": {"magmom": -0.024}, "label": "Ca", "xyz": [0.017844384936153496, 0.0196610625219261, 0.0170281111794095]}, {"species": [{"element": "Ca", "occu": 1}], "abc": [0.56297856, 0.72750514, 0.81238146], "properties": {"magmom": -0.021}, "label": "Ca", "xyz": [0.39916151526200605, 3.8338992367623974, 7.421627906857417]}, {"species": [{"element": "Ca", "occu": 1}], "abc": [0.79343067, 0.17009662, 0.8144056], "properties": {"magmom": -0.019}, "label": "Ca", "xyz": [5.275249394113131, -0.8636443807429894, 7.452641767782078]}, {"species": [{"element": "Ca", "occu": 1}], "abc": [0.45622875, 0.47922706, 0.46332654], "properties": {"magmom": -0.015}, "label": "Ca", "xyz": [1.2158601811733196, 2.726639128186232, 4.232218809074654]}, {"species": [{"element": "Ca", "occu": 1}], "abc": [0.63411238, 0.38052868, 0.00090996], "properties": {"magmom": -0.022}, "label": "Ca", "xyz": [4.257735073265776, 3.194326387939761, 0.0040731291484892]}, {"species": [{"element": "In", "occu": 1}], "abc": [0.83636864, 0.880197799999999, 0.61169935], "properties": {"magmom": 0.011}, "label": "In", "xyz": [2.6645707070266598, 5.680520989079538, 5.5837881729587755]}, {"species": [{"element": "In", "occu": 1}], "abc": [0.66005297, 0.04025109, 0.08511786], "properties": {"magmom": 0.037}, "label": "In", "xyz": [5.979036584032183, 0.09436048096406657, 0.7815796352282002]}, {"species": [{"element": "In", "occu": 1}], "abc": [0.012114, 0.72026583, 0.13822279], "properties": {"magmom": 0.037}, "label": "In", "xyz": [-3.591321729977793, 5.671824813284915, 1.2502656256561366]}, {"species": [{"element": "In", "occu": 1}], "abc": [0.16305904000000002, 0.5431131, 0.61137823], "properties": {"magmom": 0.013000000000000001}, "label": "In", "xyz": [-2.178273906663703, 2.8503836931115147, 5.584014488784744]}, {"species": [{"element": "In", "occu": 1}], "abc": [0.33666265, 0.38073765, 0.11150587], "properties": {"magmom": 0.08700000000000001}, "label": "In", "xyz": [1.1974242844181815, 2.8875822630150116, 1.01441133121542]}, {"species": [{"element": "In", "occu": 1}], "abc": [0.5096777, 0.21739291, 0.611651], "properties": {"magmom": 0.013000000000000001}, "label": "In", "xyz": [2.705644746185091, 0.10630307928951321, 5.594955676416905]}]}, "task_ids": null, "uncorrected_energy_per_atom": null, "energy_per_atom": -11.694147166818182, "formation_energy_per_atom": -0.417590735909091, "energy_above_hull": 0.0, "is_stable": true, "equilibrium_reaction_energy_per_atom": null, "decomposes_to": null, "xas": null, "grain_boundaries": null, "band_gap": 0.0, "cbm": null, "vbm": null, "efermi": 3.52723698, "is_gap_direct": null, "is_metal": null, "es_source_calc_id": null, "bandstructure": null, "dos": null, "dos_energy_up": null, "dos_energy_down": null, "is_magnetic": null, "ordering": null, "total_magnetization": 1.3068814, "total_magnetization_normalized_vol": null, "total_magnetization_normalized_formula_units": null, "num_magnetic_sites": null, "num_unique_magnetic_sites": null, "types_of_magnetic_species": null, "bulk_modulus": null, "shear_modulus": null, "universal_anisotropy": null, "homogeneous_poisson": null, "e_total": null, "e_ionic": null, "e_electronic": null, "n": null, "e_ij_max": null, "weighted_surface_energy_EV_PER_ANG2": null, "weighted_surface_energy": null, "weighted_work_function": null, "surface_anisotropy": null, "shape_factor": null, "has_reconstructed": null, "possible_species": null, "has_props": null, "theoretical": null, "database_IDs": null, "fields_not_requested": ["builder_meta", "nsites", "elements", "nelements", "composition", "composition_reduced", "chemsys", "symmetry", "property_name", "deprecated", "deprecation_reasons", "last_updated", "origins", "warnings", "task_ids", "uncorrected_energy_per_atom", "equilibrium_reaction_energy_per_atom", "decomposes_to", "xas", "grain_boundaries", "cbm", "vbm", "is_gap_direct", "is_metal", "es_source_calc_id", "bandstructure", "dos", "dos_energy_up", "dos_energy_down", "is_magnetic", "ordering", "total_magnetization_normalized_vol", "total_magnetization_normalized_formula_units", "num_magnetic_sites", "num_unique_magnetic_sites", "types_of_magnetic_species", "bulk_modulus", "shear_modulus", "universal_anisotropy", "homogeneous_poisson", "e_total", "e_ionic", "e_electronic", "n", "e_ij_max", "weighted_surface_energy_EV_PER_ANG2", "weighted_surface_energy", "weighted_work_function", "surface_anisotropy", "shape_factor", "has_reconstructed", "possible_species", "has_props", "theoretical", "database_IDs"]}