{"builder_meta": null, "nsites": null, "elements": null, "nelements": null, "composition": null, "composition_reduced": null, "formula_pretty": "CaAg2", "formula_anonymous": "AB2", "chemsys": null, "volume": 138.40211450601478, "density": 6.138487211918691, "density_atomic": 23.067019084335797, "symmetry": null, "property_name": null, "material_id": "mp-13270", "deprecated": null, "deprecation_reasons": null, "last_updated": null, "origins": null, "warnings": null, "structure": {"@module": "pymatgen.core.structure", "@class": "Structure", "charge": 0, "lattice": {"matrix": [[4.27999555, -0.0, 1.83643449], [1.8818881900000002, 5.43364626, 1.51976723], [-0.01799545, 0.03135878, 5.94763742]], "pbc": [true, true, true], "a": 4.657344043989166, "b": 5.9477480840949655, "c": 5.947747312141635, "alpha": 74.96705569575194, "beta": 66.95078564957426, "gamma": 66.95078883488995, "volume": 138.40211450601478}, "properties": {}, "sites": [{"species": [{"element": "Ca", "occu": 1}], "abc": [0.95372346, 0.29627654000000003, 0.29627654000000003], "properties": {"magmom": -0.0}, "label": "Ca", "xyz": [4.634159856668922, 1.6191527843337616, 3.9638674683480466]}, {"species": [{"element": "Ca", "occu": 1}], "abc": [0.04627654, 0.70372346, 0.70372346], "properties": {"magmom": -0.0}, "label": "Ca", "xyz": [1.5097284333310774, 3.8458522556662382, 5.339971671651954]}, {"species": [{"element": "Ag", "occu": 1}], "abc": [0.66143957, 0.28781466, 0.8893042], "properties": {"magmom": -0.0}, "label": "Ag", "xyz": [3.356589996490889, 1.5917705456430475, 6.941360665663526]}, {"species": [{"element": "Ag", "occu": 1}], "abc": [0.33856043, 0.71218534, 0.1106958], "properties": {"magmom": -0.0}, "label": "Ag", "xyz": [2.787298293509111, 3.8732344943569523, 2.3624784743364753]}, {"species": [{"element": "Ag", "occu": 1}], "abc": [0.33856043, 0.1106958, 0.71218534], "properties": {"magmom": -0.0}, "label": "Ag", "xyz": [1.6445381568319857, 0.6238150830639931, 5.025796078099288]}, {"species": [{"element": "Ag", "occu": 1}], "abc": [0.66143957, 0.8893042, 0.28781466], "properties": {"magmom": -0.0}, "label": "Ag", "xyz": [4.499350133168014, 4.841189956936007, 4.278043061900712]}]}, "task_ids": null, "uncorrected_energy_per_atom": null, "energy_per_atom": -16.864490246666666, "formation_energy_per_atom": -0.281140916666667, "energy_above_hull": 0.0, "is_stable": true, "equilibrium_reaction_energy_per_atom": null, "decomposes_to": null, "xas": null, "grain_boundaries": null, "band_gap": 0.0, "cbm": null, "vbm": null, "efermi": 2.75394957, "is_gap_direct": null, "is_metal": null, "es_source_calc_id": null, "bandstructure": null, "dos": null, "dos_energy_up": null, "dos_energy_down": null, "is_magnetic": null, "ordering": null, "total_magnetization": 0.0, "total_magnetization_normalized_vol": null, "total_magnetization_normalized_formula_units": null, "num_magnetic_sites": null, "num_unique_magnetic_sites": null, "types_of_magnetic_species": null, "bulk_modulus": null, "shear_modulus": null, "universal_anisotropy": null, "homogeneous_poisson": null, "e_total": null, "e_ionic": null, "e_electronic": null, "n": null, "e_ij_max": null, "weighted_surface_energy_EV_PER_ANG2": null, "weighted_surface_energy": null, "weighted_work_function": null, "surface_anisotropy": null, "shape_factor": null, "has_reconstructed": null, "possible_species": null, "has_props": null, "theoretical": null, "database_IDs": null, "fields_not_requested": ["builder_meta", "nsites", "elements", "nelements", "composition", "composition_reduced", "chemsys", "symmetry", "property_name", "deprecated", "deprecation_reasons", "last_updated", "origins", "warnings", "task_ids", "uncorrected_energy_per_atom", "equilibrium_reaction_energy_per_atom", "decomposes_to", "xas", "grain_boundaries", "cbm", "vbm", "is_gap_direct", "is_metal", "es_source_calc_id", "bandstructure", "dos", "dos_energy_up", "dos_energy_down", "is_magnetic", "ordering", "total_magnetization_normalized_vol", "total_magnetization_normalized_formula_units", "num_magnetic_sites", "num_unique_magnetic_sites", "types_of_magnetic_species", "bulk_modulus", "shear_modulus", "universal_anisotropy", "homogeneous_poisson", "e_total", "e_ionic", "e_electronic", "n", "e_ij_max", "weighted_surface_energy_EV_PER_ANG2", "weighted_surface_energy", "weighted_work_function", "surface_anisotropy", "shape_factor", "has_reconstructed", "possible_species", "has_props", "theoretical", "database_IDs"]}