{"builder_meta": null, "nsites": null, "elements": null, "nelements": null, "composition": null, "composition_reduced": null, "formula_pretty": "CaAg", "formula_anonymous": "AB", "chemsys": null, "volume": 107.31784738314396, "density": 4.578370715505118, "density_atomic": 26.82946184578599, "symmetry": null, "property_name": null, "material_id": "mp-538", "deprecated": null, "deprecation_reasons": null, "last_updated": null, "origins": null, "warnings": null, "structure": {"@module": "pymatgen.core.structure", "@class": "Structure", "charge": 0, "lattice": {"matrix": [[3.81288021, -0.0, -1.35049872], [0.0, 4.61205005, 0.0], [0.014166699999999002, 0.0, 6.09772101]], "pbc": [true, true, true], "a": 4.044984831681237, "b": 4.61205005, "c": 6.097737466567769, "alpha": 90.0, "beta": 109.37071860664703, "gamma": 90.0, "volume": 107.31784738314396}, "properties": {}, "sites": [{"species": [{"element": "Ca", "occu": 1}], "abc": [0.85797137, 0.25, 0.71594274], "properties": {"magmom": -0.0}, "label": "Ca", "xyz": [3.281484603434345, 1.1530125125, 3.206929850673321]}, {"species": [{"element": "Ca", "occu": 1}], "abc": [0.14202863000000002, 0.75, 0.28405726000000003], "properties": {"magmom": -0.0}, "label": "Ca", "xyz": [0.5455623065656541, 3.4590375374999995, 1.540292439326679]}, {"species": [{"element": "Ag", "occu": 1}], "abc": [0.57403136, 0.25, 0.14806071], "properties": {"magmom": -0.0}, "label": "Ag", "xyz": [2.1908103441237423, 1.1530125125, 0.12760428520265799]}, {"species": [{"element": "Ag", "occu": 1}], "abc": [0.42596864, 0.75, 0.85193929], "properties": {"magmom": -0.0}, "label": "Ag", "xyz": [1.6362365658762565, 3.4590375374999995, 4.619618004797342]}]}, "task_ids": null, "uncorrected_energy_per_atom": null, "energy_per_atom": -14.5031721925, "formation_energy_per_atom": -0.306086769999998, "energy_above_hull": 0.0, "is_stable": true, "equilibrium_reaction_energy_per_atom": null, "decomposes_to": null, "xas": null, "grain_boundaries": null, "band_gap": 0.0, "cbm": null, "vbm": null, "efermi": 2.68005112, "is_gap_direct": null, "is_metal": null, "es_source_calc_id": null, "bandstructure": null, "dos": null, "dos_energy_up": null, "dos_energy_down": null, "is_magnetic": null, "ordering": null, "total_magnetization": 0.0, "total_magnetization_normalized_vol": null, "total_magnetization_normalized_formula_units": null, "num_magnetic_sites": null, "num_unique_magnetic_sites": null, "types_of_magnetic_species": null, "bulk_modulus": null, "shear_modulus": null, "universal_anisotropy": null, "homogeneous_poisson": null, "e_total": null, "e_ionic": null, "e_electronic": null, "n": null, "e_ij_max": null, "weighted_surface_energy_EV_PER_ANG2": null, "weighted_surface_energy": null, "weighted_work_function": null, "surface_anisotropy": null, "shape_factor": null, "has_reconstructed": null, "possible_species": null, "has_props": null, "theoretical": null, "database_IDs": null, "fields_not_requested": ["builder_meta", "nsites", "elements", "nelements", "composition", "composition_reduced", "chemsys", "symmetry", "property_name", "deprecated", "deprecation_reasons", "last_updated", "origins", "warnings", "task_ids", "uncorrected_energy_per_atom", "equilibrium_reaction_energy_per_atom", "decomposes_to", "xas", "grain_boundaries", "cbm", "vbm", "is_gap_direct", "is_metal", "es_source_calc_id", "bandstructure", "dos", "dos_energy_up", "dos_energy_down", "is_magnetic", "ordering", "total_magnetization_normalized_vol", "total_magnetization_normalized_formula_units", "num_magnetic_sites", "num_unique_magnetic_sites", "types_of_magnetic_species", "bulk_modulus", "shear_modulus", "universal_anisotropy", "homogeneous_poisson", "e_total", "e_ionic", "e_electronic", "n", "e_ij_max", "weighted_surface_energy_EV_PER_ANG2", "weighted_surface_energy", "weighted_work_function", "surface_anisotropy", "shape_factor", "has_reconstructed", "possible_species", "has_props", "theoretical", "database_IDs"]}