{
  "builder_meta": null,
  "nsites": null,
  "elements": null,
  "nelements": null,
  "composition": null,
  "composition_reduced": null,
  "formula_pretty": "CaAl2",
  "formula_anonymous": "AB2",
  "chemsys": null,
  "volume": 127.49457266006515,
  "density": 2.449655374305353,
  "density_atomic": 21.249095443344192,
  "symmetry": null,
  "property_name": null,
  "material_id": "mp-2404",
  "deprecated": null,
  "deprecation_reasons": null,
  "last_updated": null,
  "origins": null,
  "warnings": null,
  "structure": {
    "@module": "pymatgen.core.structure",
    "@class": "Structure",
    "charge": 0,
    "lattice": {
      "matrix": [
        [4.89252284, 0.0, 2.82469939],
        [1.63084128, 4.61271399, 2.82469939],
        [-0.0, -0.0, 5.6493997799999995]
      ],
      "pbc": [true, true, true],
      "a": 5.649398763035588,
      "b": 5.649398222639304,
      "c": 5.6493997799999995,
      "alpha": 59.99999673640572,
      "beta": 59.999999900665856,
      "gamma": 59.9999933888749,
      "volume": 127.49457266006513
    },
    "properties": {},
    "sites": [
      {
        "species": [{ "element": "Ca", "occu": 1 }],
        "abc": [0.375, 0.375, 0.375],
        "properties": { "magmom": 0.0 },
        "label": "Ca",
        "xyz": [2.446261545, 1.7297677462499998, 4.23704946]
      },
      {
        "species": [{ "element": "Ca", "occu": 1 }],
        "abc": [0.625, 0.625, 0.625],
        "properties": { "magmom": 0.0 },
        "label": "Ca",
        "xyz": [4.077102575, 2.8829462437499997, 7.0617491]
      },
      {
        "species": [{ "element": "Al", "occu": 1 }],
        "abc": [-0.0, -0.0, 0.0],
        "properties": { "magmom": 0.0 },
        "label": "Al",
        "xyz": [0.0, 0.0, 0.0]
      },
      {
        "species": [{ "element": "Al", "occu": 1 }],
        "abc": [-0.0, -0.0, 0.5],
        "properties": { "magmom": 0.0 },
        "label": "Al",
        "xyz": [0.0, 0.0, 2.8246998899999998]
      },
      {
        "species": [{ "element": "Al", "occu": 1 }],
        "abc": [0.5, -0.0, 0.0],
        "properties": { "magmom": 0.0 },
        "label": "Al",
        "xyz": [2.44626142, 0.0, 1.412349695]
      },
      {
        "species": [{ "element": "Al", "occu": 1 }],
        "abc": [-0.0, 0.5, 0.0],
        "properties": { "magmom": 0.0 },
        "label": "Al",
        "xyz": [0.81542064, 2.306356995, 1.412349695]
      }
    ]
  },
  "task_ids": null,
  "uncorrected_energy_per_atom": null,
  "energy_per_atom": -7.189540158333333,
  "formation_energy_per_atom": -0.355376705,
  "energy_above_hull": 0.0,
  "is_stable": true,
  "equilibrium_reaction_energy_per_atom": null,
  "decomposes_to": null,
  "xas": null,
  "grain_boundaries": null,
  "band_gap": 0.0,
  "cbm": null,
  "vbm": null,
  "efermi": 5.27749029,
  "is_gap_direct": null,
  "is_metal": null,
  "es_source_calc_id": null,
  "bandstructure": null,
  "dos": null,
  "dos_energy_up": null,
  "dos_energy_down": null,
  "is_magnetic": null,
  "ordering": null,
  "total_magnetization": 2e-7,
  "total_magnetization_normalized_vol": null,
  "total_magnetization_normalized_formula_units": null,
  "num_magnetic_sites": null,
  "num_unique_magnetic_sites": null,
  "types_of_magnetic_species": null,
  "bulk_modulus": null,
  "shear_modulus": null,
  "universal_anisotropy": null,
  "homogeneous_poisson": null,
  "e_total": null,
  "e_ionic": null,
  "e_electronic": null,
  "n": null,
  "e_ij_max": null,
  "weighted_surface_energy_EV_PER_ANG2": null,
  "weighted_surface_energy": null,
  "weighted_work_function": null,
  "surface_anisotropy": null,
  "shape_factor": null,
  "has_reconstructed": null,
  "possible_species": null,
  "has_props": null,
  "theoretical": null,
  "database_IDs": null,
  "fields_not_requested": [
    "builder_meta",
    "nsites",
    "elements",
    "nelements",
    "composition",
    "composition_reduced",
    "chemsys",
    "symmetry",
    "property_name",
    "deprecated",
    "deprecation_reasons",
    "last_updated",
    "origins",
    "warnings",
    "task_ids",
    "uncorrected_energy_per_atom",
    "equilibrium_reaction_energy_per_atom",
    "decomposes_to",
    "xas",
    "grain_boundaries",
    "cbm",
    "vbm",
    "is_gap_direct",
    "is_metal",
    "es_source_calc_id",
    "bandstructure",
    "dos",
    "dos_energy_up",
    "dos_energy_down",
    "is_magnetic",
    "ordering",
    "total_magnetization_normalized_vol",
    "total_magnetization_normalized_formula_units",
    "num_magnetic_sites",
    "num_unique_magnetic_sites",
    "types_of_magnetic_species",
    "bulk_modulus",
    "shear_modulus",
    "universal_anisotropy",
    "homogeneous_poisson",
    "e_total",
    "e_ionic",
    "e_electronic",
    "n",
    "e_ij_max",
    "weighted_surface_energy_EV_PER_ANG2",
    "weighted_surface_energy",
    "weighted_work_function",
    "surface_anisotropy",
    "shape_factor",
    "has_reconstructed",
    "possible_species",
    "has_props",
    "theoretical",
    "database_IDs"
  ]
}
