{
  "builder_meta": null,
  "nsites": null,
  "elements": null,
  "nelements": null,
  "composition": null,
  "composition_reduced": null,
  "formula_pretty": "CaAs3",
  "formula_anonymous": "AB3",
  "chemsys": null,
  "volume": 187.79114125867986,
  "density": 4.683733353555127,
  "density_atomic": 23.473892657334982,
  "symmetry": null,
  "property_name": null,
  "material_id": "mp-1900",
  "deprecated": null,
  "deprecation_reasons": null,
  "last_updated": null,
  "origins": null,
  "warnings": null,
  "structure": {
    "@module": "pymatgen.core.structure",
    "@class": "Structure",
    "charge": 0,
    "lattice": {
      "matrix": [
        [5.54100994, -0.02343723, 2.00142945],
        [1.18368542, 5.68175219, 0.99979339],
        [0.00980245, -0.01095249, 5.96210096]
      ],
      "pbc": [true, true, true],
      "a": 5.891439578087531,
      "b": 5.889227958296237,
      "c": 5.962119078171462,
      "alpha": 80.3096067706506,
      "beta": 70.04568073499088,
      "gamma": 75.94394120702876,
      "volume": 187.79114125867986
    },
    "properties": {},
    "sites": [
      {
        "species": [{ "element": "Ca", "occu": 1 }],
        "abc": [0.65624318, 0.68386895, 0.62993935],
        "properties": { "magmom": 0.0 },
        "label": "Ca",
        "xyz": [4.4519106377243265, 3.8632939775584276, 5.752914086026667]
      },
      {
        "species": [{ "element": "Ca", "occu": 1 }],
        "abc": [0.34375682, 0.31613105, 0.37006065],
        "properties": { "magmom": 0.0 },
        "label": "Ca",
        "xyz": [2.282587172275675, 1.7840684924415724, 3.2104097139733323]
      },
      {
        "species": [{ "element": "As", "occu": 1 }],
        "abc": [0.78425637, 0.00828256, 0.01452446],
        "properties": { "magmom": -0.0 },
        "label": "As",
        "xyz": [4.3555186624835205, 0.0285195774932459, 1.6645109409178565]
      },
      {
        "species": [{ "element": "As", "occu": 1 }],
        "abc": [0.21574363, 0.9917174400000001, 0.98547554],
        "properties": { "magmom": -0.0 },
        "label": "As",
        "xyz": [2.3789791475164805, 5.618842892506754, 7.298812859082144]
      },
      {
        "species": [{ "element": "As", "occu": 1 }],
        "abc": [0.18565332, 0.8575849400000001, 0.40492016000000003],
        "properties": { "magmom": 0.0 },
        "label": "As",
        "xyz": [2.047786891025968, 4.8637990273917175, 3.6431546511731745]
      },
      {
        "species": [{ "element": "As", "occu": 1 }],
        "abc": [0.81434668, 0.14241506, 0.59507984],
        "properties": { "magmom": 0.0 },
        "label": "As",
        "xyz": [4.686710918974033, 0.7835634426082834, 5.320169148826826]
      },
      {
        "species": [{ "element": "As", "occu": 1 }],
        "abc": [0.78161761, 0.58973825, 0.09396593],
        "properties": { "magmom": -0.0 },
        "label": "As",
        "xyz": [5.0299366107608865, 3.3313984808579815, 2.7142032689330744]
      },
      {
        "species": [{ "element": "As", "occu": 1 }],
        "abc": [0.21838339, 0.41026175000000004, 0.90603407],
        "properties": { "magmom": -0.0 },
        "label": "As",
        "xyz": [1.7045667402490532, 2.3159639657047886, 6.249122532496376]
      }
    ]
  },
  "task_ids": null,
  "uncorrected_energy_per_atom": null,
  "energy_per_atom": -13.4627725025,
  "formation_energy_per_atom": -0.6725508368750001,
  "energy_above_hull": 0.0,
  "is_stable": true,
  "equilibrium_reaction_energy_per_atom": null,
  "decomposes_to": null,
  "xas": null,
  "grain_boundaries": null,
  "band_gap": 0.0,
  "cbm": null,
  "vbm": null,
  "efermi": 4.54491356,
  "is_gap_direct": null,
  "is_metal": null,
  "es_source_calc_id": null,
  "bandstructure": null,
  "dos": null,
  "dos_energy_up": null,
  "dos_energy_down": null,
  "is_magnetic": null,
  "ordering": null,
  "total_magnetization": 0.0,
  "total_magnetization_normalized_vol": null,
  "total_magnetization_normalized_formula_units": null,
  "num_magnetic_sites": null,
  "num_unique_magnetic_sites": null,
  "types_of_magnetic_species": null,
  "bulk_modulus": null,
  "shear_modulus": null,
  "universal_anisotropy": null,
  "homogeneous_poisson": null,
  "e_total": null,
  "e_ionic": null,
  "e_electronic": null,
  "n": null,
  "e_ij_max": null,
  "weighted_surface_energy_EV_PER_ANG2": null,
  "weighted_surface_energy": null,
  "weighted_work_function": null,
  "surface_anisotropy": null,
  "shape_factor": null,
  "has_reconstructed": null,
  "possible_species": null,
  "has_props": null,
  "theoretical": null,
  "database_IDs": null,
  "fields_not_requested": [
    "builder_meta",
    "nsites",
    "elements",
    "nelements",
    "composition",
    "composition_reduced",
    "chemsys",
    "symmetry",
    "property_name",
    "deprecated",
    "deprecation_reasons",
    "last_updated",
    "origins",
    "warnings",
    "task_ids",
    "uncorrected_energy_per_atom",
    "equilibrium_reaction_energy_per_atom",
    "decomposes_to",
    "xas",
    "grain_boundaries",
    "cbm",
    "vbm",
    "is_gap_direct",
    "is_metal",
    "es_source_calc_id",
    "bandstructure",
    "dos",
    "dos_energy_up",
    "dos_energy_down",
    "is_magnetic",
    "ordering",
    "total_magnetization_normalized_vol",
    "total_magnetization_normalized_formula_units",
    "num_magnetic_sites",
    "num_unique_magnetic_sites",
    "types_of_magnetic_species",
    "bulk_modulus",
    "shear_modulus",
    "universal_anisotropy",
    "homogeneous_poisson",
    "e_total",
    "e_ionic",
    "e_electronic",
    "n",
    "e_ij_max",
    "weighted_surface_energy_EV_PER_ANG2",
    "weighted_surface_energy",
    "weighted_work_function",
    "surface_anisotropy",
    "shape_factor",
    "has_reconstructed",
    "possible_species",
    "has_props",
    "theoretical",
    "database_IDs"
  ]
}
