{
  "builder_meta": null,
  "nsites": null,
  "elements": null,
  "nelements": null,
  "composition": null,
  "composition_reduced": null,
  "formula_pretty": "CaAs",
  "formula_anonymous": "AB",
  "chemsys": null,
  "volume": 319.00147729783487,
  "density": 3.59173249091413,
  "density_atomic": 26.583456441486238,
  "symmetry": null,
  "property_name": null,
  "material_id": "mp-888",
  "deprecated": null,
  "deprecation_reasons": null,
  "last_updated": null,
  "origins": null,
  "warnings": null,
  "structure": {
    "@module": "pymatgen.core.structure",
    "@class": "Structure",
    "charge": 0,
    "lattice": {
      "matrix": [
        [7.86585186, 0.0, 0.0],
        [-3.93292543, 6.8120278, -0.0],
        [0.0, -0.0, 5.9534748]
      ],
      "pbc": [true, true, true],
      "a": 7.86585186,
      "b": 7.865851841085842,
      "c": 5.9534748,
      "alpha": 90.0,
      "beta": 90.0,
      "gamma": 119.99999587405684,
      "volume": 319.00147729783487
    },
    "properties": {},
    "sites": [
      {
        "species": [{ "element": "Ca", "occu": 1 }],
        "abc": [0.31387647, -0.0, 0.0],
        "properties": { "magmom": 0.0 },
        "label": "Ca",
        "xyz": [2.4689058153597343, 0.0, 0.0]
      },
      {
        "species": [{ "element": "Ca", "occu": 1 }],
        "abc": [0.68612353, 0.68612353, 0.0],
        "properties": { "magmom": 0.0 },
        "label": "Ca",
        "xyz": [2.6984733653818984, 4.673892560594134, 0.0]
      },
      {
        "species": [{ "element": "Ca", "occu": 1 }],
        "abc": [-0.0, 0.31387647, 0.0],
        "properties": { "magmom": 0.0 },
        "label": "Ca",
        "xyz": [-1.2344527507416323, 2.1381352394058664, 0.0]
      },
      {
        "species": [{ "element": "Ca", "occu": 1 }],
        "abc": [0.64835885, -0.0, 0.5],
        "properties": { "magmom": -0.0 },
        "label": "Ca",
        "xyz": [5.099894666219962, 0.0, 2.9767374]
      },
      {
        "species": [{ "element": "Ca", "occu": 1 }],
        "abc": [0.35164115, 0.35164115, 0.5],
        "properties": { "magmom": -0.0 },
        "label": "Ca",
        "xyz": [1.3829787727105949, 2.3953892894239703, 2.9767374]
      },
      {
        "species": [{ "element": "Ca", "occu": 1 }],
        "abc": [-0.0, 0.64835885, 0.5],
        "properties": { "magmom": -0.0 },
        "label": "Ca",
        "xyz": [-2.549947008930556, 4.41663851057603, 2.9767374]
      },
      {
        "species": [{ "element": "As", "occu": 1 }],
        "abc": [0.0, 0.0, 0.29073642],
        "properties": { "magmom": -0.0 },
        "label": "As",
        "xyz": [0.0, 0.0, 1.7308919499122162]
      },
      {
        "species": [{ "element": "As", "occu": 1 }],
        "abc": [0.0, 0.0, 0.70926358],
        "properties": { "magmom": -0.0 },
        "label": "As",
        "xyz": [0.0, 0.0, 4.222582850087784]
      },
      {
        "species": [{ "element": "As", "occu": 1 }],
        "abc": [0.333333, 0.666667, 0.21359633],
        "properties": { "magmom": -0.0 },
        "label": "As",
        "xyz": [-3.5995924299037085e-6, 4.5413541373426005, 1.2716403680274841]
      },
      {
        "species": [{ "element": "As", "occu": 1 }],
        "abc": [0.333333, 0.666667, 0.78640367],
        "properties": { "magmom": -0.0 },
        "label": "As",
        "xyz": [-3.5995924299037085e-6, 4.5413541373426005, 4.681834431972517]
      },
      {
        "species": [{ "element": "As", "occu": 1 }],
        "abc": [0.666667, 0.333333, 0.78640367],
        "properties": { "magmom": -0.0 },
        "label": "As",
        "xyz": [3.9329300295924305, 2.2706736626574, 4.681834431972517]
      },
      {
        "species": [{ "element": "As", "occu": 1 }],
        "abc": [0.666667, 0.333333, 0.21359633],
        "properties": { "magmom": -0.0 },
        "label": "As",
        "xyz": [3.9329300295924305, 2.2706736626574, 1.2716403680274841]
      }
    ]
  },
  "task_ids": null,
  "uncorrected_energy_per_atom": null,
  "energy_per_atom": -12.147422446666667,
  "formation_energy_per_atom": -1.274510102916667,
  "energy_above_hull": 0.0,
  "is_stable": true,
  "equilibrium_reaction_energy_per_atom": null,
  "decomposes_to": null,
  "xas": null,
  "grain_boundaries": null,
  "band_gap": 0.0,
  "cbm": null,
  "vbm": null,
  "efermi": 3.41706237,
  "is_gap_direct": null,
  "is_metal": null,
  "es_source_calc_id": null,
  "bandstructure": null,
  "dos": null,
  "dos_energy_up": null,
  "dos_energy_down": null,
  "is_magnetic": null,
  "ordering": null,
  "total_magnetization": 0.0,
  "total_magnetization_normalized_vol": null,
  "total_magnetization_normalized_formula_units": null,
  "num_magnetic_sites": null,
  "num_unique_magnetic_sites": null,
  "types_of_magnetic_species": null,
  "bulk_modulus": null,
  "shear_modulus": null,
  "universal_anisotropy": null,
  "homogeneous_poisson": null,
  "e_total": null,
  "e_ionic": null,
  "e_electronic": null,
  "n": null,
  "e_ij_max": null,
  "weighted_surface_energy_EV_PER_ANG2": null,
  "weighted_surface_energy": null,
  "weighted_work_function": null,
  "surface_anisotropy": null,
  "shape_factor": null,
  "has_reconstructed": null,
  "possible_species": null,
  "has_props": null,
  "theoretical": null,
  "database_IDs": null,
  "fields_not_requested": [
    "builder_meta",
    "nsites",
    "elements",
    "nelements",
    "composition",
    "composition_reduced",
    "chemsys",
    "symmetry",
    "property_name",
    "deprecated",
    "deprecation_reasons",
    "last_updated",
    "origins",
    "warnings",
    "task_ids",
    "uncorrected_energy_per_atom",
    "equilibrium_reaction_energy_per_atom",
    "decomposes_to",
    "xas",
    "grain_boundaries",
    "cbm",
    "vbm",
    "is_gap_direct",
    "is_metal",
    "es_source_calc_id",
    "bandstructure",
    "dos",
    "dos_energy_up",
    "dos_energy_down",
    "is_magnetic",
    "ordering",
    "total_magnetization_normalized_vol",
    "total_magnetization_normalized_formula_units",
    "num_magnetic_sites",
    "num_unique_magnetic_sites",
    "types_of_magnetic_species",
    "bulk_modulus",
    "shear_modulus",
    "universal_anisotropy",
    "homogeneous_poisson",
    "e_total",
    "e_ionic",
    "e_electronic",
    "n",
    "e_ij_max",
    "weighted_surface_energy_EV_PER_ANG2",
    "weighted_surface_energy",
    "weighted_work_function",
    "surface_anisotropy",
    "shape_factor",
    "has_reconstructed",
    "possible_species",
    "has_props",
    "theoretical",
    "database_IDs"
  ]
}
