{"builder_meta": null, "nsites": null, "elements": null, "nelements": null, "composition": null, "composition_reduced": null, "formula_pretty": "CaAu", "formula_anonymous": "AB", "chemsys": null, "volume": 101.13982989109695, "density": 7.783714245390651, "density_atomic": 25.284957472774238, "symmetry": null, "property_name": null, "material_id": "mp-12723", "deprecated": null, "deprecation_reasons": null, "last_updated": null, "origins": null, "warnings": null, "structure": {"@module": "pymatgen.core.structure", "@class": "Structure", "charge": 0, "lattice": {"matrix": [[3.75359048, 0.0, -1.34248086], [0.0, 4.54875403, 0.0], [0.00151495, -0.0, 5.92301933]], "pbc": [true, true, true], "a": 3.9864390564779706, "b": 4.54875403, "c": 5.923019523741852, "alpha": 90.0, "beta": 109.66506016820516, "gamma": 90.0, "volume": 101.13982989109697}, "properties": {}, "sites": [{"species": [{"element": "Ca", "occu": 1}], "abc": [0.85974402, 0.25, 0.71948905], "properties": {"magmom": 0.0}, "label": "Ca", "xyz": [3.228216958645228, 1.1371885075, 3.1073576595238794]}, {"species": [{"element": "Ca", "occu": 1}], "abc": [0.14025598, 0.75, 0.28051095], "properties": {"magmom": 0.0}, "label": "Ca", "xyz": [0.5268884713547729, 3.4115655224999997, 1.4731808104761206]}, {"species": [{"element": "Au", "occu": 1}], "abc": [0.58117209, 0.25, 0.16234617], "properties": {"magmom": 0.0}, "label": "Au", "xyz": [2.181727970595945, 1.1371885075, 0.18136709587026867]}, {"species": [{"element": "Au", "occu": 1}], "abc": [0.41882791, 0.75, 0.83765383], "properties": {"magmom": 0.0}, "label": "Au", "xyz": [1.5733774594040555, 3.4115655224999997, 4.399171374129732]}]}, "task_ids": null, "uncorrected_energy_per_atom": null, "energy_per_atom": -29.66662316, "formation_energy_per_atom": -0.8549962350000011, "energy_above_hull": 0.0, "is_stable": true, "equilibrium_reaction_energy_per_atom": null, "decomposes_to": null, "xas": null, "grain_boundaries": null, "band_gap": 0.0, "cbm": null, "vbm": null, "efermi": 3.61254522, "is_gap_direct": null, "is_metal": null, "es_source_calc_id": null, "bandstructure": null, "dos": null, "dos_energy_up": null, "dos_energy_down": null, "is_magnetic": null, "ordering": null, "total_magnetization": 4.1e-06, "total_magnetization_normalized_vol": null, "total_magnetization_normalized_formula_units": null, "num_magnetic_sites": null, "num_unique_magnetic_sites": null, "types_of_magnetic_species": null, "bulk_modulus": null, "shear_modulus": null, "universal_anisotropy": null, "homogeneous_poisson": null, "e_total": null, "e_ionic": null, "e_electronic": null, "n": null, "e_ij_max": null, "weighted_surface_energy_EV_PER_ANG2": null, "weighted_surface_energy": null, "weighted_work_function": null, "surface_anisotropy": null, "shape_factor": null, "has_reconstructed": null, "possible_species": null, "has_props": null, "theoretical": null, "database_IDs": null, "fields_not_requested": ["builder_meta", "nsites", "elements", "nelements", "composition", "composition_reduced", "chemsys", "symmetry", "property_name", "deprecated", "deprecation_reasons", "last_updated", "origins", "warnings", "task_ids", "uncorrected_energy_per_atom", "equilibrium_reaction_energy_per_atom", "decomposes_to", "xas", "grain_boundaries", "cbm", "vbm", "is_gap_direct", "is_metal", "es_source_calc_id", "bandstructure", "dos", "dos_energy_up", "dos_energy_down", "is_magnetic", "ordering", "total_magnetization_normalized_vol", "total_magnetization_normalized_formula_units", "num_magnetic_sites", "num_unique_magnetic_sites", "types_of_magnetic_species", "bulk_modulus", "shear_modulus", "universal_anisotropy", "homogeneous_poisson", "e_total", "e_ionic", "e_electronic", "n", "e_ij_max", "weighted_surface_energy_EV_PER_ANG2", "weighted_surface_energy", "weighted_work_function", "surface_anisotropy", "shape_factor", "has_reconstructed", "possible_species", "has_props", "theoretical", "database_IDs"]}