{
  "builder_meta": null,
  "nsites": null,
  "elements": null,
  "nelements": null,
  "composition": null,
  "composition_reduced": null,
  "formula_pretty": "CaAu2",
  "formula_anonymous": "AB2",
  "chemsys": null,
  "volume": 134.7077235438066,
  "density": 10.70009099744242,
  "density_atomic": 22.4512872573011,
  "symmetry": null,
  "property_name": null,
  "material_id": "mp-443",
  "deprecated": null,
  "deprecation_reasons": null,
  "last_updated": null,
  "origins": null,
  "warnings": null,
  "structure": {
    "@module": "pymatgen.core.structure",
    "@class": "Structure",
    "charge": 0,
    "lattice": {
      "matrix": [
        [4.2081423000000004, -0.0, 1.80773666],
        [1.7913454, 5.39955625, 1.63184716],
        [-0.04980755, 0.06691406, 5.91777883]
      ],
      "pbc": [true, true, true],
      "a": 4.57999710141363,
      "b": 5.918365584569382,
      "c": 5.918366714242946,
      "alpha": 73.53279979090674,
      "beta": 67.23633494930364,
      "gamma": 67.23633538600451,
      "volume": 134.70772354380665
    },
    "properties": {},
    "sites": [
      {
        "species": [{ "element": "Ca", "occu": 1 }],
        "abc": [0.54229822, 0.7077017800000001, 0.20770178],
        "properties": { "magmom": 0.0 },
        "label": "Ca",
        "xyz": [3.539461290179079, 3.8351737387041522, 3.3643267094040077]
      },
      {
        "species": [{ "element": "Ca", "occu": 1 }],
        "abc": [0.45770178, 0.29229822, 0.79229822],
        "properties": { "magmom": 0.0 },
        "label": "Ca",
        "xyz": [2.4102188598209215, 1.6312965712958483, 5.993035940595993]
      },
      {
        "species": [{ "element": "Au", "occu": 1 }],
        "abc": [0.16010451, 0.30064341, 0.37914758],
        "properties": { "magmom": 0.0 },
        "label": "Au",
        "xyz": [1.1934143384473581, 1.6487113074037874, 3.0237424093092837]
      },
      {
        "species": [{ "element": "Au", "occu": 1 }],
        "abc": [0.83989549, 0.6993565900000001, 0.62085242],
        "properties": { "magmom": 0.0 },
        "label": "Au",
        "xyz": [4.756265811552642, 3.817759002596213, 6.333620240690715]
      },
      {
        "species": [{ "element": "Au", "occu": 1 }],
        "abc": [0.16010451, 0.87914758, 0.80064341],
        "properties": { "magmom": 0.0 },
        "label": "Au",
        "xyz": [2.2087214476301593, 4.80058111143672, 6.46209189587922]
      },
      {
        "species": [{ "element": "Au", "occu": 1 }],
        "abc": [0.83989549, 0.12085242, 0.19935659],
        "properties": { "magmom": 0.0 },
        "label": "Au",
        "xyz": [3.7409587023698405, 0.6658891985632804, 2.89527075412078]
      }
    ]
  },
  "task_ids": null,
  "uncorrected_energy_per_atom": null,
  "energy_per_atom": -36.844115535,
  "formation_energy_per_atom": -0.774710868333334,
  "energy_above_hull": 0.0,
  "is_stable": true,
  "equilibrium_reaction_energy_per_atom": null,
  "decomposes_to": null,
  "xas": null,
  "grain_boundaries": null,
  "band_gap": 0.0,
  "cbm": null,
  "vbm": null,
  "efermi": 3.8198333,
  "is_gap_direct": null,
  "is_metal": null,
  "es_source_calc_id": null,
  "bandstructure": null,
  "dos": null,
  "dos_energy_up": null,
  "dos_energy_down": null,
  "is_magnetic": null,
  "ordering": null,
  "total_magnetization": 0.0,
  "total_magnetization_normalized_vol": null,
  "total_magnetization_normalized_formula_units": null,
  "num_magnetic_sites": null,
  "num_unique_magnetic_sites": null,
  "types_of_magnetic_species": null,
  "bulk_modulus": null,
  "shear_modulus": null,
  "universal_anisotropy": null,
  "homogeneous_poisson": null,
  "e_total": null,
  "e_ionic": null,
  "e_electronic": null,
  "n": null,
  "e_ij_max": null,
  "weighted_surface_energy_EV_PER_ANG2": null,
  "weighted_surface_energy": null,
  "weighted_work_function": null,
  "surface_anisotropy": null,
  "shape_factor": null,
  "has_reconstructed": null,
  "possible_species": null,
  "has_props": null,
  "theoretical": null,
  "database_IDs": null,
  "fields_not_requested": [
    "builder_meta",
    "nsites",
    "elements",
    "nelements",
    "composition",
    "composition_reduced",
    "chemsys",
    "symmetry",
    "property_name",
    "deprecated",
    "deprecation_reasons",
    "last_updated",
    "origins",
    "warnings",
    "task_ids",
    "uncorrected_energy_per_atom",
    "equilibrium_reaction_energy_per_atom",
    "decomposes_to",
    "xas",
    "grain_boundaries",
    "cbm",
    "vbm",
    "is_gap_direct",
    "is_metal",
    "es_source_calc_id",
    "bandstructure",
    "dos",
    "dos_energy_up",
    "dos_energy_down",
    "is_magnetic",
    "ordering",
    "total_magnetization_normalized_vol",
    "total_magnetization_normalized_formula_units",
    "num_magnetic_sites",
    "num_unique_magnetic_sites",
    "types_of_magnetic_species",
    "bulk_modulus",
    "shear_modulus",
    "universal_anisotropy",
    "homogeneous_poisson",
    "e_total",
    "e_ionic",
    "e_electronic",
    "n",
    "e_ij_max",
    "weighted_surface_energy_EV_PER_ANG2",
    "weighted_surface_energy",
    "weighted_work_function",
    "surface_anisotropy",
    "shape_factor",
    "has_reconstructed",
    "possible_species",
    "has_props",
    "theoretical",
    "database_IDs"
  ]
}
