{
  "builder_meta": null,
  "nsites": null,
  "elements": null,
  "nelements": null,
  "composition": null,
  "composition_reduced": null,
  "formula_pretty": "CaB4",
  "formula_anonymous": "AB4",
  "chemsys": null,
  "volume": 209.4340399870896,
  "density": 2.642539600836124,
  "density_atomic": 10.47170199935448,
  "symmetry": null,
  "property_name": null,
  "material_id": "mp-1213975",
  "deprecated": null,
  "deprecation_reasons": null,
  "last_updated": null,
  "origins": null,
  "warnings": null,
  "structure": {
    "@module": "pymatgen.core.structure",
    "@class": "Structure",
    "charge": 0,
    "lattice": {
      "matrix": [
        [0.0, 0.0, 4.0922945],
        [7.15385602, 0.0, 0.0],
        [0.0, 7.15385602, 0.0]
      ],
      "pbc": [true, true, true],
      "a": 4.0922945,
      "b": 7.15385602,
      "c": 7.15385602,
      "alpha": 90.0,
      "beta": 90.0,
      "gamma": 90.0,
      "volume": 209.4340399870896
    },
    "properties": {},
    "sites": [
      {
        "species": [{ "element": "Ca", "occu": 1 }],
        "abc": [0.5, 0.18607859000000002, 0.68607859],
        "properties": { "magmom": 0.0 },
        "label": "Ca",
        "xyz": [1.3311794412646119, 4.908107451264613, 2.04614725]
      },
      {
        "species": [{ "element": "Ca", "occu": 1 }],
        "abc": [0.5, 0.8139214100000001, 0.31392141],
        "properties": { "magmom": 0.0 },
        "label": "Ca",
        "xyz": [5.822676578735389, 2.2457485687353884, 2.04614725]
      },
      {
        "species": [{ "element": "Ca", "occu": 1 }],
        "abc": [0.5, 0.31392141, 0.18607859000000002],
        "properties": { "magmom": 0.0 },
        "label": "Ca",
        "xyz": [2.2457485687353884, 1.3311794412646119, 2.04614725]
      },
      {
        "species": [{ "element": "Ca", "occu": 1 }],
        "abc": [0.5, 0.68607859, 0.8139214100000001],
        "properties": { "magmom": 0.0 },
        "label": "Ca",
        "xyz": [4.908107451264613, 5.822676578735389, 2.04614725]
      },
      {
        "species": [{ "element": "B", "occu": 1 }],
        "abc": [0.29386157, -0.0, 0.0],
        "properties": { "magmom": -0.0 },
        "label": "B",
        "xyz": [0.0, 0.0, 1.2025680866723651]
      },
      {
        "species": [{ "element": "B", "occu": 1 }],
        "abc": [0.70613843, 0.0, 0.0],
        "properties": { "magmom": -0.0 },
        "label": "B",
        "xyz": [0.0, 0.0, 2.8897264133276352]
      },
      {
        "species": [{ "element": "B", "occu": 1 }],
        "abc": [0.70613843, 0.5, 0.5],
        "properties": { "magmom": -0.0 },
        "label": "B",
        "xyz": [3.57692801, 3.57692801, 2.8897264133276352]
      },
      {
        "species": [{ "element": "B", "occu": 1 }],
        "abc": [0.29386157, 0.5, 0.5],
        "properties": { "magmom": -0.0 },
        "label": "B",
        "xyz": [3.57692801, 3.57692801, 1.2025680866723651]
      },
      {
        "species": [{ "element": "B", "occu": 1 }],
        "abc": [-0.0, 0.03595806, 0.17500757],
        "properties": { "magmom": 0.0 },
        "label": "B",
        "xyz": [0.2572387839985212, 1.2519789581900713, 0.0]
      },
      {
        "species": [{ "element": "B", "occu": 1 }],
        "abc": [0.0, 0.96404194, 0.82499243],
        "properties": { "magmom": 0.0 },
        "label": "B",
        "xyz": [6.896617236001479, 5.9018770618099285, 0.0]
      },
      {
        "species": [{ "element": "B", "occu": 1 }],
        "abc": [0.0, 0.82499243, 0.03595806],
        "properties": { "magmom": 0.0 },
        "label": "B",
        "xyz": [5.9018770618099285, 0.2572387839985212, 0.0]
      },
      {
        "species": [{ "element": "B", "occu": 1 }],
        "abc": [0.0, 0.46404194, 0.67500757],
        "properties": { "magmom": 0.0 },
        "label": "B",
        "xyz": [3.3196892260014788, 4.828906968190071, 0.0]
      },
      {
        "species": [{ "element": "B", "occu": 1 }],
        "abc": [-0.0, 0.17500757, 0.96404194],
        "properties": { "magmom": 0.0 },
        "label": "B",
        "xyz": [1.2519789581900713, 6.896617236001479, 0.0]
      },
      {
        "species": [{ "element": "B", "occu": 1 }],
        "abc": [-0.0, 0.53595806, 0.32499243],
        "properties": { "magmom": 0.0 },
        "label": "B",
        "xyz": [3.8341667939985213, 2.3249490518099285, 0.0]
      },
      {
        "species": [{ "element": "B", "occu": 1 }],
        "abc": [-0.0, 0.67500757, 0.53595806],
        "properties": { "magmom": 0.0 },
        "label": "B",
        "xyz": [4.828906968190071, 3.8341667939985213, 0.0]
      },
      {
        "species": [{ "element": "B", "occu": 1 }],
        "abc": [0.0, 0.32499243, 0.46404194],
        "properties": { "magmom": 0.0 },
        "label": "B",
        "xyz": [2.3249490518099285, 3.3196892260014788, 0.0]
      },
      {
        "species": [{ "element": "B", "occu": 1 }],
        "abc": [-0.0, 0.58527633, 0.08527633],
        "properties": { "magmom": -0.0 },
        "label": "B",
        "xyz": [4.186982596734007, 0.6100545867340066, 0.0]
      },
      {
        "species": [{ "element": "B", "occu": 1 }],
        "abc": [0.0, 0.41472367, 0.91472367],
        "properties": { "magmom": -0.0 },
        "label": "B",
        "xyz": [2.9668734232659935, 6.543801433265993, 0.0]
      },
      {
        "species": [{ "element": "B", "occu": 1 }],
        "abc": [0.0, 0.91472367, 0.58527633],
        "properties": { "magmom": -0.0 },
        "label": "B",
        "xyz": [6.543801433265993, 4.186982596734007, 0.0]
      },
      {
        "species": [{ "element": "B", "occu": 1 }],
        "abc": [-0.0, 0.08527633, 0.41472367],
        "properties": { "magmom": -0.0 },
        "label": "B",
        "xyz": [0.6100545867340066, 2.9668734232659935, 0.0]
      }
    ]
  },
  "task_ids": null,
  "uncorrected_energy_per_atom": null,
  "energy_per_atom": -7.7453894515,
  "formation_energy_per_atom": -0.4606473535,
  "energy_above_hull": 0.0,
  "is_stable": true,
  "equilibrium_reaction_energy_per_atom": null,
  "decomposes_to": null,
  "xas": null,
  "grain_boundaries": null,
  "band_gap": 0.0,
  "cbm": null,
  "vbm": null,
  "efermi": 5.05290504,
  "is_gap_direct": null,
  "is_metal": null,
  "es_source_calc_id": null,
  "bandstructure": null,
  "dos": null,
  "dos_energy_up": null,
  "dos_energy_down": null,
  "is_magnetic": null,
  "ordering": null,
  "total_magnetization": 0.0,
  "total_magnetization_normalized_vol": null,
  "total_magnetization_normalized_formula_units": null,
  "num_magnetic_sites": null,
  "num_unique_magnetic_sites": null,
  "types_of_magnetic_species": null,
  "bulk_modulus": null,
  "shear_modulus": null,
  "universal_anisotropy": null,
  "homogeneous_poisson": null,
  "e_total": null,
  "e_ionic": null,
  "e_electronic": null,
  "n": null,
  "e_ij_max": null,
  "weighted_surface_energy_EV_PER_ANG2": null,
  "weighted_surface_energy": null,
  "weighted_work_function": null,
  "surface_anisotropy": null,
  "shape_factor": null,
  "has_reconstructed": null,
  "possible_species": null,
  "has_props": null,
  "theoretical": null,
  "database_IDs": null,
  "fields_not_requested": [
    "builder_meta",
    "nsites",
    "elements",
    "nelements",
    "composition",
    "composition_reduced",
    "chemsys",
    "symmetry",
    "property_name",
    "deprecated",
    "deprecation_reasons",
    "last_updated",
    "origins",
    "warnings",
    "task_ids",
    "uncorrected_energy_per_atom",
    "equilibrium_reaction_energy_per_atom",
    "decomposes_to",
    "xas",
    "grain_boundaries",
    "cbm",
    "vbm",
    "is_gap_direct",
    "is_metal",
    "es_source_calc_id",
    "bandstructure",
    "dos",
    "dos_energy_up",
    "dos_energy_down",
    "is_magnetic",
    "ordering",
    "total_magnetization_normalized_vol",
    "total_magnetization_normalized_formula_units",
    "num_magnetic_sites",
    "num_unique_magnetic_sites",
    "types_of_magnetic_species",
    "bulk_modulus",
    "shear_modulus",
    "universal_anisotropy",
    "homogeneous_poisson",
    "e_total",
    "e_ionic",
    "e_electronic",
    "n",
    "e_ij_max",
    "weighted_surface_energy_EV_PER_ANG2",
    "weighted_surface_energy",
    "weighted_work_function",
    "surface_anisotropy",
    "shape_factor",
    "has_reconstructed",
    "possible_species",
    "has_props",
    "theoretical",
    "database_IDs"
  ]
}
