{"builder_meta": null, "nsites": null, "elements": null, "nelements": null, "composition": null, "composition_reduced": null, "formula_pretty": "CaBi3", "formula_anonymous": "AB3", "chemsys": null, "volume": 122.91604721156864, "density": 9.011121532941974, "density_atomic": 30.72901180289216, "symmetry": null, "property_name": null, "material_id": "mp-866006", "deprecated": null, "deprecation_reasons": null, "last_updated": null, "origins": null, "warnings": null, "structure": {"@module": "pymatgen.core.structure", "@class": "Structure", "charge": 0, "lattice": {"matrix": [[4.97205858, -0.0015386, -0.0015386], [-0.0015386, 4.97205858, -0.0015386], [-0.0015386, -0.0015386, 4.97205858]], "pbc": [true, true, true], "a": 4.972059056118655, "b": 4.972059056118655, "c": 4.972059056118655, "alpha": 90.03545478553389, "beta": 90.03545478553389, "gamma": 90.03545478553389, "volume": 122.91604721156864}, "properties": {}, "sites": [{"species": [{"element": "Ca", "occu": 1}], "abc": [0.9999975600000001, 0.9999975600000001, 0.9999975600000001], "properties": {"magmom": -0.0}, "label": "Ca", "xyz": [4.968969255685432, 4.968969255685432, 4.968969255685433]}, {"species": [{"element": "Bi", "occu": 1}], "abc": [8.88e-06, 0.49999578, 0.49999578], "properties": {"magmom": -0.0}, "label": "Bi", "xyz": [-0.0014944351340256, 2.4852390007429164, 2.485239000742916]}, {"species": [{"element": "Bi", "occu": 1}], "abc": [0.49999578, 8.88e-06, 0.49999578], "properties": {"magmom": -0.0}, "label": "Bi", "xyz": [2.4852390007429164, -0.0014944351340256, 2.485239000742916]}, {"species": [{"element": "Bi", "occu": 1}], "abc": [0.49999578, 0.49999578, 8.88e-06], "properties": {"magmom": -0.0}, "label": "Bi", "xyz": [2.4852390007429164, 2.4852390007429164, -0.0014944351340256]}]}, "task_ids": null, "uncorrected_energy_per_atom": null, "energy_per_atom": -46.02029883, "formation_energy_per_atom": -0.38402009625000405, "energy_above_hull": 0.06833353750000201, "is_stable": false, "equilibrium_reaction_energy_per_atom": null, "decomposes_to": null, "xas": null, "grain_boundaries": null, "band_gap": 0.0, "cbm": null, "vbm": null, "efermi": 6.07596162, "is_gap_direct": null, "is_metal": null, "es_source_calc_id": null, "bandstructure": null, "dos": null, "dos_energy_up": null, "dos_energy_down": null, "is_magnetic": null, "ordering": null, "total_magnetization": 1e-07, "total_magnetization_normalized_vol": null, "total_magnetization_normalized_formula_units": null, "num_magnetic_sites": null, "num_unique_magnetic_sites": null, "types_of_magnetic_species": null, "bulk_modulus": null, "shear_modulus": null, "universal_anisotropy": null, "homogeneous_poisson": null, "e_total": null, "e_ionic": null, "e_electronic": null, "n": null, "e_ij_max": null, "weighted_surface_energy_EV_PER_ANG2": null, "weighted_surface_energy": null, "weighted_work_function": null, "surface_anisotropy": null, "shape_factor": null, "has_reconstructed": null, "possible_species": null, "has_props": null, "theoretical": null, "database_IDs": null, "fields_not_requested": ["builder_meta", "nsites", "elements", "nelements", "composition", "composition_reduced", "chemsys", "symmetry", "property_name", "deprecated", "deprecation_reasons", "last_updated", "origins", "warnings", "task_ids", "uncorrected_energy_per_atom", "equilibrium_reaction_energy_per_atom", "decomposes_to", "xas", "grain_boundaries", "cbm", "vbm", "is_gap_direct", "is_metal", "es_source_calc_id", "bandstructure", "dos", "dos_energy_up", "dos_energy_down", "is_magnetic", "ordering", "total_magnetization_normalized_vol", "total_magnetization_normalized_formula_units", "num_magnetic_sites", "num_unique_magnetic_sites", "types_of_magnetic_species", "bulk_modulus", "shear_modulus", "universal_anisotropy", "homogeneous_poisson", "e_total", "e_ionic", "e_electronic", "n", "e_ij_max", "weighted_surface_energy_EV_PER_ANG2", "weighted_surface_energy", "weighted_work_function", "surface_anisotropy", "shape_factor", "has_reconstructed", "possible_species", "has_props", "theoretical", "database_IDs"]}