{"builder_meta": null, "nsites": null, "elements": null, "nelements": null, "composition": null, "composition_reduced": null, "formula_pretty": "CaBi2", "formula_anonymous": "AB2", "chemsys": null, "volume": 187.79226373028646, "density": 8.100347759915934, "density_atomic": 31.29871062171441, "symmetry": null, "property_name": null, "material_id": "mp-1077466", "deprecated": null, "deprecation_reasons": null, "last_updated": null, "origins": null, "warnings": null, "structure": {"@module": "pymatgen.core.structure", "@class": "Structure", "charge": 0, "lattice": {"matrix": [[0.0, -0.0, -4.55918787], [-4.77821794, 1e-08, 0.0], [2.38910845, 8.62033719, 0.0]], "pbc": [true, true, true], "a": 4.55918787, "b": 4.77821794, "c": 8.945281015997123, "alpha": 105.49060191581982, "beta": 90.0, "gamma": 90.0, "volume": 187.79226373028646}, "properties": {}, "sites": [{"species": [{"element": "Ca", "occu": 1}], "abc": [0.75, 0.10146749000000001, 0.20293599], "properties": {"magmom": 0.0}, "label": "Ca", "xyz": [2.3074733448980034e-06, 1.7493766628011433, -3.4193909025]}, {"species": [{"element": "Ca", "occu": 1}], "abc": [0.25, 0.89853251, 0.79706401], "properties": {"magmom": 0.0}, "label": "Ca", "xyz": [-2.389111797473345, 6.870960537198858, -1.1397969675]}, {"species": [{"element": "Bi", "occu": 1}], "abc": [0.75, 0.43619787, 0.87239675], "properties": {"magmom": -0.0}, "label": "Bi", "xyz": [1.9593537499140723e-06, 7.520354152822112, -3.4193909025]}, {"species": [{"element": "Bi", "occu": 1}], "abc": [0.25, 0.56380213, 0.12760325], "properties": {"magmom": -0.0}, "label": "Bi", "xyz": [-2.38911144935375, 1.099983047177889, -1.1397969675]}, {"species": [{"element": "Bi", "occu": 1}], "abc": [0.75, 0.74414796, 0.48829793], "properties": {"magmom": -0.0}, "label": "Bi", "xyz": [-2.389104421805894, 4.209292813220497, -3.4193909025]}, {"species": [{"element": "Bi", "occu": 1}], "abc": [0.25, 0.25585204, 0.51170207], "properties": {"magmom": -0.0}, "label": "Bi", "xyz": [-5.068194106172541e-06, 4.411044386779504, -1.1397969675]}]}, "task_ids": null, "uncorrected_energy_per_atom": null, "energy_per_atom": -41.95075190833334, "formation_energy_per_atom": -0.603138178333338, "energy_above_hull": 0.0, "is_stable": true, "equilibrium_reaction_energy_per_atom": null, "decomposes_to": null, "xas": null, "grain_boundaries": null, "band_gap": 0.0, "cbm": null, "vbm": null, "efermi": 5.09722557, "is_gap_direct": null, "is_metal": null, "es_source_calc_id": null, "bandstructure": null, "dos": null, "dos_energy_up": null, "dos_energy_down": null, "is_magnetic": null, "ordering": null, "total_magnetization": 0.0, "total_magnetization_normalized_vol": null, "total_magnetization_normalized_formula_units": null, "num_magnetic_sites": null, "num_unique_magnetic_sites": null, "types_of_magnetic_species": null, "bulk_modulus": null, "shear_modulus": null, "universal_anisotropy": null, "homogeneous_poisson": null, "e_total": null, "e_ionic": null, "e_electronic": null, "n": null, "e_ij_max": null, "weighted_surface_energy_EV_PER_ANG2": null, "weighted_surface_energy": null, "weighted_work_function": null, "surface_anisotropy": null, "shape_factor": null, "has_reconstructed": null, "possible_species": null, "has_props": null, "theoretical": null, "database_IDs": null, "fields_not_requested": ["builder_meta", "nsites", "elements", "nelements", "composition", "composition_reduced", "chemsys", "symmetry", "property_name", "deprecated", "deprecation_reasons", "last_updated", "origins", "warnings", "task_ids", "uncorrected_energy_per_atom", "equilibrium_reaction_energy_per_atom", "decomposes_to", "xas", "grain_boundaries", "cbm", "vbm", "is_gap_direct", "is_metal", "es_source_calc_id", "bandstructure", "dos", "dos_energy_up", "dos_energy_down", "is_magnetic", "ordering", "total_magnetization_normalized_vol", "total_magnetization_normalized_formula_units", "num_magnetic_sites", "num_unique_magnetic_sites", "types_of_magnetic_species", "bulk_modulus", "shear_modulus", "universal_anisotropy", "homogeneous_poisson", "e_total", "e_ionic", "e_electronic", "n", "e_ij_max", "weighted_surface_energy_EV_PER_ANG2", "weighted_surface_energy", "weighted_work_function", "surface_anisotropy", "shape_factor", "has_reconstructed", "possible_species", "has_props", "theoretical", "database_IDs"]}