{"builder_meta": null, "nsites": null, "elements": null, "nelements": null, "composition": null, "composition_reduced": null, "formula_pretty": "CaC2", "formula_anonymous": "AB2", "chemsys": null, "volume": 97.23899144471838, "density": 2.189236154431575, "density_atomic": 16.20649857411973, "symmetry": null, "property_name": null, "material_id": "mp-917", "deprecated": null, "deprecation_reasons": null, "last_updated": null, "origins": null, "warnings": null, "structure": {"@module": "pymatgen.core.structure", "@class": "Structure", "charge": 0, "lattice": {"matrix": [[3.830587249999999, -1e-08, -0.0], [-1.915294649999999, 3.41330891, -1.07602969], [-0.0, 0.06844327, 7.41545289]], "pbc": [true, true, true], "a": 3.830587249999999, "b": 4.059171246100059, "c": 7.415768742687278, "alpha": 104.91073508115139, "beta": 90.00000000138049, "gamma": 118.15404626237107, "volume": 97.23899144471834}, "properties": {}, "sites": [{"species": [{"element": "Ca", "occu": 1}], "abc": [0.79740933, 0.59481865, 0.75351035], "properties": {"magmom": -0.0}, "label": "Ca", "xyz": [1.9152930344638197, 2.0818725022379225, 4.947577974986693]}, {"species": [{"element": "Ca", "occu": 1}], "abc": [0.20259067, 0.40518135, 0.24648965], "properties": {"magmom": -0.0}, "label": "Ca", "xyz": [-4.344638198094941e-07, 1.3998796677620773, 1.391845225013307]}, {"species": [{"element": "C", "occu": 1}], "abc": [0.07922293, 0.15844486, 0.56430753], "properties": {"magmom": 0.0}, "label": "C", "xyz": [1.7528876435912721e-06, 0.5794443042282964, 4.014104530599369]}, {"species": [{"element": "C", "occu": 1}], "abc": [0.92077707, 0.84155514, 0.43569247], "properties": {"magmom": 0.0}, "label": "C", "xyz": [1.9152908471123562, 2.9023078657717036, 2.325318669400632]}, {"species": [{"element": "C", "occu": 1}], "abc": [0.45185889, 0.90371578, 0.058250210000000004], "properties": {"magmom": -0.0}, "label": "C", "xyz": [2.9042785760768908e-06, 3.0886479543135974, -0.5404733225139011]}, {"species": [{"element": "C", "occu": 1}], "abc": [0.54814111, 0.09628422, 0.94174979], "properties": {"magmom": -0.0}, "label": "C", "xyz": [1.915289695721424, 0.3931042156864024, 6.879896522513901]}]}, "task_ids": null, "uncorrected_energy_per_atom": null, "energy_per_atom": -6.806535393333333, "formation_energy_per_atom": 0.014441561666667001, "energy_above_hull": 0.014441561666666, "is_stable": false, "equilibrium_reaction_energy_per_atom": null, "decomposes_to": null, "xas": null, "grain_boundaries": null, "band_gap": 2.3396, "cbm": null, "vbm": null, "efermi": 0.8055509200000001, "is_gap_direct": null, "is_metal": null, "es_source_calc_id": null, "bandstructure": null, "dos": null, "dos_energy_up": null, "dos_energy_down": null, "is_magnetic": null, "ordering": null, "total_magnetization": 0.0, "total_magnetization_normalized_vol": null, "total_magnetization_normalized_formula_units": null, "num_magnetic_sites": null, "num_unique_magnetic_sites": null, "types_of_magnetic_species": null, "bulk_modulus": null, "shear_modulus": null, "universal_anisotropy": null, "homogeneous_poisson": null, "e_total": null, "e_ionic": null, "e_electronic": null, "n": null, "e_ij_max": null, "weighted_surface_energy_EV_PER_ANG2": null, "weighted_surface_energy": null, "weighted_work_function": null, "surface_anisotropy": null, "shape_factor": null, "has_reconstructed": null, "possible_species": null, "has_props": null, "theoretical": null, "database_IDs": null, "fields_not_requested": ["builder_meta", "nsites", "elements", "nelements", "composition", "composition_reduced", "chemsys", "symmetry", "property_name", "deprecated", "deprecation_reasons", "last_updated", "origins", "warnings", "task_ids", "uncorrected_energy_per_atom", "equilibrium_reaction_energy_per_atom", "decomposes_to", "xas", "grain_boundaries", "cbm", "vbm", "is_gap_direct", "is_metal", "es_source_calc_id", "bandstructure", "dos", "dos_energy_up", "dos_energy_down", "is_magnetic", "ordering", "total_magnetization_normalized_vol", "total_magnetization_normalized_formula_units", "num_magnetic_sites", "num_unique_magnetic_sites", "types_of_magnetic_species", "bulk_modulus", "shear_modulus", "universal_anisotropy", "homogeneous_poisson", "e_total", "e_ionic", "e_electronic", "n", "e_ij_max", "weighted_surface_energy_EV_PER_ANG2", "weighted_surface_energy", "weighted_work_function", "surface_anisotropy", "shape_factor", "has_reconstructed", "possible_species", "has_props", "theoretical", "database_IDs"]}