{
  "builder_meta": null,
  "nsites": null,
  "elements": null,
  "nelements": null,
  "composition": null,
  "composition_reduced": null,
  "formula_pretty": "CaC6",
  "formula_anonymous": "AB6",
  "chemsys": null,
  "volume": 139.43469690836366,
  "density": 1.335510516703398,
  "density_atomic": 19.91924241548052,
  "symmetry": null,
  "property_name": null,
  "material_id": "mp-1206211",
  "deprecated": null,
  "deprecation_reasons": null,
  "last_updated": null,
  "origins": null,
  "warnings": null,
  "structure": {
    "@module": "pymatgen.core.structure",
    "@class": "Structure",
    "charge": 0,
    "lattice": {
      "matrix": [
        [0.561045999999999, -0.907606999999999, -3.416675],
        [6.891983, 3.579825999999999, -0.118393],
        [2.034466, -3.368572, 4.263737]
      ],
      "pbc": [true, true, true],
      "a": 3.579412121590639,
      "b": 7.767148818261048,
      "c": 5.802222197529926,
      "alpha": 88.14628739653675,
      "beta": 119.95147296361857,
      "gamma": 87.89300334192343,
      "volume": 139.4346969083636
    },
    "properties": {},
    "sites": [
      {
        "species": [{ "element": "Ca", "occu": 1 }],
        "abc": [0.0, 0.0, 0.0],
        "properties": { "magmom": 0.0 },
        "label": "Ca",
        "xyz": [0.0, 0.0, 0.0]
      },
      {
        "species": [{ "element": "C", "occu": 1 }],
        "abc": [0.163108, 0.998532, 0.616815],
        "properties": { "magmom": 0.0 },
        "label": "C",
        "xyz": [8.228265805713999, 1.3487471146959993, 1.9544307126790001]
      },
      {
        "species": [{ "element": "C", "occu": 1 }],
        "abc": [0.836892, 0.001468, 0.383185],
        "properties": { "magmom": -0.0 },
        "label": "C",
        "xyz": [1.2592291942859992, -2.045100114695999, -1.2257617126790004]
      },
      {
        "species": [{ "element": "C", "occu": 1 }],
        "abc": [0.123270999999999, 0.500737, 0.62439],
        "properties": { "magmom": -0.0 },
        "label": "C",
        "xyz": [4.790531818676999, -0.4226329618149993, 2.181774045864003]
      },
      {
        "species": [{ "element": "C", "occu": 1 }],
        "abc": [0.876729, 0.499262999999999, 0.375608999999999],
        "properties": { "magmom": 0.0 },
        "label": "C",
        "xyz": [4.6969611468569905, -0.273716669613, -1.4531093096010044]
      },
      {
        "species": [{ "element": "C", "occu": 1 }],
        "abc": [0.624912, 0.499559, 0.124722],
        "properties": { "magmom": -0.0 },
        "label": "C",
        "xyz": [4.047299181901, 0.8010247541659998, -1.662483690173]
      },
      {
        "species": [{ "element": "C", "occu": 1 }],
        "abc": [0.375088, 0.500441, 0.875278],
        "properties": { "magmom": 0.0 },
        "label": "C",
        "xyz": [5.440195818098999, -1.4973777541659998, 2.3911526901729996]
      }
    ]
  },
  "task_ids": null,
  "uncorrected_energy_per_atom": null,
  "energy_per_atom": -7.440653212857143,
  "formation_energy_per_atom": 0.756145763571427,
  "energy_above_hull": 0.756145763571428,
  "is_stable": false,
  "equilibrium_reaction_energy_per_atom": null,
  "decomposes_to": null,
  "xas": null,
  "grain_boundaries": null,
  "band_gap": 0.0,
  "cbm": null,
  "vbm": null,
  "efermi": -0.37379578,
  "is_gap_direct": null,
  "is_metal": null,
  "es_source_calc_id": null,
  "bandstructure": null,
  "dos": null,
  "dos_energy_up": null,
  "dos_energy_down": null,
  "is_magnetic": null,
  "ordering": null,
  "total_magnetization": 6e-7,
  "total_magnetization_normalized_vol": null,
  "total_magnetization_normalized_formula_units": null,
  "num_magnetic_sites": null,
  "num_unique_magnetic_sites": null,
  "types_of_magnetic_species": null,
  "bulk_modulus": null,
  "shear_modulus": null,
  "universal_anisotropy": null,
  "homogeneous_poisson": null,
  "e_total": null,
  "e_ionic": null,
  "e_electronic": null,
  "n": null,
  "e_ij_max": null,
  "weighted_surface_energy_EV_PER_ANG2": null,
  "weighted_surface_energy": null,
  "weighted_work_function": null,
  "surface_anisotropy": null,
  "shape_factor": null,
  "has_reconstructed": null,
  "possible_species": null,
  "has_props": null,
  "theoretical": null,
  "database_IDs": null,
  "fields_not_requested": [
    "builder_meta",
    "nsites",
    "elements",
    "nelements",
    "composition",
    "composition_reduced",
    "chemsys",
    "symmetry",
    "property_name",
    "deprecated",
    "deprecation_reasons",
    "last_updated",
    "origins",
    "warnings",
    "task_ids",
    "uncorrected_energy_per_atom",
    "equilibrium_reaction_energy_per_atom",
    "decomposes_to",
    "xas",
    "grain_boundaries",
    "cbm",
    "vbm",
    "is_gap_direct",
    "is_metal",
    "es_source_calc_id",
    "bandstructure",
    "dos",
    "dos_energy_up",
    "dos_energy_down",
    "is_magnetic",
    "ordering",
    "total_magnetization_normalized_vol",
    "total_magnetization_normalized_formula_units",
    "num_magnetic_sites",
    "num_unique_magnetic_sites",
    "types_of_magnetic_species",
    "bulk_modulus",
    "shear_modulus",
    "universal_anisotropy",
    "homogeneous_poisson",
    "e_total",
    "e_ionic",
    "e_electronic",
    "n",
    "e_ij_max",
    "weighted_surface_energy_EV_PER_ANG2",
    "weighted_surface_energy",
    "weighted_work_function",
    "surface_anisotropy",
    "shape_factor",
    "has_reconstructed",
    "possible_species",
    "has_props",
    "theoretical",
    "database_IDs"
  ]
}
