{"builder_meta": null, "nsites": null, "elements": null, "nelements": null, "composition": null, "composition_reduced": null, "formula_pretty": "CaCd3", "formula_anonymous": "AB3", "chemsys": null, "volume": 194.52273135154073, "density": 6.441814294964145, "density_atomic": 24.31534141894259, "symmetry": null, "property_name": null, "material_id": "mp-1183517", "deprecated": null, "deprecation_reasons": null, "last_updated": null, "origins": null, "warnings": null, "structure": {"@module": "pymatgen.core.structure", "@class": "Structure", "charge": 0, "lattice": {"matrix": [[3.35161562, -5.80516792, 0.0], [3.35161562, 5.80516792, -0.0], [-0.0, 0.0, 4.99886457]], "pbc": [true, true, true], "a": 6.703230701954476, "b": 6.703230701954476, "c": 4.99886457, "alpha": 90.0, "beta": 90.0, "gamma": 119.99999468960458, "volume": 194.52273135154073}, "properties": {}, "sites": [{"species": [{"element": "Ca", "occu": 1}], "abc": [0.333333, 0.666667, 0.75], "properties": {"magmom": -0.0}, "label": "Ca", "xyz": [3.3516156199999996, 1.93505984344528, 3.7491484275]}, {"species": [{"element": "Ca", "occu": 1}], "abc": [0.666667, 0.333333, 0.25], "properties": {"magmom": -0.0}, "label": "Ca", "xyz": [3.3516156199999996, -1.93505984344528, 1.2497161425]}, {"species": [{"element": "Cd", "occu": 1}], "abc": [0.1574026, 0.3148042, 0.25], "properties": {"magmom": -0.0}, "label": "Cd", "xyz": [1.5826556867502157, 0.9137427188766718, 1.2497161425]}, {"species": [{"element": "Cd", "occu": 1}], "abc": [0.6851958, 0.842597399999999, 0.25], "properties": {"magmom": -0.0}, "label": "Cd", "xyz": [5.120575553249781, 0.9137427188766667, 1.2497161425]}, {"species": [{"element": "Cd", "occu": 1}], "abc": [0.1574026, 0.842597399999999, 0.25], "properties": {"magmom": -0.0}, "label": "Cd", "xyz": [3.351615619999997, 3.977670871910811, 1.2497161425]}, {"species": [{"element": "Cd", "occu": 1}], "abc": [0.842597399999999, 0.6851958, 0.75], "properties": {"magmom": -0.0}, "label": "Cd", "xyz": [5.120575553249781, -0.9137427188766667, 3.7491484275]}, {"species": [{"element": "Cd", "occu": 1}], "abc": [0.3148042, 0.1574026, 0.75], "properties": {"magmom": -0.0}, "label": "Cd", "xyz": [1.5826556867502157, -0.9137427188766718, 3.7491484275]}, {"species": [{"element": "Cd", "occu": 1}], "abc": [0.842597399999999, 0.1574026, 0.75], "properties": {"magmom": -0.0}, "label": "Cd", "xyz": [3.351615619999997, -3.977670871910811, 3.7491484275]}]}, "task_ids": null, "uncorrected_energy_per_atom": null, "energy_per_atom": -1.459486189999999, "formation_energy_per_atom": -0.23807857749999803, "energy_above_hull": 0.0022294378124990003, "is_stable": false, "equilibrium_reaction_energy_per_atom": null, "decomposes_to": null, "xas": null, "grain_boundaries": null, "band_gap": 0.0, "cbm": null, "vbm": null, "efermi": 2.45037232, "is_gap_direct": null, "is_metal": null, "es_source_calc_id": null, "bandstructure": null, "dos": null, "dos_energy_up": null, "dos_energy_down": null, "is_magnetic": null, "ordering": null, "total_magnetization": 0.0, "total_magnetization_normalized_vol": null, "total_magnetization_normalized_formula_units": null, "num_magnetic_sites": null, "num_unique_magnetic_sites": null, "types_of_magnetic_species": null, "bulk_modulus": null, "shear_modulus": null, "universal_anisotropy": null, "homogeneous_poisson": null, "e_total": null, "e_ionic": null, "e_electronic": null, "n": null, "e_ij_max": null, "weighted_surface_energy_EV_PER_ANG2": null, "weighted_surface_energy": null, "weighted_work_function": null, "surface_anisotropy": null, "shape_factor": null, "has_reconstructed": null, "possible_species": null, "has_props": null, "theoretical": null, "database_IDs": null, "fields_not_requested": ["builder_meta", "nsites", "elements", "nelements", "composition", "composition_reduced", "chemsys", "symmetry", "property_name", "deprecated", "deprecation_reasons", "last_updated", "origins", "warnings", "task_ids", "uncorrected_energy_per_atom", "equilibrium_reaction_energy_per_atom", "decomposes_to", "xas", "grain_boundaries", "cbm", "vbm", "is_gap_direct", "is_metal", "es_source_calc_id", "bandstructure", "dos", "dos_energy_up", "dos_energy_down", "is_magnetic", "ordering", "total_magnetization_normalized_vol", "total_magnetization_normalized_formula_units", "num_magnetic_sites", "num_unique_magnetic_sites", "types_of_magnetic_species", "bulk_modulus", "shear_modulus", "universal_anisotropy", "homogeneous_poisson", "e_total", "e_ionic", "e_electronic", "n", "e_ij_max", "weighted_surface_energy_EV_PER_ANG2", "weighted_surface_energy", "weighted_work_function", "surface_anisotropy", "shape_factor", "has_reconstructed", "possible_species", "has_props", "theoretical", "database_IDs"]}