{"builder_meta": null, "nsites": null, "elements": null, "nelements": null, "composition": null, "composition_reduced": null, "formula_pretty": "CaCd6", "formula_anonymous": "AB6", "chemsys": null, "volume": 2032.7259181436052, "density": 7.004554128310019, "density_atomic": 24.19911807313816, "symmetry": null, "property_name": null, "material_id": "mp-1229298", "deprecated": null, "deprecation_reasons": null, "last_updated": null, "origins": null, "warnings": null, "structure": {"@module": "pymatgen.core.structure", "@class": "Structure", "charge": 0, "lattice": {"matrix": [[-7.935126, 7.967523, 8.037883], [7.935126, -7.967523, 8.037883], [7.935126, 7.967523, -8.037883]], "pbc": [true, true, true], "a": 13.82227226302152, "b": 13.82227226302152, "c": 13.82227226302152, "alpha": 109.92917718993567, "beta": 109.60082599810416, "gamma": 108.88541118155561, "volume": 2032.7259181436052}, "properties": {}, "sites": [{"species": [{"element": "Ca", "occu": 1}], "abc": [0.811672, 0.515949, 0.704276999999999], "properties": {"magmom": -0.0}, "label": "Ca", "xyz": [3.2419274678039924, 7.967522999999991, 5.010366140752007]}, {"species": [{"element": "Ca", "occu": 1}], "abc": [0.188328, 0.48405099999999907, 0.295723], "properties": {"magmom": -0.0}, "label": "Ca", "xyz": [4.693198532195993, 7.549516567451064e-15, 3.0275168592479926]}, {"species": [{"element": "Ca", "occu": 1}], "abc": [0.188328, 0.892605, 0.704276999999999], "properties": {"magmom": -0.0}, "label": "Ca", "xyz": [11.177053467803994, -7.993605777301127e-15, 3.027516859248008]}, {"species": [{"element": "Ca", "occu": 1}], "abc": [0.811672, 0.107394999999999, 0.295723], "properties": {"magmom": -0.0}, "label": "Ca", "xyz": [-3.241927467804007, 7.967523000000007, 5.010366140751993]}, {"species": [{"element": "Ca", "occu": 1}], "abc": [0.111968, 0.30277000000000004, 0.809199], "properties": {"magmom": -0.0}, "label": "Ca", "xyz": [7.935133935126, 4.927092320630999, -3.1706313660629997]}, {"species": [{"element": "Ca", "occu": 1}], "abc": [0.888031999999999, 0.69723, 0.190801], "properties": {"magmom": -0.0}, "label": "Ca", "xyz": [-7.935125992064584e-06, 3.040430679368992, 11.208514366062994]}, {"species": [{"element": "Ca", "occu": 1}], "abc": [0.493571, 0.30277000000000004, 0.190801], "properties": {"magmom": -0.0}, "label": "Ca", "xyz": [2.220446049250313e-16, 3.0404227118459994, 4.86725967182]}, {"species": [{"element": "Ca", "occu": 1}], "abc": [0.506429, 0.69723, 0.809199], "properties": {"magmom": -0.0}, "label": "Ca", "xyz": [7.935126, 4.927100288154, 3.1706233281800014]}, {"species": [{"element": "Ca", "occu": 1}], "abc": [0.300369, 0.189743, 0.490112], "properties": {"magmom": -0.0}, "label": "Ca", "xyz": [3.0112692252360005, 4.786393831974, 0.0]}, {"species": [{"element": "Ca", "occu": 1}], "abc": [0.699631, 0.810257, 0.509888], "properties": {"magmom": -0.0}, "label": "Ca", "xyz": [4.923856774763999, 3.1811291680259997, 8.037883]}, {"species": [{"element": "Ca", "occu": 1}], "abc": [0.300369, 0.810257, 0.110625999999999], "properties": {"magmom": -0.0}, "label": "Ca", "xyz": [4.923856774763992, -3.1811291680260076, 8.037883000000008]}, {"species": [{"element": "Ca", "occu": 1}], "abc": [0.699631, 0.189743, 0.889374], "properties": {"magmom": -0.0}, "label": "Ca", "xyz": [3.011269225236, 11.148652168026, 0.0]}, {"species": [{"element": "Cd", "occu": 1}], "abc": [0.738776, 0.6432300000000001, 0.904454], "properties": {"magmom": -0.0}, "label": "Cd", "xyz": [6.418786902408001, 7.967522999999999, 3.838507102416001]}, {"species": [{"element": "Cd", "occu": 1}], "abc": [0.261224, 0.35677000000000003, 0.095545999999999], "properties": {"magmom": -0.0}, "label": "Cd", "xyz": [1.5163390975919921, -8.104628079763643e-15, 4.199375897584009]}, {"species": [{"element": "Cd", "occu": 1}], "abc": [0.261224, 0.165678, 0.904454], "properties": {"magmom": -0.0}, "label": "Cd", "xyz": [6.418786902408, 7.967523, -3.838507102416]}, {"species": [{"element": "Cd", "occu": 1}], "abc": [0.738776, 0.834322, 0.095545999999999], "properties": {"magmom": -0.0}, "label": "Cd", "xyz": [1.5163390975919926, -8.104628079763643e-15, 11.87639010241601]}, {"species": [{"element": "Cd", "occu": 1}], "abc": [0.858421999999999, 0.092711, 0.765712], "properties": {"magmom": -0.0}, "label": "Cd", "xyz": [7.935126007829751e-06, 12.201647975228992, 1.4903923037429925]}, {"species": [{"element": "Cd", "occu": 1}], "abc": [0.141577999999999, 0.907289, 0.234288], "properties": {"magmom": -0.0}, "label": "Cd", "xyz": [7.935118064874008, -4.234124975229008, 6.547490696256993]}, {"species": [{"element": "Cd", "occu": 1}], "abc": [0.326999, 0.092711, 0.234288], "properties": {"magmom": -0.0}, "label": "Cd", "xyz": [0.0, 3.7333900572479997, 1.4904003416259997]}, {"species": [{"element": "Cd", "occu": 1}], "abc": [0.673001, 0.907289, 0.765712], "properties": {"magmom": -0.0}, "label": "Cd", "xyz": [7.9351259999999995, 4.234132942751999, 6.547482658374]}, {"species": [{"element": "Cd", "occu": 1}], "abc": [0.097009, 0.241680999999999, 0.33869000000000005], "properties": {"magmom": -0.0}, "label": "Cd", "xyz": [3.835538373611993, 1.5458428774140083, -8.43769498715119e-15]}, {"species": [{"element": "Cd", "occu": 1}], "abc": [0.902991, 0.758319, 0.6613100000000001], "properties": {"magmom": -0.0}, "label": "Cd", "xyz": [4.099587626388001, 6.421680122586001, 8.037883]}, {"species": [{"element": "Cd", "occu": 1}], "abc": [0.097009, 0.758319, 0.855328], "properties": {"magmom": -0.0}, "label": "Cd", "xyz": [12.034713626388, 1.5458428774140005, 0.0]}, {"species": [{"element": "Cd", "occu": 1}], "abc": [0.902991, 0.241680999999999, 0.144672], "properties": {"magmom": -0.0}, "label": "Cd", "xyz": [-4.099587626388008, 6.421680122586007, 8.037882999999992]}, {"species": [{"element": "Cd", "occu": 1}], "abc": [0.776868999999999, 0.453953999999999, 0.9200800000000001], "properties": {"magmom": -0.0}, "label": "Cd", "xyz": [4.738579517790001, 9.903591251385, 2.497715877068983]}, {"species": [{"element": "Cd", "occu": 1}], "abc": [0.466126, 0.546045999999999, 0.322916], "properties": {"magmom": -0.0}, "label": "Cd", "xyz": [3.1965544173359923, 1.9360762189080076, 5.540159085047994]}, {"species": [{"element": "Cd", "occu": 1}], "abc": [0.223131, 0.14321, 0.677084], "properties": {"magmom": -0.0}, "label": "Cd", "xyz": [4.738563647538, 6.031454748614999, -2.497715877069]}, {"species": [{"element": "Cd", "occu": 1}], "abc": [0.533874, 0.85679, 0.07992], "properties": {"magmom": -0.0}, "label": "Cd", "xyz": [3.196554417336001, -1.936076218908, 10.535606914952002]}, {"species": [{"element": "Cd", "occu": 1}], "abc": [0.857215, 0.081784, 0.540003999999999], "properties": {"magmom": -0.0}, "label": "Cd", "xyz": [-1.8681429088020067, 10.480758617504993, 3.207075127585008]}, {"species": [{"element": "Cd", "occu": 1}], "abc": [0.142785, 0.68279, 0.224569], "properties": {"magmom": -0.0}, "label": "Cd", "xyz": [6.066991026324, -2.5132435850280004, 4.830815910298]}, {"species": [{"element": "Cd", "occu": 1}], "abc": [0.541779, 0.31721000000000005, 0.459995999999999], "properties": {"magmom": -0.0}, "label": "Cd", "xyz": [1.868142908801992, 5.454287382494991, 3.2070590518190087]}, {"species": [{"element": "Cd", "occu": 1}], "abc": [0.458221, 0.918215999999999, 0.775431], "properties": {"magmom": -0.0}, "label": "Cd", "xyz": [9.803260973675993, 2.513243585028007, 4.830815910297992]}, {"species": [{"element": "Cd", "occu": 1}], "abc": [0.315575, 0.459914999999999, 0.542325], "properties": {"magmom": -0.0}, "label": "Cd", "xyz": [5.4487732947899925, 3.170954641155008, 1.874152989694993]}, {"species": [{"element": "Cd", "occu": 1}], "abc": [0.9175900000000001, 0.773250999999999, 0.457675], "properties": {"magmom": -0.0}, "label": "Cd", "xyz": [2.4863606403359912, 4.796560391322009, 9.912044027577993]}, {"species": [{"element": "Cd", "occu": 1}], "abc": [0.08241000000000001, 0.540084999999999, 0.855661], "properties": {"magmom": -0.0}, "label": "Cd", "xyz": [10.421486640335992, 3.1709626086780074, -1.8741610275780083]}, {"species": [{"element": "Cd", "occu": 1}], "abc": [0.684425, 0.226748999999999, 0.144339], "properties": {"magmom": -0.0}, "label": "Cd", "xyz": [-2.4863685754620075, 4.796568358845008, 6.163730010304992]}, {"species": [{"element": "Cd", "occu": 1}], "abc": [0.223131, 0.546045999999999, 0.07992], "properties": {"magmom": -0.0}, "label": "Cd", "xyz": [3.1965464822099925, -1.936068251384992, 5.540167122930993]}, {"species": [{"element": "Cd", "occu": 1}], "abc": [0.533874, 0.453953999999999, 0.677084], "properties": {"magmom": -0.0}, "label": "Cd", "xyz": [4.738571582663992, 6.031446781092008, 2.497723914951993]}, {"species": [{"element": "Cd", "occu": 1}], "abc": [0.776868999999999, 0.85679, 0.322916], "properties": {"magmom": -0.0}, "label": "Cd", "xyz": [3.1965623524620086, 1.936068251384992, 10.535598877068992]}, {"species": [{"element": "Cd", "occu": 1}], "abc": [0.466126, 0.14321, 0.9200800000000001], "properties": {"magmom": -0.0}, "label": "Cd", "xyz": [4.738571582664001, 9.903599218908, -2.497723914952001]}, {"species": [{"element": "Cd", "occu": 1}], "abc": [0.142785, 0.918215999999999, 0.459995999999999], "properties": {"magmom": -0.0}, "label": "Cd", "xyz": [9.803268908801986, -2.513235617505, 4.830807872415]}, {"species": [{"element": "Cd", "occu": 1}], "abc": [0.857215, 0.31721000000000005, 0.775431], "properties": {"magmom": -0.0}, "label": "Cd", "xyz": [1.8681349736759998, 10.480766585027997, 3.207067089702]}, {"species": [{"element": "Cd", "occu": 1}], "abc": [0.458221, 0.68279, 0.540003999999999], "properties": {"magmom": -0.0}, "label": "Cd", "xyz": [6.066983091197994, 2.5132356175049924, 4.830823948181007]}, {"species": [{"element": "Cd", "occu": 1}], "abc": [0.541779, 0.081784, 0.224569], "properties": {"magmom": -0.0}, "label": "Cd", "xyz": [-1.8681349736760005, 5.4542794149719995, 3.207067089702001]}, {"species": [{"element": "Cd", "occu": 1}], "abc": [0.684425, 0.540084999999999, 0.457675], "properties": {"magmom": -0.0}, "label": "Cd", "xyz": [2.4863527052099923, 4.796568358845007, 6.163730010304992]}, {"species": [{"element": "Cd", "occu": 1}], "abc": [0.08241000000000001, 0.226748999999999, 0.542325], "properties": {"magmom": -0.0}, "label": "Cd", "xyz": [5.448765359663993, 3.170962608678008, -1.8741610275780074]}, {"species": [{"element": "Cd", "occu": 1}], "abc": [0.9175900000000001, 0.459914999999999, 0.144339], "properties": {"magmom": -0.0}, "label": "Cd", "xyz": [-2.4863606403360095, 4.796560391322009, 9.912044027577995]}, {"species": [{"element": "Cd", "occu": 1}], "abc": [0.315575, 0.773250999999999, 0.855661], "properties": {"magmom": -0.0}, "label": "Cd", "xyz": [10.421494575461994, 3.170954641155008, 1.8741529896949913]}, {"species": [{"element": "Cd", "occu": 1}], "abc": [0.594635999999999, 0.25095, 0.656312999999999], "properties": {"magmom": -0.0}, "label": "Cd", "xyz": [2.4807346360020004, 7.967515032476985, 1.5213542290590008]}, {"species": [{"element": "Cd", "occu": 1}], "abc": [0.405364, 0.7490500000000001, 0.343686999999999], "properties": {"magmom": -0.0}, "label": "Cd", "xyz": [5.454391363997994, 7.967522991148002e-06, 6.51652877094101]}, {"species": [{"element": "Cd", "occu": 1}], "abc": [0.405364, 0.061676999999999, 0.656312999999999], "properties": {"magmom": -0.0}, "label": "Cd", "xyz": [2.480726700875985, 7.967523, -1.5213461911760002]}, {"species": [{"element": "Cd", "occu": 1}], "abc": [0.594635999999999, 0.938322999999999, 0.343686999999999], "properties": {"magmom": -0.0}, "label": "Cd", "xyz": [5.454399299123993, -7.105427357601002e-15, 9.559229191175993]}, {"species": [{"element": "Cd", "occu": 1}], "abc": [0.939805, 0.343922, 0.595882999999999], "properties": {"magmom": -0.0}, "label": "Cd", "xyz": [-7.993605777301127e-15, 9.495423015617991, 5.528809594252008]}, {"species": [{"element": "Cd", "occu": 1}], "abc": [0.060195, 0.656077999999999, 0.404117], "properties": {"magmom": -0.0}, "label": "Cd", "xyz": [7.935125999999992, -1.527900015617992, 2.5090734057479933]}, {"species": [{"element": "Cd", "occu": 1}], "abc": [0.748039, 0.343922, 0.404117], "properties": {"magmom": -0.0}, "label": "Cd", "xyz": [0.0, 6.439622984382, 5.528809594252]}, {"species": [{"element": "Cd", "occu": 1}], "abc": [0.251961, 0.656077999999999, 0.595882999999999], "properties": {"magmom": -0.0}, "label": "Cd", "xyz": [7.935125999999984, 1.5279000156179996, 2.5090734057480004]}, {"species": [{"element": "Cd", "occu": 1}], "abc": [0.341764, 0.403453, 0.745217], "properties": {"magmom": -0.0}, "label": "Cd", "xyz": [6.402900780156001, 5.446025061144, 0.0]}, {"species": [{"element": "Cd", "occu": 1}], "abc": [0.658235999999999, 0.596546999999999, 0.254783], "properties": {"magmom": -0.0}, "label": "Cd", "xyz": [1.5322252198440003, 2.521497938856, 8.037882999999987]}, {"species": [{"element": "Cd", "occu": 1}], "abc": [0.341764, 0.596546999999999, 0.938311], "properties": {"magmom": -0.0}, "label": "Cd", "xyz": [9.467351219843993, 5.446025061144008, -7.105427357601002e-15]}, {"species": [{"element": "Cd", "occu": 1}], "abc": [0.658235999999999, 0.403453, 0.061688999999999], "properties": {"magmom": -0.0}, "label": "Cd", "xyz": [-1.532225219844, 2.521497938855984, 8.037883]}, {"species": [{"element": "Cd", "occu": 1}], "abc": [0.998282, 0.674063, 0.001215999999999], "properties": {"magmom": -0.0}, "label": "Cd", "xyz": [-2.5630695033780078, 2.5929108475049922, 13.43233937990701]}, {"species": [{"element": "Cd", "occu": 1}], "abc": [0.32715299999999903, 0.325937, 0.324219], "properties": {"magmom": -0.0}, "label": "Cd", "xyz": [2.5630695033780073, 2.5929108475049927, 2.643426620092993]}, {"species": [{"element": "Cd", "occu": 1}], "abc": [0.001718, 0.002934, 0.675781], "properties": {"magmom": -0.0}, "label": "Cd", "xyz": [5.372056496621999, 5.374612152495, -5.394456379907]}, {"species": [{"element": "Cd", "occu": 1}], "abc": [0.672847, 0.997066, 0.998784], "properties": {"magmom": -0.0}, "label": "Cd", "xyz": [10.498195503378001, 5.374612152495001, 5.394456379906998]}, {"species": [{"element": "Cd", "occu": 1}], "abc": [0.001718, 0.325937, 0.998784], "properties": {"magmom": -0.0}, "label": "Cd", "xyz": [10.498195503378, 5.374612152495001, -5.394456379907002]}, {"species": [{"element": "Cd", "occu": 1}], "abc": [0.672847, 0.674063, 0.675781], "properties": {"magmom": -0.0}, "label": "Cd", "xyz": [5.372056496622, 5.374612152495, 5.394456379907002]}, {"species": [{"element": "Cd", "occu": 1}], "abc": [0.998282, 0.997066, 0.324219], "properties": {"magmom": -0.0}, "label": "Cd", "xyz": [2.563069503378, 2.5929108475050007, 13.432339379907003]}, {"species": [{"element": "Cd", "occu": 1}], "abc": [0.32715299999999903, 0.002934, 0.001215999999999], "properties": {"magmom": -0.0}, "label": "Cd", "xyz": [-2.563069503378, 2.5929108475049842, 2.6434266200930003]}, {"species": [{"element": "Cd", "occu": 1}], "abc": [0.5, 0.315586, 0.815585999999999], "properties": {"magmom": -0.0}, "label": "Cd", "xyz": [5.008429347671992, 7.967522999999993, 7.105427357601002e-15]}, {"species": [{"element": "Cd", "occu": 1}], "abc": [0.5, 0.684414, 0.184414], "properties": {"magmom": -0.0}, "label": "Cd", "xyz": [2.926696652328, 4.440892098500626e-16, 8.037882999999999]}, {"species": [{"element": "Cd", "occu": 1}], "abc": [0.688940999999999, 0.188941, 0.5], "properties": {"magmom": -0.0}, "label": "Cd", "xyz": [7.549516567451064e-15, 7.967522999999992, 3.037371303805992]}, {"species": [{"element": "Cd", "occu": 1}], "abc": [0.311059, 0.811059, 0.5], "properties": {"magmom": -0.0}, "label": "Cd", "xyz": [7.935126, -4.440892098500626e-16, 5.000511696194]}, {"species": [{"element": "Cd", "occu": 1}], "abc": [0.183728, 0.5, 0.683728], "properties": {"magmom": -0.0}, "label": "Cd", "xyz": [7.935126, 2.9277141314880004, 0.0]}, {"species": [{"element": "Cd", "occu": 1}], "abc": [0.816272, 0.5, 0.316272], "properties": {"magmom": -0.0}, "label": "Cd", "xyz": [0.0, 5.039808868511999, 8.037883]}, {"species": [{"element": "Cd", "occu": 1}], "abc": [0.588568, 0.588568, 0.0], "properties": {"magmom": -0.0}, "label": "Cd", "xyz": [0.0, 0.0, 9.461681443088]}, {"species": [{"element": "Cd", "occu": 1}], "abc": [0.411431999999999, 0.411431999999999, 0.0], "properties": {"magmom": -0.0}, "label": "Cd", "xyz": [0.0, 0.0, 6.614084556911985]}, {"species": [{"element": "Cd", "occu": 1}], "abc": [0.596596, 0.0, 0.596596], "properties": {"magmom": -0.0}, "label": "Cd", "xyz": [0.0, 9.506784703416, 0.0]}, {"species": [{"element": "Cd", "occu": 1}], "abc": [0.403404, 0.0, 0.403404], "properties": {"magmom": -0.0}, "label": "Cd", "xyz": [0.0, 6.428261296584, 0.0]}, {"species": [{"element": "Cd", "occu": 1}], "abc": [0.0, 0.404014999999999, 0.404014999999999], "properties": {"magmom": 0.0}, "label": "Cd", "xyz": [6.411819861779985, 0.0, 0.0]}, {"species": [{"element": "Cd", "occu": 1}], "abc": [0.0, 0.595985, 0.595985], "properties": {"magmom": 0.0}, "label": "Cd", "xyz": [9.458432138220001, 0.0, 0.0]}, {"species": [{"element": "Cd", "occu": 1}], "abc": [0.913339, 0.821799, 0.908458999999999], "properties": {"magmom": -0.0}, "label": "Cd", "xyz": [6.482355196793991, 7.967515032476993, 6.644749080557007]}, {"species": [{"element": "Cd", "occu": 1}], "abc": [0.086661, 0.178201, 0.091541], "properties": {"magmom": -0.0}, "label": "Cd", "xyz": [1.452770803206, 7.967523000029786e-06, 1.3931339194430001]}, {"species": [{"element": "Cd", "occu": 1}], "abc": [0.086661, 0.9951200000000001, 0.908458999999999], "properties": {"magmom": -0.0}, "label": "Cd", "xyz": [14.417473261667993, -8.881784197001252e-15, 1.3931419573260087]}, {"species": [{"element": "Cd", "occu": 1}], "abc": [0.913339, 0.004880000000000001, 0.091541], "properties": {"magmom": -0.0}, "label": "Cd", "xyz": [-6.482347261668001, 7.967523, 6.644741042674001]}]}, "task_ids": null, "uncorrected_energy_per_atom": null, "energy_per_atom": -1.265518475, "formation_energy_per_atom": -0.156138329285712, "energy_above_hull": 0.0, "is_stable": true, "equilibrium_reaction_energy_per_atom": null, "decomposes_to": null, "xas": null, "grain_boundaries": null, "band_gap": 0.0, "cbm": null, "vbm": null, "efermi": 2.50149234, "is_gap_direct": null, "is_metal": null, "es_source_calc_id": null, "bandstructure": null, "dos": null, "dos_energy_up": null, "dos_energy_down": null, "is_magnetic": null, "ordering": null, "total_magnetization": 0.055042499999999, "total_magnetization_normalized_vol": null, "total_magnetization_normalized_formula_units": null, "num_magnetic_sites": null, "num_unique_magnetic_sites": null, "types_of_magnetic_species": null, "bulk_modulus": null, "shear_modulus": null, "universal_anisotropy": null, "homogeneous_poisson": null, "e_total": null, "e_ionic": null, "e_electronic": null, "n": null, "e_ij_max": null, "weighted_surface_energy_EV_PER_ANG2": null, "weighted_surface_energy": null, "weighted_work_function": null, "surface_anisotropy": null, "shape_factor": null, "has_reconstructed": null, "possible_species": null, "has_props": null, "theoretical": null, "database_IDs": null, "fields_not_requested": ["builder_meta", "nsites", "elements", "nelements", "composition", "composition_reduced", "chemsys", "symmetry", "property_name", "deprecated", "deprecation_reasons", "last_updated", "origins", "warnings", "task_ids", "uncorrected_energy_per_atom", "equilibrium_reaction_energy_per_atom", "decomposes_to", "xas", "grain_boundaries", "cbm", "vbm", "is_gap_direct", "is_metal", "es_source_calc_id", "bandstructure", "dos", "dos_energy_up", "dos_energy_down", "is_magnetic", "ordering", "total_magnetization_normalized_vol", "total_magnetization_normalized_formula_units", "num_magnetic_sites", "num_unique_magnetic_sites", "types_of_magnetic_species", "bulk_modulus", "shear_modulus", "universal_anisotropy", "homogeneous_poisson", "e_total", "e_ionic", "e_electronic", "n", "e_ij_max", "weighted_surface_energy_EV_PER_ANG2", "weighted_surface_energy", "weighted_work_function", "surface_anisotropy", "shape_factor", "has_reconstructed", "possible_species", "has_props", "theoretical", "database_IDs"]}