{"builder_meta": null, "nsites": null, "elements": null, "nelements": null, "composition": null, "composition_reduced": null, "formula_pretty": "CaCl2", "formula_anonymous": "AB2", "chemsys": null, "volume": 334.93513326709825, "density": 2.200942803101726, "density_atomic": 27.91126110559152, "symmetry": null, "property_name": null, "material_id": "mp-571642", "deprecated": null, "deprecation_reasons": null, "last_updated": null, "origins": null, "warnings": null, "structure": {"@module": "pymatgen.core.structure", "@class": "Structure", "charge": 0, "lattice": {"matrix": [[6.30453286, -0.0, 0.0], [0.0, 6.93646833, 0.0], [0.0, 0.0, 7.65895266]], "pbc": [true, true, true], "a": 6.30453286, "b": 6.93646833, "c": 7.65895266, "alpha": 90.0, "beta": 90.0, "gamma": 90.0, "volume": 334.93513326709825}, "properties": {}, "sites": [{"species": [{"element": "Ca", "occu": 1}], "abc": [-0.0, 0.25, 0.15325308], "properties": {"magmom": -0.0}, "label": "Ca", "xyz": [0.0, 1.7341170825, 1.1737580847191929]}, {"species": [{"element": "Ca", "occu": 1}], "abc": [0.5, 0.25, 0.65325308], "properties": {"magmom": -0.0}, "label": "Ca", "xyz": [3.15226643, 1.7341170825, 5.003234414719193]}, {"species": [{"element": "Ca", "occu": 1}], "abc": [-0.0, 0.75, 0.8467469200000001], "properties": {"magmom": -0.0}, "label": "Ca", "xyz": [0.0, 5.2023512475, 6.485194575280808]}, {"species": [{"element": "Ca", "occu": 1}], "abc": [0.5, 0.75, 0.34674692], "properties": {"magmom": -0.0}, "label": "Ca", "xyz": [3.15226643, 5.2023512475, 2.655718245280807]}, {"species": [{"element": "Cl", "occu": 1}], "abc": [0.23700371, 0.42160536, 0.89134791], "properties": {"magmom": -0.0}, "label": "Cl", "xyz": [1.4941976776369106, 2.9244522273982487, 6.82679144627994]}, {"species": [{"element": "Cl", "occu": 1}], "abc": [0.73700371, 0.57839464, 0.60865209], "properties": {"magmom": -0.0}, "label": "Cl", "xyz": [4.646464107636911, 4.012016102601751, 4.661637543720059]}, {"species": [{"element": "Cl", "occu": 1}], "abc": [0.76299629, 0.57839464, 0.10865209], "properties": {"magmom": -0.0}, "label": "Cl", "xyz": [4.810335182363089, 4.012016102601751, 0.8321612137200595]}, {"species": [{"element": "Cl", "occu": 1}], "abc": [0.23700371, 0.92160536, 0.10865209], "properties": {"magmom": -0.0}, "label": "Cl", "xyz": [1.4941976776369106, 6.392686392398249, 0.8321612137200595]}, {"species": [{"element": "Cl", "occu": 1}], "abc": [0.73700371, 0.07839464, 0.39134791], "properties": {"magmom": -0.0}, "label": "Cl", "xyz": [4.646464107636911, 0.5437819376017512, 2.9973151162799407]}, {"species": [{"element": "Cl", "occu": 1}], "abc": [0.26299629, 0.42160536, 0.39134791], "properties": {"magmom": -0.0}, "label": "Cl", "xyz": [1.6580687523630895, 2.9244522273982487, 2.9973151162799407]}, {"species": [{"element": "Cl", "occu": 1}], "abc": [0.26299629, 0.92160536, 0.60865209], "properties": {"magmom": -0.0}, "label": "Cl", "xyz": [1.6580687523630895, 6.392686392398249, 4.661637543720059]}, {"species": [{"element": "Cl", "occu": 1}], "abc": [0.76299629, 0.07839464, 0.89134791], "properties": {"magmom": -0.0}, "label": "Cl", "xyz": [4.810335182363089, 0.5437819376017512, 6.82679144627994]}]}, "task_ids": null, "uncorrected_energy_per_atom": null, "energy_per_atom": -9.095024900833334, "formation_energy_per_atom": -2.647301069166667, "energy_above_hull": 0.0, "is_stable": true, "equilibrium_reaction_energy_per_atom": null, "decomposes_to": null, "xas": null, "grain_boundaries": null, "band_gap": 5.5987, "cbm": null, "vbm": null, "efermi": -0.48880543, "is_gap_direct": null, "is_metal": null, "es_source_calc_id": null, "bandstructure": null, "dos": null, "dos_energy_up": null, "dos_energy_down": null, "is_magnetic": null, "ordering": null, "total_magnetization": 0.0, "total_magnetization_normalized_vol": null, "total_magnetization_normalized_formula_units": null, "num_magnetic_sites": null, "num_unique_magnetic_sites": null, "types_of_magnetic_species": null, "bulk_modulus": null, "shear_modulus": null, "universal_anisotropy": null, "homogeneous_poisson": null, "e_total": null, "e_ionic": null, "e_electronic": null, "n": null, "e_ij_max": null, "weighted_surface_energy_EV_PER_ANG2": null, "weighted_surface_energy": null, "weighted_work_function": null, "surface_anisotropy": null, "shape_factor": null, "has_reconstructed": null, "possible_species": null, "has_props": null, "theoretical": null, "database_IDs": null, "fields_not_requested": ["builder_meta", "nsites", "elements", "nelements", "composition", "composition_reduced", "chemsys", "symmetry", "property_name", "deprecated", "deprecation_reasons", "last_updated", "origins", "warnings", "task_ids", "uncorrected_energy_per_atom", "equilibrium_reaction_energy_per_atom", "decomposes_to", "xas", "grain_boundaries", "cbm", "vbm", "is_gap_direct", "is_metal", "es_source_calc_id", "bandstructure", "dos", "dos_energy_up", "dos_energy_down", "is_magnetic", "ordering", "total_magnetization_normalized_vol", "total_magnetization_normalized_formula_units", "num_magnetic_sites", "num_unique_magnetic_sites", "types_of_magnetic_species", "bulk_modulus", "shear_modulus", "universal_anisotropy", "homogeneous_poisson", "e_total", "e_ionic", "e_electronic", "n", "e_ij_max", "weighted_surface_energy_EV_PER_ANG2", "weighted_surface_energy", "weighted_work_function", "surface_anisotropy", "shape_factor", "has_reconstructed", "possible_species", "has_props", "theoretical", "database_IDs"]}