{
  "builder_meta": null,
  "nsites": null,
  "elements": null,
  "nelements": null,
  "composition": null,
  "composition_reduced": null,
  "formula_pretty": "CaCu",
  "formula_anonymous": "AB",
  "chemsys": null,
  "volume": 944.7755794041051,
  "density": 3.642594156506216,
  "density_atomic": 23.619389485102626,
  "symmetry": null,
  "property_name": null,
  "material_id": "mp-585949",
  "deprecated": null,
  "deprecation_reasons": null,
  "last_updated": null,
  "origins": null,
  "warnings": null,
  "structure": {
    "@module": "pymatgen.core.structure",
    "@class": "Structure",
    "charge": 0,
    "lattice": {
      "matrix": [
        [4.19616705, 0.0, 0.0],
        [0.0, 5.7572645300000005, 0.0],
        [0.0, 0.0, 39.10746861]
      ],
      "pbc": [true, true, true],
      "a": 4.19616705,
      "b": 5.7572645300000005,
      "c": 39.10746861,
      "alpha": 90.0,
      "beta": 90.0,
      "gamma": 90.0,
      "volume": 944.7755794041053
    },
    "properties": {},
    "sites": [
      {
        "species": [{ "element": "Ca", "occu": 1 }],
        "abc": [0.75, 0.37709212000000003, 0.53572371],
        "properties": { "magmom": 0.0 },
        "label": "Ca",
        "xyz": [3.1471252874999998, 2.1710190870185038, 20.95079817245774]
      },
      {
        "species": [{ "element": "Ca", "occu": 1 }],
        "abc": [0.25, 0.37259523, 0.76425125],
        "properties": { "magmom": 0.0 },
        "label": "Ca",
        "xyz": [1.0490417625, 2.145129301726192, 29.88793176952826]
      },
      {
        "species": [{ "element": "Ca", "occu": 1 }],
        "abc": [0.25, 0.62290788, 0.46427629000000004],
        "properties": { "magmom": 0.0 },
        "label": "Ca",
        "xyz": [1.0490417625, 3.5862454429814967, 18.156670437542257]
      },
      {
        "species": [{ "element": "Ca", "occu": 1 }],
        "abc": [0.75, 0.3733491, 0.13590275000000002],
        "properties": { "magmom": -0.0 },
        "label": "Ca",
        "xyz": [3.1471252874999998, 2.149469530737423, 5.314812529637678]
      },
      {
        "species": [{ "element": "Ca", "occu": 1 }],
        "abc": [0.25, 0.6266509, 0.86409725],
        "properties": { "magmom": -0.0 },
        "label": "Ca",
        "xyz": [1.0490417625, 3.6077949992625773, 33.79265608036232]
      },
      {
        "species": [{ "element": "Ca", "occu": 1 }],
        "abc": [0.25, 0.12740477, 0.26425125],
        "properties": { "magmom": 0.0 },
        "label": "Ca",
        "xyz": [1.0490417625, 0.7335029632738082, 10.33419746452826]
      },
      {
        "species": [{ "element": "Ca", "occu": 1 }],
        "abc": [0.75, 0.126650899999999, 0.63590275],
        "properties": { "magmom": -0.0 },
        "label": "Ca",
        "xyz": [3.1471252874999998, 0.7291627342625714, 24.868546834637673]
      },
      {
        "species": [{ "element": "Ca", "occu": 1 }],
        "abc": [0.25, 0.87709212, 0.96427629],
        "properties": { "magmom": 0.0 },
        "label": "Ca",
        "xyz": [1.0490417625, 5.049651352018504, 37.71040474254226]
      },
      {
        "species": [{ "element": "Ca", "occu": 1 }],
        "abc": [0.25, 0.62331971, 0.66380645],
        "properties": { "magmom": -0.0 },
        "label": "Ca",
        "xyz": [1.0490417625, 3.5886164572328862, 25.959789906490535]
      },
      {
        "species": [{ "element": "Ca", "occu": 1 }],
        "abc": [0.75, 0.6274047700000001, 0.23574875],
        "properties": { "magmom": 0.0 },
        "label": "Ca",
        "xyz": [3.1471252874999998, 3.6121352282738086, 9.219536840471738]
      },
      {
        "species": [{ "element": "Ca", "occu": 1 }],
        "abc": [0.25, 0.8733491, 0.36409725],
        "properties": { "magmom": -0.0 },
        "label": "Ca",
        "xyz": [1.0490417625, 5.028101795737423, 14.238921775362321]
      },
      {
        "species": [{ "element": "Ca", "occu": 1 }],
        "abc": [0.75, 0.87259523, 0.7357487500000001],
        "properties": { "magmom": 0.0 },
        "label": "Ca",
        "xyz": [3.1471252874999998, 5.023761566726193, 28.77327114547174]
      },
      {
        "species": [{ "element": "Ca", "occu": 1 }],
        "abc": [0.75, 0.37805493, 0.93595575],
        "properties": { "magmom": -0.0 },
        "label": "Ca",
        "xyz": [3.1471252874999998, 2.176562238880633, 36.602860113474]
      },
      {
        "species": [{ "element": "Ca", "occu": 1 }],
        "abc": [0.25, 0.87668029, 0.16380645],
        "properties": { "magmom": -0.0 },
        "label": "Ca",
        "xyz": [1.0490417625, 5.0472803377671145, 6.406055601490534]
      },
      {
        "species": [{ "element": "Ca", "occu": 1 }],
        "abc": [0.75, 0.12194507, 0.43595575000000003],
        "properties": { "magmom": -0.0 },
        "label": "Ca",
        "xyz": [3.1471252874999998, 0.7020700261193672, 17.049125808474006]
      },
      {
        "species": [{ "element": "Ca", "occu": 1 }],
        "abc": [0.75, 0.12331971, 0.8361935500000001],
        "properties": { "magmom": -0.0 },
        "label": "Ca",
        "xyz": [3.1471252874999998, 0.7099841922328863, 32.70141300850947]
      },
      {
        "species": [{ "element": "Ca", "occu": 1 }],
        "abc": [0.25, 0.62194507, 0.06404425],
        "properties": { "magmom": -0.0 },
        "label": "Ca",
        "xyz": [1.0490417625, 3.5807022911193673, 2.504608496525992]
      },
      {
        "species": [{ "element": "Ca", "occu": 1 }],
        "abc": [0.75, 0.12290788, 0.03572371],
        "properties": { "magmom": 0.0 },
        "label": "Ca",
        "xyz": [3.1471252874999998, 0.7076131779814965, 1.397063867457743]
      },
      {
        "species": [{ "element": "Ca", "occu": 1 }],
        "abc": [0.75, 0.37668029000000003, 0.33619355],
        "properties": { "magmom": -0.0 },
        "label": "Ca",
        "xyz": [3.1471252874999998, 2.1686480727671142, 13.147678703509465]
      },
      {
        "species": [{ "element": "Ca", "occu": 1 }],
        "abc": [0.25, 0.87805493, 0.56404425],
        "properties": { "magmom": -0.0 },
        "label": "Ca",
        "xyz": [1.0490417625, 5.055194503880633, 22.058342801525992]
      },
      {
        "species": [{ "element": "Cu", "occu": 1 }],
        "abc": [0.25, 0.399943899999999, 0.5942702400000001],
        "properties": { "magmom": 0.0 },
        "label": "Cu",
        "xyz": [1.0490417625, 2.3025828294598614, 23.240404756657167]
      },
      {
        "species": [{ "element": "Cu", "occu": 1 }],
        "abc": [0.25, 0.85047735, 0.79454156],
        "properties": { "magmom": 0.0 },
        "label": "Cu",
        "xyz": [1.0490417625, 4.896423080723396, 31.07250911704043]
      },
      {
        "species": [{ "element": "Cu", "occu": 1 }],
        "abc": [0.25, 0.64952265, 0.29454156],
        "properties": { "magmom": 0.0 },
        "label": "Cu",
        "xyz": [1.0490417625, 3.739473714276605, 11.51877481204043]
      },
      {
        "species": [{ "element": "Cu", "occu": 1 }],
        "abc": [0.75, 0.85093228, 0.30561954],
        "properties": { "magmom": 0.0 },
        "label": "Cu",
        "xyz": [3.1471252874999998, 4.899042233076028, 11.95200656715264]
      },
      {
        "species": [{ "element": "Cu", "occu": 1 }],
        "abc": [0.75, 0.89840493, 0.10532134],
        "properties": { "magmom": -0.0 },
        "label": "Cu",
        "xyz": [3.1471252874999998, 5.172354837066133, 4.118850998013137]
      },
      {
        "species": [{ "element": "Cu", "occu": 1 }],
        "abc": [0.75, 0.35047735, 0.70545844],
        "properties": { "magmom": 0.0 },
        "label": "Cu",
        "xyz": [3.1471252874999998, 2.0177908157233957, 27.588693797959568]
      },
      {
        "species": [{ "element": "Cu", "occu": 1 }],
        "abc": [0.25, 0.10159507, 0.8946786600000001],
        "properties": { "magmom": -0.0 },
        "label": "Cu",
        "xyz": [1.0490417625, 0.5849096929338671, 34.98861761198686]
      },
      {
        "species": [{ "element": "Cu", "occu": 1 }],
        "abc": [0.75, 0.6000561, 0.40572976],
        "properties": { "magmom": 0.0 },
        "label": "Cu",
        "xyz": [3.1471252874999998, 3.4546817005401333, 15.867063853342833]
      },
      {
        "species": [{ "element": "Cu", "occu": 1 }],
        "abc": [0.75, 0.899943899999999, 0.90572976],
        "properties": { "magmom": 0.0 },
        "label": "Cu",
        "xyz": [3.1471252874999998, 5.181215094459862, 35.42079815834283]
      },
      {
        "species": [{ "element": "Cu", "occu": 1 }],
        "abc": [0.75, 0.60159507, 0.60532134],
        "properties": { "magmom": -0.0 },
        "label": "Cu",
        "xyz": [3.1471252874999998, 3.4635419579338675, 23.672585303013136]
      },
      {
        "species": [{ "element": "Cu", "occu": 1 }],
        "abc": [0.75, 0.59973706, 0.00588438],
        "properties": { "magmom": -0.0 },
        "label": "Cu",
        "xyz": [3.1471252874999998, 3.4528449028644825, 0.23012320613931178]
      },
      {
        "species": [{ "element": "Cu", "occu": 1 }],
        "abc": [0.25, 0.1000561, 0.09427024],
        "properties": { "magmom": 0.0 },
        "label": "Cu",
        "xyz": [1.0490417625, 0.576049435540133, 3.6866704516571662]
      },
      {
        "species": [{ "element": "Cu", "occu": 1 }],
        "abc": [0.75, 0.64906772, 0.80561954],
        "properties": { "magmom": 0.0 },
        "label": "Cu",
        "xyz": [3.1471252874999998, 3.736854561923972, 31.50574087215264]
      },
      {
        "species": [{ "element": "Cu", "occu": 1 }],
        "abc": [0.25, 0.09973706, 0.49411562000000003],
        "properties": { "magmom": -0.0 },
        "label": "Cu",
        "xyz": [1.0490417625, 0.5742126378644818, 19.323611098860688]
      },
      {
        "species": [{ "element": "Cu", "occu": 1 }],
        "abc": [0.75, 0.9002629400000001, 0.50588438],
        "properties": { "magmom": -0.0 },
        "label": "Cu",
        "xyz": [3.1471252874999998, 5.183051892135519, 19.783857511139313]
      },
      {
        "species": [{ "element": "Cu", "occu": 1 }],
        "abc": [0.25, 0.39840493, 0.39467866],
        "properties": { "magmom": -0.0 },
        "label": "Cu",
        "xyz": [1.0490417625, 2.293722572066133, 15.434883306986862]
      },
      {
        "species": [{ "element": "Cu", "occu": 1 }],
        "abc": [0.25, 0.40026294, 0.99411562],
        "properties": { "magmom": -0.0 },
        "label": "Cu",
        "xyz": [1.0490417625, 2.3044196271355184, 38.87734540386069]
      },
      {
        "species": [{ "element": "Cu", "occu": 1 }],
        "abc": [0.25, 0.14906772000000001, 0.69438046],
        "properties": { "magmom": 0.0 },
        "label": "Cu",
        "xyz": [1.0490417625, 0.8582222969239718, 27.155462042847358]
      },
      {
        "species": [{ "element": "Cu", "occu": 1 }],
        "abc": [0.25, 0.35093228, 0.19438046],
        "properties": { "magmom": 0.0 },
        "label": "Cu",
        "xyz": [1.0490417625, 2.0204099680760286, 7.6017277378473604]
      },
      {
        "species": [{ "element": "Cu", "occu": 1 }],
        "abc": [0.75, 0.14952265, 0.20545844],
        "properties": { "magmom": 0.0 },
        "label": "Cu",
        "xyz": [3.1471252874999998, 0.8608414492766047, 8.034959492959567]
      }
    ]
  },
  "task_ids": null,
  "uncorrected_energy_per_atom": null,
  "energy_per_atom": -9.049454432000001,
  "formation_energy_per_atom": -0.106909582000001,
  "energy_above_hull": 0.0,
  "is_stable": true,
  "equilibrium_reaction_energy_per_atom": null,
  "decomposes_to": null,
  "xas": null,
  "grain_boundaries": null,
  "band_gap": 0.0,
  "cbm": null,
  "vbm": null,
  "efermi": 3.57283646,
  "is_gap_direct": null,
  "is_metal": null,
  "es_source_calc_id": null,
  "bandstructure": null,
  "dos": null,
  "dos_energy_up": null,
  "dos_energy_down": null,
  "is_magnetic": null,
  "ordering": null,
  "total_magnetization": 2.1e-6,
  "total_magnetization_normalized_vol": null,
  "total_magnetization_normalized_formula_units": null,
  "num_magnetic_sites": null,
  "num_unique_magnetic_sites": null,
  "types_of_magnetic_species": null,
  "bulk_modulus": null,
  "shear_modulus": null,
  "universal_anisotropy": null,
  "homogeneous_poisson": null,
  "e_total": null,
  "e_ionic": null,
  "e_electronic": null,
  "n": null,
  "e_ij_max": null,
  "weighted_surface_energy_EV_PER_ANG2": null,
  "weighted_surface_energy": null,
  "weighted_work_function": null,
  "surface_anisotropy": null,
  "shape_factor": null,
  "has_reconstructed": null,
  "possible_species": null,
  "has_props": null,
  "theoretical": null,
  "database_IDs": null,
  "fields_not_requested": [
    "builder_meta",
    "nsites",
    "elements",
    "nelements",
    "composition",
    "composition_reduced",
    "chemsys",
    "symmetry",
    "property_name",
    "deprecated",
    "deprecation_reasons",
    "last_updated",
    "origins",
    "warnings",
    "task_ids",
    "uncorrected_energy_per_atom",
    "equilibrium_reaction_energy_per_atom",
    "decomposes_to",
    "xas",
    "grain_boundaries",
    "cbm",
    "vbm",
    "is_gap_direct",
    "is_metal",
    "es_source_calc_id",
    "bandstructure",
    "dos",
    "dos_energy_up",
    "dos_energy_down",
    "is_magnetic",
    "ordering",
    "total_magnetization_normalized_vol",
    "total_magnetization_normalized_formula_units",
    "num_magnetic_sites",
    "num_unique_magnetic_sites",
    "types_of_magnetic_species",
    "bulk_modulus",
    "shear_modulus",
    "universal_anisotropy",
    "homogeneous_poisson",
    "e_total",
    "e_ionic",
    "e_electronic",
    "n",
    "e_ij_max",
    "weighted_surface_energy_EV_PER_ANG2",
    "weighted_surface_energy",
    "weighted_work_function",
    "surface_anisotropy",
    "shape_factor",
    "has_reconstructed",
    "possible_species",
    "has_props",
    "theoretical",
    "database_IDs"
  ]
}
