{"builder_meta": null, "nsites": null, "elements": null, "nelements": null, "composition": null, "composition_reduced": null, "formula_pretty": "CaF", "formula_anonymous": "AB", "chemsys": null, "volume": 87.1110950461353, "density": 2.252265922632674, "density_atomic": 21.777773761533826, "symmetry": null, "property_name": null, "material_id": "mp-1183545", "deprecated": null, "deprecation_reasons": null, "last_updated": null, "origins": null, "warnings": null, "structure": {"@module": "pymatgen.core.structure", "@class": "Structure", "charge": 0, "lattice": {"matrix": [[1.97661, -3.423588999999999, 0.0], [1.97661, 3.423588999999999, 0.0], [0.0, 0.0, 6.436368]], "pbc": [true, true, true], "a": 3.9532200461169613, "b": 3.9532200461169613, "c": 6.436368, "alpha": 90.0, "beta": 90.0, "gamma": 120.00000077179453, "volume": 87.11109504613528}, "properties": {}, "sites": [{"species": [{"element": "Ca", "occu": 1}], "abc": [0.666667, 0.333333, 0.499876999999999], "properties": {"magmom": 0.105}, "label": "Ca", "xyz": [1.97661, -1.141198615726, 3.2173923267359936]}, {"species": [{"element": "Ca", "occu": 1}], "abc": [0.333333, 0.666667, 0.9998769999999991], "properties": {"magmom": 0.112}, "label": "Ca", "xyz": [1.97661, 1.141198615726, 6.435576326735994]}, {"species": [{"element": "F", "occu": 1}], "abc": [0.666667, 0.333333, 0.875123], "properties": {"magmom": 0.048}, "label": "F", "xyz": [1.97661, -1.141198615726, 5.632613673264]}, {"species": [{"element": "F", "occu": 1}], "abc": [0.333333, 0.666667, 0.375123], "properties": {"magmom": 0.05}, "label": "F", "xyz": [1.97661, 1.141198615726, 2.414429673264]}]}, "task_ids": null, "uncorrected_energy_per_atom": null, "energy_per_atom": -7.8833983375, "formation_energy_per_atom": -2.8012375125, "energy_above_hull": 0.365453347499999, "is_stable": false, "equilibrium_reaction_energy_per_atom": null, "decomposes_to": null, "xas": null, "grain_boundaries": null, "band_gap": 0.0, "cbm": null, "vbm": null, "efermi": 3.5657060400000002, "is_gap_direct": null, "is_metal": null, "es_source_calc_id": null, "bandstructure": null, "dos": null, "dos_energy_up": null, "dos_energy_down": null, "is_magnetic": null, "ordering": null, "total_magnetization": 1.1897429, "total_magnetization_normalized_vol": null, "total_magnetization_normalized_formula_units": null, "num_magnetic_sites": null, "num_unique_magnetic_sites": null, "types_of_magnetic_species": null, "bulk_modulus": null, "shear_modulus": null, "universal_anisotropy": null, "homogeneous_poisson": null, "e_total": null, "e_ionic": null, "e_electronic": null, "n": null, "e_ij_max": null, "weighted_surface_energy_EV_PER_ANG2": null, "weighted_surface_energy": null, "weighted_work_function": null, "surface_anisotropy": null, "shape_factor": null, "has_reconstructed": null, "possible_species": null, "has_props": null, "theoretical": null, "database_IDs": null, "fields_not_requested": ["builder_meta", "nsites", "elements", "nelements", "composition", "composition_reduced", "chemsys", "symmetry", "property_name", "deprecated", "deprecation_reasons", "last_updated", "origins", "warnings", "task_ids", "uncorrected_energy_per_atom", "equilibrium_reaction_energy_per_atom", "decomposes_to", "xas", "grain_boundaries", "cbm", "vbm", "is_gap_direct", "is_metal", "es_source_calc_id", "bandstructure", "dos", "dos_energy_up", "dos_energy_down", "is_magnetic", "ordering", "total_magnetization_normalized_vol", "total_magnetization_normalized_formula_units", "num_magnetic_sites", "num_unique_magnetic_sites", "types_of_magnetic_species", "bulk_modulus", "shear_modulus", "universal_anisotropy", "homogeneous_poisson", "e_total", "e_ionic", "e_electronic", "n", "e_ij_max", "weighted_surface_energy_EV_PER_ANG2", "weighted_surface_energy", "weighted_work_function", "surface_anisotropy", "shape_factor", "has_reconstructed", "possible_species", "has_props", "theoretical", "database_IDs"]}