{
  "builder_meta": null,
  "nsites": null,
  "elements": null,
  "nelements": null,
  "composition": null,
  "composition_reduced": null,
  "formula_pretty": "CaGa",
  "formula_anonymous": "AB",
  "chemsys": null,
  "volume": 104.2185665162991,
  "density": 3.498970598933186,
  "density_atomic": 26.054641629074776,
  "symmetry": null,
  "property_name": null,
  "material_id": "mp-6914",
  "deprecated": null,
  "deprecation_reasons": null,
  "last_updated": null,
  "origins": null,
  "warnings": null,
  "structure": {
    "@module": "pymatgen.core.structure",
    "@class": "Structure",
    "charge": 0,
    "lattice": {
      "matrix": [
        [3.99023222, 0.0, -1.4616100300000001],
        [0.0, 4.32819242, -0.0],
        [-0.04619516, -0.0, 6.05140826]
      ],
      "pbc": [true, true, true],
      "a": 4.249500800014365,
      "b": 4.32819242,
      "c": 6.051584579430717,
      "alpha": 90.0,
      "beta": 110.5550054532403,
      "gamma": 90.0,
      "volume": 104.2185665162991
    },
    "properties": {},
    "sites": [
      {
        "species": [{ "element": "Ca", "occu": 1 }],
        "abc": [0.64433963, 0.25, 0.28867825],
        "properties": { "magmom": 0.0 },
        "label": "Ca",
        "xyz": [2.557729214301609, 1.082048105, 0.8051366805978559]
      },
      {
        "species": [{ "element": "Ca", "occu": 1 }],
        "abc": [0.35566037, 0.75, 0.71132175],
        "properties": { "magmom": 0.0 },
        "label": "Ca",
        "xyz": [1.3863078456983915, 3.2461443149999996, 3.784661549402143]
      },
      {
        "species": [{ "element": "Ga", "occu": 1 }],
        "abc": [0.9350045300000001, 0.25, 0.8700110600000001],
        "properties": { "magmom": -0.0 },
        "label": "Ga",
        "xyz": [3.6906949013334875, 1.082048105, 3.898180115631919]
      },
      {
        "species": [{ "element": "Ga", "occu": 1 }],
        "abc": [0.06499547, 0.75, 0.12998894],
        "properties": { "magmom": -0.0 },
        "label": "Ga",
        "xyz": [0.25334215866651305, 3.2461443149999996, 0.6916181143680802]
      }
    ]
  },
  "task_ids": null,
  "uncorrected_energy_per_atom": null,
  "energy_per_atom": -9.7700286625,
  "formation_energy_per_atom": -0.5294938375,
  "energy_above_hull": 0.0,
  "is_stable": true,
  "equilibrium_reaction_energy_per_atom": null,
  "decomposes_to": null,
  "xas": null,
  "grain_boundaries": null,
  "band_gap": 0.0,
  "cbm": null,
  "vbm": null,
  "efermi": 2.85631431,
  "is_gap_direct": null,
  "is_metal": null,
  "es_source_calc_id": null,
  "bandstructure": null,
  "dos": null,
  "dos_energy_up": null,
  "dos_energy_down": null,
  "is_magnetic": null,
  "ordering": null,
  "total_magnetization": 6e-7,
  "total_magnetization_normalized_vol": null,
  "total_magnetization_normalized_formula_units": null,
  "num_magnetic_sites": null,
  "num_unique_magnetic_sites": null,
  "types_of_magnetic_species": null,
  "bulk_modulus": null,
  "shear_modulus": null,
  "universal_anisotropy": null,
  "homogeneous_poisson": null,
  "e_total": null,
  "e_ionic": null,
  "e_electronic": null,
  "n": null,
  "e_ij_max": null,
  "weighted_surface_energy_EV_PER_ANG2": null,
  "weighted_surface_energy": null,
  "weighted_work_function": null,
  "surface_anisotropy": null,
  "shape_factor": null,
  "has_reconstructed": null,
  "possible_species": null,
  "has_props": null,
  "theoretical": null,
  "database_IDs": null,
  "fields_not_requested": [
    "builder_meta",
    "nsites",
    "elements",
    "nelements",
    "composition",
    "composition_reduced",
    "chemsys",
    "symmetry",
    "property_name",
    "deprecated",
    "deprecation_reasons",
    "last_updated",
    "origins",
    "warnings",
    "task_ids",
    "uncorrected_energy_per_atom",
    "equilibrium_reaction_energy_per_atom",
    "decomposes_to",
    "xas",
    "grain_boundaries",
    "cbm",
    "vbm",
    "is_gap_direct",
    "is_metal",
    "es_source_calc_id",
    "bandstructure",
    "dos",
    "dos_energy_up",
    "dos_energy_down",
    "is_magnetic",
    "ordering",
    "total_magnetization_normalized_vol",
    "total_magnetization_normalized_formula_units",
    "num_magnetic_sites",
    "num_unique_magnetic_sites",
    "types_of_magnetic_species",
    "bulk_modulus",
    "shear_modulus",
    "universal_anisotropy",
    "homogeneous_poisson",
    "e_total",
    "e_ionic",
    "e_electronic",
    "n",
    "e_ij_max",
    "weighted_surface_energy_EV_PER_ANG2",
    "weighted_surface_energy",
    "weighted_work_function",
    "surface_anisotropy",
    "shape_factor",
    "has_reconstructed",
    "possible_species",
    "has_props",
    "theoretical",
    "database_IDs"
  ]
}
