{"builder_meta": null, "nsites": null, "elements": null, "nelements": null, "composition": null, "composition_reduced": null, "formula_pretty": "CaGe3", "formula_anonymous": "AB3", "chemsys": null, "volume": 342.0491574961312, "density": 5.009990508273799, "density_atomic": 21.3780723435082, "symmetry": null, "property_name": null, "material_id": "mp-1205360", "deprecated": null, "deprecation_reasons": null, "last_updated": null, "origins": null, "warnings": null, "structure": {"@module": "pymatgen.core.structure", "@class": "Structure", "charge": 0, "lattice": {"matrix": [[-3.861468, 3.861468, 5.734871], [3.861468, -3.861468, 5.734871], [3.861468, 3.861468, -5.734871]], "pbc": [true, true, true], "a": 7.919003448457956, "b": 7.919003448457956, "c": 7.919003448457956, "alpha": 121.63139983906936, "beta": 121.63139983906936, "gamma": 87.19682032143491, "volume": 342.0491574961312}, "properties": {}, "sites": [{"species": [{"element": "Ca", "occu": 1}], "abc": [0.833824, 0.833824, 0.0], "properties": {"magmom": 0.0}, "label": "Ca", "xyz": [0.0, 0.0, 9.563746153408001]}, {"species": [{"element": "Ca", "occu": 1}], "abc": [0.166176, 0.166176, 0.0], "properties": {"magmom": 0.0}, "label": "Ca", "xyz": [0.0, 0.0, 1.905995846592]}, {"species": [{"element": "Ca", "occu": 1}], "abc": [0.25, 0.75, 0.5], "properties": {"magmom": 0.0}, "label": "Ca", "xyz": [3.8614679999999995, 2.220446049250313e-16, 2.8674355]}, {"species": [{"element": "Ca", "occu": 1}], "abc": [0.75, 0.25, 0.5], "properties": {"magmom": 0.0}, "label": "Ca", "xyz": [2.220446049250313e-16, 3.8614679999999995, 2.8674355]}, {"species": [{"element": "Ge", "occu": 1}], "abc": [0.330957, 0.0, 0.330957], "properties": {"magmom": 0.0}, "label": "Ge", "xyz": [0.0, 2.555959729752, 0.0]}, {"species": [{"element": "Ge", "occu": 1}], "abc": [0.669042999999999, 0.0, 0.669042999999999], "properties": {"magmom": 0.0}, "label": "Ge", "xyz": [0.0, 5.166976270247993, 0.0]}, {"species": [{"element": "Ge", "occu": 1}], "abc": [0.0, 0.669042999999999, 0.669042999999999], "properties": {"magmom": 0.0}, "label": "Ge", "xyz": [5.166976270247993, 0.0, 0.0]}, {"species": [{"element": "Ge", "occu": 1}], "abc": [0.0, 0.330957, 0.330957], "properties": {"magmom": 0.0}, "label": "Ge", "xyz": [2.555959729752, 0.0, 0.0]}, {"species": [{"element": "Ge", "occu": 1}], "abc": [0.200433, 0.200433, 0.634554], "properties": {"magmom": 0.0}, "label": "Ge", "xyz": [2.450309965272, 2.450309965272, -1.3401705342479997]}, {"species": [{"element": "Ge", "occu": 1}], "abc": [0.565879, 0.565879, 0.365446], "properties": {"magmom": 0.0}, "label": "Ge", "xyz": [1.411158034728, 1.411158034728, 4.394700465752]}, {"species": [{"element": "Ge", "occu": 1}], "abc": [0.200433, 0.565879, 0.0], "properties": {"magmom": 0.0}, "label": "Ge", "xyz": [1.4111580347280002, -1.4111580347280002, 4.394700465752]}, {"species": [{"element": "Ge", "occu": 1}], "abc": [0.565879, 0.200433, 0.0], "properties": {"magmom": 0.0}, "label": "Ge", "xyz": [-1.4111580347280002, 1.4111580347280002, 4.394700465752]}, {"species": [{"element": "Ge", "occu": 1}], "abc": [0.799566999999999, 0.799566999999999, 0.365446], "properties": {"magmom": 0.0}, "label": "Ge", "xyz": [1.411158034728, 1.411158034728, 7.075041534247989]}, {"species": [{"element": "Ge", "occu": 1}], "abc": [0.434121, 0.434121, 0.634554], "properties": {"magmom": 0.0}, "label": "Ge", "xyz": [2.450309965272, 2.450309965272, 1.3401705342480006]}, {"species": [{"element": "Ge", "occu": 1}], "abc": [0.799566999999999, 0.434121, 0.0], "properties": {"magmom": 0.0}, "label": "Ge", "xyz": [-1.4111580347279962, 1.4111580347279962, 7.075041534247994]}, {"species": [{"element": "Ge", "occu": 1}], "abc": [0.434121, 0.799566999999999, 0.0], "properties": {"magmom": 0.0}, "label": "Ge", "xyz": [1.4111580347279962, -1.4111580347279962, 7.075041534247994]}]}, "task_ids": null, "uncorrected_energy_per_atom": null, "energy_per_atom": -12.489151507499999, "formation_energy_per_atom": -0.32559489750000004, "energy_above_hull": 0.090985402500001, "is_stable": false, "equilibrium_reaction_energy_per_atom": null, "decomposes_to": null, "xas": null, "grain_boundaries": null, "band_gap": 0.0, "cbm": null, "vbm": null, "efermi": 5.43927817, "is_gap_direct": null, "is_metal": null, "es_source_calc_id": null, "bandstructure": null, "dos": null, "dos_energy_up": null, "dos_energy_down": null, "is_magnetic": null, "ordering": null, "total_magnetization": 0.008456, "total_magnetization_normalized_vol": null, "total_magnetization_normalized_formula_units": null, "num_magnetic_sites": null, "num_unique_magnetic_sites": null, "types_of_magnetic_species": null, "bulk_modulus": null, "shear_modulus": null, "universal_anisotropy": null, "homogeneous_poisson": null, "e_total": null, "e_ionic": null, "e_electronic": null, "n": null, "e_ij_max": null, "weighted_surface_energy_EV_PER_ANG2": null, "weighted_surface_energy": null, "weighted_work_function": null, "surface_anisotropy": null, "shape_factor": null, "has_reconstructed": null, "possible_species": null, "has_props": null, "theoretical": null, "database_IDs": null, "fields_not_requested": ["builder_meta", "nsites", "elements", "nelements", "composition", "composition_reduced", "chemsys", "symmetry", "property_name", "deprecated", "deprecation_reasons", "last_updated", "origins", "warnings", "task_ids", "uncorrected_energy_per_atom", "equilibrium_reaction_energy_per_atom", "decomposes_to", "xas", "grain_boundaries", "cbm", "vbm", "is_gap_direct", "is_metal", "es_source_calc_id", "bandstructure", "dos", "dos_energy_up", "dos_energy_down", "is_magnetic", "ordering", "total_magnetization_normalized_vol", "total_magnetization_normalized_formula_units", "num_magnetic_sites", "num_unique_magnetic_sites", "types_of_magnetic_species", "bulk_modulus", "shear_modulus", "universal_anisotropy", "homogeneous_poisson", "e_total", "e_ionic", "e_electronic", "n", "e_ij_max", "weighted_surface_energy_EV_PER_ANG2", "weighted_surface_energy", "weighted_work_function", "surface_anisotropy", "shape_factor", "has_reconstructed", "possible_species", "has_props", "theoretical", "database_IDs"]}