{
  "builder_meta": null,
  "nsites": null,
  "elements": null,
  "nelements": null,
  "composition": null,
  "composition_reduced": null,
  "formula_pretty": "CaH2",
  "formula_anonymous": "AB2",
  "chemsys": null,
  "volume": 142.59598879737652,
  "density": 1.960743294233768,
  "density_atomic": 11.882999066448043,
  "symmetry": null,
  "property_name": null,
  "material_id": "mp-23713",
  "deprecated": null,
  "deprecation_reasons": null,
  "last_updated": null,
  "origins": null,
  "warnings": null,
  "structure": {
    "@module": "pymatgen.core.structure",
    "@class": "Structure",
    "charge": 0,
    "lattice": {
      "matrix": [
        [3.56828652, -0.0, 0.0],
        [-0.0, 5.89884487, 0.0],
        [0.0, 0.0, 6.77455253]
      ],
      "pbc": [true, true, true],
      "a": 3.56828652,
      "b": 5.89884487,
      "c": 6.77455253,
      "alpha": 90.0,
      "beta": 90.0,
      "gamma": 90.0,
      "volume": 142.59598879737652
    },
    "properties": {},
    "sites": [
      {
        "species": [{ "element": "Ca", "occu": 1 }],
        "abc": [0.25, 0.73948903, 0.3892179],
        "properties": { "magmom": 0.0 },
        "label": "Ca",
        "xyz": [0.89207163, 4.362131071036775, 2.636777109166287]
      },
      {
        "species": [{ "element": "Ca", "occu": 1 }],
        "abc": [0.75, 0.26051097, 0.6107821],
        "properties": { "magmom": 0.0 },
        "label": "Ca",
        "xyz": [2.67621489, 1.5367137989632238, 4.137775420833713]
      },
      {
        "species": [{ "element": "Ca", "occu": 1 }],
        "abc": [0.25, 0.23948903, 0.1107821],
        "properties": { "magmom": 0.0 },
        "label": "Ca",
        "xyz": [0.89207163, 1.412708636036776, 0.750499155833713]
      },
      {
        "species": [{ "element": "Ca", "occu": 1 }],
        "abc": [0.75, 0.76051097, 0.8892179],
        "properties": { "magmom": 0.0 },
        "label": "Ca",
        "xyz": [2.67621489, 4.486136233963224, 6.024053374166288]
      },
      {
        "species": [{ "element": "H", "occu": 1 }],
        "abc": [0.25, 0.47414221, 0.82285509],
        "properties": { "magmom": 0.0 },
        "label": "H",
        "xyz": [0.89207163, 2.7968913431089626, 5.574475031782878]
      },
      {
        "species": [{ "element": "H", "occu": 1 }],
        "abc": [0.75, 0.52585779, 0.17714491000000002],
        "properties": { "magmom": 0.0 },
        "label": "H",
        "xyz": [2.67621489, 3.101953526891037, 1.2000774982171225]
      },
      {
        "species": [{ "element": "H", "occu": 1 }],
        "abc": [0.25, 0.97414221, 0.67714491],
        "properties": { "magmom": 0.0 },
        "label": "H",
        "xyz": [0.89207163, 5.746313778108962, 4.587353763217123]
      },
      {
        "species": [{ "element": "H", "occu": 1 }],
        "abc": [0.75, 0.025857790000000002, 0.32285509],
        "properties": { "magmom": 0.0 },
        "label": "H",
        "xyz": [2.67621489, 0.1525310918910373, 2.187198766782878]
      },
      {
        "species": [{ "element": "H", "occu": 1 }],
        "abc": [0.75, 0.64452886, 0.57248197],
        "properties": { "magmom": -0.0 },
        "label": "H",
        "xyz": [2.67621489, 3.8019757593779477, 3.8783091782428842]
      },
      {
        "species": [{ "element": "H", "occu": 1 }],
        "abc": [0.25, 0.35547114, 0.42751803],
        "properties": { "magmom": -0.0 },
        "label": "H",
        "xyz": [0.89207163, 2.096869110622052, 2.896243351757116]
      },
      {
        "species": [{ "element": "H", "occu": 1 }],
        "abc": [0.75, 0.14452886, 0.92751803],
        "properties": { "magmom": -0.0 },
        "label": "H",
        "xyz": [2.67621489, 0.8525533243779482, 6.283519616757116]
      },
      {
        "species": [{ "element": "H", "occu": 1 }],
        "abc": [0.25, 0.85547114, 0.07248197],
        "properties": { "magmom": -0.0 },
        "label": "H",
        "xyz": [0.89207163, 5.046291545622052, 0.4910329132428842]
      }
    ]
  },
  "task_ids": null,
  "uncorrected_energy_per_atom": null,
  "energy_per_atom": -5.3163877125,
  "formation_energy_per_atom": -0.6668815449999991,
  "energy_above_hull": 0.0,
  "is_stable": true,
  "equilibrium_reaction_energy_per_atom": null,
  "decomposes_to": null,
  "xas": null,
  "grain_boundaries": null,
  "band_gap": 3.0275,
  "cbm": null,
  "vbm": null,
  "efermi": 0.891683799999999,
  "is_gap_direct": null,
  "is_metal": null,
  "es_source_calc_id": null,
  "bandstructure": null,
  "dos": null,
  "dos_energy_up": null,
  "dos_energy_down": null,
  "is_magnetic": null,
  "ordering": null,
  "total_magnetization": 0.0,
  "total_magnetization_normalized_vol": null,
  "total_magnetization_normalized_formula_units": null,
  "num_magnetic_sites": null,
  "num_unique_magnetic_sites": null,
  "types_of_magnetic_species": null,
  "bulk_modulus": null,
  "shear_modulus": null,
  "universal_anisotropy": null,
  "homogeneous_poisson": null,
  "e_total": null,
  "e_ionic": null,
  "e_electronic": null,
  "n": null,
  "e_ij_max": null,
  "weighted_surface_energy_EV_PER_ANG2": null,
  "weighted_surface_energy": null,
  "weighted_work_function": null,
  "surface_anisotropy": null,
  "shape_factor": null,
  "has_reconstructed": null,
  "possible_species": null,
  "has_props": null,
  "theoretical": null,
  "database_IDs": null,
  "fields_not_requested": [
    "builder_meta",
    "nsites",
    "elements",
    "nelements",
    "composition",
    "composition_reduced",
    "chemsys",
    "symmetry",
    "property_name",
    "deprecated",
    "deprecation_reasons",
    "last_updated",
    "origins",
    "warnings",
    "task_ids",
    "uncorrected_energy_per_atom",
    "equilibrium_reaction_energy_per_atom",
    "decomposes_to",
    "xas",
    "grain_boundaries",
    "cbm",
    "vbm",
    "is_gap_direct",
    "is_metal",
    "es_source_calc_id",
    "bandstructure",
    "dos",
    "dos_energy_up",
    "dos_energy_down",
    "is_magnetic",
    "ordering",
    "total_magnetization_normalized_vol",
    "total_magnetization_normalized_formula_units",
    "num_magnetic_sites",
    "num_unique_magnetic_sites",
    "types_of_magnetic_species",
    "bulk_modulus",
    "shear_modulus",
    "universal_anisotropy",
    "homogeneous_poisson",
    "e_total",
    "e_ionic",
    "e_electronic",
    "n",
    "e_ij_max",
    "weighted_surface_energy_EV_PER_ANG2",
    "weighted_surface_energy",
    "weighted_work_function",
    "surface_anisotropy",
    "shape_factor",
    "has_reconstructed",
    "possible_species",
    "has_props",
    "theoretical",
    "database_IDs"
  ]
}
