{"builder_meta": null, "nsites": null, "elements": null, "nelements": null, "composition": null, "composition_reduced": null, "formula_pretty": "CaHg3", "formula_anonymous": "AB3", "chemsys": null, "volume": 198.10915628621274, "density": 10.759862883664718, "density_atomic": 24.763644535776592, "symmetry": null, "property_name": null, "material_id": "mp-863648", "deprecated": null, "deprecation_reasons": null, "last_updated": null, "origins": null, "warnings": null, "structure": {"@module": "pymatgen.core.structure", "@class": "Structure", "charge": 0, "lattice": {"matrix": [[6.70850527, -5e-08, 0.0], [-3.35425473, 5.80973574, 0.0], [0.0, -0.0, 5.08302688]], "pbc": [true, true, true], "a": 6.70850527, "b": 6.7085061051146635, "c": 5.08302688, "alpha": 90.0, "beta": 90.0, "gamma": 120.0000169700244, "volume": 198.10915628621274}, "properties": {}, "sites": [{"species": [{"element": "Ca", "occu": 1}], "abc": [0.333333999999999, 0.666667, 0.749999], "properties": {"magmom": -0.0}, "label": "Ca", "xyz": [1.957585263223649e-06, 3.87315907991188, 3.81226507697312]}, {"species": [{"element": "Ca", "occu": 1}], "abc": [0.666667, 0.333333999999999, 0.25], "properties": {"magmom": -0.0}, "label": "Ca", "xyz": [3.354251936665273, 1.9365824198238042, 1.27075672]}, {"species": [{"element": "Hg", "occu": 1}], "abc": [0.16244287000000002, 0.32488473, 0.25], "properties": {"magmom": -0.0}, "label": "Hg", "xyz": [2.707161651960277e-06, 1.8874944191391068, 1.27075672]}, {"species": [{"element": "Hg", "occu": 1}], "abc": [0.67511527, 0.83755813, 0.25], "properties": {"magmom": -0.0}, "label": "Hg", "xyz": [1.719631027450018, 4.865991368432803, 1.27075672]}, {"species": [{"element": "Hg", "occu": 1}], "abc": [0.16244387, 0.83755813, 0.25], "properties": {"magmom": -0.0}, "label": "Hg", "xyz": [-1.7196277612282602, 4.865991394066373, 1.27075672]}, {"species": [{"element": "Hg", "occu": 1}], "abc": [0.83755813, 0.67511627, 0.749999], "properties": {"magmom": -0.0}, "label": "Hg", "xyz": [3.3542511870888876, 3.922247080596583, 3.81226507697312]}, {"species": [{"element": "Hg", "occu": 1}], "abc": [0.32488373, 0.16244187000000002, 0.749999], "properties": {"magmom": -0.0}, "label": "Hg", "xyz": [1.6346128040447117, 0.9437443215672473, 3.81226507697312]}, {"species": [{"element": "Hg", "occu": 1}], "abc": [0.8375561300000001, 0.16244187000000002, 0.749999], "properties": {"magmom": -0.0}, "label": "Hg", "xyz": [5.073878301228261, 0.9437442959336274, 3.81226507697312]}]}, "task_ids": null, "uncorrected_energy_per_atom": null, "energy_per_atom": -39.20812791375, "formation_energy_per_atom": -0.42269959687499803, "energy_above_hull": 0.0, "is_stable": true, "equilibrium_reaction_energy_per_atom": null, "decomposes_to": null, "xas": null, "grain_boundaries": null, "band_gap": 0.0, "cbm": null, "vbm": null, "efermi": 2.92191507, "is_gap_direct": null, "is_metal": null, "es_source_calc_id": null, "bandstructure": null, "dos": null, "dos_energy_up": null, "dos_energy_down": null, "is_magnetic": null, "ordering": null, "total_magnetization": 0.0, "total_magnetization_normalized_vol": null, "total_magnetization_normalized_formula_units": null, "num_magnetic_sites": null, "num_unique_magnetic_sites": null, "types_of_magnetic_species": null, "bulk_modulus": null, "shear_modulus": null, "universal_anisotropy": null, "homogeneous_poisson": null, "e_total": null, "e_ionic": null, "e_electronic": null, "n": null, "e_ij_max": null, "weighted_surface_energy_EV_PER_ANG2": null, "weighted_surface_energy": null, "weighted_work_function": null, "surface_anisotropy": null, "shape_factor": null, "has_reconstructed": null, "possible_species": null, "has_props": null, "theoretical": null, "database_IDs": null, "fields_not_requested": ["builder_meta", "nsites", "elements", "nelements", "composition", "composition_reduced", "chemsys", "symmetry", "property_name", "deprecated", "deprecation_reasons", "last_updated", "origins", "warnings", "task_ids", "uncorrected_energy_per_atom", "equilibrium_reaction_energy_per_atom", "decomposes_to", "xas", "grain_boundaries", "cbm", "vbm", "is_gap_direct", "is_metal", "es_source_calc_id", "bandstructure", "dos", "dos_energy_up", "dos_energy_down", "is_magnetic", "ordering", "total_magnetization_normalized_vol", "total_magnetization_normalized_formula_units", "num_magnetic_sites", "num_unique_magnetic_sites", "types_of_magnetic_species", "bulk_modulus", "shear_modulus", "universal_anisotropy", "homogeneous_poisson", "e_total", "e_ionic", "e_electronic", "n", "e_ij_max", "weighted_surface_energy_EV_PER_ANG2", "weighted_surface_energy", "weighted_work_function", "surface_anisotropy", "shape_factor", "has_reconstructed", "possible_species", "has_props", "theoretical", "database_IDs"]}