{
  "builder_meta": null,
  "nsites": null,
  "elements": null,
  "nelements": null,
  "composition": null,
  "composition_reduced": null,
  "formula_pretty": "CaIn",
  "formula_anonymous": "AB",
  "chemsys": null,
  "volume": 227.5011500612536,
  "density": 4.522365872714416,
  "density_atomic": 28.4376437576567,
  "symmetry": null,
  "property_name": null,
  "material_id": "mp-21187",
  "deprecated": null,
  "deprecation_reasons": null,
  "last_updated": null,
  "origins": null,
  "warnings": null,
  "structure": {
    "@module": "pymatgen.core.structure",
    "@class": "Structure",
    "charge": 0,
    "lattice": {
      "matrix": [
        [6.14481526, -0.016474370000000002, -2.64395831],
        [-3.47690025, 5.54042543, -1.4015651],
        [-0.01033834, 0.016474390000000002, 6.68948173]
      ],
      "pbc": [true, true, true],
      "a": 6.689509812341545,
      "b": 6.689509251311247,
      "c": 6.689510004686713,
      "alpha": 101.92745523234115,
      "beta": 113.36976153776224,
      "gamma": 113.36975823753887,
      "volume": 227.5011500612536
    },
    "properties": {},
    "sites": [
      {
        "species": [{ "element": "Ca", "occu": 1 }],
        "abc": [0.5, 0.75, 0.25],
        "properties": { "magmom": 0.0 },
        "label": "Ca",
        "xyz": [0.4621478574999999, 4.151200485, -0.7007825475]
      },
      {
        "species": [{ "element": "Ca", "occu": 1 }],
        "abc": [0.5, 0.25, 0.75],
        "properties": { "magmom": 0.0 },
        "label": "Ca",
        "xyz": [2.1954288125, 1.389224965, 3.3447408674999997]
      },
      {
        "species": [{ "element": "Ca", "occu": 1 }],
        "abc": [0.0, 0.70679669, 0.70679669],
        "properties": { "magmom": 0.0 },
        "label": "Ca",
        "xyz": [-2.464768692652267, 3.9275983994375956, 3.737481971079955]
      },
      {
        "species": [{ "element": "Ca", "occu": 1 }],
        "abc": [-0.0, 0.29320331, 0.29320331],
        "properties": { "magmom": 0.0 },
        "label": "Ca",
        "xyz": [-1.0224698973477329, 1.6293014205624041, 1.550434658920045]
      },
      {
        "species": [{ "element": "In", "occu": 1 }],
        "abc": [0.5664672, 0.7832346, 0.7832346],
        "properties": { "magmom": -0.0 },
        "label": "In",
        "xyz": [0.7495103727062576, 4.343024017512108, 2.6439636057489664]
      },
      {
        "species": [{ "element": "In", "occu": 1 }],
        "abc": [-0.0, 0.7832346, 0.2167654],
        "properties": { "magmom": -0.0 },
        "label": "In",
        "xyz": [-2.7254695709540857, 4.343023973233984, 0.352293902523682]
      },
      {
        "species": [{ "element": "In", "occu": 1 }],
        "abc": [0.0, 0.2167654, 0.7832346],
        "properties": { "magmom": -0.0 },
        "label": "In",
        "xyz": [-0.761769019045914, 1.213875846766016, 4.935622727476318]
      },
      {
        "species": [{ "element": "In", "occu": 1 }],
        "abc": [0.4335328, 0.2167654, 0.2167654],
        "properties": { "magmom": -0.0 },
        "label": "In",
        "xyz": [1.9080662972937417, 1.1974014324878919, -5.285748965855319e-6]
      }
    ]
  },
  "task_ids": null,
  "uncorrected_energy_per_atom": null,
  "energy_per_atom": -15.39153125875,
  "formation_energy_per_atom": -0.5830892187499981,
  "energy_above_hull": 0.0,
  "is_stable": true,
  "equilibrium_reaction_energy_per_atom": null,
  "decomposes_to": null,
  "xas": null,
  "grain_boundaries": null,
  "band_gap": 0.0,
  "cbm": null,
  "vbm": null,
  "efermi": 5.0220322,
  "is_gap_direct": null,
  "is_metal": null,
  "es_source_calc_id": null,
  "bandstructure": null,
  "dos": null,
  "dos_energy_up": null,
  "dos_energy_down": null,
  "is_magnetic": null,
  "ordering": null,
  "total_magnetization": 8e-7,
  "total_magnetization_normalized_vol": null,
  "total_magnetization_normalized_formula_units": null,
  "num_magnetic_sites": null,
  "num_unique_magnetic_sites": null,
  "types_of_magnetic_species": null,
  "bulk_modulus": null,
  "shear_modulus": null,
  "universal_anisotropy": null,
  "homogeneous_poisson": null,
  "e_total": null,
  "e_ionic": null,
  "e_electronic": null,
  "n": null,
  "e_ij_max": null,
  "weighted_surface_energy_EV_PER_ANG2": null,
  "weighted_surface_energy": null,
  "weighted_work_function": null,
  "surface_anisotropy": null,
  "shape_factor": null,
  "has_reconstructed": null,
  "possible_species": null,
  "has_props": null,
  "theoretical": null,
  "database_IDs": null,
  "fields_not_requested": [
    "builder_meta",
    "nsites",
    "elements",
    "nelements",
    "composition",
    "composition_reduced",
    "chemsys",
    "symmetry",
    "property_name",
    "deprecated",
    "deprecation_reasons",
    "last_updated",
    "origins",
    "warnings",
    "task_ids",
    "uncorrected_energy_per_atom",
    "equilibrium_reaction_energy_per_atom",
    "decomposes_to",
    "xas",
    "grain_boundaries",
    "cbm",
    "vbm",
    "is_gap_direct",
    "is_metal",
    "es_source_calc_id",
    "bandstructure",
    "dos",
    "dos_energy_up",
    "dos_energy_down",
    "is_magnetic",
    "ordering",
    "total_magnetization_normalized_vol",
    "total_magnetization_normalized_formula_units",
    "num_magnetic_sites",
    "num_unique_magnetic_sites",
    "types_of_magnetic_species",
    "bulk_modulus",
    "shear_modulus",
    "universal_anisotropy",
    "homogeneous_poisson",
    "e_total",
    "e_ionic",
    "e_electronic",
    "n",
    "e_ij_max",
    "weighted_surface_energy_EV_PER_ANG2",
    "weighted_surface_energy",
    "weighted_work_function",
    "surface_anisotropy",
    "shape_factor",
    "has_reconstructed",
    "possible_species",
    "has_props",
    "theoretical",
    "database_IDs"
  ]
}
