{"builder_meta": null, "nsites": null, "elements": null, "nelements": null, "composition": null, "composition_reduced": null, "formula_pretty": "CaIn2", "formula_anonymous": "AB2", "chemsys": null, "volume": 162.64728146067998, "density": 5.507262461281594, "density_atomic": 27.10788024344666, "symmetry": null, "property_name": null, "material_id": "mp-21068", "deprecated": null, "deprecation_reasons": null, "last_updated": null, "origins": null, "warnings": null, "structure": {"@module": "pymatgen.core.structure", "@class": "Structure", "charge": 0, "lattice": {"matrix": [[4.9033504, 1e-08, -0.0], [-2.45167469, 4.24642583, 0.0], [-0.0, 0.0, 7.81142623]], "pbc": [true, true, true], "a": 4.9033504, "b": 4.903349989066432, "c": 7.81142623, "alpha": 90.0, "beta": 90.0, "gamma": 119.9999957741722, "volume": 162.64728146067998}, "properties": {}, "sites": [{"species": [{"element": "Ca", "occu": 1}], "abc": [0.0, -0.0, 0.75], "properties": {"magmom": -0.0}, "label": "Ca", "xyz": [0.0, 0.0, 5.8585696725]}, {"species": [{"element": "Ca", "occu": 1}], "abc": [0.0, 0.0, 0.25], "properties": {"magmom": -0.0}, "label": "Ca", "xyz": [0.0, 0.0, 1.9528565575]}, {"species": [{"element": "In", "occu": 1}], "abc": [0.333333, 0.666667, 0.950512799999999], "properties": {"magmom": 0.0}, "label": "In", "xyz": [-2.1116750299476905e-06, 2.83095197214194, 7.424860617870737]}, {"species": [{"element": "In", "occu": 1}], "abc": [0.666667, 0.333333, 0.4505128], "properties": {"magmom": 0.0}, "label": "In", "xyz": [2.45167782167503, 1.41547386785806, 3.519147502870744]}, {"species": [{"element": "In", "occu": 1}], "abc": [0.333333, 0.666667, 0.5494872], "properties": {"magmom": 0.0}, "label": "In", "xyz": [-2.1116750299476905e-06, 2.83095197214194, 4.292278727129256]}, {"species": [{"element": "In", "occu": 1}], "abc": [0.666667, 0.333333, 0.049487199999999], "properties": {"magmom": 0.0}, "label": "In", "xyz": [2.45167782167503, 1.41547386785806, 0.3865656121292482]}]}, "task_ids": null, "uncorrected_energy_per_atom": null, "energy_per_atom": -17.987873943333334, "formation_energy_per_atom": -0.589382456666667, "energy_above_hull": 0.0, "is_stable": true, "equilibrium_reaction_energy_per_atom": null, "decomposes_to": null, "xas": null, "grain_boundaries": null, "band_gap": 0.0, "cbm": null, "vbm": null, "efermi": 6.22278818, "is_gap_direct": null, "is_metal": null, "es_source_calc_id": null, "bandstructure": null, "dos": null, "dos_energy_up": null, "dos_energy_down": null, "is_magnetic": null, "ordering": null, "total_magnetization": 0.0, "total_magnetization_normalized_vol": null, "total_magnetization_normalized_formula_units": null, "num_magnetic_sites": null, "num_unique_magnetic_sites": null, "types_of_magnetic_species": null, "bulk_modulus": null, "shear_modulus": null, "universal_anisotropy": null, "homogeneous_poisson": null, "e_total": null, "e_ionic": null, "e_electronic": null, "n": null, "e_ij_max": null, "weighted_surface_energy_EV_PER_ANG2": null, "weighted_surface_energy": null, "weighted_work_function": null, "surface_anisotropy": null, "shape_factor": null, "has_reconstructed": null, "possible_species": null, "has_props": null, "theoretical": null, "database_IDs": null, "fields_not_requested": ["builder_meta", "nsites", "elements", "nelements", "composition", "composition_reduced", "chemsys", "symmetry", "property_name", "deprecated", "deprecation_reasons", "last_updated", "origins", "warnings", "task_ids", "uncorrected_energy_per_atom", "equilibrium_reaction_energy_per_atom", "decomposes_to", "xas", "grain_boundaries", "cbm", "vbm", "is_gap_direct", "is_metal", "es_source_calc_id", "bandstructure", "dos", "dos_energy_up", "dos_energy_down", "is_magnetic", "ordering", "total_magnetization_normalized_vol", "total_magnetization_normalized_formula_units", "num_magnetic_sites", "num_unique_magnetic_sites", "types_of_magnetic_species", "bulk_modulus", "shear_modulus", "universal_anisotropy", "homogeneous_poisson", "e_total", "e_ionic", "e_electronic", "n", "e_ij_max", "weighted_surface_energy_EV_PER_ANG2", "weighted_surface_energy", "weighted_work_function", "surface_anisotropy", "shape_factor", "has_reconstructed", "possible_species", "has_props", "theoretical", "database_IDs"]}