{"builder_meta": null, "nsites": null, "elements": null, "nelements": null, "composition": null, "composition_reduced": null, "formula_pretty": "CaIr2", "formula_anonymous": "AB2", "chemsys": null, "volume": 107.26405060504938, "density": 13.143616267784608, "density_atomic": 17.87734176750823, "symmetry": null, "property_name": null, "material_id": "mp-570436", "deprecated": null, "deprecation_reasons": null, "last_updated": null, "origins": null, "warnings": null, "structure": {"@module": "pymatgen.core.structure", "@class": "Structure", "charge": 0, "lattice": {"matrix": [[4.6187068799999995, 1.02e-06, 2.6666133], [1.539570659999999, 4.35455807, 2.66661329], [2.029999999999998e-06, 1.02e-06, 5.33322454]], "pbc": [true, true, true], "a": 5.33322414071425, "b": 5.333224188100439, "c": 5.333224540000484, "alpha": 59.99996756316179, "beta": 59.9999629374367, "gamma": 59.99996159192152, "volume": 107.26405060504935}, "properties": {}, "sites": [{"species": [{"element": "Ca", "occu": 1}], "abc": [0.375, 0.375, 0.375], "properties": {"magmom": -0.0}, "label": "Ca", "xyz": [2.309354838749999, 1.63296004125, 3.99991917375]}, {"species": [{"element": "Ca", "occu": 1}], "abc": [0.625, 0.625, 0.625], "properties": {"magmom": -0.0}, "label": "Ca", "xyz": [3.848924731249999, 2.72160006875, 6.666531956249999]}, {"species": [{"element": "Ir", "occu": 1}], "abc": [0.0, 0.5, 0.0], "properties": {"magmom": 0.0}, "label": "Ir", "xyz": [0.7697853299999995, 2.177279035, 1.333306645]}, {"species": [{"element": "Ir", "occu": 1}], "abc": [0.5, 0.0, 0.0], "properties": {"magmom": 0.0}, "label": "Ir", "xyz": [2.3093534399999998, 5.1e-07, 1.33330665]}, {"species": [{"element": "Ir", "occu": 1}], "abc": [0.0, 0.0, 0.0], "properties": {"magmom": 0.0}, "label": "Ir", "xyz": [0.0, 0.0, 0.0]}, {"species": [{"element": "Ir", "occu": 1}], "abc": [0.0, 0.0, 0.5], "properties": {"magmom": 0.0}, "label": "Ir", "xyz": [1.014999999999999e-06, 5.1e-07, 2.66661227]}]}, "task_ids": null, "uncorrected_energy_per_atom": null, "energy_per_atom": -37.78700447333333, "formation_energy_per_atom": -0.534670940000002, "energy_above_hull": 0.0, "is_stable": true, "equilibrium_reaction_energy_per_atom": null, "decomposes_to": null, "xas": null, "grain_boundaries": null, "band_gap": 0.0, "cbm": null, "vbm": null, "efermi": 6.24984761, "is_gap_direct": null, "is_metal": null, "es_source_calc_id": null, "bandstructure": null, "dos": null, "dos_energy_up": null, "dos_energy_down": null, "is_magnetic": null, "ordering": null, "total_magnetization": 0.0010681, "total_magnetization_normalized_vol": null, "total_magnetization_normalized_formula_units": null, "num_magnetic_sites": null, "num_unique_magnetic_sites": null, "types_of_magnetic_species": null, "bulk_modulus": null, "shear_modulus": null, "universal_anisotropy": null, "homogeneous_poisson": null, "e_total": null, "e_ionic": null, "e_electronic": null, "n": null, "e_ij_max": null, "weighted_surface_energy_EV_PER_ANG2": null, "weighted_surface_energy": null, "weighted_work_function": null, "surface_anisotropy": null, "shape_factor": null, "has_reconstructed": null, "possible_species": null, "has_props": null, "theoretical": null, "database_IDs": null, "fields_not_requested": ["builder_meta", "nsites", "elements", "nelements", "composition", "composition_reduced", "chemsys", "symmetry", "property_name", "deprecated", "deprecation_reasons", "last_updated", "origins", "warnings", "task_ids", "uncorrected_energy_per_atom", "equilibrium_reaction_energy_per_atom", "decomposes_to", "xas", "grain_boundaries", "cbm", "vbm", "is_gap_direct", "is_metal", "es_source_calc_id", "bandstructure", "dos", "dos_energy_up", "dos_energy_down", "is_magnetic", "ordering", "total_magnetization_normalized_vol", "total_magnetization_normalized_formula_units", "num_magnetic_sites", "num_unique_magnetic_sites", "types_of_magnetic_species", "bulk_modulus", "shear_modulus", "universal_anisotropy", "homogeneous_poisson", "e_total", "e_ionic", "e_electronic", "n", "e_ij_max", "weighted_surface_energy_EV_PER_ANG2", "weighted_surface_energy", "weighted_work_function", "surface_anisotropy", "shape_factor", "has_reconstructed", "possible_species", "has_props", "theoretical", "database_IDs"]}