{
  "builder_meta": null,
  "nsites": null,
  "elements": null,
  "nelements": null,
  "composition": null,
  "composition_reduced": null,
  "formula_pretty": "CaMg3",
  "formula_anonymous": "AB3",
  "chemsys": null,
  "volume": 213.58799745782974,
  "density": 1.756927289787234,
  "density_atomic": 26.698499682228718,
  "symmetry": null,
  "property_name": null,
  "material_id": "mp-1039383",
  "deprecated": null,
  "deprecation_reasons": null,
  "last_updated": null,
  "origins": null,
  "warnings": null,
  "structure": {
    "@module": "pymatgen.core.structure",
    "@class": "Structure",
    "charge": 0,
    "lattice": {
      "matrix": [
        [3.40567795, -5.89880738, 0.0],
        [3.40567795, 5.89880738, -0.0],
        [0.0, 0.0, 5.31592758]
      ],
      "pbc": [true, true, true],
      "a": 6.811356018111127,
      "b": 6.811356018111127,
      "c": 5.31592758,
      "alpha": 90.0,
      "beta": 90.0,
      "gamma": 120.00000114722668,
      "volume": 213.58799745782974
    },
    "properties": {},
    "sites": [
      {
        "species": [{ "element": "Ca", "occu": 1 }],
        "abc": [0.333333, 0.666667, 0.25],
        "properties": { "magmom": -0.0 },
        "label": "Ca",
        "xyz": [3.4056779500000003, 1.9662730592049202, 1.328981895]
      },
      {
        "species": [{ "element": "Ca", "occu": 1 }],
        "abc": [0.666667, 0.333333, 0.75],
        "properties": { "magmom": -0.0 },
        "label": "Ca",
        "xyz": [3.4056779500000003, -1.9662730592049202, 3.9869456850000002]
      },
      {
        "species": [{ "element": "Mg", "occu": 1 }],
        "abc": [0.8398734, 0.160126599999999, 0.25],
        "properties": { "magmom": 0.0 },
        "label": "Mg",
        "xyz": [3.4056779499999963, -4.00969544037139, 1.328981895]
      },
      {
        "species": [{ "element": "Mg", "occu": 1 }],
        "abc": [0.8398734, 0.6797458, 0.25],
        "properties": { "magmom": 0.0 },
        "label": "Mg",
        "xyz": [5.175333601836639, -0.9445618686216877, 1.328981895]
      },
      {
        "species": [{ "element": "Mg", "occu": 1 }],
        "abc": [0.3202542, 0.160126599999999, 0.25],
        "properties": { "magmom": 0.0 },
        "label": "Mg",
        "xyz": [1.6360222981633565, -0.9445618686216938, 1.328981895]
      },
      {
        "species": [{ "element": "Mg", "occu": 1 }],
        "abc": [0.6797458, 0.8398734, 0.75],
        "properties": { "magmom": 0.0 },
        "label": "Mg",
        "xyz": [5.175333601836639, 0.9445618686216877, 3.9869456850000002]
      },
      {
        "species": [{ "element": "Mg", "occu": 1 }],
        "abc": [0.160126599999999, 0.8398734, 0.75],
        "properties": { "magmom": 0.0 },
        "label": "Mg",
        "xyz": [3.4056779499999963, 4.00969544037139, 3.9869456850000002]
      },
      {
        "species": [{ "element": "Mg", "occu": 1 }],
        "abc": [0.160126599999999, 0.3202542, 0.75],
        "properties": { "magmom": 0.0 },
        "label": "Mg",
        "xyz": [1.6360222981633565, 0.9445618686216938, 3.9869456850000002]
      }
    ]
  },
  "task_ids": null,
  "uncorrected_energy_per_atom": null,
  "energy_per_atom": -1.7555577362500001,
  "formation_energy_per_atom": -0.031305254999999005,
  "energy_above_hull": 0.033201333749999,
  "is_stable": false,
  "equilibrium_reaction_energy_per_atom": null,
  "decomposes_to": null,
  "xas": null,
  "grain_boundaries": null,
  "band_gap": 0.0,
  "cbm": null,
  "vbm": null,
  "efermi": 2.81968852,
  "is_gap_direct": null,
  "is_metal": null,
  "es_source_calc_id": null,
  "bandstructure": null,
  "dos": null,
  "dos_energy_up": null,
  "dos_energy_down": null,
  "is_magnetic": null,
  "ordering": null,
  "total_magnetization": 0.0,
  "total_magnetization_normalized_vol": null,
  "total_magnetization_normalized_formula_units": null,
  "num_magnetic_sites": null,
  "num_unique_magnetic_sites": null,
  "types_of_magnetic_species": null,
  "bulk_modulus": null,
  "shear_modulus": null,
  "universal_anisotropy": null,
  "homogeneous_poisson": null,
  "e_total": null,
  "e_ionic": null,
  "e_electronic": null,
  "n": null,
  "e_ij_max": null,
  "weighted_surface_energy_EV_PER_ANG2": null,
  "weighted_surface_energy": null,
  "weighted_work_function": null,
  "surface_anisotropy": null,
  "shape_factor": null,
  "has_reconstructed": null,
  "possible_species": null,
  "has_props": null,
  "theoretical": null,
  "database_IDs": null,
  "fields_not_requested": [
    "builder_meta",
    "nsites",
    "elements",
    "nelements",
    "composition",
    "composition_reduced",
    "chemsys",
    "symmetry",
    "property_name",
    "deprecated",
    "deprecation_reasons",
    "last_updated",
    "origins",
    "warnings",
    "task_ids",
    "uncorrected_energy_per_atom",
    "equilibrium_reaction_energy_per_atom",
    "decomposes_to",
    "xas",
    "grain_boundaries",
    "cbm",
    "vbm",
    "is_gap_direct",
    "is_metal",
    "es_source_calc_id",
    "bandstructure",
    "dos",
    "dos_energy_up",
    "dos_energy_down",
    "is_magnetic",
    "ordering",
    "total_magnetization_normalized_vol",
    "total_magnetization_normalized_formula_units",
    "num_magnetic_sites",
    "num_unique_magnetic_sites",
    "types_of_magnetic_species",
    "bulk_modulus",
    "shear_modulus",
    "universal_anisotropy",
    "homogeneous_poisson",
    "e_total",
    "e_ionic",
    "e_electronic",
    "n",
    "e_ij_max",
    "weighted_surface_energy_EV_PER_ANG2",
    "weighted_surface_energy",
    "weighted_work_function",
    "surface_anisotropy",
    "shape_factor",
    "has_reconstructed",
    "possible_species",
    "has_props",
    "theoretical",
    "database_IDs"
  ]
}
