{
  "builder_meta": null,
  "nsites": null,
  "elements": null,
  "nelements": null,
  "composition": null,
  "composition_reduced": null,
  "formula_pretty": "CaMg2",
  "formula_anonymous": "AB2",
  "chemsys": null,
  "volume": 337.9028300548457,
  "density": 1.743340104191694,
  "density_atomic": 28.158569171237144,
  "symmetry": null,
  "property_name": null,
  "material_id": "mp-2432",
  "deprecated": null,
  "deprecation_reasons": null,
  "last_updated": null,
  "origins": null,
  "warnings": null,
  "structure": {
    "@module": "pymatgen.core.structure",
    "@class": "Structure",
    "charge": 0,
    "lattice": {
      "matrix": [
        [6.27560629, 1.02e-6, 0.0],
        [-3.13780263, 5.43483451, 0.0],
        [0.0, -0.0, 9.90717363]
      ],
      "pbc": [true, true, true],
      "a": 6.275606290000082,
      "b": 6.275606066024369,
      "c": 9.90717363,
      "alpha": 90.0,
      "beta": 90.0,
      "gamma": 119.99998643879763,
      "volume": 337.9028300548457
    },
    "properties": {},
    "sites": [
      {
        "species": [{ "element": "Ca", "occu": 1 }],
        "abc": [0.333333, 0.666667, 0.43808549],
        "properties": { "magmom": 0.0 },
        "label": "Ca",
        "xyz": [-2.7944696401327462e-6, 3.62322515827783, 4.340189014213629]
      },
      {
        "species": [{ "element": "Ca", "occu": 1 }],
        "abc": [0.666667, 0.333333, 0.93808549],
        "properties": { "magmom": 0.0 },
        "label": "Ca",
        "xyz": [3.13780645446964, 1.8116103717221699, 9.29377582921363]
      },
      {
        "species": [{ "element": "Ca", "occu": 1 }],
        "abc": [0.666667, 0.333333, 0.56191451],
        "properties": { "magmom": 0.0 },
        "label": "Ca",
        "xyz": [3.13780645446964, 1.8116103717221699, 5.566984615786372]
      },
      {
        "species": [{ "element": "Ca", "occu": 1 }],
        "abc": [0.333333, 0.666667, 0.06191451],
        "properties": { "magmom": 0.0 },
        "label": "Ca",
        "xyz": [-2.7944696401327462e-6, 3.62322515827783, 0.6133978007863713]
      },
      {
        "species": [{ "element": "Mg", "occu": 1 }],
        "abc": [0.1680005, 0.335999, 0.75],
        "properties": { "magmom": 0.0 },
        "label": "Mg",
        "xyz": [6.448645774925765e-6, 1.826099131886, 7.4303802225]
      },
      {
        "species": [{ "element": "Mg", "occu": 1 }],
        "abc": [0.8319995, 0.1679995, 0.25],
        "properties": { "magmom": 0.0 },
        "label": "Mg",
        "xyz": [4.69415202253817, 0.913050328902235, 2.4767934075]
      },
      {
        "species": [{ "element": "Mg", "occu": 1 }],
        "abc": [0.335999, 0.1680005, 0.25],
        "properties": { "magmom": 0.0 },
        "label": "Mg",
        "xyz": [1.5814450270923948, 0.913055257816235, 2.4767934075]
      },
      {
        "species": [{ "element": "Mg", "occu": 1 }],
        "abc": [0.664001, 0.8319995, 0.75],
        "properties": { "magmom": 0.0 },
        "label": "Mg",
        "xyz": [1.5563586329076045, 4.521780272183765, 7.4303802225]
      },
      {
        "species": [{ "element": "Mg", "occu": 1 }],
        "abc": [0.0, -0.0, 0.0],
        "properties": { "magmom": 0.0 },
        "label": "Mg",
        "xyz": [0.0, 0.0, 0.0]
      },
      {
        "species": [{ "element": "Mg", "occu": 1 }],
        "abc": [0.0, -0.0, 0.5],
        "properties": { "magmom": 0.0 },
        "label": "Mg",
        "xyz": [0.0, 0.0, 4.953586815]
      },
      {
        "species": [{ "element": "Mg", "occu": 1 }],
        "abc": [0.8319995, 0.664001, 0.25],
        "properties": { "magmom": 0.0 },
        "label": "Mg",
        "xyz": [3.137797211354225, 3.6087363981139995, 2.4767934075]
      },
      {
        "species": [{ "element": "Mg", "occu": 1 }],
        "abc": [0.1680005, 0.832000499999999, 0.75],
        "properties": { "magmom": 0.0 },
        "label": "Mg",
        "xyz": [-1.5563483625381669, 4.521785201097759, 7.4303802225]
      }
    ]
  },
  "task_ids": null,
  "uncorrected_energy_per_atom": null,
  "energy_per_atom": -1.841522088333332,
  "formation_energy_per_atom": -0.086008784999998,
  "energy_above_hull": 0.0,
  "is_stable": true,
  "equilibrium_reaction_energy_per_atom": null,
  "decomposes_to": null,
  "xas": null,
  "grain_boundaries": null,
  "band_gap": 0.0,
  "cbm": null,
  "vbm": null,
  "efermi": 2.6799179200000003,
  "is_gap_direct": null,
  "is_metal": null,
  "es_source_calc_id": null,
  "bandstructure": null,
  "dos": null,
  "dos_energy_up": null,
  "dos_energy_down": null,
  "is_magnetic": null,
  "ordering": null,
  "total_magnetization": 0.0166919,
  "total_magnetization_normalized_vol": null,
  "total_magnetization_normalized_formula_units": null,
  "num_magnetic_sites": null,
  "num_unique_magnetic_sites": null,
  "types_of_magnetic_species": null,
  "bulk_modulus": null,
  "shear_modulus": null,
  "universal_anisotropy": null,
  "homogeneous_poisson": null,
  "e_total": null,
  "e_ionic": null,
  "e_electronic": null,
  "n": null,
  "e_ij_max": null,
  "weighted_surface_energy_EV_PER_ANG2": null,
  "weighted_surface_energy": null,
  "weighted_work_function": null,
  "surface_anisotropy": null,
  "shape_factor": null,
  "has_reconstructed": null,
  "possible_species": null,
  "has_props": null,
  "theoretical": null,
  "database_IDs": null,
  "fields_not_requested": [
    "builder_meta",
    "nsites",
    "elements",
    "nelements",
    "composition",
    "composition_reduced",
    "chemsys",
    "symmetry",
    "property_name",
    "deprecated",
    "deprecation_reasons",
    "last_updated",
    "origins",
    "warnings",
    "task_ids",
    "uncorrected_energy_per_atom",
    "equilibrium_reaction_energy_per_atom",
    "decomposes_to",
    "xas",
    "grain_boundaries",
    "cbm",
    "vbm",
    "is_gap_direct",
    "is_metal",
    "es_source_calc_id",
    "bandstructure",
    "dos",
    "dos_energy_up",
    "dos_energy_down",
    "is_magnetic",
    "ordering",
    "total_magnetization_normalized_vol",
    "total_magnetization_normalized_formula_units",
    "num_magnetic_sites",
    "num_unique_magnetic_sites",
    "types_of_magnetic_species",
    "bulk_modulus",
    "shear_modulus",
    "universal_anisotropy",
    "homogeneous_poisson",
    "e_total",
    "e_ionic",
    "e_electronic",
    "n",
    "e_ij_max",
    "weighted_surface_energy_EV_PER_ANG2",
    "weighted_surface_energy",
    "weighted_work_function",
    "surface_anisotropy",
    "shape_factor",
    "has_reconstructed",
    "possible_species",
    "has_props",
    "theoretical",
    "database_IDs"
  ]
}
