{"builder_meta": null, "nsites": null, "elements": null, "nelements": null, "composition": null, "composition_reduced": null, "formula_pretty": "CaMg7", "formula_anonymous": "AB7", "chemsys": null, "volume": 201.21560133741028, "density": 1.734790426224702, "density_atomic": 25.151950167176285, "symmetry": null, "property_name": null, "material_id": "mp-1016276", "deprecated": null, "deprecation_reasons": null, "last_updated": null, "origins": null, "warnings": null, "structure": {"@module": "pymatgen.core.structure", "@class": "Structure", "charge": 0, "lattice": {"matrix": [[3.323864, -5.757102, 0.0], [3.323864, 5.757102, 0.0], [0.0, 0.0, 5.257563]], "pbc": [true, true, true], "a": 6.647728584178208, "b": 6.647728584178208, "c": 5.257563, "alpha": 90.0, "beta": 90.0, "gamma": 120.00000581385326, "volume": 201.21560133741028}, "properties": {}, "sites": [{"species": [{"element": "Ca", "occu": 1}], "abc": [0.0, 0.0, 0.5], "properties": {"magmom": -0.0}, "label": "Ca", "xyz": [0.0, 0.0, 2.6287815]}, {"species": [{"element": "Mg", "occu": 1}], "abc": [0.004628, 0.502313999999999, 0.5], "properties": {"magmom": -0.0}, "label": "Mg", "xyz": [1.6850062638879968, 2.8652290659719943, 2.6287815]}, {"species": [{"element": "Mg", "occu": 1}], "abc": [0.497685999999999, 0.502313999999999, 0.5], "properties": {"magmom": -0.0}, "label": "Mg", "xyz": [3.3238639999999933, 0.026643868055999942, 2.6287815]}, {"species": [{"element": "Mg", "occu": 1}], "abc": [0.497685999999999, 0.995371999999999, 0.5], "properties": {"magmom": -0.0}, "label": "Mg", "xyz": [4.962721736111994, 2.8652290659719997, 2.6287815]}, {"species": [{"element": "Mg", "occu": 1}], "abc": [0.170198, 0.340396, 0.0], "properties": {"magmom": 0.0}, "label": "Mg", "xyz": [1.6971450152159997, 0.9798472461959998, 0.0]}, {"species": [{"element": "Mg", "occu": 1}], "abc": [0.170198, 0.829801999999999, 0.0], "properties": {"magmom": 0.0}, "label": "Mg", "xyz": [3.323863999999997, 3.7974075076079945, 0.0]}, {"species": [{"element": "Mg", "occu": 1}], "abc": [0.659604, 0.829801999999999, 0.0], "properties": {"magmom": 0.0}, "label": "Mg", "xyz": [4.950582984783996, 0.9798472461959946, 0.0]}, {"species": [{"element": "Mg", "occu": 1}], "abc": [0.666667, 0.333333, 0.0], "properties": {"magmom": 0.0}, "label": "Mg", "xyz": [3.323864, -1.9190378380680002, 0.0]}]}, "task_ids": null, "uncorrected_energy_per_atom": null, "energy_per_atom": -1.63988742625, "formation_energy_per_atom": 0.037473821875, "energy_above_hull": 0.069727116249999, "is_stable": false, "equilibrium_reaction_energy_per_atom": null, "decomposes_to": null, "xas": null, "grain_boundaries": null, "band_gap": 0.0, "cbm": null, "vbm": null, "efermi": 3.08033143, "is_gap_direct": null, "is_metal": null, "es_source_calc_id": null, "bandstructure": null, "dos": null, "dos_energy_up": null, "dos_energy_down": null, "is_magnetic": null, "ordering": null, "total_magnetization": 0.0026872, "total_magnetization_normalized_vol": null, "total_magnetization_normalized_formula_units": null, "num_magnetic_sites": null, "num_unique_magnetic_sites": null, "types_of_magnetic_species": null, "bulk_modulus": null, "shear_modulus": null, "universal_anisotropy": null, "homogeneous_poisson": null, "e_total": null, "e_ionic": null, "e_electronic": null, "n": null, "e_ij_max": null, "weighted_surface_energy_EV_PER_ANG2": null, "weighted_surface_energy": null, "weighted_work_function": null, "surface_anisotropy": null, "shape_factor": null, "has_reconstructed": null, "possible_species": null, "has_props": null, "theoretical": null, "database_IDs": null, "fields_not_requested": ["builder_meta", "nsites", "elements", "nelements", "composition", "composition_reduced", "chemsys", "symmetry", "property_name", "deprecated", "deprecation_reasons", "last_updated", "origins", "warnings", "task_ids", "uncorrected_energy_per_atom", "equilibrium_reaction_energy_per_atom", "decomposes_to", "xas", "grain_boundaries", "cbm", "vbm", "is_gap_direct", "is_metal", "es_source_calc_id", "bandstructure", "dos", "dos_energy_up", "dos_energy_down", "is_magnetic", "ordering", "total_magnetization_normalized_vol", "total_magnetization_normalized_formula_units", "num_magnetic_sites", "num_unique_magnetic_sites", "types_of_magnetic_species", "bulk_modulus", "shear_modulus", "universal_anisotropy", "homogeneous_poisson", "e_total", "e_ionic", "e_electronic", "n", "e_ij_max", "weighted_surface_energy_EV_PER_ANG2", "weighted_surface_energy", "weighted_work_function", "surface_anisotropy", "shape_factor", "has_reconstructed", "possible_species", "has_props", "theoretical", "database_IDs"]}