{
  "builder_meta": null,
  "nsites": null,
  "elements": null,
  "nelements": null,
  "composition": null,
  "composition_reduced": null,
  "formula_pretty": "CaN6",
  "formula_anonymous": "AB6",
  "chemsys": null,
  "volume": 185.2125604371263,
  "density": 2.225584695656075,
  "density_atomic": 13.22946860265188,
  "symmetry": null,
  "property_name": null,
  "material_id": "mp-676",
  "deprecated": null,
  "deprecation_reasons": null,
  "last_updated": null,
  "origins": null,
  "warnings": null,
  "structure": {
    "@module": "pymatgen.core.structure",
    "@class": "Structure",
    "charge": 0,
    "lattice": {
      "matrix": [
        [5.25026965, 0.0, 2.75881167],
        [2.62513533, 5.53881412, 1.37940584],
        [0.00257878, 0.0, 6.37036659]
      ],
      "pbc": [true, true, true],
      "a": 5.930967309658628,
      "b": 6.282718983700583,
      "c": 6.370367111956305,
      "alpha": 77.30713748089576,
      "beta": 62.25663339779232,
      "gamma": 61.83537915962426,
      "volume": 185.21256043712629
    },
    "properties": {},
    "sites": [
      {
        "species": [{ "element": "Ca", "occu": 1 }],
        "abc": [0.625, 0.75, 0.75],
        "properties": { "magmom": 0.0 },
        "label": "Ca",
        "xyz": [5.25220411375, 4.15411059, 7.53658661625]
      },
      {
        "species": [{ "element": "Ca", "occu": 1 }],
        "abc": [0.375, 0.25, 0.25],
        "properties": { "magmom": 0.0 },
        "label": "Ca",
        "xyz": [2.62577964625, 1.38470353, 2.97199748375]
      },
      {
        "species": [{ "element": "N", "occu": 1 }],
        "abc": [0.83447188, 0.38699598, 0.49695692],
        "properties": { "magmom": 0.0 },
        "label": "N",
        "xyz": [5.398400747574573, 2.1434987984072373, 6.001773035536666]
      },
      {
        "species": [{ "element": "N", "occu": 1 }],
        "abc": [0.21842678000000001, 0.11300402, 0.00304308],
        "properties": { "magmom": 0.0 },
        "label": "N",
        "xyz": [1.443458186549096, 0.6259082615927624, 0.7778622899986967]
      },
      {
        "species": [{ "element": "N", "occu": 1 }],
        "abc": [0.00040054, 0.25, 0.9991979200000001],
        "properties": { "magmom": 0.0 },
        "label": "N",
        "xyz": [0.6609634871177485, 1.38470353, 6.711213520791795]
      },
      {
        "species": [{ "element": "N", "occu": 1 }],
        "abc": [0.74959946, 0.25, 0.50080208],
        "properties": { "magmom": 0.0 },
        "label": "N",
        "xyz": [4.5931745853822505, 1.38470353, 5.603148036708205]
      },
      {
        "species": [{ "element": "N", "occu": 1 }],
        "abc": [0.99959946, 0.75, 0.00080208],
        "properties": { "magmom": 0.0 },
        "label": "N",
        "xyz": [7.217020272882252, 4.15411059, 3.7973705792082053]
      },
      {
        "species": [{ "element": "N", "occu": 1 }],
        "abc": [0.25040054, 0.75, 0.49919792],
        "properties": { "magmom": 0.0 },
        "label": "N",
        "xyz": [3.2848091746177484, 4.15411059, 4.905436063291795]
      },
      {
        "species": [{ "element": "N", "occu": 1 }],
        "abc": [0.33142881, 0.88699598, 0.50304308],
        "properties": { "magmom": 0.0 },
        "label": "N",
        "xyz": [4.069872344378433, 4.912905858407237, 5.342445933833433]
      },
      {
        "species": [{ "element": "N", "occu": 1 }],
        "abc": [0.22146986000000002, 0.61300402, 0.99695692],
        "properties": { "magmom": 0.0 },
        "label": "N",
        "xyz": [2.774565927247933, 3.3953153215927623, 7.8075560142900455]
      },
      {
        "species": [{ "element": "N", "occu": 1 }],
        "abc": [0.7815732200000001, 0.88699598, 0.99695692],
        "properties": { "magmom": 0.0 },
        "label": "N",
        "xyz": [6.434525573450905, 4.912905858407237, 9.730721810001302]
      },
      {
        "species": [{ "element": "N", "occu": 1 }],
        "abc": [0.16552812, 0.61300402, 0.50304308],
        "properties": { "magmom": 0.0 },
        "label": "N",
        "xyz": [2.4795830124254272, 3.3953153215927623, 4.506811064463334]
      },
      {
        "species": [{ "element": "N", "occu": 1 }],
        "abc": [0.66857119, 0.11300402, 0.49695692],
        "properties": { "magmom": 0.0 },
        "label": "N",
        "xyz": [3.808111415621567, 0.6259082615927624, 5.166138166166567]
      },
      {
        "species": [{ "element": "N", "occu": 1 }],
        "abc": [0.77853014, 0.38699598, 0.00304308],
        "properties": { "magmom": 0.0 },
        "label": "N",
        "xyz": [5.103417832752066, 2.1434987984072373, 2.701028085709954]
      }
    ]
  },
  "task_ids": null,
  "uncorrected_energy_per_atom": null,
  "energy_per_atom": -9.063471980714287,
  "formation_energy_per_atom": -0.23335801964285802,
  "energy_above_hull": 0.040612989999999,
  "is_stable": false,
  "equilibrium_reaction_energy_per_atom": null,
  "decomposes_to": null,
  "xas": null,
  "grain_boundaries": null,
  "band_gap": 3.4205,
  "cbm": null,
  "vbm": null,
  "efermi": 1.01001899,
  "is_gap_direct": null,
  "is_metal": null,
  "es_source_calc_id": null,
  "bandstructure": null,
  "dos": null,
  "dos_energy_up": null,
  "dos_energy_down": null,
  "is_magnetic": null,
  "ordering": null,
  "total_magnetization": 0.0,
  "total_magnetization_normalized_vol": null,
  "total_magnetization_normalized_formula_units": null,
  "num_magnetic_sites": null,
  "num_unique_magnetic_sites": null,
  "types_of_magnetic_species": null,
  "bulk_modulus": null,
  "shear_modulus": null,
  "universal_anisotropy": null,
  "homogeneous_poisson": null,
  "e_total": null,
  "e_ionic": null,
  "e_electronic": null,
  "n": null,
  "e_ij_max": null,
  "weighted_surface_energy_EV_PER_ANG2": null,
  "weighted_surface_energy": null,
  "weighted_work_function": null,
  "surface_anisotropy": null,
  "shape_factor": null,
  "has_reconstructed": null,
  "possible_species": null,
  "has_props": null,
  "theoretical": null,
  "database_IDs": null,
  "fields_not_requested": [
    "builder_meta",
    "nsites",
    "elements",
    "nelements",
    "composition",
    "composition_reduced",
    "chemsys",
    "symmetry",
    "property_name",
    "deprecated",
    "deprecation_reasons",
    "last_updated",
    "origins",
    "warnings",
    "task_ids",
    "uncorrected_energy_per_atom",
    "equilibrium_reaction_energy_per_atom",
    "decomposes_to",
    "xas",
    "grain_boundaries",
    "cbm",
    "vbm",
    "is_gap_direct",
    "is_metal",
    "es_source_calc_id",
    "bandstructure",
    "dos",
    "dos_energy_up",
    "dos_energy_down",
    "is_magnetic",
    "ordering",
    "total_magnetization_normalized_vol",
    "total_magnetization_normalized_formula_units",
    "num_magnetic_sites",
    "num_unique_magnetic_sites",
    "types_of_magnetic_species",
    "bulk_modulus",
    "shear_modulus",
    "universal_anisotropy",
    "homogeneous_poisson",
    "e_total",
    "e_ionic",
    "e_electronic",
    "n",
    "e_ij_max",
    "weighted_surface_energy_EV_PER_ANG2",
    "weighted_surface_energy",
    "weighted_work_function",
    "surface_anisotropy",
    "shape_factor",
    "has_reconstructed",
    "possible_species",
    "has_props",
    "theoretical",
    "database_IDs"
  ]
}
