{"builder_meta": null, "nsites": null, "elements": null, "nelements": null, "composition": null, "composition_reduced": null, "formula_pretty": "CaNi3", "formula_anonymous": "AB3", "chemsys": null, "volume": 171.56187614209867, "density": 6.276554157672643, "density_atomic": 14.296823011841555, "symmetry": null, "property_name": null, "material_id": "mp-1102167", "deprecated": null, "deprecation_reasons": null, "last_updated": null, "origins": null, "warnings": null, "structure": {"@module": "pymatgen.core.structure", "@class": "Structure", "charge": 0, "lattice": {"matrix": [[-2.48857, -4.31033, 0.0], [2.48857, -4.31033, 0.0], [0.0, -2.873553, 7.997061]], "pbc": [true, true, true], "a": 4.977140278694183, "b": 4.977140278694183, "c": 8.497663883770057, "alpha": 72.97113632666236, "beta": 72.97113632666236, "gamma": 59.99999629541113, "volume": 171.56187614209867}, "properties": {}, "sites": [{"species": [{"element": "Ca", "occu": 1}], "abc": [0.140304999999999, 0.140304999999999, 0.579083999999999], "properties": {"magmom": 0.03}, "label": "Ca", "xyz": [0.0, -2.8735502667519888, 4.630970072123993]}, {"species": [{"element": "Ca", "occu": 1}], "abc": [0.859695, 0.859695, 0.420915999999999], "properties": {"magmom": 0.03}, "label": "Ca", "xyz": [0.0, -8.620662733247999, 3.3660909278759923]}, {"species": [{"element": "Ca", "occu": 1}], "abc": [0.0, 0.0, 0.0], "properties": {"magmom": 0.018000000000000002}, "label": "Ca", "xyz": [0.0, 0.0, 0.0]}, {"species": [{"element": "Ni", "occu": 1}], "abc": [0.08265499999999901, 0.5802, 0.756946], "properties": {"magmom": -0.33}, "label": "Ni", "xyz": [1.2381755606500027, -5.032248241287997, 6.053343335706001]}, {"species": [{"element": "Ni", "occu": 1}], "abc": [0.5802, 0.5802, 0.756946], "properties": {"magmom": -0.331}, "label": "Ni", "xyz": [0.0, -7.176831381138001, 6.053343335706001]}, {"species": [{"element": "Ni", "occu": 1}], "abc": [0.5802, 0.08265499999999901, 0.756946], "properties": {"magmom": -0.329}, "label": "Ni", "xyz": [-1.2381755606500027, -5.032248241287997, 6.053343335706001]}, {"species": [{"element": "Ni", "occu": 1}], "abc": [0.917345, 0.4198, 0.243054], "properties": {"magmom": -0.329}, "label": "Ni", "xyz": [-1.23817556065, -6.461964758712001, 1.943717664294]}, {"species": [{"element": "Ni", "occu": 1}], "abc": [0.4198, 0.4198, 0.243054], "properties": {"magmom": -0.33}, "label": "Ni", "xyz": [0.0, -4.317381618862001, 1.943717664294]}, {"species": [{"element": "Ni", "occu": 1}], "abc": [0.4198, 0.917345, 0.243054], "properties": {"magmom": -0.328}, "label": "Ni", "xyz": [1.23817556065, -6.461964758712001, 1.943717664294]}, {"species": [{"element": "Ni", "occu": 1}], "abc": [0.332532999999999, 0.332532999999999, 0.0024000000000000002], "properties": {"magmom": -0.4}, "label": "Ni", "xyz": [0.0, -2.8735504589799916, 0.019192946400000004]}, {"species": [{"element": "Ni", "occu": 1}], "abc": [0.667466999999999, 0.667466999999999, 0.9976], "properties": {"magmom": -0.4}, "label": "Ni", "xyz": [0.0, -8.620662541019993, 7.977868053600001]}, {"species": [{"element": "Ni", "occu": 1}], "abc": [0.5, 0.5, 0.5], "properties": {"magmom": -0.197}, "label": "Ni", "xyz": [0.0, -5.7471065, 3.9985305]}]}, "task_ids": null, "uncorrected_energy_per_atom": null, "energy_per_atom": -4.9952308075000005, "formation_energy_per_atom": -0.15872832749999902, "energy_above_hull": 2.6716666667425674e-05, "is_stable": false, "equilibrium_reaction_energy_per_atom": null, "decomposes_to": null, "xas": null, "grain_boundaries": null, "band_gap": 0.0, "cbm": null, "vbm": null, "efermi": 5.92995422, "is_gap_direct": null, "is_metal": null, "es_source_calc_id": null, "bandstructure": null, "dos": null, "dos_energy_up": null, "dos_energy_down": null, "is_magnetic": null, "ordering": null, "total_magnetization": 2.5743046, "total_magnetization_normalized_vol": null, "total_magnetization_normalized_formula_units": null, "num_magnetic_sites": null, "num_unique_magnetic_sites": null, "types_of_magnetic_species": null, "bulk_modulus": null, "shear_modulus": null, "universal_anisotropy": null, "homogeneous_poisson": null, "e_total": null, "e_ionic": null, "e_electronic": null, "n": null, "e_ij_max": null, "weighted_surface_energy_EV_PER_ANG2": null, "weighted_surface_energy": null, "weighted_work_function": null, "surface_anisotropy": null, "shape_factor": null, "has_reconstructed": null, "possible_species": null, "has_props": null, "theoretical": null, "database_IDs": null, "fields_not_requested": ["builder_meta", "nsites", "elements", "nelements", "composition", "composition_reduced", "chemsys", "symmetry", "property_name", "deprecated", "deprecation_reasons", "last_updated", "origins", "warnings", "task_ids", "uncorrected_energy_per_atom", "equilibrium_reaction_energy_per_atom", "decomposes_to", "xas", "grain_boundaries", "cbm", "vbm", "is_gap_direct", "is_metal", "es_source_calc_id", "bandstructure", "dos", "dos_energy_up", "dos_energy_down", "is_magnetic", "ordering", "total_magnetization_normalized_vol", "total_magnetization_normalized_formula_units", "num_magnetic_sites", "num_unique_magnetic_sites", "types_of_magnetic_species", "bulk_modulus", "shear_modulus", "universal_anisotropy", "homogeneous_poisson", "e_total", "e_ionic", "e_electronic", "n", "e_ij_max", "weighted_surface_energy_EV_PER_ANG2", "weighted_surface_energy", "weighted_work_function", "surface_anisotropy", "shape_factor", "has_reconstructed", "possible_species", "has_props", "theoretical", "database_IDs"]}