{"builder_meta": null, "nsites": null, "elements": null, "nelements": null, "composition": null, "composition_reduced": null, "formula_pretty": "CaNi5", "formula_anonymous": "AB5", "chemsys": null, "volume": 80.16580220812926, "density": 6.9089872204002205, "density_atomic": 13.36096703468821, "symmetry": null, "property_name": null, "material_id": "mp-774", "deprecated": null, "deprecation_reasons": null, "last_updated": null, "origins": null, "warnings": null, "structure": {"@module": "pymatgen.core.structure", "@class": "Structure", "charge": 0, "lattice": {"matrix": [[4.87494203, 6.0240000000000006e-05, 0.0], [-2.43741963, 4.22183783, 0.0], [0.0, 0.0, 3.89506798]], "pbc": [true, true, true], "a": 4.874942030372195, "b": 4.874928626711211, "c": 3.89506798, "alpha": 90.0, "beta": 90.0, "gamma": 119.99868557947464, "volume": 80.16580220812926}, "properties": {}, "sites": [{"species": [{"element": "Ca", "occu": 1}], "abc": [0.0, 0.0, -0.0], "properties": {"magmom": -0.047}, "label": "Ca", "xyz": [0.0, 0.0, 0.0]}, {"species": [{"element": "Ni", "occu": 1}], "abc": [0.5, 0.0, 0.5], "properties": {"magmom": 0.581}, "label": "Ni", "xyz": [2.437471015, 3.0120000000000003e-05, 1.94753399]}, {"species": [{"element": "Ni", "occu": 1}], "abc": [0.5, 0.5, 0.5], "properties": {"magmom": 0.581}, "label": "Ni", "xyz": [1.2187611999999999, 2.110949035, 1.94753399]}, {"species": [{"element": "Ni", "occu": 1}], "abc": [0.0, 0.5, 0.5], "properties": {"magmom": 0.581}, "label": "Ni", "xyz": [-1.218709815, 2.110918915, 1.94753399]}, {"species": [{"element": "Ni", "occu": 1}], "abc": [0.33333366000000003, 0.66667289, 0.0], "properties": {"magmom": 0.526}, "label": "Ni", "xyz": [2.0680272899253893e-05, 2.8146049072571073, 0.0]}, {"species": [{"element": "Ni", "occu": 1}], "abc": [0.66666634, 0.33332711, -0.0], "properties": {"magmom": 0.526}, "label": "Ni", "xyz": [2.4375017197271007, 1.407293162742893, 0.0]}]}, "task_ids": null, "uncorrected_energy_per_atom": null, "energy_per_atom": -5.262015663333333, "formation_energy_per_atom": -0.11096844999999801, "energy_above_hull": 0.000499767083334, "is_stable": false, "equilibrium_reaction_energy_per_atom": null, "decomposes_to": null, "xas": null, "grain_boundaries": null, "band_gap": 0.0, "cbm": null, "vbm": null, "efermi": 5.9714396999999995, "is_gap_direct": null, "is_metal": null, "es_source_calc_id": null, "bandstructure": null, "dos": null, "dos_energy_up": null, "dos_energy_down": null, "is_magnetic": null, "ordering": null, "total_magnetization": 2.4030206, "total_magnetization_normalized_vol": null, "total_magnetization_normalized_formula_units": null, "num_magnetic_sites": null, "num_unique_magnetic_sites": null, "types_of_magnetic_species": null, "bulk_modulus": null, "shear_modulus": null, "universal_anisotropy": null, "homogeneous_poisson": null, "e_total": null, "e_ionic": null, "e_electronic": null, "n": null, "e_ij_max": null, "weighted_surface_energy_EV_PER_ANG2": null, "weighted_surface_energy": null, "weighted_work_function": null, "surface_anisotropy": null, "shape_factor": null, "has_reconstructed": null, "possible_species": null, "has_props": null, "theoretical": null, "database_IDs": null, "fields_not_requested": ["builder_meta", "nsites", "elements", "nelements", "composition", "composition_reduced", "chemsys", "symmetry", "property_name", "deprecated", "deprecation_reasons", "last_updated", "origins", "warnings", "task_ids", "uncorrected_energy_per_atom", "equilibrium_reaction_energy_per_atom", "decomposes_to", "xas", "grain_boundaries", "cbm", "vbm", "is_gap_direct", "is_metal", "es_source_calc_id", "bandstructure", "dos", "dos_energy_up", "dos_energy_down", "is_magnetic", "ordering", "total_magnetization_normalized_vol", "total_magnetization_normalized_formula_units", "num_magnetic_sites", "num_unique_magnetic_sites", "types_of_magnetic_species", "bulk_modulus", "shear_modulus", "universal_anisotropy", "homogeneous_poisson", "e_total", "e_ionic", "e_electronic", "n", "e_ij_max", "weighted_surface_energy_EV_PER_ANG2", "weighted_surface_energy", "weighted_work_function", "surface_anisotropy", "shape_factor", "has_reconstructed", "possible_species", "has_props", "theoretical", "database_IDs"]}