{
  "builder_meta": null,
  "nsites": null,
  "elements": null,
  "nelements": null,
  "composition": null,
  "composition_reduced": null,
  "formula_pretty": "CaOs3",
  "formula_anonymous": "AB3",
  "chemsys": null,
  "volume": 133.29299057894352,
  "density": 15.217666288738274,
  "density_atomic": 16.66162382236794,
  "symmetry": null,
  "property_name": null,
  "material_id": "mp-1183599",
  "deprecated": null,
  "deprecation_reasons": null,
  "last_updated": null,
  "origins": null,
  "warnings": null,
  "structure": {
    "@module": "pymatgen.core.structure",
    "@class": "Structure",
    "charge": 0,
    "lattice": {
      "matrix": [
        [2.891139, -5.0076, 0.0],
        [2.891139, 5.0076, 0.0],
        [0.0, 0.0, 4.6034]
      ],
      "pbc": [true, true, true],
      "a": 5.782278311990958,
      "b": 5.782278311990958,
      "c": 4.6034,
      "alpha": 90.0,
      "beta": 90.0,
      "gamma": 120.00000356972706,
      "volume": 133.29299057894352
    },
    "properties": {},
    "sites": [
      {
        "species": [{ "element": "Ca", "occu": 1 }],
        "abc": [0.333333, 0.666667, 0.75],
        "properties": { "magmom": -0.0 },
        "label": "Ca",
        "xyz": [2.891139, 1.6692033384, 3.4525499999999996]
      },
      {
        "species": [{ "element": "Ca", "occu": 1 }],
        "abc": [0.666667, 0.333333, 0.25],
        "properties": { "magmom": 0.0 },
        "label": "Ca",
        "xyz": [2.891139, -1.6692033384, 1.15085]
      },
      {
        "species": [{ "element": "Os", "occu": 1 }],
        "abc": [0.157141, 0.314282, 0.25],
        "properties": { "magmom": 0.002 },
        "label": "Os",
        "xyz": [1.362949420797, 0.7868992716000001, 1.15085]
      },
      {
        "species": [{ "element": "Os", "occu": 1 }],
        "abc": [0.685717999999999, 0.842858999999999, 0.25],
        "properties": { "magmom": 0.001 },
        "label": "Os",
        "xyz": [4.419328579202994, 0.7868992715999998, 1.15085]
      },
      {
        "species": [{ "element": "Os", "occu": 1 }],
        "abc": [0.157141, 0.842858999999999, 0.25],
        "properties": { "magmom": 0.002 },
        "label": "Os",
        "xyz": [2.8911389999999972, 3.433801456799995, 1.15085]
      },
      {
        "species": [{ "element": "Os", "occu": 1 }],
        "abc": [0.842858999999999, 0.685717999999999, 0.75],
        "properties": { "magmom": -0.002 },
        "label": "Os",
        "xyz": [4.419328579202994, -0.7868992715999998, 3.4525499999999996]
      },
      {
        "species": [{ "element": "Os", "occu": 1 }],
        "abc": [0.314282, 0.157141, 0.75],
        "properties": { "magmom": -0.001 },
        "label": "Os",
        "xyz": [1.362949420797, -0.7868992716000001, 3.4525499999999996]
      },
      {
        "species": [{ "element": "Os", "occu": 1 }],
        "abc": [0.842858999999999, 0.157141, 0.75],
        "properties": { "magmom": -0.002 },
        "label": "Os",
        "xyz": [2.8911389999999972, -3.433801456799995, 3.4525499999999996]
      }
    ]
  },
  "task_ids": null,
  "uncorrected_energy_per_atom": null,
  "energy_per_atom": -40.64482821625,
  "formation_energy_per_atom": 0.8536668462500001,
  "energy_above_hull": 0.8536668462500001,
  "is_stable": false,
  "equilibrium_reaction_energy_per_atom": null,
  "decomposes_to": null,
  "xas": null,
  "grain_boundaries": null,
  "band_gap": 0.0,
  "cbm": null,
  "vbm": null,
  "efermi": 6.34393909,
  "is_gap_direct": null,
  "is_metal": null,
  "es_source_calc_id": null,
  "bandstructure": null,
  "dos": null,
  "dos_energy_up": null,
  "dos_energy_down": null,
  "is_magnetic": null,
  "ordering": null,
  "total_magnetization": 0.000266099999999,
  "total_magnetization_normalized_vol": null,
  "total_magnetization_normalized_formula_units": null,
  "num_magnetic_sites": null,
  "num_unique_magnetic_sites": null,
  "types_of_magnetic_species": null,
  "bulk_modulus": null,
  "shear_modulus": null,
  "universal_anisotropy": null,
  "homogeneous_poisson": null,
  "e_total": null,
  "e_ionic": null,
  "e_electronic": null,
  "n": null,
  "e_ij_max": null,
  "weighted_surface_energy_EV_PER_ANG2": null,
  "weighted_surface_energy": null,
  "weighted_work_function": null,
  "surface_anisotropy": null,
  "shape_factor": null,
  "has_reconstructed": null,
  "possible_species": null,
  "has_props": null,
  "theoretical": null,
  "database_IDs": null,
  "fields_not_requested": [
    "builder_meta",
    "nsites",
    "elements",
    "nelements",
    "composition",
    "composition_reduced",
    "chemsys",
    "symmetry",
    "property_name",
    "deprecated",
    "deprecation_reasons",
    "last_updated",
    "origins",
    "warnings",
    "task_ids",
    "uncorrected_energy_per_atom",
    "equilibrium_reaction_energy_per_atom",
    "decomposes_to",
    "xas",
    "grain_boundaries",
    "cbm",
    "vbm",
    "is_gap_direct",
    "is_metal",
    "es_source_calc_id",
    "bandstructure",
    "dos",
    "dos_energy_up",
    "dos_energy_down",
    "is_magnetic",
    "ordering",
    "total_magnetization_normalized_vol",
    "total_magnetization_normalized_formula_units",
    "num_magnetic_sites",
    "num_unique_magnetic_sites",
    "types_of_magnetic_species",
    "bulk_modulus",
    "shear_modulus",
    "universal_anisotropy",
    "homogeneous_poisson",
    "e_total",
    "e_ionic",
    "e_electronic",
    "n",
    "e_ij_max",
    "weighted_surface_energy_EV_PER_ANG2",
    "weighted_surface_energy",
    "weighted_work_function",
    "surface_anisotropy",
    "shape_factor",
    "has_reconstructed",
    "possible_species",
    "has_props",
    "theoretical",
    "database_IDs"
  ]
}
