{"builder_meta": null, "nsites": null, "elements": null, "nelements": null, "composition": null, "composition_reduced": null, "formula_pretty": "CaP", "formula_anonymous": "AB", "chemsys": null, "volume": 290.25005887179367, "density": 2.438949924979277, "density_atomic": 24.187504905982806, "symmetry": null, "property_name": null, "material_id": "mp-1345", "deprecated": null, "deprecation_reasons": null, "last_updated": null, "origins": null, "warnings": null, "structure": {"@module": "pymatgen.core.structure", "@class": "Structure", "charge": 0, "lattice": {"matrix": [[7.65361331, -1e-08, 0.0], [-3.82680717, 6.62822257, -0.0], [0.0, 0.0, 5.72148439]], "pbc": [true, true, true], "a": 7.65361331, "b": 7.653612712557437, "c": 5.72148439, "alpha": 90.0, "beta": 90.0, "gamma": 120.00000710884237, "volume": 290.25005887179367}, "properties": {}, "sites": [{"species": [{"element": "Ca", "occu": 1}], "abc": [-0.0, 0.64259831, 0.5], "properties": {"magmom": -0.0}, "label": "Ca", "xyz": [-2.4590998201378826, 4.259284621785857, 2.860742195]}, {"species": [{"element": "Ca", "occu": 1}], "abc": [0.35740169, 0.35740169, 0.5], "properties": {"magmom": -0.0}, "label": "Ca", "xyz": [1.3677069817383765, 2.3689379446401264, 2.860742195]}, {"species": [{"element": "Ca", "occu": 1}], "abc": [0.64259831, -0.0, 0.5], "properties": {"magmom": -0.0}, "label": "Ca", "xyz": [4.918198978399506, -6.4259831e-09, 2.860742195]}, {"species": [{"element": "Ca", "occu": 1}], "abc": [-0.0, 0.30822097, 0.0], "properties": {"magmom": 0.0}, "label": "Ca", "xyz": [-1.1795022179403547, 2.042957189901293, 0.0]}, {"species": [{"element": "Ca", "occu": 1}], "abc": [0.69177903, 0.69177903, 0.0], "properties": {"magmom": 0.0}, "label": "Ca", "xyz": [2.647304239527244, 4.585265373180917, 0.0]}, {"species": [{"element": "Ca", "occu": 1}], "abc": [0.30822097, -0.0, 0.0], "properties": {"magmom": 0.0}, "label": "Ca", "xyz": [2.3590041184131105, -3.0822096999999997e-09, 0.0]}, {"species": [{"element": "P", "occu": 1}], "abc": [0.666667, 0.333333, 0.20044715], "properties": {"magmom": 0.0}, "label": "P", "xyz": [3.8268103101401603, 2.20940530725914, 1.1468552397449883]}, {"species": [{"element": "P", "occu": 1}], "abc": [0.666667, 0.333333, 0.79955285], "properties": {"magmom": 0.0}, "label": "P", "xyz": [3.8268103101401603, 2.20940530725914, 4.574629150255011]}, {"species": [{"element": "P", "occu": 1}], "abc": [0.333333, 0.666667, 0.79955285], "properties": {"magmom": 0.0}, "label": "P", "xyz": [-4.17014015985373e-06, 4.41881725274086, 4.574629150255011]}, {"species": [{"element": "P", "occu": 1}], "abc": [0.333333, 0.666667, 0.20044715], "properties": {"magmom": 0.0}, "label": "P", "xyz": [-4.17014015985373e-06, 4.41881725274086, 1.1468552397449883]}, {"species": [{"element": "P", "occu": 1}], "abc": [0.0, 0.0, 0.6953120700000001], "properties": {"magmom": 0.0}, "label": "P", "xyz": [0.0, 0.0, 3.9782171546835876]}, {"species": [{"element": "P", "occu": 1}], "abc": [0.0, 0.0, 0.30468793], "properties": {"magmom": 0.0}, "label": "P", "xyz": [0.0, 0.0, 1.7432672353164125]}]}, "task_ids": null, "uncorrected_energy_per_atom": null, "energy_per_atom": -9.276643459166666, "formation_energy_per_atom": -1.2564584531547611, "energy_above_hull": 0.0, "is_stable": true, "equilibrium_reaction_energy_per_atom": null, "decomposes_to": null, "xas": null, "grain_boundaries": null, "band_gap": 0.34430000000000005, "cbm": null, "vbm": null, "efermi": 4.23122084, "is_gap_direct": null, "is_metal": null, "es_source_calc_id": null, "bandstructure": null, "dos": null, "dos_energy_up": null, "dos_energy_down": null, "is_magnetic": null, "ordering": null, "total_magnetization": 0.0, "total_magnetization_normalized_vol": null, "total_magnetization_normalized_formula_units": null, "num_magnetic_sites": null, "num_unique_magnetic_sites": null, "types_of_magnetic_species": null, "bulk_modulus": null, "shear_modulus": null, "universal_anisotropy": null, "homogeneous_poisson": null, "e_total": null, "e_ionic": null, "e_electronic": null, "n": null, "e_ij_max": null, "weighted_surface_energy_EV_PER_ANG2": null, "weighted_surface_energy": null, "weighted_work_function": null, "surface_anisotropy": null, "shape_factor": null, "has_reconstructed": null, "possible_species": null, "has_props": null, "theoretical": null, "database_IDs": null, "fields_not_requested": ["builder_meta", "nsites", "elements", "nelements", "composition", "composition_reduced", "chemsys", "symmetry", "property_name", "deprecated", "deprecation_reasons", "last_updated", "origins", "warnings", "task_ids", "uncorrected_energy_per_atom", "equilibrium_reaction_energy_per_atom", "decomposes_to", "xas", "grain_boundaries", "cbm", "vbm", "is_gap_direct", "is_metal", "es_source_calc_id", "bandstructure", "dos", "dos_energy_up", "dos_energy_down", "is_magnetic", "ordering", "total_magnetization_normalized_vol", "total_magnetization_normalized_formula_units", "num_magnetic_sites", "num_unique_magnetic_sites", "types_of_magnetic_species", "bulk_modulus", "shear_modulus", "universal_anisotropy", "homogeneous_poisson", "e_total", "e_ionic", "e_electronic", "n", "e_ij_max", "weighted_surface_energy_EV_PER_ANG2", "weighted_surface_energy", "weighted_work_function", "surface_anisotropy", "shape_factor", "has_reconstructed", "possible_species", "has_props", "theoretical", "database_IDs"]}