{"builder_meta": null, "nsites": null, "elements": null, "nelements": null, "composition": null, "composition_reduced": null, "formula_pretty": "CaP3", "formula_anonymous": "AB3", "chemsys": null, "volume": 162.34278971854437, "density": 2.7207923507511182, "density_atomic": 20.292848714818046, "symmetry": null, "property_name": null, "material_id": "mp-9122", "deprecated": null, "deprecation_reasons": null, "last_updated": null, "origins": null, "warnings": null, "structure": {"@module": "pymatgen.core.structure", "@class": "Structure", "charge": 0, "lattice": {"matrix": [[5.50038379, -0.00209413, 1.00963238], [1.13178891, 5.19664567, 1.95167717], [-0.014866250000000001, 0.0189992, 5.68276271]], "pbc": [true, true, true], "a": 5.592278942025307, "b": 5.665255169207115, "c": 5.6828139150561885, "alpha": 69.69359851089077, "beta": 79.74877842962184, "gamma": 75.02800116120694, "volume": 162.34278971854437}, "properties": {}, "sites": [{"species": [{"element": "Ca", "occu": 1}], "abc": [0.6774972, 0.63991982, 0.64400947], "properties": {"magmom": 0.0}, "label": "Ca", "xyz": [4.441174766432196, 3.336253459261168, 5.592693014806709]}, {"species": [{"element": "Ca", "occu": 1}], "abc": [0.3225028, 0.36008018, 0.35599053], "properties": {"magmom": 0.0}, "label": "Ca", "xyz": [2.176131683567803, 1.8772972807388324, 3.0513792451932913]}, {"species": [{"element": "P", "occu": 1}], "abc": [0.59978916, 0.80069786, 0.09544535], "properties": {"magmom": -0.0}, "label": "P", "xyz": [4.203872616856011, 4.161500415967355, 2.7106635663617555]}, {"species": [{"element": "P", "occu": 1}], "abc": [0.40021084, 0.19930214000000002, 0.90455465], "properties": {"magmom": -0.0}, "label": "P", "xyz": [2.4134338331439884, 1.0520503240326446, 5.9334086936382455]}, {"species": [{"element": "P", "occu": 1}], "abc": [0.00690678, 0.19524785, 0.00146173], "properties": {"magmom": -0.0}, "label": "P", "xyz": [0.2589475616408272, 1.0146472022847242, 0.3963407448022092]}, {"species": [{"element": "P", "occu": 1}], "abc": [0.99309322, 0.80475215, -0.00146173], "properties": {"magmom": -0.0}, "label": "P", "xyz": [6.373225138359173, 4.179904337715277, 2.564968805197791]}, {"species": [{"element": "P", "occu": 1}], "abc": [0.12673503, 0.82602561, 0.60699292], "properties": {"magmom": 0.0}, "label": "P", "xyz": [1.6229542209141987, 4.303829389772899, 5.189487845850609]}, {"species": [{"element": "P", "occu": 1}], "abc": [0.87326497, 0.17397439, 0.39300708], "properties": {"magmom": 0.0}, "label": "P", "xyz": [4.994352229085801, 0.9097213502271011, 3.4545844141493918]}]}, "task_ids": null, "uncorrected_energy_per_atom": null, "energy_per_atom": -9.2420413925, "formation_energy_per_atom": -0.7309107334821421, "energy_above_hull": 0.0, "is_stable": true, "equilibrium_reaction_energy_per_atom": null, "decomposes_to": null, "xas": null, "grain_boundaries": null, "band_gap": 0.004900000000000001, "cbm": null, "vbm": null, "efermi": 5.94467808, "is_gap_direct": null, "is_metal": null, "es_source_calc_id": null, "bandstructure": null, "dos": null, "dos_energy_up": null, "dos_energy_down": null, "is_magnetic": null, "ordering": null, "total_magnetization": 0.0, "total_magnetization_normalized_vol": null, "total_magnetization_normalized_formula_units": null, "num_magnetic_sites": null, "num_unique_magnetic_sites": null, "types_of_magnetic_species": null, "bulk_modulus": null, "shear_modulus": null, "universal_anisotropy": null, "homogeneous_poisson": null, "e_total": null, "e_ionic": null, "e_electronic": null, "n": null, "e_ij_max": null, "weighted_surface_energy_EV_PER_ANG2": null, "weighted_surface_energy": null, "weighted_work_function": null, "surface_anisotropy": null, "shape_factor": null, "has_reconstructed": null, "possible_species": null, "has_props": null, "theoretical": null, "database_IDs": null, "fields_not_requested": ["builder_meta", "nsites", "elements", "nelements", "composition", "composition_reduced", "chemsys", "symmetry", "property_name", "deprecated", "deprecation_reasons", "last_updated", "origins", "warnings", "task_ids", "uncorrected_energy_per_atom", "equilibrium_reaction_energy_per_atom", "decomposes_to", "xas", "grain_boundaries", "cbm", "vbm", "is_gap_direct", "is_metal", "es_source_calc_id", "bandstructure", "dos", "dos_energy_up", "dos_energy_down", "is_magnetic", "ordering", "total_magnetization_normalized_vol", "total_magnetization_normalized_formula_units", "num_magnetic_sites", "num_unique_magnetic_sites", "types_of_magnetic_species", "bulk_modulus", "shear_modulus", "universal_anisotropy", "homogeneous_poisson", "e_total", "e_ionic", "e_electronic", "n", "e_ij_max", "weighted_surface_energy_EV_PER_ANG2", "weighted_surface_energy", "weighted_work_function", "surface_anisotropy", "shape_factor", "has_reconstructed", "possible_species", "has_props", "theoretical", "database_IDs"]}