{"builder_meta": null, "nsites": null, "elements": null, "nelements": null, "composition": null, "composition_reduced": null, "formula_pretty": "CaPm3", "formula_anonymous": "AB3", "chemsys": null, "volume": 286.6633167794044, "density": 5.503917191394702, "density_atomic": 35.83291459742555, "symmetry": null, "property_name": null, "material_id": "mp-1183605", "deprecated": null, "deprecation_reasons": null, "last_updated": null, "origins": null, "warnings": null, "structure": {"@module": "pymatgen.core.structure", "@class": "Structure", "charge": 0, "lattice": {"matrix": [[3.72215, -6.446953, 0.0], [3.72215, 6.446953, 0.0], [0.0, 0.0, 5.973017]], "pbc": [true, true, true], "a": 7.444300075004298, "b": 7.444300075004298, "c": 5.973017, "alpha": 90.0, "beta": 90.0, "gamma": 120.00000066658308, "volume": 286.6633167794044}, "properties": {}, "sites": [{"species": [{"element": "Ca", "occu": 1}], "abc": [0.333333, 0.666667, 0.75], "properties": {"magmom": 0.022}, "label": "Ca", "xyz": [3.72215, 2.1489886313019997, 4.47976275]}, {"species": [{"element": "Ca", "occu": 1}], "abc": [0.666667, 0.333333, 0.25], "properties": {"magmom": 0.022}, "label": "Ca", "xyz": [3.72215, -2.1489886313019997, 1.49325425]}, {"species": [{"element": "Pm", "occu": 1}], "abc": [0.164415, 0.32883, 0.25], "properties": {"magmom": 0.115}, "label": "Pm", "xyz": [1.8359318767500001, 1.059975777495, 1.49325425]}, {"species": [{"element": "Pm", "occu": 1}], "abc": [0.67117, 0.835584999999999, 0.25], "properties": {"magmom": 0.115}, "label": "Pm", "xyz": [5.6083681232499965, 1.0599757774949934, 1.49325425]}, {"species": [{"element": "Pm", "occu": 1}], "abc": [0.164415, 0.835584999999999, 0.25], "properties": {"magmom": 0.116}, "label": "Pm", "xyz": [3.7221499999999965, 4.327001445009994, 1.49325425]}, {"species": [{"element": "Pm", "occu": 1}], "abc": [0.835584999999999, 0.67117, 0.75], "properties": {"magmom": 0.115}, "label": "Pm", "xyz": [5.6083681232499965, -1.0599757774949934, 4.47976275]}, {"species": [{"element": "Pm", "occu": 1}], "abc": [0.32883, 0.164415, 0.75], "properties": {"magmom": 0.115}, "label": "Pm", "xyz": [1.8359318767500001, -1.059975777495, 4.47976275]}, {"species": [{"element": "Pm", "occu": 1}], "abc": [0.835584999999999, 0.164415, 0.75], "properties": {"magmom": 0.116}, "label": "Pm", "xyz": [3.7221499999999965, -4.327001445009994, 4.47976275]}]}, "task_ids": null, "uncorrected_energy_per_atom": null, "energy_per_atom": -23.81763520625, "formation_energy_per_atom": 0.097397565624998, "energy_above_hull": 0.097397565624998, "is_stable": false, "equilibrium_reaction_energy_per_atom": null, "decomposes_to": null, "xas": null, "grain_boundaries": null, "band_gap": 0.0, "cbm": null, "vbm": null, "efermi": 2.92351312, "is_gap_direct": null, "is_metal": null, "es_source_calc_id": null, "bandstructure": null, "dos": null, "dos_energy_up": null, "dos_energy_down": null, "is_magnetic": null, "ordering": null, "total_magnetization": 1.5506630000000001, "total_magnetization_normalized_vol": null, "total_magnetization_normalized_formula_units": null, "num_magnetic_sites": null, "num_unique_magnetic_sites": null, "types_of_magnetic_species": null, "bulk_modulus": null, "shear_modulus": null, "universal_anisotropy": null, "homogeneous_poisson": null, "e_total": null, "e_ionic": null, "e_electronic": null, "n": null, "e_ij_max": null, "weighted_surface_energy_EV_PER_ANG2": null, "weighted_surface_energy": null, "weighted_work_function": null, "surface_anisotropy": null, "shape_factor": null, "has_reconstructed": null, "possible_species": null, "has_props": null, "theoretical": null, "database_IDs": null, "fields_not_requested": ["builder_meta", "nsites", "elements", "nelements", "composition", "composition_reduced", "chemsys", "symmetry", "property_name", "deprecated", "deprecation_reasons", "last_updated", "origins", "warnings", "task_ids", "uncorrected_energy_per_atom", "equilibrium_reaction_energy_per_atom", "decomposes_to", "xas", "grain_boundaries", "cbm", "vbm", "is_gap_direct", "is_metal", "es_source_calc_id", "bandstructure", "dos", "dos_energy_up", "dos_energy_down", "is_magnetic", "ordering", "total_magnetization_normalized_vol", "total_magnetization_normalized_formula_units", "num_magnetic_sites", "num_unique_magnetic_sites", "types_of_magnetic_species", "bulk_modulus", "shear_modulus", "universal_anisotropy", "homogeneous_poisson", "e_total", "e_ionic", "e_electronic", "n", "e_ij_max", "weighted_surface_energy_EV_PER_ANG2", "weighted_surface_energy", "weighted_work_function", "surface_anisotropy", "shape_factor", "has_reconstructed", "possible_species", "has_props", "theoretical", "database_IDs"]}