{"builder_meta": null, "nsites": null, "elements": null, "nelements": null, "composition": null, "composition_reduced": null, "formula_pretty": "CaRh2", "formula_anonymous": "AB2", "chemsys": null, "volume": 106.07793193905168, "density": 7.6982701884083795, "density_atomic": 17.67965532317528, "symmetry": null, "property_name": null, "material_id": "mp-571262", "deprecated": null, "deprecation_reasons": null, "last_updated": null, "origins": null, "warnings": null, "structure": {"@module": "pymatgen.core.structure", "@class": "Structure", "charge": 0, "lattice": {"matrix": [[4.60180958, 7.699e-05, 2.65610042], [1.53379864, 4.33854519, 2.6564744300000003], [-0.00043989999999900005, 0.00013522, 5.31298515]], "pbc": [true, true, true], "a": 5.313334250508942, "b": 5.313414065455638, "c": 5.312985169931964, "alpha": 60.003102681719795, "beta": 60.01180004472488, "gamma": 60.003576756411704, "volume": 106.07793193905167}, "properties": {}, "sites": [{"species": [{"element": "Ca", "occu": 1}], "abc": [0.37498391000000003, 0.37500988, 0.37496235], "properties": {"magmom": 0.0}, "label": "Ca", "xyz": [2.3006292473766563, 1.6270768834966751, 3.9843684754207134]}, {"species": [{"element": "Ca", "occu": 1}], "abc": [0.62501709, 0.62499012, 0.62503765], "properties": {"magmom": 0.0}, "label": "Ca", "xyz": [3.834543674432925, 2.7116805165803144, 6.641194180679707]}, {"species": [{"element": "Rh", "occu": 1}], "abc": [-0.0, 0.5, 0.0], "properties": {"magmom": 0.0}, "label": "Rh", "xyz": [0.76689932, 2.169272595, 1.3282372150000001]}, {"species": [{"element": "Rh", "occu": 1}], "abc": [0.5, 0.0, 0.0], "properties": {"magmom": 0.0}, "label": "Rh", "xyz": [2.30090479, 3.8495e-05, 1.32805021]}, {"species": [{"element": "Rh", "occu": 1}], "abc": [-0.0, -0.0, 0.0], "properties": {"magmom": -0.0}, "label": "Rh", "xyz": [0.0, 0.0, 0.0]}, {"species": [{"element": "Rh", "occu": 1}], "abc": [-0.0, 0.0, 0.5], "properties": {"magmom": 0.0}, "label": "Rh", "xyz": [-0.00021994999999950003, 6.761e-05, 2.656492575]}]}, "task_ids": null, "uncorrected_energy_per_atom": null, "energy_per_atom": -18.874389883333333, "formation_energy_per_atom": -0.43747289666666705, "energy_above_hull": 0.0, "is_stable": true, "equilibrium_reaction_energy_per_atom": null, "decomposes_to": null, "xas": null, "grain_boundaries": null, "band_gap": 0.0, "cbm": null, "vbm": null, "efermi": 4.70742796, "is_gap_direct": null, "is_metal": null, "es_source_calc_id": null, "bandstructure": null, "dos": null, "dos_energy_up": null, "dos_energy_down": null, "is_magnetic": null, "ordering": null, "total_magnetization": 1e-07, "total_magnetization_normalized_vol": null, "total_magnetization_normalized_formula_units": null, "num_magnetic_sites": null, "num_unique_magnetic_sites": null, "types_of_magnetic_species": null, "bulk_modulus": null, "shear_modulus": null, "universal_anisotropy": null, "homogeneous_poisson": null, "e_total": null, "e_ionic": null, "e_electronic": null, "n": null, "e_ij_max": null, "weighted_surface_energy_EV_PER_ANG2": null, "weighted_surface_energy": null, "weighted_work_function": null, "surface_anisotropy": null, "shape_factor": null, "has_reconstructed": null, "possible_species": null, "has_props": null, "theoretical": null, "database_IDs": null, "fields_not_requested": ["builder_meta", "nsites", "elements", "nelements", "composition", "composition_reduced", "chemsys", "symmetry", "property_name", "deprecated", "deprecation_reasons", "last_updated", "origins", "warnings", "task_ids", "uncorrected_energy_per_atom", "equilibrium_reaction_energy_per_atom", "decomposes_to", "xas", "grain_boundaries", "cbm", "vbm", "is_gap_direct", "is_metal", "es_source_calc_id", "bandstructure", "dos", "dos_energy_up", "dos_energy_down", "is_magnetic", "ordering", "total_magnetization_normalized_vol", "total_magnetization_normalized_formula_units", "num_magnetic_sites", "num_unique_magnetic_sites", "types_of_magnetic_species", "bulk_modulus", "shear_modulus", "universal_anisotropy", "homogeneous_poisson", "e_total", "e_ionic", "e_electronic", "n", "e_ij_max", "weighted_surface_energy_EV_PER_ANG2", "weighted_surface_energy", "weighted_work_function", "surface_anisotropy", "shape_factor", "has_reconstructed", "possible_species", "has_props", "theoretical", "database_IDs"]}