{"builder_meta": null, "nsites": null, "elements": null, "nelements": null, "composition": null, "composition_reduced": null, "formula_pretty": "CaSi", "formula_anonymous": "AB", "chemsys": null, "volume": 95.09363506508986, "density": 2.380562160416181, "density_atomic": 23.773408766272464, "symmetry": null, "property_name": null, "material_id": "mp-1563", "deprecated": null, "deprecation_reasons": null, "last_updated": null, "origins": null, "warnings": null, "structure": {"@module": "pymatgen.core.structure", "@class": "Structure", "charge": 0, "lattice": {"matrix": [[3.90539621, 0.0, -0.0], [0.0, 4.20407338, -1.75310584], [-0.0, -0.04459987, 5.81043162]], "pbc": [true, true, true], "a": 3.90539621, "b": 4.55495478250517, "c": 5.810602787929996, "alpha": 113.07600431576856, "beta": 90.0, "gamma": 90.0, "volume": 95.09363506508987}, "properties": {}, "sites": [{"species": [{"element": "Ca", "occu": 1}], "abc": [0.25, 0.86148664, 0.72297228], "properties": {"magmom": 0.0}, "label": "Ca", "xyz": [0.9763490525, 3.589508580748039, 2.6905037364295166]}, {"species": [{"element": "Ca", "occu": 1}], "abc": [0.75, 0.13851336, 0.27702772000000003], "properties": {"magmom": 0.0}, "label": "Ca", "xyz": [2.9290471575000003, 0.5699649292519603, 1.366822043570484]}, {"species": [{"element": "Si", "occu": 1}], "abc": [0.25, 0.56844661, 0.13689623], "properties": {"magmom": -0.0}, "label": "Si", "xyz": [0.9763490525, 2.383685706990751, -0.20112088826840968]}, {"species": [{"element": "Si", "occu": 1}], "abc": [0.75, 0.43155339000000004, 0.86310377], "properties": {"magmom": -0.0}, "label": "Si", "xyz": [2.9290471575000003, 1.7757878030092484, 4.258446668268411]}]}, "task_ids": null, "uncorrected_energy_per_atom": null, "energy_per_atom": -8.507153645, "formation_energy_per_atom": -0.6011244975000001, "energy_above_hull": 0.0, "is_stable": true, "equilibrium_reaction_energy_per_atom": null, "decomposes_to": null, "xas": null, "grain_boundaries": null, "band_gap": 0.0, "cbm": null, "vbm": null, "efermi": 4.9158301699999996, "is_gap_direct": null, "is_metal": null, "es_source_calc_id": null, "bandstructure": null, "dos": null, "dos_energy_up": null, "dos_energy_down": null, "is_magnetic": null, "ordering": null, "total_magnetization": 3e-07, "total_magnetization_normalized_vol": null, "total_magnetization_normalized_formula_units": null, "num_magnetic_sites": null, "num_unique_magnetic_sites": null, "types_of_magnetic_species": null, "bulk_modulus": null, "shear_modulus": null, "universal_anisotropy": null, "homogeneous_poisson": null, "e_total": null, "e_ionic": null, "e_electronic": null, "n": null, "e_ij_max": null, "weighted_surface_energy_EV_PER_ANG2": null, "weighted_surface_energy": null, "weighted_work_function": null, "surface_anisotropy": null, "shape_factor": null, "has_reconstructed": null, "possible_species": null, "has_props": null, "theoretical": null, "database_IDs": null, "fields_not_requested": ["builder_meta", "nsites", "elements", "nelements", "composition", "composition_reduced", "chemsys", "symmetry", "property_name", "deprecated", "deprecation_reasons", "last_updated", "origins", "warnings", "task_ids", "uncorrected_energy_per_atom", "equilibrium_reaction_energy_per_atom", "decomposes_to", "xas", "grain_boundaries", "cbm", "vbm", "is_gap_direct", "is_metal", "es_source_calc_id", "bandstructure", "dos", "dos_energy_up", "dos_energy_down", "is_magnetic", "ordering", "total_magnetization_normalized_vol", "total_magnetization_normalized_formula_units", "num_magnetic_sites", "num_unique_magnetic_sites", "types_of_magnetic_species", "bulk_modulus", "shear_modulus", "universal_anisotropy", "homogeneous_poisson", "e_total", "e_ionic", "e_electronic", "n", "e_ij_max", "weighted_surface_energy_EV_PER_ANG2", "weighted_surface_energy", "weighted_work_function", "surface_anisotropy", "shape_factor", "has_reconstructed", "possible_species", "has_props", "theoretical", "database_IDs"]}