{"builder_meta": null, "nsites": null, "elements": null, "nelements": null, "composition": null, "composition_reduced": null, "formula_pretty": "CaSi2", "formula_anonymous": "AB2", "chemsys": null, "volume": 131.18082108707162, "density": 2.436716332414156, "density_atomic": 21.863470181178602, "symmetry": null, "property_name": null, "material_id": "mp-2699", "deprecated": null, "deprecation_reasons": null, "last_updated": null, "origins": null, "warnings": null, "structure": {"@module": "pymatgen.core.structure", "@class": "Structure", "charge": 0, "lattice": {"matrix": [[3.79375391, -0.00493627, 9.64005332], [1.82459836, 3.32617426, 9.64005332], [-0.00835023, -0.00493627, 10.35968886]], "pbc": [true, true, true], "a": 10.359692133883362, "b": 10.359692195989428, "c": 10.359693401308297, "alpha": 21.527841013542286, "beta": 21.527839620169562, "gamma": 21.52784069930623, "volume": 131.18082108707162}, "properties": {}, "sites": [{"species": [{"element": "Ca", "occu": 1}], "abc": [0.9200807400000001, 0.9200807400000001, 0.9200807400000001], "properties": {"magmom": 0.0}, "label": "Ca", "xyz": [5.16165482836471, 3.0512653406008736, 27.271004977088673]}, {"species": [{"element": "Ca", "occu": 1}], "abc": [0.07991926, 0.07991926, 0.07991926], "properties": {"magmom": 0.0}, "label": "Ca", "xyz": [0.4483472116352904, 0.2650363793991272, 2.36879052291133]}, {"species": [{"element": "Si", "occu": 1}], "abc": [0.65346771, 0.65346771, 0.65346771], "properties": {"magmom": 0.0}, "label": "Si", "xyz": [3.665955186174128, 2.167096090637461, 19.368649290253305]}, {"species": [{"element": "Si", "occu": 1}], "abc": [0.34653229, 0.34653229, 0.34653229], "properties": {"magmom": 0.0}, "label": "Si", "xyz": [1.9440468538258717, 1.1492056293625388, 10.271146209746696]}, {"species": [{"element": "Si", "occu": 1}], "abc": [0.18231615, 0.18231615, 0.18231615], "properties": {"magmom": -0.0}, "label": "Si", "xyz": [1.022793973424946, 0.604615361828778, 5.403813402347326]}, {"species": [{"element": "Si", "occu": 1}], "abc": [0.81768385, 0.81768385, 0.81768385], "properties": {"magmom": -0.0}, "label": "Si", "xyz": [4.587208066575053, 2.711686358171222, 24.235982097652673]}]}, "task_ids": null, "uncorrected_energy_per_atom": null, "energy_per_atom": -8.622144865000001, "formation_energy_per_atom": -0.42687056833333403, "energy_above_hull": 0.0, "is_stable": true, "equilibrium_reaction_energy_per_atom": null, "decomposes_to": null, "xas": null, "grain_boundaries": null, "band_gap": 0.0, "cbm": null, "vbm": null, "efermi": 5.41643731, "is_gap_direct": null, "is_metal": null, "es_source_calc_id": null, "bandstructure": null, "dos": null, "dos_energy_up": null, "dos_energy_down": null, "is_magnetic": null, "ordering": null, "total_magnetization": 0.0, "total_magnetization_normalized_vol": null, "total_magnetization_normalized_formula_units": null, "num_magnetic_sites": null, "num_unique_magnetic_sites": null, "types_of_magnetic_species": null, "bulk_modulus": null, "shear_modulus": null, "universal_anisotropy": null, "homogeneous_poisson": null, "e_total": null, "e_ionic": null, "e_electronic": null, "n": null, "e_ij_max": null, "weighted_surface_energy_EV_PER_ANG2": null, "weighted_surface_energy": null, "weighted_work_function": null, "surface_anisotropy": null, "shape_factor": null, "has_reconstructed": null, "possible_species": null, "has_props": null, "theoretical": null, "database_IDs": null, "fields_not_requested": ["builder_meta", "nsites", "elements", "nelements", "composition", "composition_reduced", "chemsys", "symmetry", "property_name", "deprecated", "deprecation_reasons", "last_updated", "origins", "warnings", "task_ids", "uncorrected_energy_per_atom", "equilibrium_reaction_energy_per_atom", "decomposes_to", "xas", "grain_boundaries", "cbm", "vbm", "is_gap_direct", "is_metal", "es_source_calc_id", "bandstructure", "dos", "dos_energy_up", "dos_energy_down", "is_magnetic", "ordering", "total_magnetization_normalized_vol", "total_magnetization_normalized_formula_units", "num_magnetic_sites", "num_unique_magnetic_sites", "types_of_magnetic_species", "bulk_modulus", "shear_modulus", "universal_anisotropy", "homogeneous_poisson", "e_total", "e_ionic", "e_electronic", "n", "e_ij_max", "weighted_surface_energy_EV_PER_ANG2", "weighted_surface_energy", "weighted_work_function", "surface_anisotropy", "shape_factor", "has_reconstructed", "possible_species", "has_props", "theoretical", "database_IDs"]}