{
  "builder_meta": null,
  "nsites": null,
  "elements": null,
  "nelements": null,
  "composition": null,
  "composition_reduced": null,
  "formula_pretty": "CaSi3",
  "formula_anonymous": "AB3",
  "chemsys": null,
  "volume": 298.88201361738277,
  "density": 2.763127724915327,
  "density_atomic": 18.680125851086423,
  "symmetry": null,
  "property_name": null,
  "material_id": "mp-1205346",
  "deprecated": null,
  "deprecation_reasons": null,
  "last_updated": null,
  "origins": null,
  "warnings": null,
  "structure": {
    "@module": "pymatgen.core.structure",
    "@class": "Structure",
    "charge": 0,
    "lattice": {
      "matrix": [
        [-3.629885, 3.629885, 5.670927],
        [3.629885, -3.629885, 5.670927],
        [3.629885, 3.629885, -5.670927]
      ],
      "pbc": [true, true, true],
      "a": 7.649283840058427,
      "b": 7.649283840058427,
      "c": 7.649283840058427,
      "alpha": 123.34129732354842,
      "beta": 123.34129732354842,
      "gamma": 84.30400425939378,
      "volume": 298.88201361738277
    },
    "properties": {},
    "sites": [
      {
        "species": [{ "element": "Ca", "occu": 1 }],
        "abc": [0.8269000000000001, 0.8269000000000001, 0.0],
        "properties": { "magmom": 0.0 },
        "label": "Ca",
        "xyz": [0.0, 0.0, 9.378579072600001]
      },
      {
        "species": [{ "element": "Ca", "occu": 1 }],
        "abc": [0.1731, 0.1731, 0.0],
        "properties": { "magmom": 0.0 },
        "label": "Ca",
        "xyz": [0.0, 0.0, 1.9632749274]
      },
      {
        "species": [{ "element": "Ca", "occu": 1 }],
        "abc": [0.25, 0.75, 0.5],
        "properties": { "magmom": -0.0 },
        "label": "Ca",
        "xyz": [3.629885, 0.0, 2.8354635]
      },
      {
        "species": [{ "element": "Ca", "occu": 1 }],
        "abc": [0.75, 0.25, 0.5],
        "properties": { "magmom": -0.0 },
        "label": "Ca",
        "xyz": [0.0, 3.629885, 2.8354635]
      },
      {
        "species": [{ "element": "Si", "occu": 1 }],
        "abc": [0.335464, 0.0, 0.335464],
        "properties": { "magmom": -0.0 },
        "label": "Si",
        "xyz": [0.0, 2.4353914832799997, 0.0]
      },
      {
        "species": [{ "element": "Si", "occu": 1 }],
        "abc": [0.664536, 0.0, 0.664536],
        "properties": { "magmom": -0.0 },
        "label": "Si",
        "xyz": [0.0, 4.8243785167199995, 0.0]
      },
      {
        "species": [{ "element": "Si", "occu": 1 }],
        "abc": [0.0, 0.664536, 0.664536],
        "properties": { "magmom": -0.0 },
        "label": "Si",
        "xyz": [4.8243785167199995, 0.0, 0.0]
      },
      {
        "species": [{ "element": "Si", "occu": 1 }],
        "abc": [0.0, 0.335464, 0.335464],
        "properties": { "magmom": -0.0 },
        "label": "Si",
        "xyz": [2.4353914832799997, 0.0, 0.0]
      },
      {
        "species": [{ "element": "Si", "occu": 1 }],
        "abc": [0.209948, 0.209948, 0.629101],
        "properties": { "magmom": -0.0 },
        "label": "Si",
        "xyz": [2.283564283385, 2.283564283385, -1.186386283035]
      },
      {
        "species": [{ "element": "Si", "occu": 1 }],
        "abc": [0.580847, 0.580847, 0.370899],
        "properties": { "magmom": -0.0 },
        "label": "Si",
        "xyz": [1.3463207166149997, 1.3463207166149997, 4.484540716965]
      },
      {
        "species": [{ "element": "Si", "occu": 1 }],
        "abc": [0.209948, 0.580847, 0.0],
        "properties": { "magmom": -0.0 },
        "label": "Si",
        "xyz": [1.346320716615, -1.346320716615, 4.484540716965]
      },
      {
        "species": [{ "element": "Si", "occu": 1 }],
        "abc": [0.580847, 0.209948, 0.0],
        "properties": { "magmom": -0.0 },
        "label": "Si",
        "xyz": [-1.346320716615, 1.346320716615, 4.484540716965]
      },
      {
        "species": [{ "element": "Si", "occu": 1 }],
        "abc": [0.790052, 0.790052, 0.370899],
        "properties": { "magmom": -0.0 },
        "label": "Si",
        "xyz": [1.3463207166149997, 1.3463207166149997, 6.857313283034999]
      },
      {
        "species": [{ "element": "Si", "occu": 1 }],
        "abc": [0.419153, 0.419153, 0.629101],
        "properties": { "magmom": -0.0 },
        "label": "Si",
        "xyz": [2.283564283385, 2.283564283385, 1.1863862830349996]
      },
      {
        "species": [{ "element": "Si", "occu": 1 }],
        "abc": [0.790052, 0.419153, 0.0],
        "properties": { "magmom": -0.0 },
        "label": "Si",
        "xyz": [-1.3463207166149997, 1.3463207166149997, 6.857313283034999]
      },
      {
        "species": [{ "element": "Si", "occu": 1 }],
        "abc": [0.419153, 0.790052, 0.0],
        "properties": { "magmom": -0.0 },
        "label": "Si",
        "xyz": [1.3463207166149997, -1.3463207166149997, 6.857313283034999]
      }
    ]
  },
  "task_ids": null,
  "uncorrected_energy_per_atom": null,
  "energy_per_atom": -8.534647045000002,
  "formation_energy_per_atom": -0.194750173750001,
  "energy_above_hull": 0.12540275249999902,
  "is_stable": false,
  "equilibrium_reaction_energy_per_atom": null,
  "decomposes_to": null,
  "xas": null,
  "grain_boundaries": null,
  "band_gap": 0.0,
  "cbm": null,
  "vbm": null,
  "efermi": 6.8224151200000005,
  "is_gap_direct": null,
  "is_metal": null,
  "es_source_calc_id": null,
  "bandstructure": null,
  "dos": null,
  "dos_energy_up": null,
  "dos_energy_down": null,
  "is_magnetic": null,
  "ordering": null,
  "total_magnetization": 0.003427,
  "total_magnetization_normalized_vol": null,
  "total_magnetization_normalized_formula_units": null,
  "num_magnetic_sites": null,
  "num_unique_magnetic_sites": null,
  "types_of_magnetic_species": null,
  "bulk_modulus": null,
  "shear_modulus": null,
  "universal_anisotropy": null,
  "homogeneous_poisson": null,
  "e_total": null,
  "e_ionic": null,
  "e_electronic": null,
  "n": null,
  "e_ij_max": null,
  "weighted_surface_energy_EV_PER_ANG2": null,
  "weighted_surface_energy": null,
  "weighted_work_function": null,
  "surface_anisotropy": null,
  "shape_factor": null,
  "has_reconstructed": null,
  "possible_species": null,
  "has_props": null,
  "theoretical": null,
  "database_IDs": null,
  "fields_not_requested": [
    "builder_meta",
    "nsites",
    "elements",
    "nelements",
    "composition",
    "composition_reduced",
    "chemsys",
    "symmetry",
    "property_name",
    "deprecated",
    "deprecation_reasons",
    "last_updated",
    "origins",
    "warnings",
    "task_ids",
    "uncorrected_energy_per_atom",
    "equilibrium_reaction_energy_per_atom",
    "decomposes_to",
    "xas",
    "grain_boundaries",
    "cbm",
    "vbm",
    "is_gap_direct",
    "is_metal",
    "es_source_calc_id",
    "bandstructure",
    "dos",
    "dos_energy_up",
    "dos_energy_down",
    "is_magnetic",
    "ordering",
    "total_magnetization_normalized_vol",
    "total_magnetization_normalized_formula_units",
    "num_magnetic_sites",
    "num_unique_magnetic_sites",
    "types_of_magnetic_species",
    "bulk_modulus",
    "shear_modulus",
    "universal_anisotropy",
    "homogeneous_poisson",
    "e_total",
    "e_ionic",
    "e_electronic",
    "n",
    "e_ij_max",
    "weighted_surface_energy_EV_PER_ANG2",
    "weighted_surface_energy",
    "weighted_work_function",
    "surface_anisotropy",
    "shape_factor",
    "has_reconstructed",
    "possible_species",
    "has_props",
    "theoretical",
    "database_IDs"
  ]
}
