{"builder_meta": null, "nsites": null, "elements": null, "nelements": null, "composition": null, "composition_reduced": null, "formula_pretty": "CaSm3", "formula_anonymous": "AB3", "chemsys": null, "volume": 282.5920553947798, "density": 5.772186664863961, "density_atomic": 35.32400692434747, "symmetry": null, "property_name": null, "material_id": "mp-1183610", "deprecated": null, "deprecation_reasons": null, "last_updated": null, "origins": null, "warnings": null, "structure": {"@module": "pymatgen.core.structure", "@class": "Structure", "charge": 0, "lattice": {"matrix": [[3.706349, -6.419585, 0.0], [3.706349, 6.419585, 0.0], [0.0, 0.0, 5.938499]], "pbc": [true, true, true], "a": 7.412698191753526, "b": 7.412698191753526, "c": 5.938499, "alpha": 90.0, "beta": 90.0, "gamma": 120.00000171142962, "volume": 282.5920553947798}, "properties": {}, "sites": [{"species": [{"element": "Ca", "occu": 1}], "abc": [0.333333, 0.666667, 0.75], "properties": {"magmom": 0.035}, "label": "Ca", "xyz": [3.7063490000000003, 2.1398659463899996, 4.45387425]}, {"species": [{"element": "Ca", "occu": 1}], "abc": [0.666667, 0.333333, 0.25], "properties": {"magmom": 0.035}, "label": "Ca", "xyz": [3.7063490000000003, -2.1398659463899996, 1.48462475]}, {"species": [{"element": "Sm", "occu": 1}], "abc": [0.164491, 0.328982, 0.25], "properties": {"magmom": 0.17400000000000002}, "label": "Sm", "xyz": [1.8289831600770001, 1.0559639562349998, 1.48462475]}, {"species": [{"element": "Sm", "occu": 1}], "abc": [0.671018, 0.835509, 0.25], "properties": {"magmom": 0.17400000000000002}, "label": "Sm", "xyz": [5.583714839922999, 1.055963956234999, 1.48462475]}, {"species": [{"element": "Sm", "occu": 1}], "abc": [0.164491, 0.835509, 0.25], "properties": {"magmom": 0.17300000000000001}, "label": "Sm", "xyz": [3.7063489999999994, 4.307657087529999, 1.48462475]}, {"species": [{"element": "Sm", "occu": 1}], "abc": [0.835509, 0.671018, 0.75], "properties": {"magmom": 0.17400000000000002}, "label": "Sm", "xyz": [5.583714839922999, -1.055963956234999, 4.45387425]}, {"species": [{"element": "Sm", "occu": 1}], "abc": [0.328982, 0.164491, 0.75], "properties": {"magmom": 0.17400000000000002}, "label": "Sm", "xyz": [1.8289831600770001, -1.0559639562349998, 4.45387425]}, {"species": [{"element": "Sm", "occu": 1}], "abc": [0.835509, 0.164491, 0.75], "properties": {"magmom": 0.17300000000000001}, "label": "Sm", "xyz": [3.7063489999999994, -4.307657087529999, 4.45387425]}]}, "task_ids": null, "uncorrected_energy_per_atom": null, "energy_per_atom": -23.95762336625, "formation_energy_per_atom": 0.101643298749998, "energy_above_hull": 0.101643298749998, "is_stable": false, "equilibrium_reaction_energy_per_atom": null, "decomposes_to": null, "xas": null, "grain_boundaries": null, "band_gap": 0.0, "cbm": null, "vbm": null, "efermi": 2.81467852, "is_gap_direct": null, "is_metal": null, "es_source_calc_id": null, "bandstructure": null, "dos": null, "dos_energy_up": null, "dos_energy_down": null, "is_magnetic": null, "ordering": null, "total_magnetization": 2.4665411, "total_magnetization_normalized_vol": null, "total_magnetization_normalized_formula_units": null, "num_magnetic_sites": null, "num_unique_magnetic_sites": null, "types_of_magnetic_species": null, "bulk_modulus": null, "shear_modulus": null, "universal_anisotropy": null, "homogeneous_poisson": null, "e_total": null, "e_ionic": null, "e_electronic": null, "n": null, "e_ij_max": null, "weighted_surface_energy_EV_PER_ANG2": null, "weighted_surface_energy": null, "weighted_work_function": null, "surface_anisotropy": null, "shape_factor": null, "has_reconstructed": null, "possible_species": null, "has_props": null, "theoretical": null, "database_IDs": null, "fields_not_requested": ["builder_meta", "nsites", "elements", "nelements", "composition", "composition_reduced", "chemsys", "symmetry", "property_name", "deprecated", "deprecation_reasons", "last_updated", "origins", "warnings", "task_ids", "uncorrected_energy_per_atom", "equilibrium_reaction_energy_per_atom", "decomposes_to", "xas", "grain_boundaries", "cbm", "vbm", "is_gap_direct", "is_metal", "es_source_calc_id", "bandstructure", "dos", "dos_energy_up", "dos_energy_down", "is_magnetic", "ordering", "total_magnetization_normalized_vol", "total_magnetization_normalized_formula_units", "num_magnetic_sites", "num_unique_magnetic_sites", "types_of_magnetic_species", "bulk_modulus", "shear_modulus", "universal_anisotropy", "homogeneous_poisson", "e_total", "e_ionic", "e_electronic", "n", "e_ij_max", "weighted_surface_energy_EV_PER_ANG2", "weighted_surface_energy", "weighted_work_function", "surface_anisotropy", "shape_factor", "has_reconstructed", "possible_species", "has_props", "theoretical", "database_IDs"]}