{"builder_meta": null, "nsites": null, "elements": null, "nelements": null, "composition": null, "composition_reduced": null, "formula_pretty": "CaZn2", "formula_anonymous": "AB2", "chemsys": null, "volume": 124.11278240793206, "density": 4.572929215186739, "density_atomic": 20.685463734655343, "symmetry": null, "property_name": null, "material_id": "mp-1725", "deprecated": null, "deprecation_reasons": null, "last_updated": null, "origins": null, "warnings": null, "structure": {"@module": "pymatgen.core.structure", "@class": "Structure", "charge": 0, "lattice": {"matrix": [[4.17730429, 0.0, 1.80161596], [2.03522176, 5.22166081, 1.02469554], [0.02025726, -0.0729108, 5.6966782]], "pbc": [true, true, true], "a": 4.549251718533404, "b": 5.697180897317835, "c": 5.697180781377275, "alpha": 80.24794166331202, "beta": 66.4684057098173, "gamma": 66.46840302288746, "volume": 124.11278240793206}, "properties": {}, "sites": [{"species": [{"element": "Ca", "occu": 1}], "abc": [0.55268372, 0.69731628, 0.19731628], "properties": {"magmom": 0.0}, "label": "Ca", "xyz": [3.731918428413605, 3.6267626036231633, 2.8343080436506582]}, {"species": [{"element": "Ca", "occu": 1}], "abc": [0.44731628, 0.30268372, 0.80268372], "properties": {"magmom": 0.0}, "label": "Ca", "xyz": [2.500864881586396, 1.5219874063768373, 5.688681656349342]}, {"species": [{"element": "Zn", "occu": 1}], "abc": [0.16348736, 0.27233184, 0.40069644], "properties": {"magmom": -0.0}, "label": "Zn", "xyz": [1.2453091489637673, 1.3928093982456384, 2.856237333447867]}, {"species": [{"element": "Zn", "occu": 1}], "abc": [0.83651264, 0.72766816, 0.59930356], "properties": {"magmom": -0.0}, "label": "Zn", "xyz": [4.987474161036233, 3.7559406117543617, 5.666752366552132]}, {"species": [{"element": "Zn", "occu": 1}], "abc": [0.16348736, 0.90069644, 0.77233184], "properties": {"magmom": -0.0}, "label": "Zn", "xyz": [2.5316987710204675, 4.646819970134645, 5.617207018090031]}, {"species": [{"element": "Zn", "occu": 1}], "abc": [0.83651264, 0.09930356, 0.22766816], "properties": {"magmom": -0.0}, "label": "Zn", "xyz": [3.7010845389795333, 0.5019300398653557, 2.905782681909969]}]}, "task_ids": null, "uncorrected_energy_per_atom": null, "energy_per_atom": -1.811268144999998, "formation_energy_per_atom": -0.30290577833333104, "energy_above_hull": 0.0, "is_stable": true, "equilibrium_reaction_energy_per_atom": null, "decomposes_to": null, "xas": null, "grain_boundaries": null, "band_gap": 0.0, "cbm": null, "vbm": null, "efermi": 2.69810837, "is_gap_direct": null, "is_metal": null, "es_source_calc_id": null, "bandstructure": null, "dos": null, "dos_energy_up": null, "dos_energy_down": null, "is_magnetic": null, "ordering": null, "total_magnetization": 0.0, "total_magnetization_normalized_vol": null, "total_magnetization_normalized_formula_units": null, "num_magnetic_sites": null, "num_unique_magnetic_sites": null, "types_of_magnetic_species": null, "bulk_modulus": null, "shear_modulus": null, "universal_anisotropy": null, "homogeneous_poisson": null, "e_total": null, "e_ionic": null, "e_electronic": null, "n": null, "e_ij_max": null, "weighted_surface_energy_EV_PER_ANG2": null, "weighted_surface_energy": null, "weighted_work_function": null, "surface_anisotropy": null, "shape_factor": null, "has_reconstructed": null, "possible_species": null, "has_props": null, "theoretical": null, "database_IDs": null, "fields_not_requested": ["builder_meta", "nsites", "elements", "nelements", "composition", "composition_reduced", "chemsys", "symmetry", "property_name", "deprecated", "deprecation_reasons", "last_updated", "origins", "warnings", "task_ids", "uncorrected_energy_per_atom", "equilibrium_reaction_energy_per_atom", "decomposes_to", "xas", "grain_boundaries", "cbm", "vbm", "is_gap_direct", "is_metal", "es_source_calc_id", "bandstructure", "dos", "dos_energy_up", "dos_energy_down", "is_magnetic", "ordering", "total_magnetization_normalized_vol", "total_magnetization_normalized_formula_units", "num_magnetic_sites", "num_unique_magnetic_sites", "types_of_magnetic_species", "bulk_modulus", "shear_modulus", "universal_anisotropy", "homogeneous_poisson", "e_total", "e_ionic", "e_electronic", "n", "e_ij_max", "weighted_surface_energy_EV_PER_ANG2", "weighted_surface_energy", "weighted_work_function", "surface_anisotropy", "shape_factor", "has_reconstructed", "possible_species", "has_props", "theoretical", "database_IDs"]}