{"builder_meta": null, "nsites": null, "elements": null, "nelements": null, "composition": null, "composition_reduced": null, "formula_pretty": "CaZn3", "formula_anonymous": "AB3", "chemsys": null, "volume": 158.1420058099125, "density": 4.962548465517407, "density_atomic": 19.76775072623906, "symmetry": null, "property_name": null, "material_id": "mp-1039262", "deprecated": null, "deprecation_reasons": null, "last_updated": null, "origins": null, "warnings": null, "structure": {"@module": "pymatgen.core.structure", "@class": "Structure", "charge": 0, "lattice": {"matrix": [[3.24404395, -5.6188492, -0.0], [3.24404395, 5.6188492, 0.0], [0.0, 0.0, 4.33793601]], "pbc": [true, true, true], "a": 6.488088122233871, "b": 6.488088122233871, "c": 4.33793601, "alpha": 90.0, "beta": 90.0, "gamma": 120.00000226613359, "volume": 158.1420058099125}, "properties": {}, "sites": [{"species": [{"element": "Ca", "occu": 1}], "abc": [0.666667, 0.333333, 0.25], "properties": {"magmom": -0.0}, "label": "Ca", "xyz": [3.24404395, -1.8729534792328, 1.0844840025]}, {"species": [{"element": "Ca", "occu": 1}], "abc": [0.333333, 0.666667, 0.75], "properties": {"magmom": -0.0}, "label": "Ca", "xyz": [3.24404395, 1.8729534792328, 3.2534520075]}, {"species": [{"element": "Zn", "occu": 1}], "abc": [0.13827502, 0.27655004, 0.25], "properties": {"magmom": -0.0}, "label": "Zn", "xyz": [1.345710726201387, 0.776946485506984, 1.0844840025]}, {"species": [{"element": "Zn", "occu": 1}], "abc": [0.7234499600000001, 0.86172498, 0.25], "properties": {"magmom": -0.0}, "label": "Zn", "xyz": [5.142377173798613, 0.7769464855069828, 1.0844840025]}, {"species": [{"element": "Zn", "occu": 1}], "abc": [0.13827502, 0.86172498, 0.25], "properties": {"magmom": -0.0}, "label": "Zn", "xyz": [3.24404395, 4.0649562289860315, 1.0844840025]}, {"species": [{"element": "Zn", "occu": 1}], "abc": [0.27655004, 0.13827502, 0.75], "properties": {"magmom": -0.0}, "label": "Zn", "xyz": [1.345710726201387, -0.776946485506984, 3.2534520075]}, {"species": [{"element": "Zn", "occu": 1}], "abc": [0.86172498, 0.13827502, 0.75], "properties": {"magmom": -0.0}, "label": "Zn", "xyz": [3.24404395, -4.0649562289860315, 3.2534520075]}, {"species": [{"element": "Zn", "occu": 1}], "abc": [0.86172498, 0.7234499600000001, 0.75], "properties": {"magmom": -0.0}, "label": "Zn", "xyz": [5.142377173798613, -0.7769464855069828, 3.2534520075]}]}, "task_ids": null, "uncorrected_energy_per_atom": null, "energy_per_atom": -1.64749445, "formation_energy_per_atom": -0.20128677249999902, "energy_above_hull": 0.06413677166666501, "is_stable": false, "equilibrium_reaction_energy_per_atom": null, "decomposes_to": null, "xas": null, "grain_boundaries": null, "band_gap": 0.0, "cbm": null, "vbm": null, "efermi": 2.33008393, "is_gap_direct": null, "is_metal": null, "es_source_calc_id": null, "bandstructure": null, "dos": null, "dos_energy_up": null, "dos_energy_down": null, "is_magnetic": null, "ordering": null, "total_magnetization": 4e-07, "total_magnetization_normalized_vol": null, "total_magnetization_normalized_formula_units": null, "num_magnetic_sites": null, "num_unique_magnetic_sites": null, "types_of_magnetic_species": null, "bulk_modulus": null, "shear_modulus": null, "universal_anisotropy": null, "homogeneous_poisson": null, "e_total": null, "e_ionic": null, "e_electronic": null, "n": null, "e_ij_max": null, "weighted_surface_energy_EV_PER_ANG2": null, "weighted_surface_energy": null, "weighted_work_function": null, "surface_anisotropy": null, "shape_factor": null, "has_reconstructed": null, "possible_species": null, "has_props": null, "theoretical": null, "database_IDs": null, "fields_not_requested": ["builder_meta", "nsites", "elements", "nelements", "composition", "composition_reduced", "chemsys", "symmetry", "property_name", "deprecated", "deprecation_reasons", "last_updated", "origins", "warnings", "task_ids", "uncorrected_energy_per_atom", "equilibrium_reaction_energy_per_atom", "decomposes_to", "xas", "grain_boundaries", "cbm", "vbm", "is_gap_direct", "is_metal", "es_source_calc_id", "bandstructure", "dos", "dos_energy_up", "dos_energy_down", "is_magnetic", "ordering", "total_magnetization_normalized_vol", "total_magnetization_normalized_formula_units", "num_magnetic_sites", "num_unique_magnetic_sites", "types_of_magnetic_species", "bulk_modulus", "shear_modulus", "universal_anisotropy", "homogeneous_poisson", "e_total", "e_ionic", "e_electronic", "n", "e_ij_max", "weighted_surface_energy_EV_PER_ANG2", "weighted_surface_energy", "weighted_work_function", "surface_anisotropy", "shape_factor", "has_reconstructed", "possible_species", "has_props", "theoretical", "database_IDs"]}