{"builder_meta": null, "nsites": null, "elements": null, "nelements": null, "composition": null, "composition_reduced": null, "formula_pretty": "CCl", "formula_anonymous": "AB", "chemsys": null, "volume": 1315.1146936545747, "density": 1.91777227584888, "density_atomic": 20.54866708835273, "symmetry": null, "property_name": null, "material_id": "mp-1214295", "deprecated": null, "deprecation_reasons": null, "last_updated": null, "origins": null, "warnings": null, "structure": {"@module": "pymatgen.core.structure", "@class": "Structure", "charge": 0.0, "lattice": {"matrix": [[8.85875406, 0.02277057, -0.0752774], [-1.1693688, 10.21504399, -0.01241577], [-2.50652162, -2.62604762, 14.55560316]], "pbc": [true, true, true], "a": 8.85910315333191, "b": 10.281765473856776, "c": 15.001478596639636, "alpha": 98.97974670323418, "beta": 100.12364225869413, "gamma": 96.3824154687591, "volume": 1315.1146936545747}, "properties": {}, "sites": [{"species": [{"element": "C", "occu": 1}], "abc": [0.14132508, 0.28840095, 0.11670922], "properties": {"magmom": -0.0}, "label": "C", "xyz": [0.6221828702261285, 2.6427624742216294, 1.6845537869929619]}, {"species": [{"element": "C", "occu": 1}], "abc": [0.85867492, 0.71159905, 0.88329078], "properties": {"magmom": -0.0}, "label": "C", "xyz": [4.560680769773873, 4.96900446577837, 12.78335620300704]}, {"species": [{"element": "C", "occu": 1}], "abc": [0.025706299999999002, 0.23479388, 0.2490491], "properties": {"magmom": 0.0}, "label": "C", "xyz": [-0.6710818018019169, 1.74500036356823, 3.6202096167160485]}, {"species": [{"element": "C", "occu": 1}], "abc": [0.974293699999999, 0.76520612, 0.7509509], "properties": {"magmom": 0.0}, "label": "C", "xyz": [5.8539454418019, 5.866766576431769, 10.847700373283951]}, {"species": [{"element": "C", "occu": 1}], "abc": [0.59962454, 0.38370923, 0.43471057], "properties": {"magmom": -0.0}, "label": "C", "xyz": [3.7736172842190854, 2.791689798643472, 6.277572324483448]}, {"species": [{"element": "C", "occu": 1}], "abc": [0.40037546, 0.61629077, 0.56528943], "properties": {"magmom": -0.0}, "label": "C", "xyz": [1.4092463557809156, 4.820077141356528, 8.190337665516552]}, {"species": [{"element": "C", "occu": 1}], "abc": [0.27011079, 0.26419508, 0.08390872], "properties": {"magmom": 0.0}, "label": "C", "xyz": [1.8735845531102773, 2.4845666463397738, 1.1977286066519977]}, {"species": [{"element": "C", "occu": 1}], "abc": [0.7298892100000001, 0.73580492, 0.9160912800000001], "properties": {"magmom": 0.0}, "label": "C", "xyz": [3.309279086889724, 5.127200293660227, 13.270181383348003]}, {"species": [{"element": "C", "occu": 1}], "abc": [0.49522985, 0.14885665, 0.13403001], "properties": {"magmom": 0.0}, "label": "C", "xyz": [3.8771020043443554, 1.1798847051504717, 1.9117598516510712]}, {"species": [{"element": "C", "occu": 1}], "abc": [0.50477015, 0.85114335, 0.86596999], "properties": {"magmom": 0.0}, "label": "C", "xyz": [1.3057616356556454, 6.431882234849528, 12.55615013834893]}, {"species": [{"element": "C", "occu": 1}], "abc": [0.3255142, 0.74442631, 0.35507883], "properties": {"magmom": -0.0}, "label": "C", "xyz": [1.123128575825219, 6.679305731406586, 5.134640051511115]}, {"species": [{"element": "C", "occu": 1}], "abc": [0.6744858, 0.25557369, 0.64492117], "properties": {"magmom": -0.0}, "label": "C", "xyz": [4.059735064174781, 0.9324612085934136, 9.333269938488886]}, {"species": [{"element": "C", "occu": 1}], "abc": [0.07936605000000001, 0.19505992, 0.1712889], "properties": {"magmom": -0.0}, "label": "C", "xyz": [0.04564800196914909, 1.5445400655056112, 2.4848169651177154]}, {"species": [{"element": "C", "occu": 1}], "abc": [0.92063395, 0.8049400800000001, 0.828711099999999], "properties": {"magmom": -0.0}, "label": "C", "xyz": [5.137215638030854, 6.067226874494391, 11.98309302488227]}, {"species": [{"element": "C", "occu": 1}], "abc": [0.59335139, 0.2891679, 0.48820922], "properties": {"magmom": 0.0}, "label": "C", "xyz": [3.6945031499342877, 1.685313108113457, 7.057923473309766]}, {"species": [{"element": "C", "occu": 1}], "abc": [0.40664861, 0.7108321, 0.51179078], "properties": {"magmom": 0.0}, "label": "C", "xyz": [1.4883604900657135, 5.926453831886542, 7.409986516690235]}, {"species": [{"element": "C", "occu": 1}], "abc": [0.44832435, 0.28255451, 0.72097576], "properties": {"magmom": -0.0}, "label": "C", "xyz": [1.834043397530142, 1.003198671591583, 10.45698022730609]}, {"species": [{"element": "C", "occu": 1}], "abc": [0.55167565, 0.71744549, 0.27902424], "properties": {"magmom": -0.0}, "label": "C", "xyz": [3.348820242469858, 6.608568268408417, 4.010929762693911]}, {"species": [{"element": "C", "occu": 1}], "abc": [0.34093002, 0.14733575000000002, 0.10603554], "properties": {"magmom": -0.0}, "label": "C", "xyz": [2.582144996177907, 1.2343499609827393, 1.5159176288239808]}, {"species": [{"element": "C", "occu": 1}], "abc": [0.65906998, 0.85266425, 0.8939644600000001], "properties": {"magmom": -0.0}, "label": "C", "xyz": [2.600718643822095, 6.37741697901726, 12.951992361176021]}, {"species": [{"element": "C", "occu": 1}], "abc": [0.45634731, 0.18979067, 0.48010895000000003], "properties": {"magmom": -0.0}, "label": "C", "xyz": [2.617329834072984, 0.6883223658200408, 6.951566313463624]}, {"species": [{"element": "C", "occu": 1}], "abc": [0.54365269, 0.8102093300000001, 0.51989105], "properties": {"magmom": -0.0}, "label": "C", "xyz": [2.565533805927017, 6.9234445741799595, 7.516343676536378]}, {"species": [{"element": "C", "occu": 1}], "abc": [0.41338443, 0.16329198, 0.55839005], "properties": {"magmom": -0.0}, "label": "C", "xyz": [2.071505718183181, 0.2110888961802444, 8.094558075535152]}, {"species": [{"element": "C", "occu": 1}], "abc": [0.58661557, 0.83670802, 0.44160995000000003], "properties": {"magmom": -0.0}, "label": "C", "xyz": [3.1113579218168192, 7.400678043819756, 6.373351914464849]}, {"species": [{"element": "C", "occu": 1}], "abc": [0.22408239, 0.03244309, 0.10352645], "properties": {"magmom": 0.0}, "label": "C", "xyz": [1.6876615597985625, 0.06464468763924236, 1.4896187771150668]}, {"species": [{"element": "C", "occu": 1}], "abc": [0.77591761, 0.96755691, 0.8964735500000001], "properties": {"magmom": 0.0}, "label": "C", "xyz": [3.4952020802014383, 7.547122252360756, 12.978291212884935]}, {"species": [{"element": "C", "occu": 1}], "abc": [0.28361239, 0.7174237800000001, 0.43343418], "properties": {"magmom": 0.0}, "label": "C", "xyz": [0.5871072836517681, 6.196754691135793, 6.2786389480880125]}, {"species": [{"element": "C", "occu": 1}], "abc": [0.7163876100000001, 0.28257622, 0.56656582], "properties": {"magmom": 0.0}, "label": "C", "xyz": [4.595756356348234, 1.4150122488642067, 8.189271041911988]}, {"species": [{"element": "C", "occu": 1}], "abc": [0.50781451, 0.23379595, 0.64716079], "properties": {"magmom": 0.0}, "label": "C", "xyz": [2.603087650941771, 0.7003240874439913, 9.37868592721489]}, {"species": [{"element": "C", "occu": 1}], "abc": [0.49218549, 0.76620405, 0.35283921], "properties": {"magmom": 0.0}, "label": "C", "xyz": [2.5797759890582297, 6.911442852556008, 5.089224062785109]}, {"species": [{"element": "C", "occu": 1}], "abc": [0.09502312, 0.05592537, 0.13636116], "properties": {"magmom": 0.0}, "label": "C", "xyz": [0.4345968716191321, 0.21535294563416552, 1.9769714814526929]}, {"species": [{"element": "C", "occu": 1}], "abc": [0.90497688, 0.94407463, 0.86363884], "properties": {"magmom": 0.0}, "label": "C", "xyz": [4.748266768380869, 7.396413994365835, 12.490938508547307]}, {"species": [{"element": "Cl", "occu": 1}], "abc": [0.33586649, 0.35088789, 0.00620541], "properties": {"magmom": 0.0}, "label": "Cl", "xyz": [2.5494872867156535, 3.5756874011678557, 0.060683785952744304]}, {"species": [{"element": "Cl", "occu": 1}], "abc": [0.66413351, 0.64911211, 0.99379459], "properties": {"magmom": 0.0}, "label": "Cl", "xyz": [2.6333763532843473, 4.036079538832144, 14.407226204047257]}, {"species": [{"element": "Cl", "occu": 1}], "abc": [0.36797016, 0.09908927000000001, 0.37462474], "properties": {"magmom": 0.0}, "label": "Cl", "xyz": [2.2048802379091947, 0.03679773540305975, 5.423958942850007]}, {"species": [{"element": "Cl", "occu": 1}], "abc": [0.6320298400000001, 0.90091073, 0.62537526], "properties": {"magmom": 0.0}, "label": "Cl", "xyz": [2.977983402090806, 7.574969204596941, 9.043951047149994]}, {"species": [{"element": "Cl", "occu": 1}], "abc": [0.19143837, 0.77233959, 0.26567173], "properties": {"magmom": 0.0}, "label": "Cl", "xyz": [0.12684368285868786, 7.196175433605553, 3.8430120992454944]}, {"species": [{"element": "Cl", "occu": 1}], "abc": [0.80856163, 0.22766041, 0.73432827], "properties": {"magmom": 0.0}, "label": "Cl", "xyz": [5.056019957141313, 0.41559150639444753, 10.624897890754506]}, {"species": [{"element": "Cl", "occu": 1}], "abc": [0.9604720800000001, 0.12861478, 0.31466907], "properties": {"magmom": 0.0}, "label": "Cl", "xyz": [7.569463000165489, 0.5093401698337444, 4.506299417164189]}, {"species": [{"element": "Cl", "occu": 1}], "abc": [0.03952792, 0.8713852200000001, 0.68533093], "properties": {"magmom": 0.0}, "label": "Cl", "xyz": [-2.3865993601654876, 7.102426770166255, 9.961610572835811]}, {"species": [{"element": "Cl", "occu": 1}], "abc": [0.24278775, 0.87844021, 0.048066620000000004], "properties": {"magmom": -0.0}, "label": "Cl", "xyz": [1.003096369560993, 8.85260857013891, 0.6704557037845575]}, {"species": [{"element": "Cl", "occu": 1}], "abc": [0.75721225, 0.12155979, 0.95193338], "properties": {"magmom": -0.0}, "label": "Cl", "xyz": [4.179767270439008, -1.2408416301389111, 13.797454286215443]}, {"species": [{"element": "Cl", "occu": 1}], "abc": [0.24652994, 0.49447232, 0.54982536], "properties": {"magmom": 0.0}, "label": "Cl", "xyz": [0.22757845135065735, 3.6128025498495804, 7.978342359962295]}, {"species": [{"element": "Cl", "occu": 1}], "abc": [0.75347006, 0.50552768, 0.45017464], "properties": {"magmom": 0.0}, "label": "Cl", "xyz": [4.955285188649344, 3.998964390150421, 6.489567630037705]}, {"species": [{"element": "Cl", "occu": 1}], "abc": [0.0259503, 0.397785799999999, 0.29380034], "properties": {"magmom": 0.0}, "label": "Cl", "xyz": [-0.9716878822931716, 3.292456665107812, 4.269548869197789]}, {"species": [{"element": "Cl", "occu": 1}], "abc": [0.9740496999999991, 0.602214199999999, 0.70619966], "properties": {"magmom": 0.0}, "label": "Cl", "xyz": [6.154551522293167, 4.319310274892168, 10.198361120802211]}, {"species": [{"element": "Cl", "occu": 1}], "abc": [0.05455684, 0.06972296, 0.8738576], "properties": {"magmom": -0.0}, "label": "Cl", "xyz": [-1.7885691934181898, -1.5813262768417027, 12.714551882647521]}, {"species": [{"element": "Cl", "occu": 1}], "abc": [0.9454431600000001, 0.93027704, 0.1261424], "properties": {"magmom": -0.0}, "label": "Cl", "xyz": [6.9714328334181905, 9.193093216841703, 1.753358107352479]}, {"species": [{"element": "Cl", "occu": 1}], "abc": [0.26515968, 0.03905313, 0.55440356], "properties": {"magmom": -0.0}, "label": "Cl", "xyz": [0.9136923706389897, -1.050922871305721, 8.049232803876158]}, {"species": [{"element": "Cl", "occu": 1}], "abc": [0.73484032, 0.96094687, 0.44559644], "properties": {"magmom": -0.0}, "label": "Cl", "xyz": [4.269171269361011, 8.662689811305722, 6.418677186123842]}, {"species": [{"element": "Cl", "occu": 1}], "abc": [0.62811623, 0.28684355, 0.14581447], "properties": {"magmom": -0.0}, "label": "Cl", "xyz": [4.863414183249313, 2.561506304176054, 2.0715732200707397]}, {"species": [{"element": "Cl", "occu": 1}], "abc": [0.37188377, 0.71315645, 0.85418553], "properties": {"magmom": -0.0}, "label": "Cl", "xyz": [0.31944945675068803, 5.050260635823946, 12.39633676992926]}, {"species": [{"element": "Cl", "occu": 1}], "abc": [0.09494884, 0.71160793, 0.44685516000000003], "properties": {"magmom": -0.0}, "label": "Cl", "xyz": [-1.1110558088808529, 6.097805418387761, 6.4882637167610335]}, {"species": [{"element": "Cl", "occu": 1}], "abc": [0.90505116, 0.28839207, 0.55314484], "properties": {"magmom": -0.0}, "label": "Cl", "xyz": [6.293919448880853, 1.51396152161224, 7.9796462732389655]}, {"species": [{"element": "Cl", "occu": 1}], "abc": [0.57376455, 0.01602146, 0.16686887], "properties": {"magmom": 0.0}, "label": "Cl", "xyz": [4.645843610982157, -0.2614807343822705, 2.385486629179035]}, {"species": [{"element": "Cl", "occu": 1}], "abc": [0.42623545, 0.9839785400000001, 0.83313113], "properties": {"magmom": 0.0}, "label": "Cl", "xyz": [0.5370200290178446, 7.873247674382272, 12.082423360820965]}, {"species": [{"element": "Cl", "occu": 1}], "abc": [0.03875127, 0.41070305, 0.08444388], "properties": {"magmom": 0.0}, "label": "Cl", "xyz": [-0.3486357731888694, 3.974478460985728, 1.2211153171112643]}, {"species": [{"element": "Cl", "occu": 1}], "abc": [0.96124873, 0.58929695, 0.91555612], "properties": {"magmom": 0.0}, "label": "Cl", "xyz": [5.53149941318887, 3.637288479014273, 13.246794672888736]}, {"species": [{"element": "Cl", "occu": 1}], "abc": [0.25521076, 0.26445325000000003, 0.72282375], "properties": {"magmom": -0.0}, "label": "Cl", "xyz": [0.13983261987261075, 0.8090432881568259, 10.498640666430473]}, {"species": [{"element": "Cl", "occu": 1}], "abc": [0.74478924, 0.73554675, 0.27717625], "properties": {"magmom": -0.0}, "label": "Cl", "xyz": [5.0430310201273905, 6.802723651843175, 3.9692693235695264]}, {"species": [{"element": "Cl", "occu": 1}], "abc": [0.45039436, 0.39816152, 0.349686599999999], "properties": {"magmom": -0.0}, "label": "Cl", "xyz": [2.6478381832782363, 3.1591995145513607, 5.051051381719007]}, {"species": [{"element": "Cl", "occu": 1}], "abc": [0.54960564, 0.6018384800000001, 0.650313399999999], "properties": {"magmom": -0.0}, "label": "Cl", "xyz": [2.53502545672177, 4.452567425448645, 9.416858608280965]}, {"species": [{"element": "Cl", "occu": 1}], "abc": [0.44167466, 0.6238808100000001, 0.18070911], "properties": {"magmom": 0.0}, "label": "Cl", "xyz": [2.730189142195434, 5.90847637420177, 2.58933601186173]}, {"species": [{"element": "Cl", "occu": 1}], "abc": [0.55832534, 0.37611919, 0.81929089], "properties": {"magmom": 0.0}, "label": "Cl", "xyz": [2.452674497804567, 1.70329056579823, 11.87857397813827]}]}, "task_ids": null, "uncorrected_energy_per_atom": null, "energy_per_atom": -5.75384873546875, "formation_energy_per_atom": -0.21524458921875, "energy_above_hull": 0.18618076624999802, "is_stable": false, "equilibrium_reaction_energy_per_atom": null, "decomposes_to": null, "xas": null, "grain_boundaries": null, "band_gap": 2.1141, "cbm": null, "vbm": null, "efermi": 0.32070562, "is_gap_direct": null, "is_metal": null, "es_source_calc_id": null, "bandstructure": null, "dos": null, "dos_energy_up": null, "dos_energy_down": null, "is_magnetic": null, "ordering": null, "total_magnetization": 0.0, "total_magnetization_normalized_vol": null, "total_magnetization_normalized_formula_units": null, "num_magnetic_sites": null, "num_unique_magnetic_sites": null, "types_of_magnetic_species": null, "bulk_modulus": null, "shear_modulus": null, "universal_anisotropy": null, "homogeneous_poisson": null, "e_total": null, "e_ionic": null, "e_electronic": null, "n": null, "e_ij_max": null, "weighted_surface_energy_EV_PER_ANG2": null, "weighted_surface_energy": null, "weighted_work_function": null, "surface_anisotropy": null, "shape_factor": null, "has_reconstructed": null, "possible_species": null, "has_props": null, "theoretical": null, "database_IDs": null, "fields_not_requested": ["builder_meta", "nsites", "elements", "nelements", "composition", "composition_reduced", "chemsys", "symmetry", "property_name", "deprecated", "deprecation_reasons", "last_updated", "origins", "warnings", "task_ids", "uncorrected_energy_per_atom", "equilibrium_reaction_energy_per_atom", "decomposes_to", "xas", "grain_boundaries", "cbm", "vbm", "is_gap_direct", "is_metal", "es_source_calc_id", "bandstructure", "dos", "dos_energy_up", "dos_energy_down", "is_magnetic", "ordering", "total_magnetization_normalized_vol", "total_magnetization_normalized_formula_units", "num_magnetic_sites", "num_unique_magnetic_sites", "types_of_magnetic_species", "bulk_modulus", "shear_modulus", "universal_anisotropy", "homogeneous_poisson", "e_total", "e_ionic", "e_electronic", "n", "e_ij_max", "weighted_surface_energy_EV_PER_ANG2", "weighted_surface_energy", "weighted_work_function", "surface_anisotropy", "shape_factor", "has_reconstructed", "possible_species", "has_props", "theoretical", "database_IDs"]}