{"builder_meta": null, "nsites": null, "elements": null, "nelements": null, "composition": null, "composition_reduced": null, "formula_pretty": "CCl4", "formula_anonymous": "AB4", "chemsys": null, "volume": 2085.149385826538, "density": 1.9599831410919601, "density_atomic": 26.064367322831725, "symmetry": null, "property_name": null, "material_id": "mp-1004532", "deprecated": null, "deprecation_reasons": null, "last_updated": null, "origins": null, "warnings": null, "structure": {"@module": "pymatgen.core.structure", "@class": "Structure", "charge": 0, "lattice": {"matrix": [[5.8541186, -9.69235832, -4e-08], [10.92848771, -0.01337149, -3.62526498], [10.93883369, -0.00712368, 16.0701605]], "pbc": [true, true, true], "a": 11.323096501670344, "b": 11.514103030613382, "c": 19.439860898166323, "alpha": 74.10920327191458, "beta": 73.0681476839203, "gamma": 60.547252712817496, "volume": 2085.149385826538}, "properties": {}, "sites": [{"species": [{"element": "C", "occu": 1}], "abc": [0.94373147, 0.80957589, 0.87370803], "properties": {"magmom": -0.0}, "label": "C", "xyz": [23.929502949897184, -9.164032817436858, 11.105701111820224]}, {"species": [{"element": "C", "occu": 1}], "abc": [0.6270154, 0.69042411, 0.62629197], "properties": {"magmom": -0.0}, "label": "C", "xyz": [18.0668176176616, -6.090951431621602, 7.561642105349902]}, {"species": [{"element": "C", "occu": 1}], "abc": [0.056268530000000004, 0.19042411, 0.12629197], "properties": {"magmom": -0.0}, "label": "C", "xyz": [3.7919370501028156, -0.5488206725631432, 1.3391943681797762]}, {"species": [{"element": "C", "occu": 1}], "abc": [0.3729846, 0.30957589, 0.37370803], "properties": {"magmom": -0.0}, "label": "C", "xyz": [9.654622382338403, -3.6219020583783985, 4.883253374650099]}, {"species": [{"element": "C", "occu": 1}], "abc": [0.18617634, 0.63169139, 0.6221327600000001], "properties": {"magmom": -0.0}, "label": "C", "xyz": [14.798736761742425, -1.8173663277903767, 7.7077246237264045]}, {"species": [{"element": "C", "occu": 1}], "abc": [0.44000149, 0.86830861, 0.87786724], "properties": {"magmom": -0.0}, "label": "C", "xyz": [21.667964619768213, -4.282516327609669, 10.959618631226483]}, {"species": [{"element": "C", "occu": 1}], "abc": [0.8138236600000001, 0.36830861, 0.37786724], "properties": {"magmom": -0.0}, "label": "C", "xyz": [12.922703238257576, -7.895487162209624, 4.737170856273596]}, {"species": [{"element": "C", "occu": 1}], "abc": [0.55999851, 0.13169139, 0.12213276], "properties": {"magmom": -0.0}, "label": "C", "xyz": [6.053475380231786, -5.430337162390331, 1.4852768487735175]}, {"species": [{"element": "C", "occu": 1}], "abc": [0.6842233600000001, 0.13690361, 0.62226448], "properties": {"magmom": 0.0}, "label": "C", "xyz": [12.30852177558446, -6.638001394317321, 9.503578176711528]}, {"species": [{"element": "C", "occu": 1}], "abc": [0.44339044, 0.36309639, 0.87773552], "properties": {"magmom": 0.0}, "label": "C", "xyz": [16.16515753461222, -4.3086068668594955, 12.78903003818392]}, {"species": [{"element": "C", "occu": 1}], "abc": [0.31577664, 0.86309639, 0.37773552], "properties": {"magmom": 0.0}, "label": "C", "xyz": [15.412918224415542, -3.07485209568268, 2.9413173032884723]}, {"species": [{"element": "C", "occu": 1}], "abc": [0.5566095600000001, 0.6369036100000001, 0.12226448000000001], "properties": {"magmom": 0.0}, "label": "C", "xyz": [11.556282465387781, -5.404246623140505, -0.3441345581839199]}, {"species": [{"element": "C", "occu": 1}], "abc": [0.9385243, 0.31320736, 0.8773179], "properties": {"magmom": -0.0}, "label": "C", "xyz": [18.513949946983576, -9.106951588687215, 12.963179751295725]}, {"species": [{"element": "C", "occu": 1}], "abc": [0.12904656, 0.18679264, 0.6226821], "properties": {"magmom": -0.0}, "label": "C", "xyz": [9.60823087136042, -1.2576989834233407, 9.32942846600144]}, {"species": [{"element": "C", "occu": 1}], "abc": [0.061475699999999, 0.6867926400000001, 0.122682099999999], "properties": {"magmom": -0.0}, "label": "C", "xyz": [9.207490053016407, -0.605901901312776, -0.5182842712957414]}, {"species": [{"element": "C", "occu": 1}], "abc": [0.87095344, 0.81320736, 0.3773179], "properties": {"magmom": -0.0}, "label": "C", "xyz": [18.113209128639582, -8.45515450657666, 3.1154670139985594]}, {"species": [{"element": "Cl", "occu": 1}], "abc": [0.85978842, 0.89565863, 0.79842788], "properties": {"magmom": -0.0}, "label": "Cl", "xyz": [23.555367504676326, -8.351041481161312, 9.583864279509426]}, {"species": [{"element": "Cl", "occu": 1}], "abc": [0.55387493, 0.60434137, 0.70157212], "properties": {"magmom": -0.0}, "label": "Cl", "xyz": [17.521367506696983, -5.38143300589026, 9.08347894394404]}, {"species": [{"element": "Cl", "occu": 1}], "abc": [0.14021158, 0.10434037, 0.20157212], "properties": {"magmom": -0.0}, "label": "Cl", "xyz": [4.166061566835963, -1.3618119954671988, 2.8610348257555542]}, {"species": [{"element": "Cl", "occu": 1}], "abc": [0.44612507, 0.39565963, 0.29842788], "properties": {"magmom": -0.0}, "label": "Cl", "xyz": [10.200083421790726, -4.33142049748123, 3.36141291079098]}, {"species": [{"element": "Cl", "occu": 1}], "abc": [0.95988288, 0.64396283, 0.89633822], "properties": {"magmom": 0.0}, "label": "Cl", "xyz": [22.46170281355202, -9.318524787386329, 12.0697631232683]}, {"species": [{"element": "Cl", "occu": 1}], "abc": [0.50018493, 0.85603717, 0.60366178], "properties": {"magmom": 0.0}, "label": "Cl", "xyz": [18.886689410230247, -4.863718353631351, 6.597580098328988]}, {"species": [{"element": "Cl", "occu": 1}], "abc": [0.04011712, 0.35603717, 0.10366178000000001], "properties": {"magmom": 0.0}, "label": "Cl", "xyz": [5.259737186447982, -0.3943287026136721, 0.37513235673169865]}, {"species": [{"element": "Cl", "occu": 1}], "abc": [0.49981507000000003, 0.14396283, 0.39633822], "properties": {"magmom": 0.0}, "label": "Cl", "xyz": [8.834750589769754, -4.849135136368648, 5.847315381671015]}, {"species": [{"element": "Cl", "occu": 1}], "abc": [0.8445800800000001, 0.89590545, 0.9488637600000001], "properties": {"magmom": 0.0}, "label": "Cl", "xyz": [25.11462652027258, -8.204711757849724, 12.000498228774138]}, {"species": [{"element": "Cl", "occu": 1}], "abc": [0.68934929, 0.60409455, 0.55113624], "properties": {"magmom": 0.0}, "label": "Cl", "xyz": [16.6661600357307, -6.693424088762136, 6.66684498986869]}, {"species": [{"element": "Cl", "occu": 1}], "abc": [0.15541992000000002, 0.10409455000000001, 0.05113624], "properties": {"magmom": 0.0}, "label": "Cl", "xyz": [2.6068134797274185, -1.5081417321502772, 0.44439725122586415]}, {"species": [{"element": "Cl", "occu": 1}], "abc": [0.31065071, 0.39590545, 0.44886376], "properties": {"magmom": 0.0}, "label": "Cl", "xyz": [11.0552799642693, -3.019429401237865, 5.778050490131311]}, {"species": [{"element": "Cl", "occu": 1}], "abc": [0.10853784, 0.80425686, 0.85177544], "properties": {"magmom": 0.0}, "label": "Cl", "xyz": [18.742134477527586, -1.0688095247861693, 10.772523796933845]}, {"species": [{"element": "Cl", "occu": 1}], "abc": [0.76457014, 0.69574314, 0.6482245600000001], "properties": {"magmom": 0.0}, "label": "Cl", "xyz": [19.17012528799884, -7.424408624425225, 7.894819448141838]}, {"species": [{"element": "Cl", "occu": 1}], "abc": [0.89146216, 0.19574314, 0.14822456], "properties": {"magmom": 0.0}, "label": "Cl", "xyz": [8.979305522472412, -8.64404396521383, 1.6723716830661564]}, {"species": [{"element": "Cl", "occu": 1}], "abc": [0.23542986000000002, 0.30425686, 0.35177544], "properties": {"magmom": 0.0}, "label": "Cl", "xyz": [8.55131471200116, -2.288444865574776, 4.550076031858163]}, {"species": [{"element": "Cl", "occu": 1}], "abc": [0.18383766, 0.77309931, 0.64229282], "properties": {"magmom": 0.0}, "label": "Cl", "xyz": [16.55094811099206, -1.796733451638981, 7.51905884343894]}, {"species": [{"element": "Cl", "occu": 1}], "abc": [0.59922779, 0.72690069, 0.85770718], "properties": {"magmom": 0.0}, "label": "Cl", "xyz": [20.834192004870307, -5.823760232773064, 11.148284405238442]}, {"species": [{"element": "Cl", "occu": 1}], "abc": [0.81616234, 0.22690069000000002, 0.35770818], "properties": {"magmom": 0.0}, "label": "Cl", "xyz": [11.170502827841627, -7.9161200454847, 4.92585270672156]}, {"species": [{"element": "Cl", "occu": 1}], "abc": [0.40077221, 0.27309931, 0.14229382000000002], "properties": {"magmom": 0.0}, "label": "Cl", "xyz": [6.887258933963382, -3.8890932643506173, 1.2966271449220579]}, {"species": [{"element": "Cl", "occu": 1}], "abc": [0.099281399999999, 0.56107392, 0.69888258], "properties": {"magmom": 0.0}, "label": "Cl", "xyz": [14.357854840953678, -0.9747519134792736, 9.197113593915514]}, {"species": [{"element": "Cl", "occu": 1}], "abc": [0.35923889999999903, 0.93892608, 0.80111742], "properties": {"magmom": 0.0}, "label": "Cl", "xyz": [21.12735947575389, -3.5001338861146034, 9.470229667743675]}, {"species": [{"element": "Cl", "occu": 1}], "abc": [0.900718599999999, 0.43892608, 0.30111742], "properties": {"magmom": 0.0}, "label": "Cl", "xyz": [13.36358515904631, -8.738101576520707, 3.247781886084488]}, {"species": [{"element": "Cl", "occu": 1}], "abc": [0.6407611, 0.061073920000000004, 0.19888258], "properties": {"magmom": 0.0}, "label": "Cl", "xyz": [6.5940805242461025, -6.212719603885387, 2.9746658122563248]}, {"species": [{"element": "Cl", "occu": 1}], "abc": [0.35830845, 0.50972507, 0.599745], "properties": {"magmom": 0.0}, "label": "Cl", "xyz": [14.228615136065109, -3.4839420616216583, 7.790109949041113]}, {"species": [{"element": "Cl", "occu": 1}], "abc": [0.46777752, 0.99027493, 0.900254999999999], "properties": {"magmom": 0.0}, "label": "Cl", "xyz": [23.408372206110922, -4.553521917743112, 10.877233297915431]}, {"species": [{"element": "Cl", "occu": 1}], "abc": [0.64169155, 0.49027493, 0.40025499999999903], "properties": {"magmom": 0.0}, "label": "Cl", "xyz": [13.49282486393488, -6.228911428378342, 4.654785530958871]}, {"species": [{"element": "Cl", "occu": 1}], "abc": [0.53222248, 0.00972507, 0.099745], "properties": {"magmom": 0.0}, "label": "Cl", "xyz": [4.3130677938890685, -5.159331572256889, 1.5676621820845522]}, {"species": [{"element": "Cl", "occu": 1}], "abc": [0.1025518, 0.68175226, 0.5479022100000001], "properties": {"magmom": 0.0}, "label": "Cl", "xyz": [14.04428274809166, -1.006987915503376, 6.3333438556887796]}, {"species": [{"element": "Cl", "occu": 1}], "abc": [0.33220727, 0.81824774, 0.95209779], "properties": {"magmom": 0.0}, "label": "Cl", "xyz": [21.301830510114044, -3.2375955288065863, 12.33399940692086]}, {"species": [{"element": "Cl", "occu": 1}], "abc": [0.897448199999999, 0.31824774, 0.45209779], "properties": {"magmom": 0.0}, "label": "Cl", "xyz": [13.677157251908334, -8.705865574496613, 6.111551624311222]}, {"species": [{"element": "Cl", "occu": 1}], "abc": [0.6677927300000001, 0.18175226, 0.04790221], "properties": {"magmom": 0.0}, "label": "Cl", "xyz": [6.419609489885957, -6.475257961193415, 0.11089607307914107]}, {"species": [{"element": "Cl", "occu": 1}], "abc": [0.68643233, 0.27649919, 0.6416080200000001], "properties": {"magmom": -0.0}, "label": "Cl", "xyz": [14.058617695384486, -6.661415921166493, 9.30836100152455]}, {"species": [{"element": "Cl", "occu": 1}], "abc": [0.60453954, 0.22350081, 0.85839198], "properties": {"magmom": -0.0}, "label": "Cl", "xyz": [15.371379130859296, -5.868517288913965, 12.984247206836576]}, {"species": [{"element": "Cl", "occu": 1}], "abc": [0.31356767, 0.72350081, 0.35839198], "properties": {"magmom": -0.0}, "label": "Cl", "xyz": [13.662822304615512, -3.051437568833508, 3.1365344784754496]}, {"species": [{"element": "Cl", "occu": 1}], "abc": [0.39546046, 0.77649919, 0.14160802], "properties": {"magmom": -0.0}, "label": "Cl", "xyz": [12.350060869140705, -3.8443362010860342, -0.5393517268365744]}, {"species": [{"element": "Cl", "occu": 1}], "abc": [0.5888844400000001, 0.07376744, 0.69801611], "properties": {"magmom": -0.0}, "label": "Cl", "xyz": [11.889048055123492, -5.713637825541312, 10.949804378834026]}, {"species": [{"element": "Cl", "occu": 1}], "abc": [0.36066899, 0.42623256, 0.80198389], "properties": {"magmom": -0.0}, "label": "Cl", "xyz": [15.542244731133305, -3.5071455270037264, 11.342803843183837]}, {"species": [{"element": "Cl", "occu": 1}], "abc": [0.41111556, 0.92623256, 0.30198389000000003], "properties": {"magmom": -0.0}, "label": "Cl", "xyz": [15.832391944876509, -3.999215664458689, 1.4950911011659742]}, {"species": [{"element": "Cl", "occu": 1}], "abc": [0.63933101, 0.57376744, 0.19801611], "properties": {"magmom": -0.0}, "label": "Cl", "xyz": [12.179195268866694, -6.205707962996275, 1.1020916368161635]}, {"species": [{"element": "Cl", "occu": 1}], "abc": [0.85463996, 0.009335999999999001, 0.60352059], "properties": {"magmom": 0.0}, "label": "Cl", "xyz": [11.707003409900482, -8.28790085069768, 9.664827238315821]}, {"species": [{"element": "Cl", "occu": 1}], "abc": [0.46749654, 0.490664, 0.89647941], "properties": {"magmom": 0.0}, "label": "Cl", "xyz": [17.905434856488405, -4.544091120253002, 12.627780968798723]}, {"species": [{"element": "Cl", "occu": 1}], "abc": [0.14536004, 0.990664, 0.39647941000000003], "properties": {"magmom": 0.0}, "label": "Cl", "xyz": [16.014436590099507, -1.4249526393023217, 2.780068241684184]}, {"species": [{"element": "Cl", "occu": 1}], "abc": [0.53250346, 0.509336, 0.10352059], "properties": {"magmom": 0.0}, "label": "Cl", "xyz": [9.816005143511592, -5.168762369746999, -0.18288548879872346]}, {"species": [{"element": "Cl", "occu": 1}], "abc": [0.60575296, 0.18714513, 0.54595165], "properties": {"magmom": -0.0}, "label": "Cl", "xyz": [11.563437225463495, -5.877566335805043, 8.095079930543159]}, {"species": [{"element": "Cl", "occu": 1}], "abc": [0.33885074, 0.31285487, 0.95404835], "properties": {"magmom": -0.0}, "label": "Cl", "xyz": [15.838879254335323, -3.2952424599927412, 14.197528291672693]}, {"species": [{"element": "Cl", "occu": 1}], "abc": [0.39424704, 0.81285487, 0.45404835], "properties": {"magmom": -0.0}, "label": "Cl", "xyz": [16.158002774536502, -3.8352871541949574, 4.349815549456841]}, {"species": [{"element": "Cl", "occu": 1}], "abc": [0.66114926, 0.68714513, 0.045951650000000004], "properties": {"magmom": -0.0}, "label": "Cl", "xyz": [11.882560745664676, -6.417611030007258, -1.7526328116726924]}, {"species": [{"element": "Cl", "occu": 1}], "abc": [0.85716219, 0.40483868, 0.80142575], "properties": {"magmom": 0.0}, "label": "Cl", "xyz": [18.208866652741875, -8.319045480783915, 11.41139290789296]}, {"species": [{"element": "Cl", "occu": 1}], "abc": [0.06342662, 0.09516132000000001, 0.6985742500000001], "properties": {"magmom": 0.0}, "label": "Cl", "xyz": [9.052863812830992, -0.6210023961184853, 10.88121531528349]}, {"species": [{"element": "Cl", "occu": 1}], "abc": [0.14283781, 0.59516132, 0.19857425], "properties": {"magmom": 0.0}, "label": "Cl", "xyz": [9.512573347258126, -1.393808009216086, 1.0335025721070394]}, {"species": [{"element": "Cl", "occu": 1}], "abc": [0.93657338, 0.90483868, 0.30142575], "properties": {"magmom": 0.0}, "label": "Cl", "xyz": [18.66857618716901, -9.091851093881516, 1.563680164716513]}, {"species": [{"element": "Cl", "occu": 1}], "abc": [0.8398588300000001, 0.39718504, 0.9532305], "properties": {"magmom": 0.0}, "label": "Cl", "xyz": [19.68449493404864, -8.152314183414717, 13.878666078808997]}, {"species": [{"element": "Cl", "occu": 1}], "abc": [0.19027237, 0.10281596, 0.5467695], "properties": {"magmom": 0.0}, "label": "Cl", "xyz": [8.218520602799387, -1.8494578019683587, 8.413938514720774]}, {"species": [{"element": "Cl", "occu": 1}], "abc": [0.16014117, 0.60281496, 0.0467695], "properties": {"magmom": 0.0}, "label": "Cl", "xyz": [8.03694506595136, -1.5605393065852848, -1.4337705988089973]}, {"species": [{"element": "Cl", "occu": 1}], "abc": [0.80972763, 0.89718504, 0.4532305], "properties": {"magmom": 0.0}, "label": "Cl", "xyz": [19.502930325688318, -7.863395701403132, 4.030953340014245]}, {"species": [{"element": "Cl", "occu": 1}], "abc": [0.9505098, 0.14927123, 0.89755419], "properties": {"magmom": 0.0}, "label": "Cl", "xyz": [17.013901914346526, -9.221071435862989, 13.882692090086579]}, {"species": [{"element": "Cl", "occu": 1}], "abc": [-0.00266379, 0.35072877, 0.60244581], "properties": {"magmom": 0.0}, "label": "Cl", "xyz": [10.407395432730262, 0.016837009760684703, 8.40991613199958]}, {"species": [{"element": "Cl", "occu": 1}], "abc": [0.0494902, 0.85072877, 0.10244581], "properties": {"magmom": 0.0}, "label": "Cl", "xyz": [10.707538085653477, -0.49178205413701215, -1.4377966100865776]}, {"species": [{"element": "Cl", "occu": 1}], "abc": [0.00266379, 0.64927123, 0.39755419000000003], "properties": {"magmom": 0.0}, "label": "Cl", "xyz": [11.459925967269738, -0.0373321797606847, 4.034979388000418]}, {"species": [{"element": "Cl", "occu": 1}], "abc": [0.10516314, 0.303132, 0.85742173], "properties": {"magmom": -0.0}, "label": "Cl", "xyz": [13.307605537078206, -1.0294401594725713, 12.679970989163781]}, {"species": [{"element": "Cl", "occu": 1}], "abc": [0.26571687, 0.196868, 0.64257827], "properties": {"magmom": -0.0}, "label": "Cl", "xyz": [10.736064417830978, -2.5826330561726123, 9.612637256001019]}, {"species": [{"element": "Cl", "occu": 1}], "abc": [0.8948368600000001, 0.696867999999999, 0.14257827], "properties": {"magmom": -0.0}, "label": "Cl", "xyz": [14.413834462921784, -8.68341333052743, -0.23507550916377573]}, {"species": [{"element": "Cl", "occu": 1}], "abc": [0.73428313, 0.803132, 0.35742173], "properties": {"magmom": -0.0}, "label": "Cl", "xyz": [16.985375582169024, -7.130220433827388, 2.8322582239989798]}]}, "task_ids": null, "uncorrected_energy_per_atom": null, "energy_per_atom": -3.96684790725, "formation_energy_per_atom": -0.6422805687500001, "energy_above_hull": 0.0, "is_stable": true, "equilibrium_reaction_energy_per_atom": null, "decomposes_to": null, "xas": null, "grain_boundaries": null, "band_gap": 4.5103, "cbm": null, "vbm": null, "efermi": -1.87322221, "is_gap_direct": null, "is_metal": null, "es_source_calc_id": null, "bandstructure": null, "dos": null, "dos_energy_up": null, "dos_energy_down": null, "is_magnetic": null, "ordering": null, "total_magnetization": 0.0, "total_magnetization_normalized_vol": null, "total_magnetization_normalized_formula_units": null, "num_magnetic_sites": null, "num_unique_magnetic_sites": null, "types_of_magnetic_species": null, "bulk_modulus": null, "shear_modulus": null, "universal_anisotropy": null, "homogeneous_poisson": null, "e_total": null, "e_ionic": null, "e_electronic": null, "n": null, "e_ij_max": null, "weighted_surface_energy_EV_PER_ANG2": null, "weighted_surface_energy": null, "weighted_work_function": null, "surface_anisotropy": null, "shape_factor": null, "has_reconstructed": null, "possible_species": null, "has_props": null, "theoretical": null, "database_IDs": null, "fields_not_requested": ["builder_meta", "nsites", "elements", "nelements", "composition", "composition_reduced", "chemsys", "symmetry", "property_name", "deprecated", "deprecation_reasons", "last_updated", "origins", "warnings", "task_ids", "uncorrected_energy_per_atom", "equilibrium_reaction_energy_per_atom", "decomposes_to", "xas", "grain_boundaries", "cbm", "vbm", "is_gap_direct", "is_metal", "es_source_calc_id", "bandstructure", "dos", "dos_energy_up", "dos_energy_down", "is_magnetic", "ordering", "total_magnetization_normalized_vol", "total_magnetization_normalized_formula_units", "num_magnetic_sites", "num_unique_magnetic_sites", "types_of_magnetic_species", "bulk_modulus", "shear_modulus", "universal_anisotropy", "homogeneous_poisson", "e_total", "e_ionic", "e_electronic", "n", "e_ij_max", "weighted_surface_energy_EV_PER_ANG2", "weighted_surface_energy", "weighted_work_function", "surface_anisotropy", "shape_factor", "has_reconstructed", "possible_species", "has_props", "theoretical", "database_IDs"]}