{"builder_meta": null, "nsites": null, "elements": null, "nelements": null, "composition": null, "composition_reduced": null, "formula_pretty": "Cd2S", "formula_anonymous": "AB2", "chemsys": null, "volume": 78.99910856081468, "density": 5.399692565812861, "density_atomic": 26.333036186938227, "symmetry": null, "property_name": null, "material_id": "mp-1120762", "deprecated": null, "deprecation_reasons": null, "last_updated": null, "origins": null, "warnings": null, "structure": {"@module": "pymatgen.core.structure", "@class": "Structure", "charge": 0, "lattice": {"matrix": [[3.96267, 0.0, 0.0], [-1.981335, 3.431772999999999, 0.0], [0.0, 0.0, 5.8091919999999995]], "pbc": [true, true, true], "a": 3.96267, "b": 3.9626700980215337, "c": 5.8091919999999995, "alpha": 90.0, "beta": 90.0, "gamma": 119.999999181732, "volume": 78.99910856081462}, "properties": {}, "sites": [{"species": [{"element": "Cd", "occu": 1}], "abc": [0.666667, 0.333333, 0.578735], "properties": {"magmom": 0.0}, "label": "Cd", "xyz": [1.9813369813350001, 1.1439231894089996, 3.3619827321199995]}, {"species": [{"element": "Cd", "occu": 1}], "abc": [0.333333, 0.666667, 0.932716999999999], "properties": {"magmom": 0.0}, "label": "Cd", "xyz": [-1.9813350000674745e-06, 2.2878498105909992, 5.418332134663994]}, {"species": [{"element": "S", "occu": 1}], "abc": [0.333333, 0.666667, 0.365705], "properties": {"magmom": 0.0}, "label": "S", "xyz": [-1.9813350000674745e-06, 2.2878498105909992, 2.1244505603599997]}]}, "task_ids": null, "uncorrected_energy_per_atom": null, "energy_per_atom": -16.37665433666667, "formation_energy_per_atom": -0.29499618260417004, "energy_above_hull": 0.22242212499999703, "is_stable": false, "equilibrium_reaction_energy_per_atom": null, "decomposes_to": null, "xas": null, "grain_boundaries": null, "band_gap": 0.623899999999999, "cbm": null, "vbm": null, "efermi": 1.76464814, "is_gap_direct": null, "is_metal": null, "es_source_calc_id": null, "bandstructure": null, "dos": null, "dos_energy_up": null, "dos_energy_down": null, "is_magnetic": null, "ordering": null, "total_magnetization": 0.000117, "total_magnetization_normalized_vol": null, "total_magnetization_normalized_formula_units": null, "num_magnetic_sites": null, "num_unique_magnetic_sites": null, "types_of_magnetic_species": null, "bulk_modulus": null, "shear_modulus": null, "universal_anisotropy": null, "homogeneous_poisson": null, "e_total": null, "e_ionic": null, "e_electronic": null, "n": null, "e_ij_max": null, "weighted_surface_energy_EV_PER_ANG2": null, "weighted_surface_energy": null, "weighted_work_function": null, "surface_anisotropy": null, "shape_factor": null, "has_reconstructed": null, "possible_species": null, "has_props": null, "theoretical": null, "database_IDs": null, "fields_not_requested": ["builder_meta", "nsites", "elements", "nelements", "composition", "composition_reduced", "chemsys", "symmetry", "property_name", "deprecated", "deprecation_reasons", "last_updated", "origins", "warnings", "task_ids", "uncorrected_energy_per_atom", "equilibrium_reaction_energy_per_atom", "decomposes_to", "xas", "grain_boundaries", "cbm", "vbm", "is_gap_direct", "is_metal", "es_source_calc_id", "bandstructure", "dos", "dos_energy_up", "dos_energy_down", "is_magnetic", "ordering", "total_magnetization_normalized_vol", "total_magnetization_normalized_formula_units", "num_magnetic_sites", "num_unique_magnetic_sites", "types_of_magnetic_species", "bulk_modulus", "shear_modulus", "universal_anisotropy", "homogeneous_poisson", "e_total", "e_ionic", "e_electronic", "n", "e_ij_max", "weighted_surface_energy_EV_PER_ANG2", "weighted_surface_energy", "weighted_work_function", "surface_anisotropy", "shape_factor", "has_reconstructed", "possible_species", "has_props", "theoretical", "database_IDs"]}