{
  "builder_meta": null,
  "nsites": null,
  "elements": null,
  "nelements": null,
  "composition": null,
  "composition_reduced": null,
  "formula_pretty": "Cd3Au8",
  "formula_anonymous": "A3B8",
  "chemsys": null,
  "volume": 225.30888625090566,
  "density": 14.098662884599229,
  "density_atomic": 20.482626022809605,
  "symmetry": null,
  "property_name": null,
  "material_id": "mp-1226978",
  "deprecated": null,
  "deprecation_reasons": null,
  "last_updated": null,
  "origins": null,
  "warnings": null,
  "structure": {
    "@module": "pymatgen.core.structure",
    "@class": "Structure",
    "charge": 0,
    "lattice": {
      "matrix": [
        [1.5095450000000001, -2.614608999999999, 0.0],
        [1.5095450000000001, 2.614608999999999, 0.0],
        [0.0, 0.0, 28.54273]
      ],
      "pbc": [true, true, true],
      "a": 3.019090314963432,
      "b": 3.019090314963432,
      "c": 28.54273,
      "alpha": 90.0,
      "beta": 90.0,
      "gamma": 120.00000690201695,
      "volume": 225.30888625090557
    },
    "properties": {},
    "sites": [
      {
        "species": [{ "element": "Cd", "occu": 1 }],
        "abc": [0.0, 0.0, 0.708403],
        "properties": { "magmom": 0.003 },
        "label": "Cd",
        "xyz": [0.0, 0.0, 20.21975556019]
      },
      {
        "species": [{ "element": "Cd", "occu": 1 }],
        "abc": [0.0, 0.0, 0.541625],
        "properties": { "magmom": -0.001 },
        "label": "Cd",
        "xyz": [0.0, 0.0, 15.45945613625]
      },
      {
        "species": [{ "element": "Cd", "occu": 1 }],
        "abc": [0.0, 0.0, 0.374312],
        "properties": { "magmom": 0.003 },
        "label": "Cd",
        "xyz": [0.0, 0.0, 10.683886351759998]
      },
      {
        "species": [{ "element": "Au", "occu": 1 }],
        "abc": [0.0, 0.0, 0.207921],
        "properties": { "magmom": 0.0 },
        "label": "Au",
        "xyz": [0.0, 0.0, 5.9346329643299995]
      },
      {
        "species": [{ "element": "Au", "occu": 1 }],
        "abc": [0.0, 0.0, 0.042430999999999004],
        "properties": { "magmom": -0.0 },
        "label": "Au",
        "xyz": [0.0, 0.0, 1.2110965766299715]
      },
      {
        "species": [{ "element": "Au", "occu": 1 }],
        "abc": [0.666667, 0.333333, 0.959065],
        "properties": { "magmom": -0.0 },
        "label": "Au",
        "xyz": [1.5095450000000001, -0.8715380764059996, 27.374333347449998]
      },
      {
        "species": [{ "element": "Au", "occu": 1 }],
        "abc": [0.666667, 0.333333, 0.792424],
        "properties": { "magmom": 0.002 },
        "label": "Au",
        "xyz": [1.5095450000000001, -0.8715380764059996, 22.61794427752]
      },
      {
        "species": [{ "element": "Au", "occu": 1 }],
        "abc": [0.666667, 0.333333, 0.624742],
        "properties": { "magmom": 0.003 },
        "label": "Au",
        "xyz": [1.5095450000000001, -0.8715380764059996, 17.83184222566]
      },
      {
        "species": [{ "element": "Au", "occu": 1 }],
        "abc": [0.666667, 0.333333, 0.458194],
        "properties": { "magmom": 0.003 },
        "label": "Au",
        "xyz": [1.5095450000000001, -0.8715380764059996, 13.07810762962]
      },
      {
        "species": [{ "element": "Au", "occu": 1 }],
        "abc": [0.666667, 0.333333, 0.291043],
        "properties": { "magmom": 0.003 },
        "label": "Au",
        "xyz": [1.5095450000000001, -0.8715380764059996, 8.30716176739]
      },
      {
        "species": [{ "element": "Au", "occu": 1 }],
        "abc": [0.666667, 0.333333, 0.124837999999999],
        "properties": { "magmom": -0.0 },
        "label": "Au",
        "xyz": [1.5095450000000001, -0.8715380764059996, 3.5632173277399715]
      }
    ]
  },
  "task_ids": null,
  "uncorrected_energy_per_atom": null,
  "energy_per_atom": -42.26863630914142,
  "formation_energy_per_atom": 0.0036040790403970005,
  "energy_above_hull": 0.16270635568181202,
  "is_stable": false,
  "equilibrium_reaction_energy_per_atom": null,
  "decomposes_to": null,
  "xas": null,
  "grain_boundaries": null,
  "band_gap": 0.0,
  "cbm": null,
  "vbm": null,
  "efermi": 3.62461434,
  "is_gap_direct": null,
  "is_metal": null,
  "es_source_calc_id": null,
  "bandstructure": null,
  "dos": null,
  "dos_energy_up": null,
  "dos_energy_down": null,
  "is_magnetic": null,
  "ordering": null,
  "total_magnetization": 0.0246967,
  "total_magnetization_normalized_vol": null,
  "total_magnetization_normalized_formula_units": null,
  "num_magnetic_sites": null,
  "num_unique_magnetic_sites": null,
  "types_of_magnetic_species": null,
  "bulk_modulus": null,
  "shear_modulus": null,
  "universal_anisotropy": null,
  "homogeneous_poisson": null,
  "e_total": null,
  "e_ionic": null,
  "e_electronic": null,
  "n": null,
  "e_ij_max": null,
  "weighted_surface_energy_EV_PER_ANG2": null,
  "weighted_surface_energy": null,
  "weighted_work_function": null,
  "surface_anisotropy": null,
  "shape_factor": null,
  "has_reconstructed": null,
  "possible_species": null,
  "has_props": null,
  "theoretical": null,
  "database_IDs": null,
  "fields_not_requested": [
    "builder_meta",
    "nsites",
    "elements",
    "nelements",
    "composition",
    "composition_reduced",
    "chemsys",
    "symmetry",
    "property_name",
    "deprecated",
    "deprecation_reasons",
    "last_updated",
    "origins",
    "warnings",
    "task_ids",
    "uncorrected_energy_per_atom",
    "equilibrium_reaction_energy_per_atom",
    "decomposes_to",
    "xas",
    "grain_boundaries",
    "cbm",
    "vbm",
    "is_gap_direct",
    "is_metal",
    "es_source_calc_id",
    "bandstructure",
    "dos",
    "dos_energy_up",
    "dos_energy_down",
    "is_magnetic",
    "ordering",
    "total_magnetization_normalized_vol",
    "total_magnetization_normalized_formula_units",
    "num_magnetic_sites",
    "num_unique_magnetic_sites",
    "types_of_magnetic_species",
    "bulk_modulus",
    "shear_modulus",
    "universal_anisotropy",
    "homogeneous_poisson",
    "e_total",
    "e_ionic",
    "e_electronic",
    "n",
    "e_ij_max",
    "weighted_surface_energy_EV_PER_ANG2",
    "weighted_surface_energy",
    "weighted_work_function",
    "surface_anisotropy",
    "shape_factor",
    "has_reconstructed",
    "possible_species",
    "has_props",
    "theoretical",
    "database_IDs"
  ]
}
