{"builder_meta": null, "nsites": null, "elements": null, "nelements": null, "composition": null, "composition_reduced": null, "formula_pretty": "Cd3Au", "formula_anonymous": "AB3", "chemsys": null, "volume": 502.31413657665166, "density": 10.595671382822246, "density_atomic": 20.92975569069382, "symmetry": null, "property_name": null, "material_id": "mp-30370", "deprecated": null, "deprecation_reasons": null, "last_updated": null, "origins": null, "warnings": null, "structure": {"@module": "pymatgen.core.structure", "@class": "Structure", "charge": 0, "lattice": {"matrix": [[8.19576513, -1e-08, -0.0], [-4.09788307, 7.09773821, 0.0], [0.0, 0.0, 8.63507114]], "pbc": [true, true, true], "a": 8.19576513, "b": 8.195763134271672, "c": 8.63507114, "alpha": 90.0, "beta": 90.0, "gamma": 120.00001220162842, "volume": 502.31413657665166}, "properties": {}, "sites": [{"species": [{"element": "Cd", "occu": 1}], "abc": [0.63385072, 0.0, 0.92223255], "properties": {"magmom": -0.0}, "label": "Cd", "xyz": [5.194891628601393, -6.3385072e-09, 7.963543676873608]}, {"species": [{"element": "Cd", "occu": 1}], "abc": [0.63385072, 0.63385072, 0.42223255], "properties": {"magmom": -0.0}, "label": "Cd", "xyz": [2.597445494206083, 4.498906468441503, 3.6460081068736074]}, {"species": [{"element": "Cd", "occu": 1}], "abc": [-0.0, 0.36614928, 0.42223255], "properties": {"magmom": -0.0}, "label": "Cd", "xyz": [-1.5004369356046896, 2.598831735219989, 3.6460081068736074]}, {"species": [{"element": "Cd", "occu": 1}], "abc": [0.0, 0.63385072, 0.92223255], "properties": {"magmom": -0.0}, "label": "Cd", "xyz": [-2.59744613439531, 4.498906474780011, 7.963543676873608]}, {"species": [{"element": "Cd", "occu": 1}], "abc": [0.36614928, 0.36614928, 0.92223255], "properties": {"magmom": -0.0}, "label": "Cd", "xyz": [1.500436565793917, 2.598831731558496, 7.963543676873608]}, {"species": [{"element": "Cd", "occu": 1}], "abc": [0.36614928, -0.0, 0.42223255], "properties": {"magmom": -0.0}, "label": "Cd", "xyz": [3.0008735013986065, -3.6614928000000004e-09, 3.6460081068736074]}, {"species": [{"element": "Cd", "occu": 1}], "abc": [0.0, 0.0, 0.32831892], "properties": {"magmom": -0.0}, "label": "Cd", "xyz": [0.0, 0.0, 2.835057230807969]}, {"species": [{"element": "Cd", "occu": 1}], "abc": [0.0, 0.0, 0.8283189200000001], "properties": {"magmom": -0.0}, "label": "Cd", "xyz": [0.0, 0.0, 7.15259280080797]}, {"species": [{"element": "Cd", "occu": 1}], "abc": [0.333333, 0.666667, 0.20443714000000002], "properties": {"magmom": -0.0}, "label": "Cd", "xyz": [-4.434549400134102e-06, 4.73182783591274, 1.76532924755814]}, {"species": [{"element": "Cd", "occu": 1}], "abc": [0.666667, 0.333333, 0.70443714], "properties": {"magmom": -0.0}, "label": "Cd", "xyz": [4.0978864945494005, 2.3659103640872603, 6.08286481755814]}, {"species": [{"element": "Cd", "occu": 1}], "abc": [0.333333, 0.666667, 0.70443714], "properties": {"magmom": -0.0}, "label": "Cd", "xyz": [-4.434549400134102e-06, 4.73182783591274, 6.08286481755814]}, {"species": [{"element": "Cd", "occu": 1}], "abc": [0.666667, 0.333333, 0.20443714000000002], "properties": {"magmom": -0.0}, "label": "Cd", "xyz": [4.0978864945494005, 2.3659103640872603, 1.76532924755814]}, {"species": [{"element": "Cd", "occu": 1}], "abc": [0.29491559, -0.0, 0.07762021], "properties": {"magmom": 0.0}, "label": "Cd", "xyz": [2.4170589088153767, -2.9491559e-09, 0.6702560352517394]}, {"species": [{"element": "Cd", "occu": 1}], "abc": [0.29491559, 0.29491559, 0.57762021], "properties": {"magmom": 0.0}, "label": "Cd", "xyz": [1.2085293054753155, 2.093233648918538, 4.98779160525174]}, {"species": [{"element": "Cd", "occu": 1}], "abc": [0.0, 0.70508441, 0.57762021], "properties": {"magmom": 0.0}, "label": "Cd", "xyz": [-2.8893534666599385, 5.004504558132306, 4.98779160525174]}, {"species": [{"element": "Cd", "occu": 1}], "abc": [-0.0, 0.29491559, 0.07762021], "properties": {"magmom": 0.0}, "label": "Cd", "xyz": [-1.2085296033400612, 2.093233651867694, 0.6702560352517394]}, {"species": [{"element": "Cd", "occu": 1}], "abc": [0.70508441, 0.70508441, 0.07762021], "properties": {"magmom": 0.0}, "label": "Cd", "xyz": [2.8893527545246847, 5.004504551081462, 0.6702560352517394]}, {"species": [{"element": "Cd", "occu": 1}], "abc": [0.70508441, 0.0, 0.57762021], "properties": {"magmom": 0.0}, "label": "Cd", "xyz": [5.778706221184623, -7.0508441000000005e-09, 4.98779160525174]}, {"species": [{"element": "Au", "occu": 1}], "abc": [0.670644799999999, -0.0, 0.2500825], "properties": {"magmom": 0.0}, "label": "Au", "xyz": [5.496447266455816, -6.70644799999999e-09, 2.15948017836905]}, {"species": [{"element": "Au", "occu": 1}], "abc": [0.670644799999999, 0.670644799999999, 0.7500825], "properties": {"magmom": 0.0}, "label": "Au", "xyz": [2.748223294552284, 4.760061215591353, 6.477015748369051]}, {"species": [{"element": "Au", "occu": 1}], "abc": [0.0, 0.329355199999999, 0.7500825], "properties": {"magmom": 0.0}, "label": "Au", "xyz": [-1.34965909809646, 2.337676987702185, 6.477015748369051]}, {"species": [{"element": "Au", "occu": 1}], "abc": [-0.0, 0.670644799999999, 0.2500825], "properties": {"magmom": 0.0}, "label": "Au", "xyz": [-2.748223971903532, 4.760061222297801, 2.15948017836905]}, {"species": [{"element": "Au", "occu": 1}], "abc": [0.329355199999999, 0.329355199999999, 0.2500825], "properties": {"magmom": 0.0}, "label": "Au", "xyz": [1.349658765447708, 2.337676984408633, 2.15948017836905]}, {"species": [{"element": "Au", "occu": 1}], "abc": [0.329355199999999, 0.0, 0.7500825], "properties": {"magmom": 0.0}, "label": "Au", "xyz": [2.699317863544168, -3.2935519999999904e-09, 6.477015748369051]}]}, "task_ids": null, "uncorrected_energy_per_atom": null, "energy_per_atom": -27.884871748333335, "formation_energy_per_atom": -0.159890943333332, "energy_above_hull": 0.0, "is_stable": true, "equilibrium_reaction_energy_per_atom": null, "decomposes_to": null, "xas": null, "grain_boundaries": null, "band_gap": 0.0, "cbm": null, "vbm": null, "efermi": 3.05856111, "is_gap_direct": null, "is_metal": null, "es_source_calc_id": null, "bandstructure": null, "dos": null, "dos_energy_up": null, "dos_energy_down": null, "is_magnetic": null, "ordering": null, "total_magnetization": 2e-07, "total_magnetization_normalized_vol": null, "total_magnetization_normalized_formula_units": null, "num_magnetic_sites": null, "num_unique_magnetic_sites": null, "types_of_magnetic_species": null, "bulk_modulus": null, "shear_modulus": null, "universal_anisotropy": null, "homogeneous_poisson": null, "e_total": null, "e_ionic": null, "e_electronic": null, "n": null, "e_ij_max": null, "weighted_surface_energy_EV_PER_ANG2": null, "weighted_surface_energy": null, "weighted_work_function": null, "surface_anisotropy": null, "shape_factor": null, "has_reconstructed": null, "possible_species": null, "has_props": null, "theoretical": null, "database_IDs": null, "fields_not_requested": ["builder_meta", "nsites", "elements", "nelements", "composition", "composition_reduced", "chemsys", "symmetry", "property_name", "deprecated", "deprecation_reasons", "last_updated", "origins", "warnings", "task_ids", "uncorrected_energy_per_atom", "equilibrium_reaction_energy_per_atom", "decomposes_to", "xas", "grain_boundaries", "cbm", "vbm", "is_gap_direct", "is_metal", "es_source_calc_id", "bandstructure", "dos", "dos_energy_up", "dos_energy_down", "is_magnetic", "ordering", "total_magnetization_normalized_vol", "total_magnetization_normalized_formula_units", "num_magnetic_sites", "num_unique_magnetic_sites", "types_of_magnetic_species", "bulk_modulus", "shear_modulus", "universal_anisotropy", "homogeneous_poisson", "e_total", "e_ionic", "e_electronic", "n", "e_ij_max", "weighted_surface_energy_EV_PER_ANG2", "weighted_surface_energy", "weighted_work_function", "surface_anisotropy", "shape_factor", "has_reconstructed", "possible_species", "has_props", "theoretical", "database_IDs"]}