{
  "builder_meta": null,
  "nsites": null,
  "elements": null,
  "nelements": null,
  "composition": null,
  "composition_reduced": null,
  "formula_pretty": "Cd3N2",
  "formula_anonymous": "A2B3",
  "chemsys": null,
  "volume": 666.7226059296424,
  "density": 7.277460349967653,
  "density_atomic": 16.668065148241062,
  "symmetry": null,
  "property_name": null,
  "material_id": "mp-569957",
  "deprecated": null,
  "deprecation_reasons": null,
  "last_updated": null,
  "origins": null,
  "warnings": null,
  "structure": {
    "@module": "pymatgen.core.structure",
    "@class": "Structure",
    "charge": 0,
    "lattice": {
      "matrix": [
        [-5.503366, 5.503366, 5.503366],
        [5.503366, -5.503366, 5.503366],
        [5.503366, 5.503366, -5.503366]
      ],
      "pbc": [true, true, true],
      "a": 9.532109524647101,
      "b": 9.532109524647101,
      "c": 9.532109524647101,
      "alpha": 109.47122063449069,
      "beta": 109.47122063449069,
      "gamma": 109.47122063449069,
      "volume": 666.7226059296424
    },
    "properties": {},
    "sites": [
      {
        "species": [{ "element": "Cd", "occu": 1 }],
        "abc": [0.222604, 0.447659, 0.479684],
        "properties": { "magmom": -0.0 },
        "label": "Cd",
        "xyz": [3.878436651474, 1.4013165812140003, 1.0488259889139995]
      },
      {
        "species": [{ "element": "Cd", "occu": 1 }],
        "abc": [0.020316, 0.467975, 0.74292],
        "properties": { "magmom": -0.0 },
        "label": "Cd",
        "xyz": [6.552191988913999, 1.624929348526, -1.401316581214]
      },
      {
        "species": [{ "element": "Cd", "occu": 1 }],
        "abc": [0.032025, 0.052341, 0.274945],
        "properties": { "magmom": -0.0 },
        "label": "Cd",
        "xyz": [1.624929348526, 1.401316581214, -1.048825988914]
      },
      {
        "species": [{ "element": "Cd", "occu": 1 }],
        "abc": [0.447659, 0.479684, 0.222604],
        "properties": { "magmom": -0.0 },
        "label": "Cd",
        "xyz": [1.4013165812140003, 1.0488259889139997, 3.878436651474]
      },
      {
        "species": [{ "element": "Cd", "occu": 1 }],
        "abc": [0.225054999999999, 0.277396, 0.7570800000000001],
        "properties": { "magmom": -0.0 },
        "label": "Cd",
        "xyz": [4.454540011086006, 3.8784366514739945, -1.4013165812140054]
      },
      {
        "species": [{ "element": "Cd", "occu": 1 }],
        "abc": [0.467975, 0.74292, 0.020316],
        "properties": { "magmom": -0.0 },
        "label": "Cd",
        "xyz": [1.624929348526, -1.401316581214, 6.552191988913999]
      },
      {
        "species": [{ "element": "Cd", "occu": 1 }],
        "abc": [0.777396, 0.552341, 0.520316],
        "properties": { "magmom": -0.0 },
        "label": "Cd",
        "xyz": [1.6249293485259995, 4.102049418786001, 4.454540011086]
      },
      {
        "species": [{ "element": "Cd", "occu": 1 }],
        "abc": [0.532025, 0.25708000000000003, 0.979684],
        "properties": { "magmom": -0.0 },
        "label": "Cd",
        "xyz": [3.8784366514740003, 6.904682581213999, -1.0488259889139995]
      },
      {
        "species": [{ "element": "Cd", "occu": 1 }],
        "abc": [0.74292, 0.020316, 0.467975],
        "properties": { "magmom": -0.0 },
        "label": "Cd",
        "xyz": [-1.401316581214, 6.552191988913999, 1.624929348526]
      },
      {
        "species": [{ "element": "Cd", "occu": 1 }],
        "abc": [0.520316, 0.777396, 0.552341],
        "properties": { "magmom": -0.0 },
        "label": "Cd",
        "xyz": [4.454540011085999, 1.6249293485259995, 4.102049418786001]
      },
      {
        "species": [{ "element": "Cd", "occu": 1 }],
        "abc": [0.947658999999999, 0.725055, 0.967974999999999],
        "properties": { "magmom": -0.0 },
        "label": "Cd",
        "xyz": [4.102049418786, 6.552191988913989, 3.878436651473999]
      },
      {
        "species": [{ "element": "Cd", "occu": 1 }],
        "abc": [0.552341, 0.520316, 0.777396],
        "properties": { "magmom": -0.0 },
        "label": "Cd",
        "xyz": [4.102049418786001, 4.454540011085999, 1.624929348526]
      },
      {
        "species": [{ "element": "Cd", "occu": 1 }],
        "abc": [0.24292000000000002, 0.774945, 0.722603999999999],
        "properties": { "magmom": -0.0 },
        "label": "Cd",
        "xyz": [6.904682581213994, 1.0488259889139946, 1.6249293485260052]
      },
      {
        "species": [{ "element": "Cd", "occu": 1 }],
        "abc": [0.725055, 0.967974999999999, 0.947658999999999],
        "properties": { "magmom": -0.0 },
        "label": "Cd",
        "xyz": [6.552191988913989, 3.878436651474, 4.102049418786]
      },
      {
        "species": [{ "element": "Cd", "occu": 1 }],
        "abc": [0.479684, 0.222604, 0.447659],
        "properties": { "magmom": -0.0 },
        "label": "Cd",
        "xyz": [1.0488259889139997, 3.878436651474, 1.401316581214]
      },
      {
        "species": [{ "element": "Cd", "occu": 1 }],
        "abc": [0.722603999999999, 0.24292000000000002, 0.774945],
        "properties": { "magmom": -0.0 },
        "label": "Cd",
        "xyz": [1.6249293485260057, 6.904682581213994, 1.048825988913995]
      },
      {
        "species": [{ "element": "Cd", "occu": 1 }],
        "abc": [0.25708000000000003, 0.979684, 0.532025],
        "properties": { "magmom": -0.0 },
        "label": "Cd",
        "xyz": [6.904682581213999, -1.048825988914, 3.8784366514740003]
      },
      {
        "species": [{ "element": "Cd", "occu": 1 }],
        "abc": [0.979684, 0.532025, 0.25708000000000003],
        "properties": { "magmom": -0.0 },
        "label": "Cd",
        "xyz": [-1.048825988914, 3.8784366514740003, 6.904682581213999]
      },
      {
        "species": [{ "element": "Cd", "occu": 1 }],
        "abc": [0.7570800000000001, 0.225054999999999, 0.277396],
        "properties": { "magmom": -0.0 },
        "label": "Cd",
        "xyz": [-1.4013165812140056, 4.454540011086006, 3.8784366514739945]
      },
      {
        "species": [{ "element": "Cd", "occu": 1 }],
        "abc": [0.274945, 0.032025, 0.052341],
        "properties": { "magmom": -0.0 },
        "label": "Cd",
        "xyz": [-1.048825988914, 1.624929348526, 1.401316581214]
      },
      {
        "species": [{ "element": "Cd", "occu": 1 }],
        "abc": [0.277396, 0.7570800000000001, 0.225054999999999],
        "properties": { "magmom": -0.0 },
        "label": "Cd",
        "xyz": [3.8784366514739945, -1.4013165812140054, 4.454540011086006]
      },
      {
        "species": [{ "element": "Cd", "occu": 1 }],
        "abc": [0.967974999999999, 0.947658999999999, 0.725055],
        "properties": { "magmom": -0.0 },
        "label": "Cd",
        "xyz": [3.878436651474, 4.102049418786, 6.5521919889139895]
      },
      {
        "species": [{ "element": "Cd", "occu": 1 }],
        "abc": [0.774945, 0.722603999999999, 0.24292000000000002],
        "properties": { "magmom": -0.0 },
        "label": "Cd",
        "xyz": [1.0488259889139946, 1.6249293485260057, 6.904682581213994]
      },
      {
        "species": [{ "element": "Cd", "occu": 1 }],
        "abc": [0.052341, 0.274945, 0.032025],
        "properties": { "magmom": -0.0 },
        "label": "Cd",
        "xyz": [1.401316581214, -1.048825988914, 1.624929348526]
      },
      {
        "species": [{ "element": "N", "occu": 1 }],
        "abc": [0.529003, 0.279003, 0.25],
        "properties": { "magmom": 0.001 },
        "label": "N",
        "xyz": [2.220446049250313e-16, 2.751683, 3.0709112481959995]
      },
      {
        "species": [{ "element": "N", "occu": 1 }],
        "abc": [0.220997, 0.75, 0.970997],
        "properties": { "magmom": 0.001 },
        "label": "N",
        "xyz": [8.255049, 2.4324547518040003, 0.0]
      },
      {
        "species": [{ "element": "N", "occu": 1 }],
        "abc": [0.470997, 0.720997, 0.75],
        "properties": { "magmom": 0.001 },
        "label": "N",
        "xyz": [5.503366, 2.751683, 2.4324547518040003]
      },
      {
        "species": [{ "element": "N", "occu": 1 }],
        "abc": [0.75, 0.970997, 0.220997],
        "properties": { "magmom": 0.001 },
        "label": "N",
        "xyz": [2.4324547518040003, -2.220446049250313e-16, 8.255049000000001]
      },
      {
        "species": [{ "element": "N", "occu": 1 }],
        "abc": [0.75, 0.470997, 0.720997],
        "properties": { "magmom": 0.001 },
        "label": "N",
        "xyz": [2.4324547518040003, 5.503366, 2.751683]
      },
      {
        "species": [{ "element": "N", "occu": 1 }],
        "abc": [0.720997, 0.75, 0.470997],
        "properties": { "magmom": 0.001 },
        "label": "N",
        "xyz": [2.751683, 2.4324547518040003, 5.503366000000001]
      },
      {
        "species": [{ "element": "N", "occu": 1 }],
        "abc": [0.0, 0.5, 0.5],
        "properties": { "magmom": 0.001 },
        "label": "N",
        "xyz": [5.503366, 0.0, 0.0]
      },
      {
        "species": [{ "element": "N", "occu": 1 }],
        "abc": [0.279003, 0.25, 0.529003],
        "properties": { "magmom": 0.001 },
        "label": "N",
        "xyz": [2.751683, 3.0709112481959995, 0.0]
      },
      {
        "species": [{ "element": "N", "occu": 1 }],
        "abc": [0.970997, 0.220997, 0.75],
        "properties": { "magmom": 0.001 },
        "label": "N",
        "xyz": [0.0, 8.255049, 2.4324547518040003]
      },
      {
        "species": [{ "element": "N", "occu": 1 }],
        "abc": [0.25, 0.029002999999999002, 0.779003],
        "properties": { "magmom": 0.001 },
        "label": "N",
        "xyz": [3.070911248195994, 5.503366000000005, -2.751683000000005]
      },
      {
        "species": [{ "element": "N", "occu": 1 }],
        "abc": [0.029002999999999002, 0.779003, 0.25],
        "properties": { "magmom": 0.001 },
        "label": "N",
        "xyz": [5.503366000000005, -2.751683000000005, 3.070911248195994]
      },
      {
        "species": [{ "element": "N", "occu": 1 }],
        "abc": [0.25, 0.529003, 0.279003],
        "properties": { "magmom": 0.001 },
        "label": "N",
        "xyz": [3.0709112481959995, 2.220446049250313e-16, 2.751683]
      },
      {
        "species": [{ "element": "N", "occu": 1 }],
        "abc": [0.779003, 0.25, 0.029002999999999002],
        "properties": { "magmom": 0.001 },
        "label": "N",
        "xyz": [-2.751683000000005, 3.070911248195994, 5.503366000000005]
      },
      {
        "species": [{ "element": "N", "occu": 1 }],
        "abc": [0.5, 0.0, 0.5],
        "properties": { "magmom": 0.001 },
        "label": "N",
        "xyz": [0.0, 5.503366, 0.0]
      },
      {
        "species": [{ "element": "N", "occu": 1 }],
        "abc": [0.0, 0.0, 0.0],
        "properties": { "magmom": 0.001 },
        "label": "N",
        "xyz": [0.0, 0.0, 0.0]
      },
      {
        "species": [{ "element": "N", "occu": 1 }],
        "abc": [0.5, 0.5, 0.0],
        "properties": { "magmom": 0.001 },
        "label": "N",
        "xyz": [0.0, 0.0, 5.503366]
      }
    ]
  },
  "task_ids": null,
  "uncorrected_energy_per_atom": null,
  "energy_per_atom": -15.29838877725,
  "formation_energy_per_atom": 0.416104105250002,
  "energy_above_hull": 0.416104105249999,
  "is_stable": false,
  "equilibrium_reaction_energy_per_atom": null,
  "decomposes_to": null,
  "xas": null,
  "grain_boundaries": null,
  "band_gap": 0.0,
  "cbm": null,
  "vbm": null,
  "efermi": 1.96074494,
  "is_gap_direct": null,
  "is_metal": null,
  "es_source_calc_id": null,
  "bandstructure": null,
  "dos": null,
  "dos_energy_up": null,
  "dos_energy_down": null,
  "is_magnetic": null,
  "ordering": null,
  "total_magnetization": 0.0257603,
  "total_magnetization_normalized_vol": null,
  "total_magnetization_normalized_formula_units": null,
  "num_magnetic_sites": null,
  "num_unique_magnetic_sites": null,
  "types_of_magnetic_species": null,
  "bulk_modulus": null,
  "shear_modulus": null,
  "universal_anisotropy": null,
  "homogeneous_poisson": null,
  "e_total": null,
  "e_ionic": null,
  "e_electronic": null,
  "n": null,
  "e_ij_max": null,
  "weighted_surface_energy_EV_PER_ANG2": null,
  "weighted_surface_energy": null,
  "weighted_work_function": null,
  "surface_anisotropy": null,
  "shape_factor": null,
  "has_reconstructed": null,
  "possible_species": null,
  "has_props": null,
  "theoretical": null,
  "database_IDs": null,
  "fields_not_requested": [
    "builder_meta",
    "nsites",
    "elements",
    "nelements",
    "composition",
    "composition_reduced",
    "chemsys",
    "symmetry",
    "property_name",
    "deprecated",
    "deprecation_reasons",
    "last_updated",
    "origins",
    "warnings",
    "task_ids",
    "uncorrected_energy_per_atom",
    "equilibrium_reaction_energy_per_atom",
    "decomposes_to",
    "xas",
    "grain_boundaries",
    "cbm",
    "vbm",
    "is_gap_direct",
    "is_metal",
    "es_source_calc_id",
    "bandstructure",
    "dos",
    "dos_energy_up",
    "dos_energy_down",
    "is_magnetic",
    "ordering",
    "total_magnetization_normalized_vol",
    "total_magnetization_normalized_formula_units",
    "num_magnetic_sites",
    "num_unique_magnetic_sites",
    "types_of_magnetic_species",
    "bulk_modulus",
    "shear_modulus",
    "universal_anisotropy",
    "homogeneous_poisson",
    "e_total",
    "e_ionic",
    "e_electronic",
    "n",
    "e_ij_max",
    "weighted_surface_energy_EV_PER_ANG2",
    "weighted_surface_energy",
    "weighted_work_function",
    "surface_anisotropy",
    "shape_factor",
    "has_reconstructed",
    "possible_species",
    "has_props",
    "theoretical",
    "database_IDs"
  ]
}
