{"builder_meta": null, "nsites": null, "elements": null, "nelements": null, "composition": null, "composition_reduced": null, "formula_pretty": "Cd3Os", "formula_anonymous": "AB3", "chemsys": null, "volume": 150.58733286990608, "density": 11.632756899183695, "density_atomic": 18.82341660873826, "symmetry": null, "property_name": null, "material_id": "mp-1183653", "deprecated": null, "deprecation_reasons": null, "last_updated": null, "origins": null, "warnings": null, "structure": {"@module": "pymatgen.core.structure", "@class": "Structure", "charge": 0, "lattice": {"matrix": [[2.990935, -5.180451, 0.0], [2.990935, 5.180451, 0.0], [0.0, 0.0, 4.859414]], "pbc": [true, true, true], "a": 5.981869669060502, "b": 5.981869669060502, "c": 4.859414, "alpha": 90.0, "beta": 90.0, "gamma": 119.99999633980974, "volume": 150.58733286990608}, "properties": {}, "sites": [{"species": [{"element": "Cd", "occu": 1}], "abc": [0.8274800000000001, 0.17252, 0.75], "properties": {"magmom": 0.0}, "label": "Cd", "xyz": [2.9909350000000003, -3.3929881869600003, 3.6445605]}, {"species": [{"element": "Cd", "occu": 1}], "abc": [0.345041, 0.17252, 0.75], "properties": {"magmom": 0.0}, "label": "Cd", "xyz": [1.547991309535, -0.8937365869709999, 3.6445605]}, {"species": [{"element": "Cd", "occu": 1}], "abc": [0.8274800000000001, 0.654959, 0.75], "properties": {"magmom": 0.0}, "label": "Cd", "xyz": [4.433878690465, -0.8937365869710003, 3.6445605]}, {"species": [{"element": "Cd", "occu": 1}], "abc": [0.17252, 0.8274800000000001, 0.25], "properties": {"magmom": 0.0}, "label": "Cd", "xyz": [2.9909350000000003, 3.3929881869600003, 1.2148535]}, {"species": [{"element": "Cd", "occu": 1}], "abc": [0.654959, 0.8274800000000001, 0.25], "properties": {"magmom": 0.0}, "label": "Cd", "xyz": [4.433878690465, 0.8937365869710003, 1.2148535]}, {"species": [{"element": "Cd", "occu": 1}], "abc": [0.17252, 0.345041, 0.25], "properties": {"magmom": 0.0}, "label": "Cd", "xyz": [1.547991309535, 0.8937365869709999, 1.2148535]}, {"species": [{"element": "Os", "occu": 1}], "abc": [0.666667, 0.333333, 0.25], "properties": {"magmom": -0.0}, "label": "Os", "xyz": [2.990935, -1.726820453634, 1.2148535]}, {"species": [{"element": "Os", "occu": 1}], "abc": [0.333333, 0.666667, 0.75], "properties": {"magmom": -0.0}, "label": "Os", "xyz": [2.990935, 1.726820453634, 3.6445605]}]}, "task_ids": null, "uncorrected_energy_per_atom": null, "energy_per_atom": -27.8412101525, "formation_energy_per_atom": 0.48383782750000004, "energy_above_hull": 0.48383782750000004, "is_stable": false, "equilibrium_reaction_energy_per_atom": null, "decomposes_to": null, "xas": null, "grain_boundaries": null, "band_gap": 0.0, "cbm": null, "vbm": null, "efermi": 3.858812, "is_gap_direct": null, "is_metal": null, "es_source_calc_id": null, "bandstructure": null, "dos": null, "dos_energy_up": null, "dos_energy_down": null, "is_magnetic": null, "ordering": null, "total_magnetization": 0.0004104, "total_magnetization_normalized_vol": null, "total_magnetization_normalized_formula_units": null, "num_magnetic_sites": null, "num_unique_magnetic_sites": null, "types_of_magnetic_species": null, "bulk_modulus": null, "shear_modulus": null, "universal_anisotropy": null, "homogeneous_poisson": null, "e_total": null, "e_ionic": null, "e_electronic": null, "n": null, "e_ij_max": null, "weighted_surface_energy_EV_PER_ANG2": null, "weighted_surface_energy": null, "weighted_work_function": null, "surface_anisotropy": null, "shape_factor": null, "has_reconstructed": null, "possible_species": null, "has_props": null, "theoretical": null, "database_IDs": null, "fields_not_requested": ["builder_meta", "nsites", "elements", "nelements", "composition", "composition_reduced", "chemsys", "symmetry", "property_name", "deprecated", "deprecation_reasons", "last_updated", "origins", "warnings", "task_ids", "uncorrected_energy_per_atom", "equilibrium_reaction_energy_per_atom", "decomposes_to", "xas", "grain_boundaries", "cbm", "vbm", "is_gap_direct", "is_metal", "es_source_calc_id", "bandstructure", "dos", "dos_energy_up", "dos_energy_down", "is_magnetic", "ordering", "total_magnetization_normalized_vol", "total_magnetization_normalized_formula_units", "num_magnetic_sites", "num_unique_magnetic_sites", "types_of_magnetic_species", "bulk_modulus", "shear_modulus", "universal_anisotropy", "homogeneous_poisson", "e_total", "e_ionic", "e_electronic", "n", "e_ij_max", "weighted_surface_energy_EV_PER_ANG2", "weighted_surface_energy", "weighted_work_function", "surface_anisotropy", "shape_factor", "has_reconstructed", "possible_species", "has_props", "theoretical", "database_IDs"]}