{"builder_meta": null, "nsites": null, "elements": null, "nelements": null, "composition": null, "composition_reduced": null, "formula_pretty": "Cd3P2", "formula_anonymous": "A2B3", "chemsys": null, "volume": 956.9129380814928, "density": 5.541610554931454, "density_atomic": 23.92282345203732, "symmetry": null, "property_name": null, "material_id": "mp-2441", "deprecated": null, "deprecation_reasons": null, "last_updated": null, "origins": null, "warnings": null, "structure": {"@module": "pymatgen.core.structure", "@class": "Structure", "charge": 0, "lattice": {"matrix": [[8.80257436, 0.0, -0.0], [0.0, 8.80257436, 0.0], [0.0, 0.0, 12.34960371]], "pbc": [true, true, true], "a": 8.80257436, "b": 8.80257436, "c": 12.34960371, "alpha": 90.0, "beta": 90.0, "gamma": 90.0, "volume": 956.9129380814928}, "properties": {}, "sites": [{"species": [{"element": "Cd", "occu": 1}], "abc": [0.46108111, 0.25, 0.13227152], "properties": {"magmom": -0.0}, "label": "Cd", "xyz": [4.058700756766339, 2.20064359, 1.6335008541193392]}, {"species": [{"element": "Cd", "occu": 1}], "abc": [0.25, 0.46108111, 0.63227152], "properties": {"magmom": -0.0}, "label": "Cd", "xyz": [2.20064359, 4.058700756766339, 7.808302709119339]}, {"species": [{"element": "Cd", "occu": 1}], "abc": [0.25, 0.03891889, 0.63227152], "properties": {"magmom": -0.0}, "label": "Cd", "xyz": [2.20064359, 0.34258642323366034, 7.808302709119339]}, {"species": [{"element": "Cd", "occu": 1}], "abc": [0.9610811100000001, 0.75, 0.86772848], "properties": {"magmom": -0.0}, "label": "Cd", "xyz": [8.459987936766339, 6.601930769999999, 10.716102855880662]}, {"species": [{"element": "Cd", "occu": 1}], "abc": [0.53891889, 0.75, 0.86772848], "properties": {"magmom": -0.0}, "label": "Cd", "xyz": [4.74387360323366, 6.601930769999999, 10.716102855880662]}, {"species": [{"element": "Cd", "occu": 1}], "abc": [0.03891889, 0.25, 0.13227152], "properties": {"magmom": -0.0}, "label": "Cd", "xyz": [0.34258642323366034, 2.20064359, 1.6335008541193392]}, {"species": [{"element": "Cd", "occu": 1}], "abc": [0.75, 0.9610811100000001, 0.36772848], "properties": {"magmom": -0.0}, "label": "Cd", "xyz": [6.601930769999999, 8.459987936766339, 4.541301000880662]}, {"species": [{"element": "Cd", "occu": 1}], "abc": [0.75, 0.53891889, 0.36772848], "properties": {"magmom": -0.0}, "label": "Cd", "xyz": [6.601930769999999, 4.74387360323366, 4.541301000880662]}, {"species": [{"element": "Cd", "occu": 1}], "abc": [0.5068562, 0.25, 0.4001748], "properties": {"magmom": 0.0}, "label": "Cd", "xyz": [4.461639390327032, 2.20064359, 4.942000194728508]}, {"species": [{"element": "Cd", "occu": 1}], "abc": [0.993143799999999, 0.25, 0.4001748], "properties": {"magmom": 0.0}, "label": "Cd", "xyz": [8.742222149672958, 2.20064359, 4.942000194728508]}, {"species": [{"element": "Cd", "occu": 1}], "abc": [0.75, 0.0068562, 0.099825199999999], "properties": {"magmom": 0.0}, "label": "Cd", "xyz": [6.601930769999999, 0.060352210327031995, 1.2328016602714797]}, {"species": [{"element": "Cd", "occu": 1}], "abc": [0.25, 0.993143799999999, 0.900174799999999], "properties": {"magmom": 0.0}, "label": "Cd", "xyz": [2.20064359, 8.742222149672958, 11.116802049728497]}, {"species": [{"element": "Cd", "occu": 1}], "abc": [0.25, 0.5068562, 0.900174799999999], "properties": {"magmom": 0.0}, "label": "Cd", "xyz": [2.20064359, 4.461639390327032, 11.116802049728497]}, {"species": [{"element": "Cd", "occu": 1}], "abc": [0.493143799999999, 0.75, 0.5998252], "properties": {"magmom": 0.0}, "label": "Cd", "xyz": [4.3409349696729596, 6.601930769999999, 7.407603515271491]}, {"species": [{"element": "Cd", "occu": 1}], "abc": [0.0068562, 0.75, 0.5998252], "properties": {"magmom": 0.0}, "label": "Cd", "xyz": [0.060352210327031995, 6.601930769999999, 7.407603515271491]}, {"species": [{"element": "Cd", "occu": 1}], "abc": [0.75, 0.493143799999999, 0.099825199999999], "properties": {"magmom": 0.0}, "label": "Cd", "xyz": [6.601930769999999, 4.3409349696729596, 1.2328016602714797]}, {"species": [{"element": "Cd", "occu": 1}], "abc": [0.25, 0.53532662, 0.35046824], "properties": {"magmom": 0.0}, "label": "Cd", "xyz": [2.20064359, 4.712252379437463, 4.32814387694117]}, {"species": [{"element": "Cd", "occu": 1}], "abc": [0.25, 0.96467338, 0.35046824], "properties": {"magmom": 0.0}, "label": "Cd", "xyz": [2.20064359, 8.491609160562536, 4.32814387694117]}, {"species": [{"element": "Cd", "occu": 1}], "abc": [0.03532662, 0.75, 0.14953176], "properties": {"magmom": 0.0}, "label": "Cd", "xyz": [0.3109651994374632, 6.601930769999999, 1.8466579780588297]}, {"species": [{"element": "Cd", "occu": 1}], "abc": [0.53532662, 0.25, 0.85046824], "properties": {"magmom": 0.0}, "label": "Cd", "xyz": [4.712252379437463, 2.20064359, 10.502945731941171]}, {"species": [{"element": "Cd", "occu": 1}], "abc": [0.96467338, 0.25, 0.85046824], "properties": {"magmom": 0.0}, "label": "Cd", "xyz": [8.491609160562536, 2.20064359, 10.502945731941171]}, {"species": [{"element": "Cd", "occu": 1}], "abc": [0.75, 0.03532662, 0.64953176], "properties": {"magmom": 0.0}, "label": "Cd", "xyz": [6.601930769999999, 0.3109651994374632, 8.02145983305883]}, {"species": [{"element": "Cd", "occu": 1}], "abc": [0.75, 0.46467338, 0.64953176], "properties": {"magmom": 0.0}, "label": "Cd", "xyz": [6.601930769999999, 4.090321980562536, 8.02145983305883]}, {"species": [{"element": "Cd", "occu": 1}], "abc": [0.46467338, 0.75, 0.14953176], "properties": {"magmom": 0.0}, "label": "Cd", "xyz": [4.090321980562536, 6.601930769999999, 1.8466579780588297]}, {"species": [{"element": "P", "occu": 1}], "abc": [0.75, 0.75, 0.50914914], "properties": {"magmom": 0.0}, "label": "P", "xyz": [6.601930769999999, 6.601930769999999, 6.287790108287309]}, {"species": [{"element": "P", "occu": 1}], "abc": [0.75, 0.75, 0.00914914], "properties": {"magmom": 0.0}, "label": "P", "xyz": [6.601930769999999, 6.601930769999999, 0.11298825328730941]}, {"species": [{"element": "P", "occu": 1}], "abc": [0.25, 0.25, 0.49085086], "properties": {"magmom": 0.0}, "label": "P", "xyz": [2.20064359, 2.20064359, 6.061813601712691]}, {"species": [{"element": "P", "occu": 1}], "abc": [0.25, 0.25, 0.99085086], "properties": {"magmom": 0.0}, "label": "P", "xyz": [2.20064359, 2.20064359, 12.236615456712691]}, {"species": [{"element": "P", "occu": 1}], "abc": [0.75, 0.25, 0.5078301], "properties": {"magmom": -0.0}, "label": "P", "xyz": [6.601930769999999, 2.20064359, 6.27150048700967]}, {"species": [{"element": "P", "occu": 1}], "abc": [0.25, 0.75, 0.0078301], "properties": {"magmom": -0.0}, "label": "P", "xyz": [2.20064359, 6.601930769999999, 0.09669863200967099]}, {"species": [{"element": "P", "occu": 1}], "abc": [0.25, 0.75, 0.4921699], "properties": {"magmom": -0.0}, "label": "P", "xyz": [2.20064359, 6.601930769999999, 6.078103222990329]}, {"species": [{"element": "P", "occu": 1}], "abc": [0.75, 0.25, 0.992169899999999], "properties": {"magmom": -0.0}, "label": "P", "xyz": [6.601930769999999, 2.20064359, 12.252905077990318]}, {"species": [{"element": "P", "occu": 1}], "abc": [0.0075385800000000005, 0.99246142, 0.75], "properties": {"magmom": -0.0}, "label": "P", "xyz": [0.0663589110188088, 8.736215448981191, 9.262202782500001]}, {"species": [{"element": "P", "occu": 1}], "abc": [0.50753858, 0.0075385800000000005, 0.25], "properties": {"magmom": -0.0}, "label": "P", "xyz": [4.467646091018808, 0.0663589110188088, 3.0874009275]}, {"species": [{"element": "P", "occu": 1}], "abc": [0.99246142, 0.49246142, 0.25], "properties": {"magmom": -0.0}, "label": "P", "xyz": [8.736215448981191, 4.334928268981191, 3.0874009275]}, {"species": [{"element": "P", "occu": 1}], "abc": [0.49246142, 0.50753858, 0.75], "properties": {"magmom": -0.0}, "label": "P", "xyz": [4.334928268981191, 4.467646091018808, 9.262202782500001]}, {"species": [{"element": "P", "occu": 1}], "abc": [0.99246142, 0.0075385800000000005, 0.25], "properties": {"magmom": -0.0}, "label": "P", "xyz": [8.736215448981191, 0.0663589110188088, 3.0874009275]}, {"species": [{"element": "P", "occu": 1}], "abc": [0.49246142, 0.99246142, 0.75], "properties": {"magmom": -0.0}, "label": "P", "xyz": [4.334928268981191, 8.736215448981191, 9.262202782500001]}, {"species": [{"element": "P", "occu": 1}], "abc": [0.0075385800000000005, 0.50753858, 0.75], "properties": {"magmom": -0.0}, "label": "P", "xyz": [0.0663589110188088, 4.467646091018808, 9.262202782500001]}, {"species": [{"element": "P", "occu": 1}], "abc": [0.50753858, 0.49246142, 0.25], "properties": {"magmom": -0.0}, "label": "P", "xyz": [4.467646091018808, 4.334928268981191, 3.0874009275]}]}, "task_ids": null, "uncorrected_energy_per_atom": null, "energy_per_atom": -15.78700092075, "formation_energy_per_atom": -0.123177781940475, "energy_above_hull": 0.0, "is_stable": true, "equilibrium_reaction_energy_per_atom": null, "decomposes_to": null, "xas": null, "grain_boundaries": null, "band_gap": 0.0018000000000000002, "cbm": null, "vbm": null, "efermi": 2.35335285, "is_gap_direct": null, "is_metal": null, "es_source_calc_id": null, "bandstructure": null, "dos": null, "dos_energy_up": null, "dos_energy_down": null, "is_magnetic": null, "ordering": null, "total_magnetization": 1e-07, "total_magnetization_normalized_vol": null, "total_magnetization_normalized_formula_units": null, "num_magnetic_sites": null, "num_unique_magnetic_sites": null, "types_of_magnetic_species": null, "bulk_modulus": null, "shear_modulus": null, "universal_anisotropy": null, "homogeneous_poisson": null, "e_total": null, "e_ionic": null, "e_electronic": null, "n": null, "e_ij_max": null, "weighted_surface_energy_EV_PER_ANG2": null, "weighted_surface_energy": null, "weighted_work_function": null, "surface_anisotropy": null, "shape_factor": null, "has_reconstructed": null, "possible_species": null, "has_props": null, "theoretical": null, "database_IDs": null, "fields_not_requested": ["builder_meta", "nsites", "elements", "nelements", "composition", "composition_reduced", "chemsys", "symmetry", "property_name", "deprecated", "deprecation_reasons", "last_updated", "origins", "warnings", "task_ids", "uncorrected_energy_per_atom", "equilibrium_reaction_energy_per_atom", "decomposes_to", "xas", "grain_boundaries", "cbm", "vbm", "is_gap_direct", "is_metal", "es_source_calc_id", "bandstructure", "dos", "dos_energy_up", "dos_energy_down", "is_magnetic", "ordering", "total_magnetization_normalized_vol", "total_magnetization_normalized_formula_units", "num_magnetic_sites", "num_unique_magnetic_sites", "types_of_magnetic_species", "bulk_modulus", "shear_modulus", "universal_anisotropy", "homogeneous_poisson", "e_total", "e_ionic", "e_electronic", "n", "e_ij_max", "weighted_surface_energy_EV_PER_ANG2", "weighted_surface_energy", "weighted_work_function", "surface_anisotropy", "shape_factor", "has_reconstructed", "possible_species", "has_props", "theoretical", "database_IDs"]}