{"builder_meta": null, "nsites": null, "elements": null, "nelements": null, "composition": null, "composition_reduced": null, "formula_pretty": "Cd5Au3", "formula_anonymous": "A3B5", "chemsys": null, "volume": 318.6835534318179, "density": 12.015218936633751, "density_atomic": 19.91772208948862, "symmetry": null, "property_name": null, "material_id": "mp-30371", "deprecated": null, "deprecation_reasons": null, "last_updated": null, "origins": null, "warnings": null, "structure": {"@module": "pymatgen.core.structure", "@class": "Structure", "charge": 0, "lattice": {"matrix": [[5.1511562, 0.0, 1.81713422], [2.5755781, 7.63823937, 0.90856762], [0.03456189, 1e-08, 8.11175662]], "pbc": [true, true, true], "a": 5.46226939744768, "b": 8.11183076393548, "c": 8.111830248862102, "alpha": 83.49112955476582, "beta": 70.32495467541894, "gamma": 70.32494199716047, "volume": 318.6835534318179}, "properties": {}, "sites": [{"species": [{"element": "Cd", "occu": 1}], "abc": [0.57951018, 0.69544983, 0.14553082], "properties": {"magmom": 0.0}, "label": "Cd", "xyz": [4.781362628659289, 5.312012272821115, 2.8654215683378927]}, {"species": [{"element": "Cd", "occu": 1}], "abc": [0.42048982, 0.30455017, 0.85446918], "properties": {"magmom": 0.0}, "label": "Cd", "xyz": [2.979933561340711, 2.3262271071788847, 7.972036891662108]}, {"species": [{"element": "Cd", "occu": 1}], "abc": [0.72504099, 0.85446918, 0.69544983], "properties": {"magmom": 0.0}, "label": "Cd", "xyz": [5.959587558550575, 6.526640138082115, 7.735159585448004]}, {"species": [{"element": "Cd", "occu": 1}], "abc": [0.27495901, 0.14553082, 0.30455017], "properties": {"magmom": 0.0}, "label": "Cd", "xyz": [1.801708631449425, 1.111599241917885, 3.102298874551996]}, {"species": [{"element": "Cd", "occu": 1}], "abc": [0.92048982, 0.85446918, 0.30455017], "properties": {"magmom": 0.0}, "label": "Cd", "xyz": [6.952864779937864, 6.526640134173118, 4.919433437939217]}, {"species": [{"element": "Cd", "occu": 1}], "abc": [0.22504099, 0.69544983, 0.85446918], "properties": {"magmom": 0.0}, "label": "Cd", "xyz": [2.9799387124969114, 5.312012279910499, 7.972038908155154]}, {"species": [{"element": "Cd", "occu": 1}], "abc": [0.25, 0.5, 0.5], "properties": {"magmom": -0.0}, "label": "Cd", "xyz": [2.592859045, 3.81911969, 4.9644456749999994]}, {"species": [{"element": "Cd", "occu": 1}], "abc": [0.75, 0.5, 0.5], "properties": {"magmom": -0.0}, "label": "Cd", "xyz": [5.168437145, 3.81911969, 5.873012785]}, {"species": [{"element": "Cd", "occu": 1}], "abc": [0.07951018, 0.14553082, 0.69544983], "properties": {"magmom": 0.0}, "label": "Cd", "xyz": [0.8084314100621368, 1.1115992458268817, 5.9180250220607835]}, {"species": [{"element": "Cd", "occu": 1}], "abc": [0.77495901, 0.30455017, 0.14553082], "properties": {"magmom": 0.0}, "label": "Cd", "xyz": [4.7813574775030885, 2.3262271000895014, 2.865419551844846]}, {"species": [{"element": "Au", "occu": 1}], "abc": [0.83504646, 0.5, 0.82990609], "properties": {"magmom": 0.0}, "label": "Au", "xyz": [5.617926922709962, 3.819119693299061, 8.703671527291677]}, {"species": [{"element": "Au", "occu": 1}], "abc": [0.6649535400000001, 0.17009391000000001, 0.5], "properties": {"magmom": 0.0}, "label": "Au", "xyz": [3.8806506448223193, 1.2992180049592368, 5.418729961229333]}, {"species": [{"element": "Au", "occu": 1}], "abc": [0.33504646, 0.82990609, 0.5], "properties": {"magmom": 0.0}, "label": "Au", "xyz": [3.8806455451776807, 6.339021375040764, 5.418728498770667]}, {"species": [{"element": "Au", "occu": 1}], "abc": [0.16495354, 0.5, 0.17009391000000001], "properties": {"magmom": 0.0}, "label": "Au", "xyz": [2.143369267290038, 3.819119686700939, 2.1337869327083228]}, {"species": [{"element": "Au", "occu": 1}], "abc": [0.75, -0.0, -0.0], "properties": {"magmom": -0.0}, "label": "Au", "xyz": [3.86336715, 0.0, 1.362850665]}, {"species": [{"element": "Au", "occu": 1}], "abc": [0.25, -0.0, -0.0], "properties": {"magmom": -0.0}, "label": "Au", "xyz": [1.28778905, 0.0, 0.454283555]}]}, "task_ids": null, "uncorrected_energy_per_atom": null, "energy_per_atom": -31.735163493125, "formation_energy_per_atom": -0.20018613062499901, "energy_above_hull": 0.0, "is_stable": true, "equilibrium_reaction_energy_per_atom": null, "decomposes_to": null, "xas": null, "grain_boundaries": null, "band_gap": 0.0, "cbm": null, "vbm": null, "efermi": 3.46410515, "is_gap_direct": null, "is_metal": null, "es_source_calc_id": null, "bandstructure": null, "dos": null, "dos_energy_up": null, "dos_energy_down": null, "is_magnetic": null, "ordering": null, "total_magnetization": 0.0, "total_magnetization_normalized_vol": null, "total_magnetization_normalized_formula_units": null, "num_magnetic_sites": null, "num_unique_magnetic_sites": null, "types_of_magnetic_species": null, "bulk_modulus": null, "shear_modulus": null, "universal_anisotropy": null, "homogeneous_poisson": null, "e_total": null, "e_ionic": null, "e_electronic": null, "n": null, "e_ij_max": null, "weighted_surface_energy_EV_PER_ANG2": null, "weighted_surface_energy": null, "weighted_work_function": null, "surface_anisotropy": null, "shape_factor": null, "has_reconstructed": null, "possible_species": null, "has_props": null, "theoretical": null, "database_IDs": null, "fields_not_requested": ["builder_meta", "nsites", "elements", "nelements", "composition", "composition_reduced", "chemsys", "symmetry", "property_name", "deprecated", "deprecation_reasons", "last_updated", "origins", "warnings", "task_ids", "uncorrected_energy_per_atom", "equilibrium_reaction_energy_per_atom", "decomposes_to", "xas", "grain_boundaries", "cbm", "vbm", "is_gap_direct", "is_metal", "es_source_calc_id", "bandstructure", "dos", "dos_energy_up", "dos_energy_down", "is_magnetic", "ordering", "total_magnetization_normalized_vol", "total_magnetization_normalized_formula_units", "num_magnetic_sites", "num_unique_magnetic_sites", "types_of_magnetic_species", "bulk_modulus", "shear_modulus", "universal_anisotropy", "homogeneous_poisson", "e_total", "e_ionic", "e_electronic", "n", "e_ij_max", "weighted_surface_energy_EV_PER_ANG2", "weighted_surface_energy", "weighted_work_function", "surface_anisotropy", "shape_factor", "has_reconstructed", "possible_species", "has_props", "theoretical", "database_IDs"]}