{
  "builder_meta": null,
  "nsites": null,
  "elements": null,
  "nelements": null,
  "composition": null,
  "composition_reduced": null,
  "formula_pretty": "Cd5Cu2",
  "formula_anonymous": "A2B5",
  "chemsys": null,
  "volume": 511.952141980856,
  "density": 8.941113219703901,
  "density_atomic": 18.284005070744858,
  "symmetry": null,
  "property_name": null,
  "material_id": "mp-30696",
  "deprecated": null,
  "deprecation_reasons": null,
  "last_updated": null,
  "origins": null,
  "warnings": null,
  "structure": {
    "@module": "pymatgen.core.structure",
    "@class": "Structure",
    "charge": 0,
    "lattice": {
      "matrix": [
        [8.17154785, 0.0, 0.0],
        [-4.08577342, 7.07676835, 0.0],
        [-0.0, 0.0, 8.85299169]
      ],
      "pbc": [true, true, true],
      "a": 8.17154785,
      "b": 8.171547877797707,
      "c": 8.85299169,
      "alpha": 90.0,
      "beta": 90.0,
      "gamma": 119.99999579882888,
      "volume": 511.952141980856
    },
    "properties": {},
    "sites": [
      {
        "species": [{ "element": "Cd", "occu": 1 }],
        "abc": [0.2040515, 0.40810399, 0.95857062],
        "properties": { "magmom": 0.0 },
        "label": "Cd",
        "xyz": [-3.838823670943015e-6, 2.888057399940717, 8.486217733138147]
      },
      {
        "species": [{ "element": "Cd", "occu": 1 }],
        "abc": [0.7959485, 0.2040515, 0.45857062],
        "properties": { "magmom": 0.0 },
        "label": "Cd",
        "xyz": [5.6704230588745945, 1.444025196970025, 4.059721888138148]
      },
      {
        "species": [{ "element": "Cd", "occu": 1 }],
        "abc": [0.40810399, 0.2040515, 0.45857062],
        "properties": { "magmom": 0.0 },
        "label": "Cd",
        "xyz": [2.5011330870497916, 1.444025196970025, 4.059721888138148]
      },
      {
        "species": [{ "element": "Cd", "occu": 1 }],
        "abc": [0.59189601, 0.7959485, 0.95857062],
        "properties": { "magmom": 0.0 },
        "label": "Cd",
        "xyz": [1.5846413429502086, 5.632743153029975, 8.486217733138147]
      },
      {
        "species": [{ "element": "Cd", "occu": 1 }],
        "abc": [0.2040515, 0.7959485, 0.95857062],
        "properties": { "magmom": 0.0 },
        "label": "Cd",
        "xyz": [-1.584648628874595, 5.632743153029975, 8.486217733138147]
      },
      {
        "species": [{ "element": "Cd", "occu": 1 }],
        "abc": [0.7959485, 0.59189601, 0.04142938],
        "properties": { "magmom": 0.0 },
        "label": "Cd",
        "xyz": [4.08577826882367, 4.188710950059284, 0.3667739568618522]
      },
      {
        "species": [{ "element": "Cd", "occu": 1 }],
        "abc": [0.7959485, 0.2040515, 0.04142938],
        "properties": { "magmom": 0.0 },
        "label": "Cd",
        "xyz": [5.6704230588745945, 1.444025196970025, 0.3667739568618522]
      },
      {
        "species": [{ "element": "Cd", "occu": 1 }],
        "abc": [0.7959485, 0.59189601, 0.45857062],
        "properties": { "magmom": 0.0 },
        "label": "Cd",
        "xyz": [4.08577826882367, 4.188710950059284, 4.059721888138148]
      },
      {
        "species": [{ "element": "Cd", "occu": 1 }],
        "abc": [0.40810399, 0.2040515, 0.04142938],
        "properties": { "magmom": 0.0 },
        "label": "Cd",
        "xyz": [2.5011330870497916, 1.444025196970025, 0.3667739568618522]
      },
      {
        "species": [{ "element": "Cd", "occu": 1 }],
        "abc": [0.59189601, 0.7959485, 0.54142938],
        "properties": { "magmom": 0.0 },
        "label": "Cd",
        "xyz": [1.5846413429502086, 5.632743153029975, 4.793269801861852]
      },
      {
        "species": [{ "element": "Cd", "occu": 1 }],
        "abc": [0.2040515, 0.40810399, 0.54142938],
        "properties": { "magmom": 0.0 },
        "label": "Cd",
        "xyz": [-3.838823670943015e-6, 2.888057399940717, 4.793269801861852]
      },
      {
        "species": [{ "element": "Cd", "occu": 1 }],
        "abc": [0.2040515, 0.7959485, 0.54142938],
        "properties": { "magmom": 0.0 },
        "label": "Cd",
        "xyz": [-1.584648628874595, 5.632743153029975, 4.793269801861852]
      },
      {
        "species": [{ "element": "Cd", "occu": 1 }],
        "abc": [0.53745532, 0.07490965000000001, 0.75],
        "properties": { "magmom": -0.0 },
        "label": "Cd",
        "xyz": [4.085778007745559, 0.5301182402295775, 6.6397437675]
      },
      {
        "species": [{ "element": "Cd", "occu": 1 }],
        "abc": [0.46254468, 0.53745532, 0.25],
        "properties": { "magmom": -0.0 },
        "label": "Cd",
        "xyz": [1.5837853244893436, 3.8034467981151217, 2.2132479225]
      },
      {
        "species": [{ "element": "Cd", "occu": 1 }],
        "abc": [0.07490965000000001, 0.53745532, 0.25],
        "properties": { "magmom": -0.0 },
        "label": "Cd",
        "xyz": [-1.5837928714918417, 3.8034467981151217, 2.2132479225]
      },
      {
        "species": [{ "element": "Cd", "occu": 1 }],
        "abc": [0.9250903500000001, 0.46254468, 0.75],
        "properties": { "magmom": -0.0 },
        "label": "Cd",
        "xyz": [5.669567301491842, 3.273321551884878, 6.6397437675]
      },
      {
        "species": [{ "element": "Cd", "occu": 1 }],
        "abc": [0.53745532, 0.46254468, 0.75],
        "properties": { "magmom": -0.0 },
        "label": "Cd",
        "xyz": [2.5019891055106562, 3.273321551884878, 6.6397437675]
      },
      {
        "species": [{ "element": "Cd", "occu": 1 }],
        "abc": [0.46254468, 0.9250903500000001, 0.25],
        "properties": { "magmom": -0.0 },
        "label": "Cd",
        "xyz": [-3.57774555936885e-6, 6.546650109770423, 2.2132479225]
      },
      {
        "species": [{ "element": "Cd", "occu": 1 }],
        "abc": [0.0, -0.0, 0.5],
        "properties": { "magmom": 0.0 },
        "label": "Cd",
        "xyz": [0.0, 0.0, 4.426495845]
      },
      {
        "species": [{ "element": "Cd", "occu": 1 }],
        "abc": [0.0, -0.0, -0.0],
        "properties": { "magmom": 0.0 },
        "label": "Cd",
        "xyz": [0.0, 0.0, 0.0]
      },
      {
        "species": [{ "element": "Cu", "occu": 1 }],
        "abc": [0.88985101, 0.77970102, 0.75],
        "properties": { "magmom": 0.0 },
        "label": "Cu",
        "xyz": [4.085778404522941, 5.517763500798717, 6.6397437675]
      },
      {
        "species": [{ "element": "Cu", "occu": 1 }],
        "abc": [0.11014899, 0.88985101, 0.25],
        "properties": { "magmom": 0.0 },
        "label": "Cu",
        "xyz": [-2.7356418620039826, 6.297269463783533, 2.2132479225]
      },
      {
        "species": [{ "element": "Cu", "occu": 1 }],
        "abc": [0.77970102, 0.88985101, 0.25],
        "properties": { "magmom": 0.0 },
        "label": "Cu",
        "xyz": [2.7356345892056524, 6.297269463783533, 2.2132479225]
      },
      {
        "species": [{ "element": "Cu", "occu": 1 }],
        "abc": [0.22029898, 0.11014899, 0.75],
        "properties": { "magmom": 0.0 },
        "label": "Cu",
        "xyz": [1.3501398407943472, 0.7794988862164666, 6.6397437675]
      },
      {
        "species": [{ "element": "Cu", "occu": 1 }],
        "abc": [0.88985101, 0.11014899, 0.75],
        "properties": { "magmom": 0.0 },
        "label": "Cu",
        "xyz": [6.821416292003983, 0.7794988862164666, 6.6397437675]
      },
      {
        "species": [{ "element": "Cu", "occu": 1 }],
        "abc": [0.11014899, 0.22029898, 0.25],
        "properties": { "magmom": 0.0 },
        "label": "Cu",
        "xyz": [-3.974522940097813e-6, 1.5590048492012831, 2.2132479225]
      },
      {
        "species": [{ "element": "Cu", "occu": 1 }],
        "abc": [0.666667, 0.333333, 0.25],
        "properties": { "magmom": -0.0 },
        "label": "Cu",
        "xyz": [4.0857781791070895, 2.35892042441055, 2.2132479225]
      },
      {
        "species": [{ "element": "Cu", "occu": 1 }],
        "abc": [0.333333, 0.666667, 0.75],
        "properties": { "magmom": -0.0 },
        "label": "Cu",
        "xyz": [-3.7491070901118917e-6, 4.71784792558945, 6.6397437675]
      }
    ]
  },
  "task_ids": null,
  "uncorrected_energy_per_atom": null,
  "energy_per_atom": -17.435713025714286,
  "formation_energy_per_atom": 0.024077038571428,
  "energy_above_hull": 0.024077038571430003,
  "is_stable": false,
  "equilibrium_reaction_energy_per_atom": null,
  "decomposes_to": null,
  "xas": null,
  "grain_boundaries": null,
  "band_gap": 0.0,
  "cbm": null,
  "vbm": null,
  "efermi": 3.63365139,
  "is_gap_direct": null,
  "is_metal": null,
  "es_source_calc_id": null,
  "bandstructure": null,
  "dos": null,
  "dos_energy_up": null,
  "dos_energy_down": null,
  "is_magnetic": null,
  "ordering": null,
  "total_magnetization": 1e-7,
  "total_magnetization_normalized_vol": null,
  "total_magnetization_normalized_formula_units": null,
  "num_magnetic_sites": null,
  "num_unique_magnetic_sites": null,
  "types_of_magnetic_species": null,
  "bulk_modulus": null,
  "shear_modulus": null,
  "universal_anisotropy": null,
  "homogeneous_poisson": null,
  "e_total": null,
  "e_ionic": null,
  "e_electronic": null,
  "n": null,
  "e_ij_max": null,
  "weighted_surface_energy_EV_PER_ANG2": null,
  "weighted_surface_energy": null,
  "weighted_work_function": null,
  "surface_anisotropy": null,
  "shape_factor": null,
  "has_reconstructed": null,
  "possible_species": null,
  "has_props": null,
  "theoretical": null,
  "database_IDs": null,
  "fields_not_requested": [
    "builder_meta",
    "nsites",
    "elements",
    "nelements",
    "composition",
    "composition_reduced",
    "chemsys",
    "symmetry",
    "property_name",
    "deprecated",
    "deprecation_reasons",
    "last_updated",
    "origins",
    "warnings",
    "task_ids",
    "uncorrected_energy_per_atom",
    "equilibrium_reaction_energy_per_atom",
    "decomposes_to",
    "xas",
    "grain_boundaries",
    "cbm",
    "vbm",
    "is_gap_direct",
    "is_metal",
    "es_source_calc_id",
    "bandstructure",
    "dos",
    "dos_energy_up",
    "dos_energy_down",
    "is_magnetic",
    "ordering",
    "total_magnetization_normalized_vol",
    "total_magnetization_normalized_formula_units",
    "num_magnetic_sites",
    "num_unique_magnetic_sites",
    "types_of_magnetic_species",
    "bulk_modulus",
    "shear_modulus",
    "universal_anisotropy",
    "homogeneous_poisson",
    "e_total",
    "e_ionic",
    "e_electronic",
    "n",
    "e_ij_max",
    "weighted_surface_energy_EV_PER_ANG2",
    "weighted_surface_energy",
    "weighted_work_function",
    "surface_anisotropy",
    "shape_factor",
    "has_reconstructed",
    "possible_species",
    "has_props",
    "theoretical",
    "database_IDs"
  ]
}
