{
  "builder_meta": null,
  "nsites": null,
  "elements": null,
  "nelements": null,
  "composition": null,
  "composition_reduced": null,
  "formula_pretty": "Cd5Ni",
  "formula_anonymous": "AB5",
  "chemsys": null,
  "volume": 999.608580706677,
  "density": 8.249444741666638,
  "density_atomic": 20.825178764722438,
  "symmetry": null,
  "property_name": null,
  "material_id": "mp-1229280",
  "deprecated": null,
  "deprecation_reasons": null,
  "last_updated": null,
  "origins": null,
  "warnings": null,
  "structure": {
    "@module": "pymatgen.core.structure",
    "@class": "Structure",
    "charge": 0,
    "lattice": {
      "matrix": [
        [6.982198, -7.149759, 0.0],
        [6.982198, 7.149759, 0.0],
        [0.0, 0.0, 10.011898]
      ],
      "pbc": [true, true, true],
      "a": 9.993505024228737,
      "b": 9.993505024228737,
      "c": 10.011898,
      "alpha": 90.0,
      "beta": 90.0,
      "gamma": 91.35863536088473,
      "volume": 999.608580706677
    },
    "properties": {},
    "sites": [
      {
        "species": [{ "element": "Cd", "occu": 1 }],
        "abc": [0.862725, 0.496627, 0.499092],
        "properties": { "magmom": -0.0 },
        "label": "Cd",
        "xyz": [9.491264815696, -2.6175124703820005, 4.996858196616]
      },
      {
        "species": [{ "element": "Cd", "occu": 1 }],
        "abc": [0.503373, 0.137274999999999, 0.499092],
        "properties": { "magmom": 0.0 },
        "label": "Cd",
        "xyz": [4.473131184303993, -2.617512470382007, 4.996858196616]
      },
      {
        "species": [{ "element": "Cd", "occu": 1 }],
        "abc": [0.5, 0.5, 0.860186999999999],
        "properties": { "magmom": 0.0 },
        "label": "Cd",
        "xyz": [6.982198, 0.0, 8.612104504925991]
      },
      {
        "species": [{ "element": "Cd", "occu": 1 }],
        "abc": [0.137274999999999, 0.503373, 0.499092],
        "properties": { "magmom": -0.0 },
        "label": "Cd",
        "xyz": [4.473131184303993, 2.617512470382007, 4.996858196616]
      },
      {
        "species": [{ "element": "Cd", "occu": 1 }],
        "abc": [0.496627, 0.862725, 0.499092],
        "properties": { "magmom": 0.0 },
        "label": "Cd",
        "xyz": [9.491264815696, 2.6175124703820005, 4.996858196616]
      },
      {
        "species": [{ "element": "Cd", "occu": 1 }],
        "abc": [0.5, 0.5, 0.139748999999999],
        "properties": { "magmom": 0.0 },
        "label": "Cd",
        "xyz": [6.982198, 0.0, 1.3991527336019902]
      },
      {
        "species": [{ "element": "Cd", "occu": 1 }],
        "abc": [0.302421999999999, 0.697577999999999, 0.007033999999999],
        "properties": { "magmom": 0.0 },
        "label": "Cd",
        "xyz": [6.982197999999987, 2.825270167404, 0.07042369053198999]
      },
      {
        "species": [{ "element": "Cd", "occu": 1 }],
        "abc": [0.054255, 0.725119, 0.251061],
        "properties": { "magmom": 0.0 },
        "label": "Cd",
        "xyz": [5.441743584052, 4.796515921776001, 2.5135971237779997]
      },
      {
        "species": [{ "element": "Cd", "occu": 1 }],
        "abc": [0.274881, 0.945745, 0.251061],
        "properties": { "magmom": 0.0 },
        "label": "Cd",
        "xyz": [8.522652415948, 4.796515921776, 2.5135971237779997]
      },
      {
        "species": [{ "element": "Cd", "occu": 1 }],
        "abc": [0.697577999999999, 0.302421999999999, 0.007033999999999],
        "properties": { "magmom": 0.0 },
        "label": "Cd",
        "xyz": [6.982197999999987, -2.825270167404, 0.07042369053198999]
      },
      {
        "species": [{ "element": "Cd", "occu": 1 }],
        "abc": [0.945745, 0.274881, 0.251061],
        "properties": { "magmom": 0.0 },
        "label": "Cd",
        "xyz": [8.522652415948, -4.796515921776, 2.5135971237779997]
      },
      {
        "species": [{ "element": "Cd", "occu": 1 }],
        "abc": [0.725119, 0.054255, 0.251061],
        "properties": { "magmom": 0.0 },
        "label": "Cd",
        "xyz": [5.441743584052, -4.796515921776001, 2.5135971237779997]
      },
      {
        "species": [{ "element": "Cd", "occu": 1 }],
        "abc": [0.798543999999999, 0.798543999999999, 0.949344],
        "properties": { "magmom": 0.0 },
        "label": "Cd",
        "xyz": [11.151184639423986, 0.0, 9.504735294912]
      },
      {
        "species": [{ "element": "Cd", "occu": 1 }],
        "abc": [0.005275, 0.7482300000000001, 0.739606],
        "properties": { "magmom": -0.0 },
        "label": "Cd",
        "xyz": [5.261121103990001, 5.311949197845001, 7.404859832188]
      },
      {
        "species": [{ "element": "Cd", "occu": 1 }],
        "abc": [0.7482300000000001, 0.005275, 0.739606],
        "properties": { "magmom": -0.0 },
        "label": "Cd",
        "xyz": [5.261121103990001, -5.311949197845001, 7.404859832188]
      },
      {
        "species": [{ "element": "Cd", "occu": 1 }],
        "abc": [0.201456, 0.201456, 0.949344],
        "properties": { "magmom": 0.0 },
        "label": "Cd",
        "xyz": [2.813211360576, 0.0, 9.504735294912]
      },
      {
        "species": [{ "element": "Cd", "occu": 1 }],
        "abc": [0.994725, 0.25177, 0.739606],
        "properties": { "magmom": -0.0 },
        "label": "Cd",
        "xyz": [8.70327489601, -5.311949197845, 7.404859832188]
      },
      {
        "species": [{ "element": "Cd", "occu": 1 }],
        "abc": [0.25177, 0.994725, 0.739606],
        "properties": { "magmom": -0.0 },
        "label": "Cd",
        "xyz": [8.70327489601, 5.311949197845, 7.404859832188]
      },
      {
        "species": [{ "element": "Cd", "occu": 1 }],
        "abc": [0.643459, 0.356541, 0.652737999999999],
        "properties": { "magmom": -0.0 },
        "label": "Cd",
        "xyz": [6.982198, -2.0513945527620003, 6.5351462767239905]
      },
      {
        "species": [{ "element": "Cd", "occu": 1 }],
        "abc": [0.356541, 0.643459, 0.652737999999999],
        "properties": { "magmom": -0.0 },
        "label": "Cd",
        "xyz": [6.982198, 2.0513945527620003, 6.5351462767239905]
      },
      {
        "species": [{ "element": "Cd", "occu": 1 }],
        "abc": [0.345783, 0.345783, 0.359732999999999],
        "properties": { "magmom": 0.0 },
        "label": "Cd",
        "xyz": [4.8286507420680005, 0.0, 3.6016101032339902]
      },
      {
        "species": [{ "element": "Cd", "occu": 1 }],
        "abc": [0.654216999999999, 0.654216999999999, 0.359732999999999],
        "properties": { "magmom": 0.0 },
        "label": "Cd",
        "xyz": [9.135745257931987, 0.0, 3.6016101032339902]
      },
      {
        "species": [{ "element": "Cd", "occu": 1 }],
        "abc": [0.82955, 0.17045000000000002, 0.509560999999999],
        "properties": { "magmom": -0.0 },
        "label": "Cd",
        "xyz": [6.982198, -4.7124061569, 5.10167275677799]
      },
      {
        "species": [{ "element": "Cd", "occu": 1 }],
        "abc": [0.490158999999999, 0.161936, 0.830531999999999],
        "properties": { "magmom": -0.0 },
        "label": "Cd",
        "xyz": [4.553056404809993, -2.346715348256993, 8.315201669735991]
      },
      {
        "species": [{ "element": "Cd", "occu": 1 }],
        "abc": [0.838063999999999, 0.509841, 0.830531999999999],
        "properties": { "magmom": -0.0 },
        "label": "Cd",
        "xyz": [9.411339595189993, -2.3467153482569936, 8.315201669735991]
      },
      {
        "species": [{ "element": "Cd", "occu": 1 }],
        "abc": [0.17045000000000002, 0.82955, 0.509560999999999],
        "properties": { "magmom": -0.0 },
        "label": "Cd",
        "xyz": [6.982198, 4.7124061569, 5.10167275677799]
      },
      {
        "species": [{ "element": "Cd", "occu": 1 }],
        "abc": [0.509841, 0.838063999999999, 0.830531999999999],
        "properties": { "magmom": -0.0 },
        "label": "Cd",
        "xyz": [9.411339595189993, 2.3467153482569936, 8.315201669735991]
      },
      {
        "species": [{ "element": "Cd", "occu": 1 }],
        "abc": [0.161936, 0.490158999999999, 0.830531999999999],
        "properties": { "magmom": -0.0 },
        "label": "Cd",
        "xyz": [4.553056404809993, 2.346715348256993, 8.315201669735991]
      },
      {
        "species": [{ "element": "Cd", "occu": 1 }],
        "abc": [0.133967, 0.133967, 0.458702],
        "properties": { "magmom": -0.0 },
        "label": "Cd",
        "xyz": [1.8707682389320002, 0.0, 4.5924776363960005]
      },
      {
        "species": [{ "element": "Cd", "occu": 1 }],
        "abc": [0.456557999999999, 0.169195999999999, 0.14968599999999901],
        "properties": { "magmom": 0.0 },
        "label": "Cd",
        "xyz": [4.369138327291987, -2.054569045758, 1.4986409640279903]
      },
      {
        "species": [{ "element": "Cd", "occu": 1 }],
        "abc": [0.169195999999999, 0.456557999999999, 0.14968599999999901],
        "properties": { "magmom": 0.0 },
        "label": "Cd",
        "xyz": [4.369138327291987, 2.054569045758, 1.4986409640279903]
      },
      {
        "species": [{ "element": "Cd", "occu": 1 }],
        "abc": [0.866032999999999, 0.866032999999999, 0.458702],
        "properties": { "magmom": -0.0 },
        "label": "Cd",
        "xyz": [12.093627761067987, 0.0, 4.5924776363960005]
      },
      {
        "species": [{ "element": "Cd", "occu": 1 }],
        "abc": [0.543442, 0.830804, 0.14968599999999901],
        "properties": { "magmom": 0.0 },
        "label": "Cd",
        "xyz": [9.595257672708001, 2.0545690457580004, 1.4986409640279903]
      },
      {
        "species": [{ "element": "Cd", "occu": 1 }],
        "abc": [0.830804, 0.543442, 0.14968599999999901],
        "properties": { "magmom": 0.0 },
        "label": "Cd",
        "xyz": [9.595257672708001, -2.0545690457580004, 1.4986409640279903]
      },
      {
        "species": [{ "element": "Cd", "occu": 1 }],
        "abc": [0.343900999999999, 0.656099, 0.333383],
        "properties": { "magmom": 0.0 },
        "label": "Cd",
        "xyz": [6.982197999999993, 2.232140460282007, 3.337796590934]
      },
      {
        "species": [{ "element": "Cd", "occu": 1 }],
        "abc": [0.656099, 0.343900999999999, 0.333383],
        "properties": { "magmom": 0.0 },
        "label": "Cd",
        "xyz": [6.982197999999993, -2.232140460282007, 3.337796590934]
      },
      {
        "species": [{ "element": "Cd", "occu": 1 }],
        "abc": [0.677572, 0.677572, 0.656022],
        "properties": { "magmom": -0.0 },
        "label": "Cd",
        "xyz": [9.461883726512, 0.0, 6.568025349756001]
      },
      {
        "species": [{ "element": "Cd", "occu": 1 }],
        "abc": [0.322428, 0.322428, 0.656022],
        "properties": { "magmom": -0.0 },
        "label": "Cd",
        "xyz": [4.5025122734880005, 0.0, 6.568025349756001]
      },
      {
        "species": [{ "element": "Cd", "occu": 1 }],
        "abc": [0.900127999999999, 0.099871999999999, 0.997706],
        "properties": { "magmom": 0.0 },
        "label": "Cd",
        "xyz": [6.982197999999987, -5.721637538304001, 9.988930705988]
      },
      {
        "species": [{ "element": "Cd", "occu": 1 }],
        "abc": [0.099871999999999, 0.900127999999999, 0.997706],
        "properties": { "magmom": 0.0 },
        "label": "Cd",
        "xyz": [6.982197999999987, 5.721637538304001, 9.988930705988]
      },
      {
        "species": [{ "element": "Ni", "occu": 1 }],
        "abc": [0.185366, 0.185366, 0.204476],
        "properties": { "magmom": -0.0 },
        "label": "Ni",
        "xyz": [2.588524228936, 0.0, 2.047192855448]
      },
      {
        "species": [{ "element": "Ni", "occu": 1 }],
        "abc": [0.814634, 0.814634, 0.204476],
        "properties": { "magmom": -0.0 },
        "label": "Ni",
        "xyz": [11.375871771064, 0.0, 2.047192855448]
      },
      {
        "species": [{ "element": "Ni", "occu": 1 }],
        "abc": [0.360878, 0.976433999999999, 0.992412],
        "properties": { "magmom": 0.0 },
        "label": "Ni",
        "xyz": [9.337377171775994, 4.401077051003994, 9.935927717976]
      },
      {
        "species": [{ "element": "Ni", "occu": 1 }],
        "abc": [0.023566, 0.639122, 0.992412],
        "properties": { "magmom": 0.0 },
        "label": "Ni",
        "xyz": [4.627018828224, 4.401077051004, 9.935927717976]
      },
      {
        "species": [{ "element": "Ni", "occu": 1 }],
        "abc": [0.0, 0.0, 0.246007999999999],
        "properties": { "magmom": 0.0 },
        "label": "Ni",
        "xyz": [0.0, 0.0, 2.46300700318399]
      },
      {
        "species": [{ "element": "Ni", "occu": 1 }],
        "abc": [0.639122, 0.023566, 0.992412],
        "properties": { "magmom": 0.0 },
        "label": "Ni",
        "xyz": [4.627018828224, -4.401077051004, 9.935927717976]
      },
      {
        "species": [{ "element": "Ni", "occu": 1 }],
        "abc": [0.976433999999999, 0.360878, 0.992412],
        "properties": { "magmom": 0.0 },
        "label": "Ni",
        "xyz": [9.337377171775994, -4.401077051003994, 9.935927717976]
      },
      {
        "species": [{ "element": "Ni", "occu": 1 }],
        "abc": [0.0, 0.0, 0.647103],
        "properties": { "magmom": 0.0 },
        "label": "Ni",
        "xyz": [0.0, 0.0, 6.478729231494]
      }
    ]
  },
  "task_ids": null,
  "uncorrected_energy_per_atom": null,
  "energy_per_atom": -18.70058837590278,
  "formation_energy_per_atom": 0.05052089243055401,
  "energy_above_hull": 0.050520892430558004,
  "is_stable": false,
  "equilibrium_reaction_energy_per_atom": null,
  "decomposes_to": null,
  "xas": null,
  "grain_boundaries": null,
  "band_gap": 0.0,
  "cbm": null,
  "vbm": null,
  "efermi": 2.8462391400000002,
  "is_gap_direct": null,
  "is_metal": null,
  "es_source_calc_id": null,
  "bandstructure": null,
  "dos": null,
  "dos_energy_up": null,
  "dos_energy_down": null,
  "is_magnetic": null,
  "ordering": null,
  "total_magnetization": 0.0005794999999990001,
  "total_magnetization_normalized_vol": null,
  "total_magnetization_normalized_formula_units": null,
  "num_magnetic_sites": null,
  "num_unique_magnetic_sites": null,
  "types_of_magnetic_species": null,
  "bulk_modulus": null,
  "shear_modulus": null,
  "universal_anisotropy": null,
  "homogeneous_poisson": null,
  "e_total": null,
  "e_ionic": null,
  "e_electronic": null,
  "n": null,
  "e_ij_max": null,
  "weighted_surface_energy_EV_PER_ANG2": null,
  "weighted_surface_energy": null,
  "weighted_work_function": null,
  "surface_anisotropy": null,
  "shape_factor": null,
  "has_reconstructed": null,
  "possible_species": null,
  "has_props": null,
  "theoretical": null,
  "database_IDs": null,
  "fields_not_requested": [
    "builder_meta",
    "nsites",
    "elements",
    "nelements",
    "composition",
    "composition_reduced",
    "chemsys",
    "symmetry",
    "property_name",
    "deprecated",
    "deprecation_reasons",
    "last_updated",
    "origins",
    "warnings",
    "task_ids",
    "uncorrected_energy_per_atom",
    "equilibrium_reaction_energy_per_atom",
    "decomposes_to",
    "xas",
    "grain_boundaries",
    "cbm",
    "vbm",
    "is_gap_direct",
    "is_metal",
    "es_source_calc_id",
    "bandstructure",
    "dos",
    "dos_energy_up",
    "dos_energy_down",
    "is_magnetic",
    "ordering",
    "total_magnetization_normalized_vol",
    "total_magnetization_normalized_formula_units",
    "num_magnetic_sites",
    "num_unique_magnetic_sites",
    "types_of_magnetic_species",
    "bulk_modulus",
    "shear_modulus",
    "universal_anisotropy",
    "homogeneous_poisson",
    "e_total",
    "e_ionic",
    "e_electronic",
    "n",
    "e_ij_max",
    "weighted_surface_energy_EV_PER_ANG2",
    "weighted_surface_energy",
    "weighted_work_function",
    "surface_anisotropy",
    "shape_factor",
    "has_reconstructed",
    "possible_species",
    "has_props",
    "theoretical",
    "database_IDs"
  ]
}
