{"builder_meta": null, "nsites": null, "elements": null, "nelements": null, "composition": null, "composition_reduced": null, "formula_pretty": "Cd6Sb5", "formula_anonymous": "A5B6", "chemsys": null, "volume": 1413.945401180018, "density": 3.014138062277577, "density_atomic": 64.27024550818264, "symmetry": null, "property_name": null, "material_id": "mp-669510", "deprecated": null, "deprecation_reasons": null, "last_updated": null, "origins": null, "warnings": null, "structure": {"@module": "pymatgen.core.structure", "@class": "Structure", "charge": 0, "lattice": {"matrix": [[7.137262, -10.727699, 0.0], [7.137262, 10.727699, 0.0], [-8.987061, 0.0, 9.233459]], "pbc": [true, true, true], "a": 12.885031419878066, "b": 12.885031419878066, "c": 12.885031258107293, "alpha": 112.72743482020458, "beta": 112.72743482020458, "gamma": 112.72743751625734, "volume": 1413.945401180018}, "properties": {}, "sites": [{"species": [{"element": "Cd", "occu": 1}], "abc": [0.071161, 0.945415999999999, 0.518258], "properties": {"magmom": -0.003}, "label": "Cd", "xyz": [2.5979601324359924, 9.378744489244989, 4.785313994422]}, {"species": [{"element": "Cd", "occu": 1}], "abc": [0.445416, 0.571160999999999, 0.018258], "properties": {"magmom": -0.001}, "label": "Cd", "xyz": [7.091490632435993, 1.3489545107549894, 0.168584494422]}, {"species": [{"element": "Cd", "occu": 1}], "abc": [0.554584, 0.428838999999999, 0.981742], "properties": {"magmom": -0.002}, "label": "Cd", "xyz": [-1.8040276324360072, -1.3489545107550107, 9.064874505578]}, {"species": [{"element": "Cd", "occu": 1}], "abc": [0.981742, 0.554584, 0.428838999999999], "properties": {"magmom": -0.004}, "label": "Cd", "xyz": [7.111158927233008, -4.582422449442, 3.959667324100991]}, {"species": [{"element": "Cd", "occu": 1}], "abc": [0.054584, 0.481742, 0.928839], "properties": {"magmom": -0.003}, "label": "Cd", "xyz": [-4.519633572767001, 4.582422449441999, 8.576396824101]}, {"species": [{"element": "Cd", "occu": 1}], "abc": [0.571160999999999, 0.018258, 0.445416], "properties": {"magmom": -0.003}, "label": "Cd", "xyz": [0.2038570684019927, -5.931376960196989, 4.112730373943999]}, {"species": [{"element": "Cd", "occu": 1}], "abc": [0.518258, 0.071161, 0.945415999999999], "properties": {"magmom": -0.001}, "label": "Cd", "xyz": [-4.289673431597991, -4.796322039803, 8.729459873943991]}, {"species": [{"element": "Cd", "occu": 1}], "abc": [0.945415999999999, 0.518258, 0.071161], "properties": {"magmom": -0.003}, "label": "Cd", "xyz": [9.807096572766993, -4.582422449441989, 0.657062175899]}, {"species": [{"element": "Cd", "occu": 1}], "abc": [0.428838999999999, 0.981742, 0.554584], "properties": {"magmom": -0.003}, "label": "Cd", "xyz": [5.083605931597993, 5.931376960197011, 5.120728626056]}, {"species": [{"element": "Cd", "occu": 1}], "abc": [0.928839, 0.054584, 0.481742], "properties": {"magmom": -0.002}, "label": "Cd", "xyz": [2.6895028675639994, -9.378744489245, 4.448145005578]}, {"species": [{"element": "Cd", "occu": 1}], "abc": [0.481742, 0.928839, 0.054584], "properties": {"magmom": -0.001}, "label": "Cd", "xyz": [9.577136431598, 4.796322039803, 0.503999126056]}, {"species": [{"element": "Cd", "occu": 1}], "abc": [0.018258, 0.445416, 0.571160999999999], "properties": {"magmom": -0.003}, "label": "Cd", "xyz": [-1.823695927232992, 4.582422449441999, 5.273791675898991]}, {"species": [{"element": "Sb", "occu": 1}], "abc": [0.75, 0.120396999999999, 0.379602999999999], "properties": {"magmom": -0.009000000000000001}, "label": "Sb", "xyz": [2.8007361162310014, -6.75419147349701, 3.505048736776991]}, {"species": [{"element": "Sb", "occu": 1}], "abc": [0.120396999999999, 0.379602999999999, 0.75], "properties": {"magmom": -0.008}, "label": "Sb", "xyz": [-3.1716647500000144, 2.7806839469940003, 6.92509425]}, {"species": [{"element": "Sb", "occu": 1}], "abc": [0.873008, 0.873008, 0.873008], "properties": {"magmom": 0.054}, "label": "Sb", "xyz": [4.615997498704, 0.0, 8.060883574672]}, {"species": [{"element": "Sb", "occu": 1}], "abc": [0.626992, 0.626992, 0.626992], "properties": {"magmom": 0.054}, "label": "Sb", "xyz": [3.3151970012959984, 0.0, 5.789304925328]}, {"species": [{"element": "Sb", "occu": 1}], "abc": [0.25, 0.879602999999999, 0.620397], "properties": {"magmom": -0.01}, "label": "Sb", "xyz": [2.486726883768992, 6.754191473496988, 5.728410263223]}, {"species": [{"element": "Sb", "occu": 1}], "abc": [0.620397, 0.25, 0.879602999999999], "properties": {"magmom": -0.015}, "label": "Sb", "xyz": [-1.6927943837689918, -3.9735075265029995, 8.121778236776992]}, {"species": [{"element": "Sb", "occu": 1}], "abc": [0.879602999999999, 0.620397, 0.25], "properties": {"magmom": -0.007}, "label": "Sb", "xyz": [8.459127749999993, -2.780683946993989, 2.30836475]}, {"species": [{"element": "Sb", "occu": 1}], "abc": [0.373008, 0.373008, 0.373008], "properties": {"magmom": 0.054}, "label": "Sb", "xyz": [1.9722659987039997, 0.0, 3.444154074672]}, {"species": [{"element": "Sb", "occu": 1}], "abc": [0.379602999999999, 0.75, 0.120396999999999], "properties": {"magmom": -0.014}, "label": "Sb", "xyz": [6.980257383769001, 3.9735075265030098, 1.1116807632229908]}, {"species": [{"element": "Sb", "occu": 1}], "abc": [0.126992, 0.126992, 0.126992], "properties": {"magmom": 0.054}, "label": "Sb", "xyz": [0.6714655012959998, 0.0, 1.1725754253279999]}]}, "task_ids": null, "uncorrected_energy_per_atom": null, "energy_per_atom": -22.25623344465909, "formation_energy_per_atom": 0.39481244534090804, "energy_above_hull": 0.481966853863635, "is_stable": false, "equilibrium_reaction_energy_per_atom": null, "decomposes_to": null, "xas": null, "grain_boundaries": null, "band_gap": 0.0, "cbm": null, "vbm": null, "efermi": -0.76753154, "is_gap_direct": null, "is_metal": null, "es_source_calc_id": null, "bandstructure": null, "dos": null, "dos_energy_up": null, "dos_energy_down": null, "is_magnetic": null, "ordering": null, "total_magnetization": 0.049947399999999004, "total_magnetization_normalized_vol": null, "total_magnetization_normalized_formula_units": null, "num_magnetic_sites": null, "num_unique_magnetic_sites": null, "types_of_magnetic_species": null, "bulk_modulus": null, "shear_modulus": null, "universal_anisotropy": null, "homogeneous_poisson": null, "e_total": null, "e_ionic": null, "e_electronic": null, "n": null, "e_ij_max": null, "weighted_surface_energy_EV_PER_ANG2": null, "weighted_surface_energy": null, "weighted_work_function": null, "surface_anisotropy": null, "shape_factor": null, "has_reconstructed": null, "possible_species": null, "has_props": null, "theoretical": null, "database_IDs": null, "fields_not_requested": ["builder_meta", "nsites", "elements", "nelements", "composition", "composition_reduced", "chemsys", "symmetry", "property_name", "deprecated", "deprecation_reasons", "last_updated", "origins", "warnings", "task_ids", "uncorrected_energy_per_atom", "equilibrium_reaction_energy_per_atom", "decomposes_to", "xas", "grain_boundaries", "cbm", "vbm", "is_gap_direct", "is_metal", "es_source_calc_id", "bandstructure", "dos", "dos_energy_up", "dos_energy_down", "is_magnetic", "ordering", "total_magnetization_normalized_vol", "total_magnetization_normalized_formula_units", "num_magnetic_sites", "num_unique_magnetic_sites", "types_of_magnetic_species", "bulk_modulus", "shear_modulus", "universal_anisotropy", "homogeneous_poisson", "e_total", "e_ionic", "e_electronic", "n", "e_ij_max", "weighted_surface_energy_EV_PER_ANG2", "weighted_surface_energy", "weighted_work_function", "surface_anisotropy", "shape_factor", "has_reconstructed", "possible_species", "has_props", "theoretical", "database_IDs"]}