{
  "builder_meta": null,
  "nsites": null,
  "elements": null,
  "nelements": null,
  "composition": null,
  "composition_reduced": null,
  "formula_pretty": "CdAs",
  "formula_anonymous": "AB",
  "chemsys": null,
  "volume": 384.45341717142287,
  "density": 6.473046394779165,
  "density_atomic": 24.02833857321393,
  "symmetry": null,
  "property_name": null,
  "material_id": "mp-7373",
  "deprecated": null,
  "deprecation_reasons": null,
  "last_updated": null,
  "origins": null,
  "warnings": null,
  "structure": {
    "@module": "pymatgen.core.structure",
    "@class": "Structure",
    "charge": 0,
    "lattice": {
      "matrix": [
        [6.03383359, -0.0, 0.0],
        [0.0, 7.8732413900000005, 0.0],
        [0.0, 0.0, 8.09276315]
      ],
      "pbc": [true, true, true],
      "a": 6.03383359,
      "b": 7.8732413900000005,
      "c": 8.09276315,
      "alpha": 90.0,
      "beta": 90.0,
      "gamma": 90.0,
      "volume": 384.4534171714229
    },
    "properties": {},
    "sites": [
      {
        "species": [{ "element": "Cd", "occu": 1 }],
        "abc": [0.04660686, 0.6300371, 0.86199275],
        "properties": { "magmom": -0.0 },
        "label": "Cd",
        "xyz": [0.2812180373924274, 4.960434172955569, 6.975903162767162]
      },
      {
        "species": [{ "element": "Cd", "occu": 1 }],
        "abc": [0.54660686, 0.8699629, 0.13800725],
        "properties": { "magmom": -0.0 },
        "label": "Cd",
        "xyz": [3.298134832392428, 6.8494279120444315, 1.1168599872328375]
      },
      {
        "species": [{ "element": "Cd", "occu": 1 }],
        "abc": [0.95339314, 0.1300371, 0.63800725],
        "properties": { "magmom": -0.0 },
        "label": "Cd",
        "xyz": [5.752615552607573, 1.023813477955569, 5.163241562232837]
      },
      {
        "species": [{ "element": "Cd", "occu": 1 }],
        "abc": [0.45339314000000003, 0.3699629, 0.36199275000000003],
        "properties": { "magmom": -0.0 },
        "label": "Cd",
        "xyz": [2.735698757607573, 2.9128072170444312, 2.9295215877671628]
      },
      {
        "species": [{ "element": "Cd", "occu": 1 }],
        "abc": [0.95339314, 0.3699629, 0.13800725],
        "properties": { "magmom": -0.0 },
        "label": "Cd",
        "xyz": [5.752615552607573, 2.9128072170444312, 1.1168599872328375]
      },
      {
        "species": [{ "element": "Cd", "occu": 1 }],
        "abc": [0.45339314000000003, 0.1300371, 0.86199275],
        "properties": { "magmom": -0.0 },
        "label": "Cd",
        "xyz": [2.735698757607573, 1.023813477955569, 6.975903162767162]
      },
      {
        "species": [{ "element": "Cd", "occu": 1 }],
        "abc": [0.04660686, 0.8699629, 0.36199275000000003],
        "properties": { "magmom": -0.0 },
        "label": "Cd",
        "xyz": [0.2812180373924274, 6.8494279120444315, 2.9295215877671628]
      },
      {
        "species": [{ "element": "Cd", "occu": 1 }],
        "abc": [0.54660686, 0.6300371, 0.63800725],
        "properties": { "magmom": -0.0 },
        "label": "Cd",
        "xyz": [3.298134832392428, 4.960434172955569, 5.163241562232837]
      },
      {
        "species": [{ "element": "As", "occu": 1 }],
        "abc": [0.6324853500000001, 0.06515367, 0.40461464],
        "properties": { "magmom": 0.0 },
        "label": "As",
        "xyz": [3.816311350012907, 0.5129705713544013, 3.274450448542516]
      },
      {
        "species": [{ "element": "As", "occu": 1 }],
        "abc": [0.13248535, 0.43484633, 0.59538536],
        "properties": { "magmom": 0.0 },
        "label": "As",
        "xyz": [0.7993945550129066, 3.423650123645599, 4.818312701457484]
      },
      {
        "species": [{ "element": "As", "occu": 1 }],
        "abc": [0.36751465, 0.56515367, 0.09538536],
        "properties": { "magmom": 0.0 },
        "label": "As",
        "xyz": [2.2175222399870935, 4.449591266354402, 0.771931126457484]
      },
      {
        "species": [{ "element": "As", "occu": 1 }],
        "abc": [0.86751465, 0.9348463300000001, 0.90461464],
        "properties": { "magmom": 0.0 },
        "label": "As",
        "xyz": [5.234439034987094, 7.360270818645599, 7.320832023542516]
      },
      {
        "species": [{ "element": "As", "occu": 1 }],
        "abc": [0.36751465, 0.9348463300000001, 0.59538536],
        "properties": { "magmom": 0.0 },
        "label": "As",
        "xyz": [2.2175222399870935, 7.360270818645599, 4.818312701457484]
      },
      {
        "species": [{ "element": "As", "occu": 1 }],
        "abc": [0.86751465, 0.56515367, 0.40461464],
        "properties": { "magmom": 0.0 },
        "label": "As",
        "xyz": [5.234439034987094, 4.449591266354402, 3.274450448542516]
      },
      {
        "species": [{ "element": "As", "occu": 1 }],
        "abc": [0.6324853500000001, 0.43484633, 0.90461464],
        "properties": { "magmom": 0.0 },
        "label": "As",
        "xyz": [3.816311350012907, 3.423650123645599, 7.320832023542516]
      },
      {
        "species": [{ "element": "As", "occu": 1 }],
        "abc": [0.13248535, 0.06515367, 0.09538536],
        "properties": { "magmom": 0.0 },
        "label": "As",
        "xyz": [0.7993945550129066, 0.5129705713544013, 0.771931126457484]
      }
    ]
  },
  "task_ids": null,
  "uncorrected_energy_per_atom": null,
  "energy_per_atom": -2.863543677500001,
  "formation_energy_per_atom": -0.048477316250000006,
  "energy_above_hull": 0.015634253046873003,
  "is_stable": false,
  "equilibrium_reaction_energy_per_atom": null,
  "decomposes_to": null,
  "xas": null,
  "grain_boundaries": null,
  "band_gap": 0.09189999999999901,
  "cbm": null,
  "vbm": null,
  "efermi": 2.7229266,
  "is_gap_direct": null,
  "is_metal": null,
  "es_source_calc_id": null,
  "bandstructure": null,
  "dos": null,
  "dos_energy_up": null,
  "dos_energy_down": null,
  "is_magnetic": null,
  "ordering": null,
  "total_magnetization": 0.0,
  "total_magnetization_normalized_vol": null,
  "total_magnetization_normalized_formula_units": null,
  "num_magnetic_sites": null,
  "num_unique_magnetic_sites": null,
  "types_of_magnetic_species": null,
  "bulk_modulus": null,
  "shear_modulus": null,
  "universal_anisotropy": null,
  "homogeneous_poisson": null,
  "e_total": null,
  "e_ionic": null,
  "e_electronic": null,
  "n": null,
  "e_ij_max": null,
  "weighted_surface_energy_EV_PER_ANG2": null,
  "weighted_surface_energy": null,
  "weighted_work_function": null,
  "surface_anisotropy": null,
  "shape_factor": null,
  "has_reconstructed": null,
  "possible_species": null,
  "has_props": null,
  "theoretical": null,
  "database_IDs": null,
  "fields_not_requested": [
    "builder_meta",
    "nsites",
    "elements",
    "nelements",
    "composition",
    "composition_reduced",
    "chemsys",
    "symmetry",
    "property_name",
    "deprecated",
    "deprecation_reasons",
    "last_updated",
    "origins",
    "warnings",
    "task_ids",
    "uncorrected_energy_per_atom",
    "equilibrium_reaction_energy_per_atom",
    "decomposes_to",
    "xas",
    "grain_boundaries",
    "cbm",
    "vbm",
    "is_gap_direct",
    "is_metal",
    "es_source_calc_id",
    "bandstructure",
    "dos",
    "dos_energy_up",
    "dos_energy_down",
    "is_magnetic",
    "ordering",
    "total_magnetization_normalized_vol",
    "total_magnetization_normalized_formula_units",
    "num_magnetic_sites",
    "num_unique_magnetic_sites",
    "types_of_magnetic_species",
    "bulk_modulus",
    "shear_modulus",
    "universal_anisotropy",
    "homogeneous_poisson",
    "e_total",
    "e_ionic",
    "e_electronic",
    "n",
    "e_ij_max",
    "weighted_surface_energy_EV_PER_ANG2",
    "weighted_surface_energy",
    "weighted_work_function",
    "surface_anisotropy",
    "shape_factor",
    "has_reconstructed",
    "possible_species",
    "has_props",
    "theoretical",
    "database_IDs"
  ]
}
