{"builder_meta": null, "nsites": null, "elements": null, "nelements": null, "composition": null, "composition_reduced": null, "formula_pretty": "CdAs2", "formula_anonymous": "AB2", "chemsys": null, "volume": 152.66478634811008, "density": 5.705092246838502, "density_atomic": 25.444131058018346, "symmetry": null, "property_name": null, "material_id": "mp-471", "deprecated": null, "deprecation_reasons": null, "last_updated": null, "origins": null, "warnings": null, "structure": {"@module": "pymatgen.core.structure", "@class": "Structure", "charge": 0, "lattice": {"matrix": [[4.36335446, 0.0, 1.81459671], [2.18167774, 5.68380787, 0.90729886], [-0.00084745, 0.0, 6.15536946]], "pbc": [true, true, true], "a": 4.725634704835396, "b": 6.155370085189252, "c": 6.155369518336994, "alpha": 81.52656947047211, "beta": 67.42683260561827, "gamma": 67.42683612751946, "volume": 152.66478634811008}, "properties": {}, "sites": [{"species": [{"element": "Cd", "occu": 1}], "abc": [0.25, 0.5, 0.5], "properties": {"magmom": 0.0}, "label": "Cd", "xyz": [2.1812537599999997, 2.841903935, 3.9849833375]}, {"species": [{"element": "Cd", "occu": 1}], "abc": [0.0, -0.0, -0.0], "properties": {"magmom": 0.0}, "label": "Cd", "xyz": [0.0, 0.0, 0.0]}, {"species": [{"element": "As", "occu": 1}], "abc": [0.68670692, 0.18829308, 0.68829308], "properties": {"magmom": -0.0}, "label": "As", "xyz": [3.406557229356257, 1.0702216899705397, 5.653632418757459]}, {"species": [{"element": "As", "occu": 1}], "abc": [0.625, 0.81170692, 0.68829308], "properties": {"magmom": -0.0}, "label": "As", "xyz": [4.497396162297315, 4.61358618002946, 6.107281911081449]}, {"species": [{"element": "As", "occu": 1}], "abc": [0.56329308, 0.81170692, 0.31170692], "properties": {"magmom": -0.0}, "label": "As", "xyz": [4.228466135643743, 4.61358618002946, 3.6772817887425413]}, {"species": [{"element": "As", "occu": 1}], "abc": [0.125, 0.18829308, 0.31170692], "properties": {"magmom": -0.0}, "label": "As", "xyz": [0.9559499727026851, 1.0702216899705397, 2.316333941418552]}]}, "task_ids": null, "uncorrected_energy_per_atom": null, "energy_per_atom": -3.4946494083333333, "formation_energy_per_atom": -0.06123098999999901, "energy_above_hull": 0.0, "is_stable": true, "equilibrium_reaction_energy_per_atom": null, "decomposes_to": null, "xas": null, "grain_boundaries": null, "band_gap": 0.133199999999999, "cbm": null, "vbm": null, "efermi": 2.296602699999999, "is_gap_direct": null, "is_metal": null, "es_source_calc_id": null, "bandstructure": null, "dos": null, "dos_energy_up": null, "dos_energy_down": null, "is_magnetic": null, "ordering": null, "total_magnetization": 0.0, "total_magnetization_normalized_vol": null, "total_magnetization_normalized_formula_units": null, "num_magnetic_sites": null, "num_unique_magnetic_sites": null, "types_of_magnetic_species": null, "bulk_modulus": null, "shear_modulus": null, "universal_anisotropy": null, "homogeneous_poisson": null, "e_total": null, "e_ionic": null, "e_electronic": null, "n": null, "e_ij_max": null, "weighted_surface_energy_EV_PER_ANG2": null, "weighted_surface_energy": null, "weighted_work_function": null, "surface_anisotropy": null, "shape_factor": null, "has_reconstructed": null, "possible_species": null, "has_props": null, "theoretical": null, "database_IDs": null, "fields_not_requested": ["builder_meta", "nsites", "elements", "nelements", "composition", "composition_reduced", "chemsys", "symmetry", "property_name", "deprecated", "deprecation_reasons", "last_updated", "origins", "warnings", "task_ids", "uncorrected_energy_per_atom", "equilibrium_reaction_energy_per_atom", "decomposes_to", "xas", "grain_boundaries", "cbm", "vbm", "is_gap_direct", "is_metal", "es_source_calc_id", "bandstructure", "dos", "dos_energy_up", "dos_energy_down", "is_magnetic", "ordering", "total_magnetization_normalized_vol", "total_magnetization_normalized_formula_units", "num_magnetic_sites", "num_unique_magnetic_sites", "types_of_magnetic_species", "bulk_modulus", "shear_modulus", "universal_anisotropy", "homogeneous_poisson", "e_total", "e_ionic", "e_electronic", "n", "e_ij_max", "weighted_surface_energy_EV_PER_ANG2", "weighted_surface_energy", "weighted_work_function", "surface_anisotropy", "shape_factor", "has_reconstructed", "possible_species", "has_props", "theoretical", "database_IDs"]}