{"builder_meta": null, "nsites": null, "elements": null, "nelements": null, "composition": null, "composition_reduced": null, "formula_pretty": "CdAs3", "formula_anonymous": "AB3", "chemsys": null, "volume": 163.76571559354036, "density": 6.8377387316126725, "density_atomic": 20.470714449192545, "symmetry": null, "property_name": null, "material_id": "mp-1183659", "deprecated": null, "deprecation_reasons": null, "last_updated": null, "origins": null, "warnings": null, "structure": {"@module": "pymatgen.core.structure", "@class": "Structure", "charge": 0, "lattice": {"matrix": [[3.076248, -5.328217, 0.0], [3.076248, 5.328217, 0.0], [0.0, 0.0, 4.995624]], "pbc": [true, true, true], "a": 6.152495278876125, "b": 6.152495278876125, "c": 4.995624, "alpha": 90.0, "beta": 90.0, "gamma": 119.99999224555725, "volume": 163.76571559354036}, "properties": {}, "sites": [{"species": [{"element": "Cd", "occu": 1}], "abc": [0.333333, 0.666667, 0.75], "properties": {"magmom": -0.001}, "label": "Cd", "xyz": [3.0762479999999996, 1.776075885478, 3.7467180000000004]}, {"species": [{"element": "Cd", "occu": 1}], "abc": [0.666667, 0.333333, 0.25], "properties": {"magmom": 0.001}, "label": "Cd", "xyz": [3.0762479999999996, -1.776075885478, 1.248906]}, {"species": [{"element": "As", "occu": 1}], "abc": [0.165923, 0.331846, 0.25], "properties": {"magmom": 0.0}, "label": "As", "xyz": [1.5312608907119998, 0.884073749291, 1.248906]}, {"species": [{"element": "As", "occu": 1}], "abc": [0.668153999999999, 0.834077, 0.25], "properties": {"magmom": 0.0}, "label": "As", "xyz": [4.621235109287998, 0.8840737492910047, 1.248906]}, {"species": [{"element": "As", "occu": 1}], "abc": [0.165923, 0.834077, 0.25], "properties": {"magmom": 0.0}, "label": "As", "xyz": [3.076248, 3.560069501418, 1.248906]}, {"species": [{"element": "As", "occu": 1}], "abc": [0.834077, 0.668153999999999, 0.75], "properties": {"magmom": -0.001}, "label": "As", "xyz": [4.621235109287998, -0.8840737492910047, 3.7467180000000004]}, {"species": [{"element": "As", "occu": 1}], "abc": [0.331846, 0.165923, 0.75], "properties": {"magmom": -0.001}, "label": "As", "xyz": [1.5312608907119998, -0.884073749291, 3.7467180000000004]}, {"species": [{"element": "As", "occu": 1}], "abc": [0.834077, 0.165923, 0.75], "properties": {"magmom": -0.0}, "label": "As", "xyz": [3.076248, -3.560069501418, 3.7467180000000004]}]}, "task_ids": null, "uncorrected_energy_per_atom": null, "energy_per_atom": -3.34739651125, "formation_energy_per_atom": 0.39519793562499905, "energy_above_hull": 0.441121178124999, "is_stable": false, "equilibrium_reaction_energy_per_atom": null, "decomposes_to": null, "xas": null, "grain_boundaries": null, "band_gap": 0.0, "cbm": null, "vbm": null, "efermi": 5.2386512100000004, "is_gap_direct": null, "is_metal": null, "es_source_calc_id": null, "bandstructure": null, "dos": null, "dos_energy_up": null, "dos_energy_down": null, "is_magnetic": null, "ordering": null, "total_magnetization": 0.0005474, "total_magnetization_normalized_vol": null, "total_magnetization_normalized_formula_units": null, "num_magnetic_sites": null, "num_unique_magnetic_sites": null, "types_of_magnetic_species": null, "bulk_modulus": null, "shear_modulus": null, "universal_anisotropy": null, "homogeneous_poisson": null, "e_total": null, "e_ionic": null, "e_electronic": null, "n": null, "e_ij_max": null, "weighted_surface_energy_EV_PER_ANG2": null, "weighted_surface_energy": null, "weighted_work_function": null, "surface_anisotropy": null, "shape_factor": null, "has_reconstructed": null, "possible_species": null, "has_props": null, "theoretical": null, "database_IDs": null, "fields_not_requested": ["builder_meta", "nsites", "elements", "nelements", "composition", "composition_reduced", "chemsys", "symmetry", "property_name", "deprecated", "deprecation_reasons", "last_updated", "origins", "warnings", "task_ids", "uncorrected_energy_per_atom", "equilibrium_reaction_energy_per_atom", "decomposes_to", "xas", "grain_boundaries", "cbm", "vbm", "is_gap_direct", "is_metal", "es_source_calc_id", "bandstructure", "dos", "dos_energy_up", "dos_energy_down", "is_magnetic", "ordering", "total_magnetization_normalized_vol", "total_magnetization_normalized_formula_units", "num_magnetic_sites", "num_unique_magnetic_sites", "types_of_magnetic_species", "bulk_modulus", "shear_modulus", "universal_anisotropy", "homogeneous_poisson", "e_total", "e_ionic", "e_electronic", "n", "e_ij_max", "weighted_surface_energy_EV_PER_ANG2", "weighted_surface_energy", "weighted_work_function", "surface_anisotropy", "shape_factor", "has_reconstructed", "possible_species", "has_props", "theoretical", "database_IDs"]}