{
  "builder_meta": null,
  "nsites": null,
  "elements": null,
  "nelements": null,
  "composition": null,
  "composition_reduced": null,
  "formula_pretty": "CdAu",
  "formula_anonymous": "AB",
  "chemsys": null,
  "volume": 340.9705386152082,
  "density": 13.560121281052838,
  "density_atomic": 18.942807700844902,
  "symmetry": null,
  "property_name": null,
  "material_id": "mp-16886",
  "deprecated": null,
  "deprecation_reasons": null,
  "last_updated": null,
  "origins": null,
  "warnings": null,
  "structure": {
    "@module": "pymatgen.core.structure",
    "@class": "Structure",
    "charge": 0,
    "lattice": {
      "matrix": [
        [8.21757912, 3.346e-5, -0.0],
        [-4.10881639, 7.11661311, -0.0],
        [-0.0, 0.0, 5.83040313]
      ],
      "pbc": [true, true, true],
      "a": 8.21757912006812,
      "b": 8.217575937230913,
      "c": 5.83040313,
      "alpha": 90.0,
      "beta": 90.0,
      "gamma": 119.99999552541934,
      "volume": 340.9705386152082
    },
    "properties": {},
    "sites": [
      {
        "species": [{ "element": "Cd", "occu": 1 }],
        "abc": [0.33332837, 0.31419837, 0.20878251],
        "properties": { "magmom": 0.0 },
        "label": "Cd",
        "xyz": [1.4481688410483498, 2.236039392249891, 1.2172861997932563]
      },
      {
        "species": [{ "element": "Cd", "occu": 1 }],
        "abc": [0.980869, 0.66667163, 0.20878251],
        "properties": { "magmom": 0.0 },
        "label": "Cd",
        "xyz": [5.321137293763265, 4.744476881999809, 1.2172861997932563]
      },
      {
        "species": [{ "element": "Cd", "occu": 1 }],
        "abc": [0.68580163, 0.01913, 0.20878251],
        "properties": { "magmom": 0.0 },
        "label": "Cd",
        "xyz": [5.5570274976092655, 0.1361637557168398, 1.2172861997932563]
      },
      {
        "species": [{ "element": "Cd", "occu": 1 }],
        "abc": [0.64639521, 0.6665955, 0.92202258],
        "properties": { "magmom": 0.0 },
        "label": "Cd",
        "xyz": [2.5728852650637704, 4.743923902750732, 5.375763336362676]
      },
      {
        "species": [{ "element": "Cd", "occu": 1 }],
        "abc": [0.02019928, 0.35360479, 0.92202258],
        "properties": { "magmom": 0.0 },
        "label": "Cd",
        "xyz": [-1.2869079751674746, 2.516469160140706, 5.375763336362676]
      },
      {
        "species": [{ "element": "Cd", "occu": 1 }],
        "abc": [0.3334045, 0.9798007200000001, 0.92202258],
        "properties": { "magmom": 0.0 },
        "label": "Cd",
        "xyz": [-1.2860433995557616, 6.97287380485401, 5.375763336362676]
      },
      {
        "species": [{ "element": "Cd", "occu": 1 }],
        "abc": [0.666667, 0.333333, 0.49047559],
        "properties": { "magmom": -0.0 },
        "label": "Cd",
        "xyz": [4.108784725465171, 2.37222430447345, 2.8596704151245964]
      },
      {
        "species": [{ "element": "Cd", "occu": 1 }],
        "abc": [0.333333, 0.666667, 0.6570324200000001],
        "properties": { "magmom": 0.0 },
        "label": "Cd",
        "xyz": [-2.199546517012152e-5, 4.74442226552655, 3.8307638780794746]
      },
      {
        "species": [{ "element": "Cd", "occu": 1 }],
        "abc": [-0.0, 0.0, 0.48976741],
        "properties": { "magmom": 0.0 },
        "label": "Cd",
        "xyz": [0.0, 0.0, 2.855541440235993]
      },
      {
        "species": [{ "element": "Au", "occu": 1 }],
        "abc": [0.33328991, 0.30653264, 0.70834514],
        "properties": { "magmom": 0.0 },
        "label": "Au",
        "xyz": [1.4793498700207095, 2.181485356347299, 4.1299377213762885]
      },
      {
        "species": [{ "element": "Au", "occu": 1 }],
        "abc": [0.9732427300000001, 0.66671009, 0.70834514],
        "properties": { "magmom": 0.0 },
        "label": "Au",
        "xyz": [5.258309791569422, 4.744750331765026, 4.1299377213762885]
      },
      {
        "species": [{ "element": "Au", "occu": 1 }],
        "abc": [0.69346736, 0.02675727, 0.70834514],
        "properties": { "magmom": 0.0 },
        "label": "Au",
        "xyz": [5.588682188409868, 0.1904443418876753, 4.1299377213762885]
      },
      {
        "species": [{ "element": "Au", "occu": 1 }],
        "abc": [0.6429672, 0.66663512, 0.42398837],
        "properties": { "magmom": -0.0 },
        "label": "Au",
        "xyz": [2.5445525303592467, 4.744205748260936, 2.472023119531598]
      },
      {
        "species": [{ "element": "Au", "occu": 1 }],
        "abc": [0.02366692, 0.3570328, 0.42398837],
        "properties": { "magmom": -0.0 },
        "label": "Au",
        "xyz": [-1.2724974327808816, 2.540865097075151, 2.472023119531598]
      },
      {
        "species": [{ "element": "Au", "occu": 1 }],
        "abc": [0.33336488000000003, 0.9763330800000001, 0.42398837],
        "properties": { "magmom": -0.0 },
        "label": "Au",
        "xyz": [-1.2721210839738757, 6.948195951243564, 2.472023119531598]
      },
      {
        "species": [{ "element": "Au", "occu": 1 }],
        "abc": [0.666667, 0.333333, 0.9846474],
        "properties": { "magmom": 0.0 },
        "label": "Au",
        "xyz": [4.108784725465171, 2.37222430447345, 5.740891282906361]
      },
      {
        "species": [{ "element": "Au", "occu": 1 }],
        "abc": [0.333333, 0.666667, 0.16314954],
        "properties": { "magmom": -0.0 },
        "label": "Au",
        "xyz": [-2.199546517012152e-5, 4.74442226552655, 0.9512275886740602]
      },
      {
        "species": [{ "element": "Au", "occu": 1 }],
        "abc": [-0.0, 0.0, 0.98351185],
        "properties": { "magmom": -0.0 },
        "label": "Au",
        "xyz": [0.0, 0.0, 5.73427056863209]
      }
    ]
  },
  "task_ids": null,
  "uncorrected_energy_per_atom": null,
  "energy_per_atom": -35.555975950555556,
  "formation_energy_per_atom": -0.211002030555549,
  "energy_above_hull": 0.0,
  "is_stable": true,
  "equilibrium_reaction_energy_per_atom": null,
  "decomposes_to": null,
  "xas": null,
  "grain_boundaries": null,
  "band_gap": 0.0,
  "cbm": null,
  "vbm": null,
  "efermi": 3.93075192,
  "is_gap_direct": null,
  "is_metal": null,
  "es_source_calc_id": null,
  "bandstructure": null,
  "dos": null,
  "dos_energy_up": null,
  "dos_energy_down": null,
  "is_magnetic": null,
  "ordering": null,
  "total_magnetization": 0.0,
  "total_magnetization_normalized_vol": null,
  "total_magnetization_normalized_formula_units": null,
  "num_magnetic_sites": null,
  "num_unique_magnetic_sites": null,
  "types_of_magnetic_species": null,
  "bulk_modulus": null,
  "shear_modulus": null,
  "universal_anisotropy": null,
  "homogeneous_poisson": null,
  "e_total": null,
  "e_ionic": null,
  "e_electronic": null,
  "n": null,
  "e_ij_max": null,
  "weighted_surface_energy_EV_PER_ANG2": null,
  "weighted_surface_energy": null,
  "weighted_work_function": null,
  "surface_anisotropy": null,
  "shape_factor": null,
  "has_reconstructed": null,
  "possible_species": null,
  "has_props": null,
  "theoretical": null,
  "database_IDs": null,
  "fields_not_requested": [
    "builder_meta",
    "nsites",
    "elements",
    "nelements",
    "composition",
    "composition_reduced",
    "chemsys",
    "symmetry",
    "property_name",
    "deprecated",
    "deprecation_reasons",
    "last_updated",
    "origins",
    "warnings",
    "task_ids",
    "uncorrected_energy_per_atom",
    "equilibrium_reaction_energy_per_atom",
    "decomposes_to",
    "xas",
    "grain_boundaries",
    "cbm",
    "vbm",
    "is_gap_direct",
    "is_metal",
    "es_source_calc_id",
    "bandstructure",
    "dos",
    "dos_energy_up",
    "dos_energy_down",
    "is_magnetic",
    "ordering",
    "total_magnetization_normalized_vol",
    "total_magnetization_normalized_formula_units",
    "num_magnetic_sites",
    "num_unique_magnetic_sites",
    "types_of_magnetic_species",
    "bulk_modulus",
    "shear_modulus",
    "universal_anisotropy",
    "homogeneous_poisson",
    "e_total",
    "e_ionic",
    "e_electronic",
    "n",
    "e_ij_max",
    "weighted_surface_energy_EV_PER_ANG2",
    "weighted_surface_energy",
    "weighted_work_function",
    "surface_anisotropy",
    "shape_factor",
    "has_reconstructed",
    "possible_species",
    "has_props",
    "theoretical",
    "database_IDs"
  ]
}
