{"builder_meta": null, "nsites": null, "elements": null, "nelements": null, "composition": null, "composition_reduced": null, "formula_pretty": "CdAu3", "formula_anonymous": "AB3", "chemsys": null, "volume": 144.61987726411016, "density": 16.150959702430807, "density_atomic": 18.07748465801377, "symmetry": null, "property_name": null, "material_id": "mp-865144", "deprecated": null, "deprecation_reasons": null, "last_updated": null, "origins": null, "warnings": null, "structure": {"@module": "pymatgen.core.structure", "@class": "Structure", "charge": 0, "lattice": {"matrix": [[5.84223043, 0.0, 0.0], [-2.92111522, 5.05951958, -0.0], [0.0, 0.0, 4.89260354]], "pbc": [true, true, true], "a": 5.84223043, "b": 5.8422300972247765, "c": 4.89260354, "alpha": 90.0, "beta": 90.0, "gamma": 120.0000019408536, "volume": 144.61987726411016}, "properties": {}, "sites": [{"species": [{"element": "Cd", "occu": 1}], "abc": [0.333333, 0.666667, 0.749997999999999], "properties": {"magmom": 0.0}, "label": "Cd", "xyz": [-2.9244485499901884e-06, 3.37301473983986, 3.669442869792915]}, {"species": [{"element": "Cd", "occu": 1}], "abc": [0.666666, 0.333331999999999, 0.249999], "properties": {"magmom": 0.0}, "label": "Cd", "xyz": [2.921115213333343, 1.686499780640555, 1.2231459923964598]}, {"species": [{"element": "Au", "occu": 1}], "abc": [0.16628779, 0.33257358, 0.249999], "properties": {"magmom": 0.0}, "label": "Au", "xyz": [5.8405675621431286e-06, 1.6826625398006962, 1.2231459923964598]}, {"species": [{"element": "Au", "occu": 1}], "abc": [0.66742542, 0.83371121, 0.249999], "properties": {"magmom": 0.0}, "label": "Au", "xyz": [1.4638865938639145, 4.218178191060492, 1.2231459923964598]}, {"species": [{"element": "Au", "occu": 1}], "abc": [0.16628779, 0.83371121, 0.249999], "properties": {"magmom": 0.0}, "label": "Au", "xyz": [-1.4638749177401664, 4.218178191060492, 1.2231459923964598]}, {"species": [{"element": "Au", "occu": 1}], "abc": [0.83371321, 0.66742542, 0.749997999999999], "properties": {"magmom": 0.0}, "label": "Au", "xyz": [2.9211181327780875, 3.376851980679724, 3.669442869792915]}, {"species": [{"element": "Au", "occu": 1}], "abc": [0.33257658, 0.16628879, 0.749997999999999], "properties": {"magmom": 0.0}, "label": "Au", "xyz": [1.4572403005969456, 0.8413413889395082, 3.669442869792915]}, {"species": [{"element": "Au", "occu": 1}], "abc": [0.83371321, 0.16628879, 0.749997999999999], "properties": {"magmom": 0.0}, "label": "Au", "xyz": [4.384995969970596, 0.8413413889395082, 3.669442869792915]}]}, "task_ids": null, "uncorrected_energy_per_atom": null, "energy_per_atom": -43.11887933625, "formation_energy_per_atom": -0.153912301249995, "energy_above_hull": 0.0, "is_stable": true, "equilibrium_reaction_energy_per_atom": null, "decomposes_to": null, "xas": null, "grain_boundaries": null, "band_gap": 0.0, "cbm": null, "vbm": null, "efermi": 4.50344647, "is_gap_direct": null, "is_metal": null, "es_source_calc_id": null, "bandstructure": null, "dos": null, "dos_energy_up": null, "dos_energy_down": null, "is_magnetic": null, "ordering": null, "total_magnetization": 2e-07, "total_magnetization_normalized_vol": null, "total_magnetization_normalized_formula_units": null, "num_magnetic_sites": null, "num_unique_magnetic_sites": null, "types_of_magnetic_species": null, "bulk_modulus": null, "shear_modulus": null, "universal_anisotropy": null, "homogeneous_poisson": null, "e_total": null, "e_ionic": null, "e_electronic": null, "n": null, "e_ij_max": null, "weighted_surface_energy_EV_PER_ANG2": null, "weighted_surface_energy": null, "weighted_work_function": null, "surface_anisotropy": null, "shape_factor": null, "has_reconstructed": null, "possible_species": null, "has_props": null, "theoretical": null, "database_IDs": null, "fields_not_requested": ["builder_meta", "nsites", "elements", "nelements", "composition", "composition_reduced", "chemsys", "symmetry", "property_name", "deprecated", "deprecation_reasons", "last_updated", "origins", "warnings", "task_ids", "uncorrected_energy_per_atom", "equilibrium_reaction_energy_per_atom", "decomposes_to", "xas", "grain_boundaries", "cbm", "vbm", "is_gap_direct", "is_metal", "es_source_calc_id", "bandstructure", "dos", "dos_energy_up", "dos_energy_down", "is_magnetic", "ordering", "total_magnetization_normalized_vol", "total_magnetization_normalized_formula_units", "num_magnetic_sites", "num_unique_magnetic_sites", "types_of_magnetic_species", "bulk_modulus", "shear_modulus", "universal_anisotropy", "homogeneous_poisson", "e_total", "e_ionic", "e_electronic", "n", "e_ij_max", "weighted_surface_energy_EV_PER_ANG2", "weighted_surface_energy", "weighted_work_function", "surface_anisotropy", "shape_factor", "has_reconstructed", "possible_species", "has_props", "theoretical", "database_IDs"]}