{"builder_meta": null, "nsites": null, "elements": null, "nelements": null, "composition": null, "composition_reduced": null, "formula_pretty": "CdBr2", "formula_anonymous": "AB2", "chemsys": null, "volume": 184.9834976481843, "density": 4.887249834906797, "density_atomic": 30.830582941364053, "symmetry": null, "property_name": null, "material_id": "mp-568722", "deprecated": null, "deprecation_reasons": null, "last_updated": null, "origins": null, "warnings": null, "structure": {"@module": "pymatgen.core.structure", "@class": "Structure", "charge": 0, "lattice": {"matrix": [[13.27816562, -2.00924954, -0.01486171], [13.27816562, 2.00924954, -0.01486171], [12.97800769, 0.0, 3.45229216]], "pbc": [true, true, true], "a": 13.429333074153917, "b": 13.429333074153917, "c": 13.42933374221136, "alpha": 17.209402674893553, "beta": 17.209402674893553, "gamma": 17.209403321365258, "volume": 184.9834976481843}, "properties": {}, "sites": [{"species": [{"element": "Cd", "occu": 1}], "abc": [0.0, 0.0, -0.0], "properties": {"magmom": -0.0}, "label": "Cd", "xyz": [0.0, 0.0, 0.0]}, {"species": [{"element": "Cd", "occu": 1}], "abc": [0.5, 0.5, 0.5], "properties": {"magmom": -0.0}, "label": "Cd", "xyz": [19.767169465, 0.0, 1.71128437]}, {"species": [{"element": "Br", "occu": 1}], "abc": [0.20607552, 0.20607552, 0.20607552], "properties": {"magmom": 0.0}, "label": "Br", "xyz": [8.147059452855993, 0.0, 0.7053076328312448]}, {"species": [{"element": "Br", "occu": 1}], "abc": [0.79392448, 0.79392448, 0.79392448], "properties": {"magmom": 0.0}, "label": "Br", "xyz": [31.387279477144006, 0.0, 2.7172611071687554]}, {"species": [{"element": "Br", "occu": 1}], "abc": [0.62725662, 0.62725662, 0.62725662], "properties": {"magmom": -0.0}, "label": "Br", "xyz": [24.798175811166217, 0.0, 2.146828899570059]}, {"species": [{"element": "Br", "occu": 1}], "abc": [0.37274338, 0.37274338, 0.37274338], "properties": {"magmom": -0.0}, "label": "Br", "xyz": [14.736163118833783, 0.0, 1.2757398404299412]}]}, "task_ids": null, "uncorrected_energy_per_atom": null, "energy_per_atom": -2.6377710600000013, "formation_energy_per_atom": -1.226469973333333, "energy_above_hull": 0.0, "is_stable": true, "equilibrium_reaction_energy_per_atom": null, "decomposes_to": null, "xas": null, "grain_boundaries": null, "band_gap": 2.8551, "cbm": null, "vbm": null, "efermi": -1.01705545, "is_gap_direct": null, "is_metal": null, "es_source_calc_id": null, "bandstructure": null, "dos": null, "dos_energy_up": null, "dos_energy_down": null, "is_magnetic": null, "ordering": null, "total_magnetization": 0.0, "total_magnetization_normalized_vol": null, "total_magnetization_normalized_formula_units": null, "num_magnetic_sites": null, "num_unique_magnetic_sites": null, "types_of_magnetic_species": null, "bulk_modulus": null, "shear_modulus": null, "universal_anisotropy": null, "homogeneous_poisson": null, "e_total": null, "e_ionic": null, "e_electronic": null, "n": null, "e_ij_max": null, "weighted_surface_energy_EV_PER_ANG2": null, "weighted_surface_energy": null, "weighted_work_function": null, "surface_anisotropy": null, "shape_factor": null, "has_reconstructed": null, "possible_species": null, "has_props": null, "theoretical": null, "database_IDs": null, "fields_not_requested": ["builder_meta", "nsites", "elements", "nelements", "composition", "composition_reduced", "chemsys", "symmetry", "property_name", "deprecated", "deprecation_reasons", "last_updated", "origins", "warnings", "task_ids", "uncorrected_energy_per_atom", "equilibrium_reaction_energy_per_atom", "decomposes_to", "xas", "grain_boundaries", "cbm", "vbm", "is_gap_direct", "is_metal", "es_source_calc_id", "bandstructure", "dos", "dos_energy_up", "dos_energy_down", "is_magnetic", "ordering", "total_magnetization_normalized_vol", "total_magnetization_normalized_formula_units", "num_magnetic_sites", "num_unique_magnetic_sites", "types_of_magnetic_species", "bulk_modulus", "shear_modulus", "universal_anisotropy", "homogeneous_poisson", "e_total", "e_ionic", "e_electronic", "n", "e_ij_max", "weighted_surface_energy_EV_PER_ANG2", "weighted_surface_energy", "weighted_work_function", "surface_anisotropy", "shape_factor", "has_reconstructed", "possible_species", "has_props", "theoretical", "database_IDs"]}