{"builder_meta": null, "nsites": null, "elements": null, "nelements": null, "composition": null, "composition_reduced": null, "formula_pretty": "CdCl4", "formula_anonymous": "AB4", "chemsys": null, "volume": 583.3057814100468, "density": 1.447430272704582, "density_atomic": 58.330578141004686, "symmetry": null, "property_name": null, "material_id": "mp-1080124", "deprecated": null, "deprecation_reasons": null, "last_updated": null, "origins": null, "warnings": null, "structure": {"@module": "pymatgen.core.structure", "@class": "Structure", "charge": 0, "lattice": {"matrix": [[3.695967, -10.509016, 0.0], [3.695967, 10.509016, 0.0], [0.0, 0.0, 7.508897]], "pbc": [true, true, true], "a": 11.139999522142944, "b": 11.139999522142944, "c": 7.508897, "alpha": 90.0, "beta": 90.0, "gamma": 141.24697670100912, "volume": 583.3057814100468}, "properties": {}, "sites": [{"species": [{"element": "Cd", "occu": 1}], "abc": [0.5, 0.5, 0.5], "properties": {"magmom": 0.06}, "label": "Cd", "xyz": [3.695967, 0.0, 3.7544485]}, {"species": [{"element": "Cd", "occu": 1}], "abc": [0.0, 0.0, 0.0], "properties": {"magmom": 0.06}, "label": "Cd", "xyz": [0.0, 0.0, 0.0]}, {"species": [{"element": "Cl", "occu": 1}], "abc": [0.734501, 0.765498999999999, 0.25], "properties": {"magmom": 0.35100000000000003}, "label": "Cl", "xyz": [5.543950499999997, 0.32575847796799007, 1.87722425]}, {"species": [{"element": "Cl", "occu": 1}], "abc": [0.765498999999999, 0.734501, 0.75], "properties": {"magmom": 0.35100000000000003}, "label": "Cl", "xyz": [5.543950499999997, -0.32575847796799007, 5.63167275]}, {"species": [{"element": "Cl", "occu": 1}], "abc": [0.265499, 0.234501, 0.75], "properties": {"magmom": 0.35100000000000003}, "label": "Cl", "xyz": [1.8479834999999998, -0.3257584779680003, 5.63167275]}, {"species": [{"element": "Cl", "occu": 1}], "abc": [0.234501, 0.265499, 0.25], "properties": {"magmom": 0.35100000000000003}, "label": "Cl", "xyz": [1.8479834999999998, 0.3257584779680003, 1.87722425]}, {"species": [{"element": "Cl", "occu": 1}], "abc": [0.385588999999999, 0.614410999999999, 0.547617], "properties": {"magmom": 0.399}, "label": "Cl", "xyz": [3.6959669999999925, 2.4046940591520007, 4.111999648449]}, {"species": [{"element": "Cl", "occu": 1}], "abc": [0.614410999999999, 0.385588999999999, 0.452383], "properties": {"magmom": 0.399}, "label": "Cl", "xyz": [3.6959669999999925, -2.4046940591520007, 3.396897351551]}, {"species": [{"element": "Cl", "occu": 1}], "abc": [0.114411, 0.885589, 0.047617], "properties": {"magmom": 0.399}, "label": "Cl", "xyz": [3.695967, 8.104321940848001, 0.357551148449]}, {"species": [{"element": "Cl", "occu": 1}], "abc": [0.885589, 0.114411, 0.952383], "properties": {"magmom": 0.399}, "label": "Cl", "xyz": [3.695967, -8.104321940848001, 7.1513458515509996]}]}, "task_ids": null, "uncorrected_energy_per_atom": null, "energy_per_atom": -9.451934785999999, "formation_energy_per_atom": -0.508986129999998, "energy_above_hull": 0.255723178999998, "is_stable": false, "equilibrium_reaction_energy_per_atom": null, "decomposes_to": null, "xas": null, "grain_boundaries": null, "band_gap": 0.0, "cbm": null, "vbm": null, "efermi": -4.90494524, "is_gap_direct": null, "is_metal": null, "es_source_calc_id": null, "bandstructure": null, "dos": null, "dos_energy_up": null, "dos_energy_down": null, "is_magnetic": null, "ordering": null, "total_magnetization": 4.000068, "total_magnetization_normalized_vol": null, "total_magnetization_normalized_formula_units": null, "num_magnetic_sites": null, "num_unique_magnetic_sites": null, "types_of_magnetic_species": null, "bulk_modulus": null, "shear_modulus": null, "universal_anisotropy": null, "homogeneous_poisson": null, "e_total": null, "e_ionic": null, "e_electronic": null, "n": null, "e_ij_max": null, "weighted_surface_energy_EV_PER_ANG2": null, "weighted_surface_energy": null, "weighted_work_function": null, "surface_anisotropy": null, "shape_factor": null, "has_reconstructed": null, "possible_species": null, "has_props": null, "theoretical": null, "database_IDs": null, "fields_not_requested": ["builder_meta", "nsites", "elements", "nelements", "composition", "composition_reduced", "chemsys", "symmetry", "property_name", "deprecated", "deprecation_reasons", "last_updated", "origins", "warnings", "task_ids", "uncorrected_energy_per_atom", "equilibrium_reaction_energy_per_atom", "decomposes_to", "xas", "grain_boundaries", "cbm", "vbm", "is_gap_direct", "is_metal", "es_source_calc_id", "bandstructure", "dos", "dos_energy_up", "dos_energy_down", "is_magnetic", "ordering", "total_magnetization_normalized_vol", "total_magnetization_normalized_formula_units", "num_magnetic_sites", "num_unique_magnetic_sites", "types_of_magnetic_species", "bulk_modulus", "shear_modulus", "universal_anisotropy", "homogeneous_poisson", "e_total", "e_ionic", "e_electronic", "n", "e_ij_max", "weighted_surface_energy_EV_PER_ANG2", "weighted_surface_energy", "weighted_work_function", "surface_anisotropy", "shape_factor", "has_reconstructed", "possible_species", "has_props", "theoretical", "database_IDs"]}