{
  "builder_meta": null,
  "nsites": null,
  "elements": null,
  "nelements": null,
  "composition": null,
  "composition_reduced": null,
  "formula_pretty": "CdCl6",
  "formula_anonymous": "AB6",
  "chemsys": null,
  "volume": 3927.554916915447,
  "density": 0.137461962367314,
  "density_atomic": 561.0792738450639,
  "symmetry": null,
  "property_name": null,
  "material_id": "mp-1206433",
  "deprecated": null,
  "deprecation_reasons": null,
  "last_updated": null,
  "origins": null,
  "warnings": null,
  "structure": {
    "@module": "pymatgen.core.structure",
    "@class": "Structure",
    "charge": 0,
    "lattice": {
      "matrix": [
        [5.208224, -8.259297, 0.0],
        [5.208224, 8.259297, 0.0],
        [0.0, 0.0, 45.651971]
      ],
      "pbc": [true, true, true],
      "a": 9.764301519739393,
      "b": 9.764301519739393,
      "c": 45.651971,
      "alpha": 90.0,
      "beta": 90.0,
      "gamma": 115.52981861036078,
      "volume": 3927.554916915447
    },
    "properties": {},
    "sites": [
      {
        "species": [{ "element": "Cd", "occu": 1 }],
        "abc": [0.0, 0.0, 0.0],
        "properties": { "magmom": 0.005 },
        "label": "Cd",
        "xyz": [0.0, 0.0, 0.0]
      },
      {
        "species": [{ "element": "Cl", "occu": 1 }],
        "abc": [0.0, 0.0, 0.249987],
        "properties": { "magmom": 0.7010000000000001 },
        "label": "Cl",
        "xyz": [0.0, 0.0, 11.412399274377]
      },
      {
        "species": [{ "element": "Cl", "occu": 1 }],
        "abc": [0.0, 0.0, 0.750012999999999],
        "properties": { "magmom": 0.7010000000000001 },
        "label": "Cl",
        "xyz": [0.0, 0.0, 34.23957172562296]
      },
      {
        "species": [{ "element": "Cl", "occu": 1 }],
        "abc": [0.256217, 0.009897999999999001, 0.0],
        "properties": { "magmom": 0.389 },
        "label": "Cl",
        "xyz": [1.3859865297599947, -2.0344217777430083, 0.0]
      },
      {
        "species": [{ "element": "Cl", "occu": 1 }],
        "abc": [0.743784, 0.990101999999999, 0.0],
        "properties": { "magmom": 0.389 },
        "label": "Cl",
        "xyz": [9.030466678463997, 2.0344135184459926, 0.0]
      },
      {
        "species": [{ "element": "Cl", "occu": 1 }],
        "abc": [0.009897999999999001, 0.256216, 0.0],
        "properties": { "magmom": 0.389 },
        "label": "Cl",
        "xyz": [1.3859813215359948, 2.034413518446008, 0.0]
      },
      {
        "species": [{ "element": "Cl", "occu": 1 }],
        "abc": [0.990101999999999, 0.743784, 0.0],
        "properties": { "magmom": 0.389 },
        "label": "Cl",
        "xyz": [9.030466678463997, -2.0344135184459926, 0.0]
      }
    ]
  },
  "task_ids": null,
  "uncorrected_energy_per_atom": null,
  "energy_per_atom": -8.252230882857145,
  "formation_energy_per_atom": -0.10657072928571501,
  "energy_above_hull": 0.43965020571428504,
  "is_stable": false,
  "equilibrium_reaction_energy_per_atom": null,
  "decomposes_to": null,
  "xas": null,
  "grain_boundaries": null,
  "band_gap": 0.6686999999999991,
  "cbm": null,
  "vbm": null,
  "efermi": -7.49115687,
  "is_gap_direct": null,
  "is_metal": null,
  "es_source_calc_id": null,
  "bandstructure": null,
  "dos": null,
  "dos_energy_up": null,
  "dos_energy_down": null,
  "is_magnetic": null,
  "ordering": null,
  "total_magnetization": 3.9719953,
  "total_magnetization_normalized_vol": null,
  "total_magnetization_normalized_formula_units": null,
  "num_magnetic_sites": null,
  "num_unique_magnetic_sites": null,
  "types_of_magnetic_species": null,
  "bulk_modulus": null,
  "shear_modulus": null,
  "universal_anisotropy": null,
  "homogeneous_poisson": null,
  "e_total": null,
  "e_ionic": null,
  "e_electronic": null,
  "n": null,
  "e_ij_max": null,
  "weighted_surface_energy_EV_PER_ANG2": null,
  "weighted_surface_energy": null,
  "weighted_work_function": null,
  "surface_anisotropy": null,
  "shape_factor": null,
  "has_reconstructed": null,
  "possible_species": null,
  "has_props": null,
  "theoretical": null,
  "database_IDs": null,
  "fields_not_requested": [
    "builder_meta",
    "nsites",
    "elements",
    "nelements",
    "composition",
    "composition_reduced",
    "chemsys",
    "symmetry",
    "property_name",
    "deprecated",
    "deprecation_reasons",
    "last_updated",
    "origins",
    "warnings",
    "task_ids",
    "uncorrected_energy_per_atom",
    "equilibrium_reaction_energy_per_atom",
    "decomposes_to",
    "xas",
    "grain_boundaries",
    "cbm",
    "vbm",
    "is_gap_direct",
    "is_metal",
    "es_source_calc_id",
    "bandstructure",
    "dos",
    "dos_energy_up",
    "dos_energy_down",
    "is_magnetic",
    "ordering",
    "total_magnetization_normalized_vol",
    "total_magnetization_normalized_formula_units",
    "num_magnetic_sites",
    "num_unique_magnetic_sites",
    "types_of_magnetic_species",
    "bulk_modulus",
    "shear_modulus",
    "universal_anisotropy",
    "homogeneous_poisson",
    "e_total",
    "e_ionic",
    "e_electronic",
    "n",
    "e_ij_max",
    "weighted_surface_energy_EV_PER_ANG2",
    "weighted_surface_energy",
    "weighted_work_function",
    "surface_anisotropy",
    "shape_factor",
    "has_reconstructed",
    "possible_species",
    "has_props",
    "theoretical",
    "database_IDs"
  ]
}
