{"builder_meta": null, "nsites": null, "elements": null, "nelements": null, "composition": null, "composition_reduced": null, "formula_pretty": "CdCu2", "formula_anonymous": "AB2", "chemsys": null, "volume": 344.5383146658206, "density": 9.234481534017984, "density_atomic": 14.35576311107586, "symmetry": null, "property_name": null, "material_id": "mp-568315", "deprecated": null, "deprecation_reasons": null, "last_updated": null, "origins": null, "warnings": null, "structure": {"@module": "pymatgen.core.structure", "@class": "Structure", "charge": 0, "lattice": {"matrix": [[5.00165549, 0.0, -0.0], [-2.50082775, 4.33156009, 0.0], [0.0, 0.0, 15.90301274]], "pbc": [true, true, true], "a": 5.00165549, "b": 5.0016549509588195, "c": 15.90301274, "alpha": 90.0, "beta": 90.0, "gamma": 120.00000363122537, "volume": 344.5383146658206}, "properties": {}, "sites": [{"species": [{"element": "Cd", "occu": 1}], "abc": [0.333333, 0.666667, 0.84439452], "properties": {"magmom": 0.0}, "label": "Cd", "xyz": [-2.5041610800524694e-06, 2.88770817052003, 13.428416809146185]}, {"species": [{"element": "Cd", "occu": 1}], "abc": [-0.0, -0.0, 0.59433856], "properties": {"magmom": 0.0}, "label": "Cd", "xyz": [0.0, 0.0, 9.451773691553253]}, {"species": [{"element": "Cd", "occu": 1}], "abc": [0.666667, 0.333333, 0.15560548], "properties": {"magmom": 0.0}, "label": "Cd", "xyz": [2.5008302441610804, 1.44385191947997, 2.474595930853815]}, {"species": [{"element": "Cd", "occu": 1}], "abc": [-0.0, -0.0, 0.40566144], "properties": {"magmom": 0.0}, "label": "Cd", "xyz": [0.0, 0.0, 6.4512390484467454]}, {"species": [{"element": "Cd", "occu": 1}], "abc": [-0.0, -0.0, 0.90566144], "properties": {"magmom": 0.0}, "label": "Cd", "xyz": [0.0, 0.0, 14.402745418446745]}, {"species": [{"element": "Cd", "occu": 1}], "abc": [-0.0, -0.0, 0.09433856], "properties": {"magmom": 0.0}, "label": "Cd", "xyz": [0.0, 0.0, 1.5002673215532545]}, {"species": [{"element": "Cd", "occu": 1}], "abc": [0.333333, 0.666667, 0.65560548], "properties": {"magmom": 0.0}, "label": "Cd", "xyz": [-2.5041610800524694e-06, 2.88770817052003, 10.426102300853815]}, {"species": [{"element": "Cd", "occu": 1}], "abc": [0.666667, 0.333333, 0.34439452], "properties": {"magmom": 0.0}, "label": "Cd", "xyz": [2.5008302441610804, 1.44385191947997, 5.4769104391461845]}, {"species": [{"element": "Cu", "occu": 1}], "abc": [0.83544867, 0.67089634, 0.75], "properties": {"magmom": 0.0}, "label": "Cu", "xyz": [2.5008302424732634, 2.9060278108710706, 11.927259555]}, {"species": [{"element": "Cu", "occu": 1}], "abc": [0.16455133, 0.32910366, 0.25], "properties": {"magmom": 0.0}, "label": "Cu", "xyz": [-2.5024732632772384e-06, 1.4255322791289295, 3.975753185]}, {"species": [{"element": "Cu", "occu": 1}], "abc": [0.16455133, 0.83544867, 0.25], "properties": {"magmom": 0.0}, "label": "Cu", "xyz": [-1.2662841545552908, 3.6187961162155804, 3.975753185]}, {"species": [{"element": "Cu", "occu": 1}], "abc": [0.666667, 0.333333, 0.87475848], "properties": {"magmom": 0.0}, "label": "Cu", "xyz": [2.5008302441610804, 1.44385191947997, 13.911295251863034]}, {"species": [{"element": "Cu", "occu": 1}], "abc": [0.5, -0.0, 0.5], "properties": {"magmom": 0.0}, "label": "Cu", "xyz": [2.500827745, 0.0, 7.95150637]}, {"species": [{"element": "Cu", "occu": 1}], "abc": [0.666667, 0.333333, 0.62524152], "properties": {"magmom": 0.0}, "label": "Cu", "xyz": [2.5008302441610804, 1.44385191947997, 9.943223858136964]}, {"species": [{"element": "Cu", "occu": 1}], "abc": [0.32910366, 0.16455133, 0.75], "properties": {"magmom": 0.0}, "label": "Cu", "xyz": [1.234548595454686, 0.7127639737844197, 11.927259555]}, {"species": [{"element": "Cu", "occu": 1}], "abc": [-0.0, 0.5, 0.5], "properties": {"magmom": 0.0}, "label": "Cu", "xyz": [-1.250413875, 2.165780045, 7.95150637]}, {"species": [{"element": "Cu", "occu": 1}], "abc": [0.5, 0.5, 0.5], "properties": {"magmom": 0.0}, "label": "Cu", "xyz": [1.25041387, 2.165780045, 7.95150637]}, {"species": [{"element": "Cu", "occu": 1}], "abc": [0.83544867, 0.16455133, 0.75], "properties": {"magmom": 0.0}, "label": "Cu", "xyz": [3.7671118945552906, 0.7127639737844197, 11.927259555]}, {"species": [{"element": "Cu", "occu": 1}], "abc": [0.333333, 0.666667, 0.37475848], "properties": {"magmom": 0.0}, "label": "Cu", "xyz": [-2.5041610800524694e-06, 2.88770817052003, 5.959788881863035]}, {"species": [{"element": "Cu", "occu": 1}], "abc": [0.67089634, 0.83544867, 0.25], "properties": {"magmom": 0.0}, "label": "Cu", "xyz": [1.2662791445453139, 3.6187961162155804, 3.975753185]}, {"species": [{"element": "Cu", "occu": 1}], "abc": [-0.0, 0.5, 0.0], "properties": {"magmom": 0.0}, "label": "Cu", "xyz": [-1.250413875, 2.165780045, 0.0]}, {"species": [{"element": "Cu", "occu": 1}], "abc": [0.5, 0.5, 0.0], "properties": {"magmom": 0.0}, "label": "Cu", "xyz": [1.25041387, 2.165780045, 0.0]}, {"species": [{"element": "Cu", "occu": 1}], "abc": [0.333333, 0.666667, 0.12524152], "properties": {"magmom": 0.0}, "label": "Cu", "xyz": [-2.5041610800524694e-06, 2.88770817052003, 1.9917174881369646]}, {"species": [{"element": "Cu", "occu": 1}], "abc": [0.5, -0.0, 0.0], "properties": {"magmom": 0.0}, "label": "Cu", "xyz": [2.500827745, 0.0, 0.0]}]}, "task_ids": null, "uncorrected_energy_per_atom": null, "energy_per_atom": -13.922975841666668, "formation_energy_per_atom": 0.009884054999998, "energy_above_hull": 0.009884054999998, "is_stable": false, "equilibrium_reaction_energy_per_atom": null, "decomposes_to": null, "xas": null, "grain_boundaries": null, "band_gap": 0.0, "cbm": null, "vbm": null, "efermi": 5.11142638, "is_gap_direct": null, "is_metal": null, "es_source_calc_id": null, "bandstructure": null, "dos": null, "dos_energy_up": null, "dos_energy_down": null, "is_magnetic": null, "ordering": null, "total_magnetization": 3.2e-06, "total_magnetization_normalized_vol": null, "total_magnetization_normalized_formula_units": null, "num_magnetic_sites": null, "num_unique_magnetic_sites": null, "types_of_magnetic_species": null, "bulk_modulus": null, "shear_modulus": null, "universal_anisotropy": null, "homogeneous_poisson": null, "e_total": null, "e_ionic": null, "e_electronic": null, "n": null, "e_ij_max": null, "weighted_surface_energy_EV_PER_ANG2": null, "weighted_surface_energy": null, "weighted_work_function": null, "surface_anisotropy": null, "shape_factor": null, "has_reconstructed": null, "possible_species": null, "has_props": null, "theoretical": null, "database_IDs": null, "fields_not_requested": ["builder_meta", "nsites", "elements", "nelements", "composition", "composition_reduced", "chemsys", "symmetry", "property_name", "deprecated", "deprecation_reasons", "last_updated", "origins", "warnings", "task_ids", "uncorrected_energy_per_atom", "equilibrium_reaction_energy_per_atom", "decomposes_to", "xas", "grain_boundaries", "cbm", "vbm", "is_gap_direct", "is_metal", "es_source_calc_id", "bandstructure", "dos", "dos_energy_up", "dos_energy_down", "is_magnetic", "ordering", "total_magnetization_normalized_vol", "total_magnetization_normalized_formula_units", "num_magnetic_sites", "num_unique_magnetic_sites", "types_of_magnetic_species", "bulk_modulus", "shear_modulus", "universal_anisotropy", "homogeneous_poisson", "e_total", "e_ionic", "e_electronic", "n", "e_ij_max", "weighted_surface_energy_EV_PER_ANG2", "weighted_surface_energy", "weighted_work_function", "surface_anisotropy", "shape_factor", "has_reconstructed", "possible_species", "has_props", "theoretical", "database_IDs"]}