{
  "builder_meta": null,
  "nsites": null,
  "elements": null,
  "nelements": null,
  "composition": null,
  "composition_reduced": null,
  "formula_pretty": "CdGe3",
  "formula_anonymous": "AB3",
  "chemsys": null,
  "volume": 83.29589647661649,
  "density": 6.5852887550472765,
  "density_atomic": 20.823974119154123,
  "symmetry": null,
  "property_name": null,
  "material_id": "mp-1183649",
  "deprecated": null,
  "deprecation_reasons": null,
  "last_updated": null,
  "origins": null,
  "warnings": null,
  "structure": {
    "@module": "pymatgen.core.structure",
    "@class": "Structure",
    "charge": 0,
    "lattice": {
      "matrix": [
        [-2.114664, 2.114664, 4.656728],
        [2.114664, -2.114664, 4.656728],
        [2.114664, 2.114664, -4.656728]
      ],
      "pbc": [true, true, true],
      "a": 5.534322301038855,
      "b": 5.534322301038855,
      "c": 5.534322301038855,
      "alpha": 135.07236776564315,
      "beta": 135.07236776564315,
      "gamma": 65.41777710343776,
      "volume": 83.29589647661649
    },
    "properties": {},
    "sites": [
      {
        "species": [{ "element": "Cd", "occu": 1 }],
        "abc": [0.0, 0.0, 0.0],
        "properties": { "magmom": 0.0 },
        "label": "Cd",
        "xyz": [0.0, 0.0, 0.0]
      },
      {
        "species": [{ "element": "Ge", "occu": 1 }],
        "abc": [0.75, 0.25, 0.5],
        "properties": { "magmom": 0.0 },
        "label": "Ge",
        "xyz": [-2.220446049250313e-16, 2.1146640000000003, 2.328364]
      },
      {
        "species": [{ "element": "Ge", "occu": 1 }],
        "abc": [0.25, 0.75, 0.5],
        "properties": { "magmom": 0.0 },
        "label": "Ge",
        "xyz": [2.1146640000000003, -2.220446049250313e-16, 2.328364]
      },
      {
        "species": [{ "element": "Ge", "occu": 1 }],
        "abc": [0.5, 0.5, 0.0],
        "properties": { "magmom": 0.0 },
        "label": "Ge",
        "xyz": [0.0, 0.0, 4.656728]
      }
    ]
  },
  "task_ids": null,
  "uncorrected_energy_per_atom": null,
  "energy_per_atom": -15.14223059875,
  "formation_energy_per_atom": 0.287999508749999,
  "energy_above_hull": 0.287999508749999,
  "is_stable": false,
  "equilibrium_reaction_energy_per_atom": null,
  "decomposes_to": null,
  "xas": null,
  "grain_boundaries": null,
  "band_gap": 0.0,
  "cbm": null,
  "vbm": null,
  "efermi": 5.06652271,
  "is_gap_direct": null,
  "is_metal": null,
  "es_source_calc_id": null,
  "bandstructure": null,
  "dos": null,
  "dos_energy_up": null,
  "dos_energy_down": null,
  "is_magnetic": null,
  "ordering": null,
  "total_magnetization": 6.18e-5,
  "total_magnetization_normalized_vol": null,
  "total_magnetization_normalized_formula_units": null,
  "num_magnetic_sites": null,
  "num_unique_magnetic_sites": null,
  "types_of_magnetic_species": null,
  "bulk_modulus": null,
  "shear_modulus": null,
  "universal_anisotropy": null,
  "homogeneous_poisson": null,
  "e_total": null,
  "e_ionic": null,
  "e_electronic": null,
  "n": null,
  "e_ij_max": null,
  "weighted_surface_energy_EV_PER_ANG2": null,
  "weighted_surface_energy": null,
  "weighted_work_function": null,
  "surface_anisotropy": null,
  "shape_factor": null,
  "has_reconstructed": null,
  "possible_species": null,
  "has_props": null,
  "theoretical": null,
  "database_IDs": null,
  "fields_not_requested": [
    "builder_meta",
    "nsites",
    "elements",
    "nelements",
    "composition",
    "composition_reduced",
    "chemsys",
    "symmetry",
    "property_name",
    "deprecated",
    "deprecation_reasons",
    "last_updated",
    "origins",
    "warnings",
    "task_ids",
    "uncorrected_energy_per_atom",
    "equilibrium_reaction_energy_per_atom",
    "decomposes_to",
    "xas",
    "grain_boundaries",
    "cbm",
    "vbm",
    "is_gap_direct",
    "is_metal",
    "es_source_calc_id",
    "bandstructure",
    "dos",
    "dos_energy_up",
    "dos_energy_down",
    "is_magnetic",
    "ordering",
    "total_magnetization_normalized_vol",
    "total_magnetization_normalized_formula_units",
    "num_magnetic_sites",
    "num_unique_magnetic_sites",
    "types_of_magnetic_species",
    "bulk_modulus",
    "shear_modulus",
    "universal_anisotropy",
    "homogeneous_poisson",
    "e_total",
    "e_ionic",
    "e_electronic",
    "n",
    "e_ij_max",
    "weighted_surface_energy_EV_PER_ANG2",
    "weighted_surface_energy",
    "weighted_work_function",
    "surface_anisotropy",
    "shape_factor",
    "has_reconstructed",
    "possible_species",
    "has_props",
    "theoretical",
    "database_IDs"
  ]
}
