{
  "builder_meta": null,
  "nsites": null,
  "elements": null,
  "nelements": null,
  "composition": null,
  "composition_reduced": null,
  "formula_pretty": "CdHg2",
  "formula_anonymous": "AB2",
  "chemsys": null,
  "volume": 72.19754027790752,
  "density": 11.812561985787337,
  "density_atomic": 24.065846759302506,
  "symmetry": null,
  "property_name": null,
  "material_id": "mp-1975010",
  "deprecated": null,
  "deprecation_reasons": null,
  "last_updated": null,
  "origins": null,
  "warnings": null,
  "structure": {
    "@module": "pymatgen.core.structure",
    "@class": "Structure",
    "charge": 0,
    "lattice": {
      "matrix": [
        [3.79347438, 0.01132919, -1.547062009999999],
        [-0.6529551, 3.73687316, -1.54706195],
        [-0.03023377, -0.03608347, 5.12016822]
      ],
      "pbc": [true, true, true],
      "a": 4.096825244631223,
      "b": 4.096824630574538,
      "c": 5.120384624103313,
      "alpha": 112.52555563581029,
      "beta": 112.5255582225805,
      "gamma": 90.14075437095916,
      "volume": 72.19754027790754
    },
    "properties": {},
    "sites": [
      {
        "species": [{ "element": "Cd", "occu": 1 }],
        "abc": [1e-8, 0.0, -0.0],
        "properties": { "magmom": -0.0 },
        "label": "Cd",
        "xyz": [3.79347438e-8, 1.132919e-10, -1.547062009999999e-8]
      },
      {
        "species": [{ "element": "Hg", "occu": 1 }],
        "abc": [0.33248459, 0.33248459, 0.66545659],
        "properties": { "magmom": 0.0 },
        "label": "Hg",
        "xyz": [1.024055003710851, 1.2222075386752194, 2.3785011476577935]
      },
      {
        "species": [{ "element": "Hg", "occu": 1 }],
        "abc": [0.66751541, 0.6675154, 0.33454341],
        "properties": { "magmom": -0.0 },
        "label": "Hg",
        "xyz": [2.0862305128187, 2.489911303956049, -0.35245687218717325]
      }
    ]
  },
  "task_ids": null,
  "uncorrected_energy_per_atom": null,
  "energy_per_atom": -39.59124945666667,
  "formation_energy_per_atom": 0.022284121666662,
  "energy_above_hull": 0.022284121666665,
  "is_stable": false,
  "equilibrium_reaction_energy_per_atom": null,
  "decomposes_to": null,
  "xas": null,
  "grain_boundaries": null,
  "band_gap": 0.0,
  "cbm": null,
  "vbm": null,
  "efermi": 2.57458696,
  "is_gap_direct": null,
  "is_metal": null,
  "es_source_calc_id": null,
  "bandstructure": null,
  "dos": null,
  "dos_energy_up": null,
  "dos_energy_down": null,
  "is_magnetic": null,
  "ordering": null,
  "total_magnetization": 0.0,
  "total_magnetization_normalized_vol": null,
  "total_magnetization_normalized_formula_units": null,
  "num_magnetic_sites": null,
  "num_unique_magnetic_sites": null,
  "types_of_magnetic_species": null,
  "bulk_modulus": null,
  "shear_modulus": null,
  "universal_anisotropy": null,
  "homogeneous_poisson": null,
  "e_total": null,
  "e_ionic": null,
  "e_electronic": null,
  "n": null,
  "e_ij_max": null,
  "weighted_surface_energy_EV_PER_ANG2": null,
  "weighted_surface_energy": null,
  "weighted_work_function": null,
  "surface_anisotropy": null,
  "shape_factor": null,
  "has_reconstructed": null,
  "possible_species": null,
  "has_props": null,
  "theoretical": null,
  "database_IDs": null,
  "fields_not_requested": [
    "builder_meta",
    "nsites",
    "elements",
    "nelements",
    "composition",
    "composition_reduced",
    "chemsys",
    "symmetry",
    "property_name",
    "deprecated",
    "deprecation_reasons",
    "last_updated",
    "origins",
    "warnings",
    "task_ids",
    "uncorrected_energy_per_atom",
    "equilibrium_reaction_energy_per_atom",
    "decomposes_to",
    "xas",
    "grain_boundaries",
    "cbm",
    "vbm",
    "is_gap_direct",
    "is_metal",
    "es_source_calc_id",
    "bandstructure",
    "dos",
    "dos_energy_up",
    "dos_energy_down",
    "is_magnetic",
    "ordering",
    "total_magnetization_normalized_vol",
    "total_magnetization_normalized_formula_units",
    "num_magnetic_sites",
    "num_unique_magnetic_sites",
    "types_of_magnetic_species",
    "bulk_modulus",
    "shear_modulus",
    "universal_anisotropy",
    "homogeneous_poisson",
    "e_total",
    "e_ionic",
    "e_electronic",
    "n",
    "e_ij_max",
    "weighted_surface_energy_EV_PER_ANG2",
    "weighted_surface_energy",
    "weighted_work_function",
    "surface_anisotropy",
    "shape_factor",
    "has_reconstructed",
    "possible_species",
    "has_props",
    "theoretical",
    "database_IDs"
  ]
}
