{"builder_meta": null, "nsites": null, "elements": null, "nelements": null, "composition": null, "composition_reduced": null, "formula_pretty": "CdIn3", "formula_anonymous": "AB3", "chemsys": null, "volume": 205.18331691227863, "density": 7.394774507778806, "density_atomic": 25.64791461403483, "symmetry": null, "property_name": null, "material_id": "mp-1183676", "deprecated": null, "deprecation_reasons": null, "last_updated": null, "origins": null, "warnings": null, "structure": {"@module": "pymatgen.core.structure", "@class": "Structure", "charge": 0, "lattice": {"matrix": [[3.26778977, -5.65997731, -0.0], [3.26778977, 5.65997731, -0.0], [0.0, -0.0, 5.54680951]], "pbc": [true, true, true], "a": 6.535579020303518, "b": 6.535579020303518, "c": 5.54680951, "alpha": 90.0, "beta": 90.0, "gamma": 119.99999473912828, "volume": 205.18331691227863}, "properties": {}, "sites": [{"species": [{"element": "Cd", "occu": 1}], "abc": [0.333333, 0.666667, 0.75], "properties": {"magmom": 0.0}, "label": "Cd", "xyz": [3.26778977, 1.88666287665154, 4.1601071325]}, {"species": [{"element": "Cd", "occu": 1}], "abc": [0.666667, 0.333333, 0.25], "properties": {"magmom": 0.0}, "label": "Cd", "xyz": [3.26778977, -1.88666287665154, 1.3867023775]}, {"species": [{"element": "In", "occu": 1}], "abc": [0.16697041, 0.33393981, 0.25], "properties": {"magmom": -0.0}, "label": "In", "xyz": [1.6368692926044492, 0.945043015464314, 1.3867023775]}, {"species": [{"element": "In", "occu": 1}], "abc": [0.66606019, 0.83302959, 0.25], "properties": {"magmom": -0.0}, "label": "In", "xyz": [4.898710247395551, 0.9450430154643139, 1.3867023775]}, {"species": [{"element": "In", "occu": 1}], "abc": [0.16697041, 0.83302959, 0.25], "properties": {"magmom": -0.0}, "label": "In", "xyz": [3.26778977, 3.769879845917206, 1.3867023775]}, {"species": [{"element": "In", "occu": 1}], "abc": [0.83302959, 0.66606019, 0.75], "properties": {"magmom": -0.0}, "label": "In", "xyz": [4.898710247395551, -0.9450430154643139, 4.1601071325]}, {"species": [{"element": "In", "occu": 1}], "abc": [0.33393981, 0.16697041, 0.75], "properties": {"magmom": -0.0}, "label": "In", "xyz": [1.6368692926044492, -0.945043015464314, 4.1601071325]}, {"species": [{"element": "In", "occu": 1}], "abc": [0.83302959, 0.16697041, 0.75], "properties": {"magmom": -0.0}, "label": "In", "xyz": [3.26778977, -3.769879845917206, 4.1601071325]}]}, "task_ids": null, "uncorrected_energy_per_atom": null, "energy_per_atom": -21.91536947375, "formation_energy_per_atom": 0.044820233749998, "energy_above_hull": 0.044820233749998, "is_stable": false, "equilibrium_reaction_energy_per_atom": null, "decomposes_to": null, "xas": null, "grain_boundaries": null, "band_gap": 0.0, "cbm": null, "vbm": null, "efermi": 5.61070945, "is_gap_direct": null, "is_metal": null, "es_source_calc_id": null, "bandstructure": null, "dos": null, "dos_energy_up": null, "dos_energy_down": null, "is_magnetic": null, "ordering": null, "total_magnetization": 0.0, "total_magnetization_normalized_vol": null, "total_magnetization_normalized_formula_units": null, "num_magnetic_sites": null, "num_unique_magnetic_sites": null, "types_of_magnetic_species": null, "bulk_modulus": null, "shear_modulus": null, "universal_anisotropy": null, "homogeneous_poisson": null, "e_total": null, "e_ionic": null, "e_electronic": null, "n": null, "e_ij_max": null, "weighted_surface_energy_EV_PER_ANG2": null, "weighted_surface_energy": null, "weighted_work_function": null, "surface_anisotropy": null, "shape_factor": null, "has_reconstructed": null, "possible_species": null, "has_props": null, "theoretical": null, "database_IDs": null, "fields_not_requested": ["builder_meta", "nsites", "elements", "nelements", "composition", "composition_reduced", "chemsys", "symmetry", "property_name", "deprecated", "deprecation_reasons", "last_updated", "origins", "warnings", "task_ids", "uncorrected_energy_per_atom", "equilibrium_reaction_energy_per_atom", "decomposes_to", "xas", "grain_boundaries", "cbm", "vbm", "is_gap_direct", "is_metal", "es_source_calc_id", "bandstructure", "dos", "dos_energy_up", "dos_energy_down", "is_magnetic", "ordering", "total_magnetization_normalized_vol", "total_magnetization_normalized_formula_units", "num_magnetic_sites", "num_unique_magnetic_sites", "types_of_magnetic_species", "bulk_modulus", "shear_modulus", "universal_anisotropy", "homogeneous_poisson", "e_total", "e_ionic", "e_electronic", "n", "e_ij_max", "weighted_surface_energy_EV_PER_ANG2", "weighted_surface_energy", "weighted_work_function", "surface_anisotropy", "shape_factor", "has_reconstructed", "possible_species", "has_props", "theoretical", "database_IDs"]}