{
  "builder_meta": null,
  "nsites": null,
  "elements": null,
  "nelements": null,
  "composition": null,
  "composition_reduced": null,
  "formula_pretty": "CdN6",
  "formula_anonymous": "AB6",
  "chemsys": null,
  "volume": 852.0392828930096,
  "density": 3.062909411151294,
  "density_atomic": 15.214987194518029,
  "symmetry": null,
  "property_name": null,
  "material_id": "mp-570471",
  "deprecated": null,
  "deprecation_reasons": null,
  "last_updated": null,
  "origins": null,
  "warnings": null,
  "structure": {
    "@module": "pymatgen.core.structure",
    "@class": "Structure",
    "charge": 0,
    "lattice": {
      "matrix": [
        [6.595667, 0.0, 0.0],
        [0.0, 7.940959, 0.0],
        [0.0, 0.0, 16.267767]
      ],
      "pbc": [true, true, true],
      "a": 6.595667,
      "b": 7.940959,
      "c": 16.267767,
      "alpha": 90.0,
      "beta": 90.0,
      "gamma": 90.0,
      "volume": 852.0392828930096
    },
    "properties": {},
    "sites": [
      {
        "species": [{ "element": "Cd", "occu": 1 }],
        "abc": [0.078416, 0.576488, 0.604961],
        "properties": { "magmom": 0.0 },
        "label": "Cd",
        "xyz": [0.517205823472, 4.577867571992, 9.841364592086999]
      },
      {
        "species": [{ "element": "Cd", "occu": 1 }],
        "abc": [0.921584, 0.423512, 0.395039],
        "properties": { "magmom": 0.0 },
        "label": "Cd",
        "xyz": [6.078461176527999, 3.363091428008, 6.426402407912999]
      },
      {
        "species": [{ "element": "Cd", "occu": 1 }],
        "abc": [0.921584, 0.923512, 0.104961],
        "properties": { "magmom": 0.0 },
        "label": "Cd",
        "xyz": [6.078461176527999, 7.333570928008, 1.7074810920869998]
      },
      {
        "species": [{ "element": "Cd", "occu": 1 }],
        "abc": [0.078416, 0.076488, 0.895038999999999],
        "properties": { "magmom": 0.0 },
        "label": "Cd",
        "xyz": [0.517205823472, 0.6073880719920001, 14.560285907912984]
      },
      {
        "species": [{ "element": "Cd", "occu": 1 }],
        "abc": [0.421583999999999, 0.076488, 0.395039],
        "properties": { "magmom": 0.0 },
        "label": "Cd",
        "xyz": [2.7806276765279936, 0.6073880719920001, 6.426402407912999]
      },
      {
        "species": [{ "element": "Cd", "occu": 1 }],
        "abc": [0.578415999999999, 0.923512, 0.604961],
        "properties": { "magmom": 0.0 },
        "label": "Cd",
        "xyz": [3.8150393234719937, 7.333570928008, 9.841364592086999]
      },
      {
        "species": [{ "element": "Cd", "occu": 1 }],
        "abc": [0.578415999999999, 0.423512, 0.895038999999999],
        "properties": { "magmom": 0.0 },
        "label": "Cd",
        "xyz": [3.8150393234719937, 3.363091428008, 14.560285907912984]
      },
      {
        "species": [{ "element": "Cd", "occu": 1 }],
        "abc": [0.421583999999999, 0.576488, 0.104961],
        "properties": { "magmom": 0.0 },
        "label": "Cd",
        "xyz": [2.7806276765279936, 4.577867571992, 1.7074810920869998]
      },
      {
        "species": [{ "element": "N", "occu": 1 }],
        "abc": [0.822627, 0.620950999999999, 0.210052],
        "properties": { "magmom": -0.0 },
        "label": "N",
        "xyz": [5.425773757209, 4.930946432008993, 3.4170769938839998]
      },
      {
        "species": [{ "element": "N", "occu": 1 }],
        "abc": [0.262760999999999, 0.811472, 0.653698],
        "properties": { "magmom": -0.0 },
        "label": "N",
        "xyz": [1.7330840565869934, 6.443865881648, 10.634206752366]
      },
      {
        "species": [{ "element": "N", "occu": 1 }],
        "abc": [0.237238999999999, 0.311471999999999, 0.346302],
        "properties": { "magmom": -0.0 },
        "label": "N",
        "xyz": [1.5647494434129934, 2.4733863816479924, 5.633560247634]
      },
      {
        "species": [{ "element": "N", "occu": 1 }],
        "abc": [0.398344, 0.940257999999999, 0.916118999999999],
        "properties": { "magmom": 0.0 },
        "label": "N",
        "xyz": [2.6273443754479997, 7.466550227421993, 14.903210436272984]
      },
      {
        "species": [{ "element": "N", "occu": 1 }],
        "abc": [0.898343999999999, 0.559742, 0.916118999999999],
        "properties": { "magmom": 0.0 },
        "label": "N",
        "xyz": [5.925177875447994, 4.444888272578, 14.903210436272984]
      },
      {
        "species": [{ "element": "N", "occu": 1 }],
        "abc": [0.079234, 0.303467999999999, 0.058806],
        "properties": { "magmom": 0.0 },
        "label": "N",
        "xyz": [0.522601079078, 2.409826945811992, 0.9566423062019999]
      },
      {
        "species": [{ "element": "N", "occu": 1 }],
        "abc": [0.601656, 0.059741999999999004, 0.083881],
        "properties": { "magmom": 0.0 },
        "label": "N",
        "xyz": [3.9683226245519996, 0.47440877257799213, 1.3645565637269998]
      },
      {
        "species": [{ "element": "N", "occu": 1 }],
        "abc": [0.762760999999999, 0.188528, 0.846302],
        "properties": { "magmom": -0.0 },
        "label": "N",
        "xyz": [5.030917556586993, 1.497093118352, 13.767443747634]
      },
      {
        "species": [{ "element": "N", "occu": 1 }],
        "abc": [0.177373, 0.879049, 0.710052],
        "properties": { "magmom": -0.0 },
        "label": "N",
        "xyz": [1.169893242791, 6.980492067991, 11.550960493884]
      },
      {
        "species": [{ "element": "N", "occu": 1 }],
        "abc": [0.601656, 0.559742, 0.416118999999999],
        "properties": { "magmom": 0.0 },
        "label": "N",
        "xyz": [3.9683226245519996, 4.444888272578, 6.769326936272984]
      },
      {
        "species": [{ "element": "N", "occu": 1 }],
        "abc": [0.898343999999999, 0.059741999999999004, 0.583881],
        "properties": { "magmom": 0.0 },
        "label": "N",
        "xyz": [5.925177875447994, 0.47440877257799213, 9.498440063727]
      },
      {
        "species": [{ "element": "N", "occu": 1 }],
        "abc": [0.101656, 0.440258, 0.083881],
        "properties": { "magmom": 0.0 },
        "label": "N",
        "xyz": [0.6704891245519999, 3.496070727422, 1.3645565637269998]
      },
      {
        "species": [{ "element": "N", "occu": 1 }],
        "abc": [0.822627, 0.120950999999999, 0.289948],
        "properties": { "magmom": -0.0 },
        "label": "N",
        "xyz": [5.425773757209, 0.9604669320089921, 4.716806506116]
      },
      {
        "species": [{ "element": "N", "occu": 1 }],
        "abc": [0.087302999999999, 0.942693, 0.763185999999999],
        "properties": { "magmom": 0.0 },
        "label": "N",
        "xyz": [0.5758215161009934, 7.4858864625870005, 12.415332025661984]
      },
      {
        "species": [{ "element": "N", "occu": 1 }],
        "abc": [0.322627, 0.879049, 0.210052],
        "properties": { "magmom": -0.0 },
        "label": "N",
        "xyz": [2.127940257209, 6.980492067991, 3.4170769938839998]
      },
      {
        "species": [{ "element": "N", "occu": 1 }],
        "abc": [0.087302999999999, 0.442693, 0.736814],
        "properties": { "magmom": 0.0 },
        "label": "N",
        "xyz": [0.5758215161009934, 3.5154069625870004, 11.986318474337999]
      },
      {
        "species": [{ "element": "N", "occu": 1 }],
        "abc": [0.737239, 0.188528, 0.346302],
        "properties": { "magmom": -0.0 },
        "label": "N",
        "xyz": [4.862582943413, 1.497093118352, 5.633560247634]
      },
      {
        "species": [{ "element": "N", "occu": 1 }],
        "abc": [0.447322999999999, 0.663895999999999, 0.966861],
        "properties": { "magmom": -0.0 },
        "label": "N",
        "xyz": [2.9503935494409936, 5.271970916263992, 15.728669469386999]
      },
      {
        "species": [{ "element": "N", "occu": 1 }],
        "abc": [0.762760999999999, 0.688527999999999, 0.653698],
        "properties": { "magmom": -0.0 },
        "label": "N",
        "xyz": [5.030917556586993, 5.467572618351992, 10.634206752366]
      },
      {
        "species": [{ "element": "N", "occu": 1 }],
        "abc": [0.420766, 0.803468, 0.941194],
        "properties": { "magmom": 0.0 },
        "label": "N",
        "xyz": [2.775232420922, 6.380306445812, 15.311124693797998]
      },
      {
        "species": [{ "element": "N", "occu": 1 }],
        "abc": [0.579234, 0.696531999999999, 0.441194],
        "properties": { "magmom": 0.0 },
        "label": "N",
        "xyz": [3.820434579078, 5.531132054187992, 7.177241193797999]
      },
      {
        "species": [{ "element": "N", "occu": 1 }],
        "abc": [0.447322999999999, 0.163896, 0.533139],
        "properties": { "magmom": -0.0 },
        "label": "N",
        "xyz": [2.9503935494409936, 1.301491416264, 8.672981030613]
      },
      {
        "species": [{ "element": "N", "occu": 1 }],
        "abc": [0.237238999999999, 0.811472, 0.153698],
        "properties": { "magmom": -0.0 },
        "label": "N",
        "xyz": [1.5647494434129934, 6.443865881648, 2.500323252366]
      },
      {
        "species": [{ "element": "N", "occu": 1 }],
        "abc": [0.579234, 0.196531999999999, 0.058806],
        "properties": { "magmom": 0.0 },
        "label": "N",
        "xyz": [3.820434579078, 1.5606525541879923, 0.9566423062019999]
      },
      {
        "species": [{ "element": "N", "occu": 1 }],
        "abc": [0.677373, 0.620950999999999, 0.710052],
        "properties": { "magmom": -0.0 },
        "label": "N",
        "xyz": [4.467726742791, 4.930946432008993, 11.550960493884]
      },
      {
        "species": [{ "element": "N", "occu": 1 }],
        "abc": [0.947322999999999, 0.336103999999999, 0.533139],
        "properties": { "magmom": -0.0 },
        "label": "N",
        "xyz": [6.2482270494409935, 2.6689880837359925, 8.672981030613]
      },
      {
        "species": [{ "element": "N", "occu": 1 }],
        "abc": [0.912697, 0.557307, 0.263186],
        "properties": { "magmom": 0.0 },
        "label": "N",
        "xyz": [6.019845483898999, 4.425552037413, 4.281448525661999]
      },
      {
        "species": [{ "element": "N", "occu": 1 }],
        "abc": [0.737239, 0.688527999999999, 0.153698],
        "properties": { "magmom": -0.0 },
        "label": "N",
        "xyz": [4.862582943413, 5.467572618351992, 2.500323252366]
      },
      {
        "species": [{ "element": "N", "occu": 1 }],
        "abc": [0.262760999999999, 0.311471999999999, 0.846302],
        "properties": { "magmom": -0.0 },
        "label": "N",
        "xyz": [1.7330840565869934, 2.4733863816479924, 13.767443747634]
      },
      {
        "species": [{ "element": "N", "occu": 1 }],
        "abc": [0.322627, 0.379048999999999, 0.289948],
        "properties": { "magmom": -0.0 },
        "label": "N",
        "xyz": [2.127940257209, 3.0100125679909926, 4.716806506116]
      },
      {
        "species": [{ "element": "N", "occu": 1 }],
        "abc": [0.052676999999999, 0.663895999999999, 0.466860999999999],
        "properties": { "magmom": -0.0 },
        "label": "N",
        "xyz": [0.3474399505589934, 5.271970916263992, 7.594785969386984]
      },
      {
        "species": [{ "element": "N", "occu": 1 }],
        "abc": [0.587303, 0.057307, 0.736814],
        "properties": { "magmom": 0.0 },
        "label": "N",
        "xyz": [3.873655016101, 0.45507253741299997, 11.986318474337999]
      },
      {
        "species": [{ "element": "N", "occu": 1 }],
        "abc": [0.947322999999999, 0.836104, 0.966861],
        "properties": { "magmom": -0.0 },
        "label": "N",
        "xyz": [6.2482270494409935, 6.639467583736, 15.728669469386999]
      },
      {
        "species": [{ "element": "N", "occu": 1 }],
        "abc": [0.677373, 0.120950999999999, 0.789948],
        "properties": { "magmom": -0.0 },
        "label": "N",
        "xyz": [4.467726742791, 0.9604669320089921, 12.850690006115999]
      },
      {
        "species": [{ "element": "N", "occu": 1 }],
        "abc": [0.412697, 0.942693, 0.263186],
        "properties": { "magmom": 0.0 },
        "label": "N",
        "xyz": [2.722011983899, 7.4858864625870005, 4.281448525661999]
      },
      {
        "species": [{ "element": "N", "occu": 1 }],
        "abc": [0.587303, 0.557307, 0.763185999999999],
        "properties": { "magmom": 0.0 },
        "label": "N",
        "xyz": [3.873655016101, 4.425552037413, 12.415332025661984]
      },
      {
        "species": [{ "element": "N", "occu": 1 }],
        "abc": [0.920766, 0.196531999999999, 0.558806],
        "properties": { "magmom": 0.0 },
        "label": "N",
        "xyz": [6.073065920922, 1.5606525541879923, 9.090525806202]
      },
      {
        "species": [{ "element": "N", "occu": 1 }],
        "abc": [0.420766, 0.303467999999999, 0.558806],
        "properties": { "magmom": 0.0 },
        "label": "N",
        "xyz": [2.775232420922, 2.409826945811992, 9.090525806202]
      },
      {
        "species": [{ "element": "N", "occu": 1 }],
        "abc": [0.177373, 0.379048999999999, 0.789948],
        "properties": { "magmom": -0.0 },
        "label": "N",
        "xyz": [1.169893242791, 3.0100125679909926, 12.850690006115999]
      },
      {
        "species": [{ "element": "N", "occu": 1 }],
        "abc": [0.552677, 0.836104, 0.466860999999999],
        "properties": { "magmom": -0.0 },
        "label": "N",
        "xyz": [3.645273450559, 6.639467583736, 7.594785969386984]
      },
      {
        "species": [{ "element": "N", "occu": 1 }],
        "abc": [0.552677, 0.336103999999999, 0.033139],
        "properties": { "magmom": -0.0 },
        "label": "N",
        "xyz": [3.645273450559, 2.6689880837359925, 0.539097530613]
      },
      {
        "species": [{ "element": "N", "occu": 1 }],
        "abc": [0.398344, 0.440258, 0.583881],
        "properties": { "magmom": 0.0 },
        "label": "N",
        "xyz": [2.6273443754479997, 3.496070727422, 9.498440063727]
      },
      {
        "species": [{ "element": "N", "occu": 1 }],
        "abc": [0.912697, 0.057307, 0.236814],
        "properties": { "magmom": 0.0 },
        "label": "N",
        "xyz": [6.019845483898999, 0.45507253741299997, 3.8524349743379998]
      },
      {
        "species": [{ "element": "N", "occu": 1 }],
        "abc": [0.079234, 0.803468, 0.441194],
        "properties": { "magmom": 0.0 },
        "label": "N",
        "xyz": [0.522601079078, 6.380306445812, 7.177241193797999]
      },
      {
        "species": [{ "element": "N", "occu": 1 }],
        "abc": [0.052676999999999, 0.163896, 0.033139],
        "properties": { "magmom": -0.0 },
        "label": "N",
        "xyz": [0.3474399505589934, 1.301491416264, 0.539097530613]
      },
      {
        "species": [{ "element": "N", "occu": 1 }],
        "abc": [0.412697, 0.442693, 0.236814],
        "properties": { "magmom": 0.0 },
        "label": "N",
        "xyz": [2.722011983899, 3.5154069625870004, 3.8524349743379998]
      },
      {
        "species": [{ "element": "N", "occu": 1 }],
        "abc": [0.920766, 0.696531999999999, 0.941194],
        "properties": { "magmom": 0.0 },
        "label": "N",
        "xyz": [6.073065920922, 5.531132054187992, 15.311124693797998]
      },
      {
        "species": [{ "element": "N", "occu": 1 }],
        "abc": [0.101656, 0.940257999999999, 0.416118999999999],
        "properties": { "magmom": 0.0 },
        "label": "N",
        "xyz": [0.6704891245519999, 7.466550227421993, 6.769326936272984]
      }
    ]
  },
  "task_ids": null,
  "uncorrected_energy_per_atom": null,
  "energy_per_atom": -10.252391265535717,
  "formation_energy_per_atom": 0.44439326553571,
  "energy_above_hull": 0.444393265535712,
  "is_stable": false,
  "equilibrium_reaction_energy_per_atom": null,
  "decomposes_to": null,
  "xas": null,
  "grain_boundaries": null,
  "band_gap": 2.867,
  "cbm": null,
  "vbm": null,
  "efermi": 0.5469383,
  "is_gap_direct": null,
  "is_metal": null,
  "es_source_calc_id": null,
  "bandstructure": null,
  "dos": null,
  "dos_energy_up": null,
  "dos_energy_down": null,
  "is_magnetic": null,
  "ordering": null,
  "total_magnetization": 0.0005781,
  "total_magnetization_normalized_vol": null,
  "total_magnetization_normalized_formula_units": null,
  "num_magnetic_sites": null,
  "num_unique_magnetic_sites": null,
  "types_of_magnetic_species": null,
  "bulk_modulus": null,
  "shear_modulus": null,
  "universal_anisotropy": null,
  "homogeneous_poisson": null,
  "e_total": null,
  "e_ionic": null,
  "e_electronic": null,
  "n": null,
  "e_ij_max": null,
  "weighted_surface_energy_EV_PER_ANG2": null,
  "weighted_surface_energy": null,
  "weighted_work_function": null,
  "surface_anisotropy": null,
  "shape_factor": null,
  "has_reconstructed": null,
  "possible_species": null,
  "has_props": null,
  "theoretical": null,
  "database_IDs": null,
  "fields_not_requested": [
    "builder_meta",
    "nsites",
    "elements",
    "nelements",
    "composition",
    "composition_reduced",
    "chemsys",
    "symmetry",
    "property_name",
    "deprecated",
    "deprecation_reasons",
    "last_updated",
    "origins",
    "warnings",
    "task_ids",
    "uncorrected_energy_per_atom",
    "equilibrium_reaction_energy_per_atom",
    "decomposes_to",
    "xas",
    "grain_boundaries",
    "cbm",
    "vbm",
    "is_gap_direct",
    "is_metal",
    "es_source_calc_id",
    "bandstructure",
    "dos",
    "dos_energy_up",
    "dos_energy_down",
    "is_magnetic",
    "ordering",
    "total_magnetization_normalized_vol",
    "total_magnetization_normalized_formula_units",
    "num_magnetic_sites",
    "num_unique_magnetic_sites",
    "types_of_magnetic_species",
    "bulk_modulus",
    "shear_modulus",
    "universal_anisotropy",
    "homogeneous_poisson",
    "e_total",
    "e_ionic",
    "e_electronic",
    "n",
    "e_ij_max",
    "weighted_surface_energy_EV_PER_ANG2",
    "weighted_surface_energy",
    "weighted_work_function",
    "surface_anisotropy",
    "shape_factor",
    "has_reconstructed",
    "possible_species",
    "has_props",
    "theoretical",
    "database_IDs"
  ]
}
