{
  "builder_meta": null,
  "nsites": null,
  "elements": null,
  "nelements": null,
  "composition": null,
  "composition_reduced": null,
  "formula_pretty": "CdNi",
  "formula_anonymous": "AB",
  "chemsys": null,
  "volume": 367.6518933550777,
  "density": 9.273735698439449,
  "density_atomic": 15.318828889794903,
  "symmetry": null,
  "property_name": null,
  "material_id": "mp-985556",
  "deprecated": null,
  "deprecation_reasons": null,
  "last_updated": null,
  "origins": null,
  "warnings": null,
  "structure": {
    "@module": "pymatgen.core.structure",
    "@class": "Structure",
    "charge": 0,
    "lattice": {
      "matrix": [
        [-0.00030656, 5.68595084, 5.68598259],
        [5.68590856, -0.00026325000000000003, 5.6859395],
        [5.68564429, 5.68564428, 1e-8]
      ],
      "pbc": [true, true, true],
      "a": 8.04117124942995,
      "b": 8.041110882187988,
      "c": 8.040715258676078,
      "alpha": 60.00162146262867,
      "beta": 60.00187583496138,
      "gamma": 60.00313266778945,
      "volume": 367.6518933550777
    },
    "properties": {},
    "sites": [
      {
        "species": [{ "element": "Cd", "occu": 1 }],
        "abc": [0.82325888, 0.42675374, 0.42674271],
        "properties": { "magmom": -0.006 },
        "label": "Cd",
        "xyz": [4.852537617446387, 7.107204425494603, 7.107531610049056]
      },
      {
        "species": [{ "element": "Cd", "occu": 1 }],
        "abc": [0.42674779, 0.82325806, 0.82324922],
        "properties": { "magmom": -0.006 },
        "label": "Cd",
        "xyz": [9.361541453580445, 7.106952451041811, 7.107476034540838]
      },
      {
        "species": [{ "element": "Cd", "occu": 1 }],
        "abc": [0.42674779, 0.82325906, 0.42674593],
        "properties": { "magmom": -0.006 },
        "label": "Cd",
        "xyz": [7.107170472734291, 4.852575787988879, 7.107481716515306]
      },
      {
        "species": [{ "element": "Cd", "occu": 1 }],
        "abc": [0.42673939, 0.42673704, 0.82326279],
        "properties": { "magmom": -0.006 },
        "label": "Cd",
        "xyz": [7.107036348510633, 7.107086227406149, 4.8528337420889285]
      },
      {
        "species": [{ "element": "Cd", "occu": 1 }],
        "abc": [0.82325788, 0.42675374, 0.82324567],
        "properties": { "magmom": -0.006 },
        "label": "Cd",
        "xyz": [7.106912408245046, 9.361573526070831, 7.107525928031496]
      },
      {
        "species": [{ "element": "Cd", "occu": 1 }],
        "abc": [0.8232488800000001, 0.82324422, 0.42675345000000003],
        "properties": { "magmom": -0.006 },
        "label": "Cd",
        "xyz": [7.107007298522171, 7.107104253686911, 9.361895631829224]
      },
      {
        "species": [{ "element": "Cd", "occu": 1 }],
        "abc": [0.57325321, 0.17674094, 0.57325507],
        "properties": { "magmom": -0.006 },
        "label": "Cd",
        "xyz": [4.264081502603439, 6.518767453606241, 4.2644460694672945]
      },
      {
        "species": [{ "element": "Cd", "occu": 1 }],
        "abc": [0.17674212, 0.57324626, 0.17675433000000002],
        "properties": { "magmom": -0.006 },
        "label": "Cd",
        "xyz": [4.264333881754954, 2.0097583439291684, 4.264396171968504]
      },
      {
        "species": [{ "element": "Cd", "occu": 1 }],
        "abc": [0.17674112, 0.57324726, 0.5732582900000001],
        "properties": { "magmom": -0.006 },
        "label": "Cd",
        "xyz": [6.5187200441064626, 4.264133129886427, 4.264396175890455]
      },
      {
        "species": [{ "element": "Cd", "occu": 1 }],
        "abc": [0.57326161, 0.57326396, 0.17673721],
        "properties": { "magmom": -0.006 },
        "label": "Cd",
        "xyz": [4.264215627091367, 4.264251328281441, 6.519099729833162]
      },
      {
        "species": [{ "element": "Cd", "occu": 1 }],
        "abc": [0.57325221, 0.17674194000000001, 0.17675078],
        "properties": { "magmom": -0.006 },
        "label": "Cd",
        "xyz": [2.009704836419555, 4.264379418958191, 4.264446065459162]
      },
      {
        "species": [{ "element": "Cd", "occu": 1 }],
        "abc": [0.17675112, 0.17675578, 0.57324655],
        "properties": { "magmom": -0.006 },
        "label": "Cd",
        "xyz": [4.264238991477829, 4.26422761631309, 2.0100264681707767]
      },
      {
        "species": [{ "element": "Ni", "occu": 1 }],
        "abc": [0.20156926, 0.20153851, 0.20153496],
        "properties": { "magmom": 0.551 },
        "label": "Ni",
        "xyz": [2.2917238406656786, 2.29191594074645, 2.292055079834678]
      },
      {
        "species": [{ "element": "Ni", "occu": 1 }],
        "abc": [0.20156926, 0.20153851, 0.8953562700000001],
        "properties": { "magmom": 0.551 },
        "label": "Ni",
        "xyz": [6.236545010147498, 6.236737103290057, 2.292055086772891]
      },
      {
        "species": [{ "element": "Ni", "occu": 1 }],
        "abc": [0.8954032, 0.20153614, 0.20153033],
        "properties": { "magmom": 0.551 },
        "label": "Ni",
        "xyz": [2.291471338796682, 6.236995290800847, 6.237169307349121]
      },
      {
        "species": [{ "element": "Ni", "occu": 1 }],
        "abc": [0.20156451, 0.89537782, 0.20152834],
        "properties": { "magmom": 0.551 },
        "label": "Ni",
        "xyz": [6.236793075150132, 2.2916686403164688, 6.237156410799054]
      },
      {
        "species": [{ "element": "Ni", "occu": 1 }],
        "abc": [0.7984317400000001, 0.79846249, 0.79846604],
        "properties": { "magmom": 0.551 },
        "label": "Ni",
        "xyz": [9.079533820580611, 9.079427300585422, 9.079878392087423]
      },
      {
        "species": [{ "element": "Ni", "occu": 1 }],
        "abc": [0.7984317400000001, 0.79846249, 0.10464373],
        "properties": { "magmom": 0.551 },
        "label": "Ni",
        "xyz": [5.134706965454502, 5.134600452397534, 9.0798783851492]
      },
      {
        "species": [{ "element": "Ni", "occu": 1 }],
        "abc": [0.79843649, 0.10462218000000001, 0.7984726600000001],
        "properties": { "magmom": 0.551 },
        "label": "Ni",
        "xyz": [5.134458900187598, 9.079674601278652, 5.134771375183546]
      },
      {
        "species": [{ "element": "Ni", "occu": 1 }],
        "abc": [0.104596799999999, 0.79846486, 0.79847067],
        "properties": { "magmom": 0.551 },
        "label": "Ni",
        "xyz": [9.079786322756169, 5.134342264580179, 5.134758478590384]
      },
      {
        "species": [{ "element": "Ni", "occu": 1 }],
        "abc": [-0.0, 0.0, -0.0],
        "properties": { "magmom": 0.678 },
        "label": "Ni",
        "xyz": [0.0, 0.0, 0.0]
      },
      {
        "species": [{ "element": "Ni", "occu": 1 }],
        "abc": [-0.0, 0.0, 0.500001],
        "properties": { "magmom": 0.678 },
        "label": "Ni",
        "xyz": [2.84282783064429, 2.8428278256442803, 5.00001e-9]
      },
      {
        "species": [{ "element": "Ni", "occu": 1 }],
        "abc": [0.500001, 0.0, -0.0],
        "properties": { "magmom": 0.678 },
        "label": "Ni",
        "xyz": [-0.00015328030656, 2.8429811059508405, 2.84299698098259]
      },
      {
        "species": [{ "element": "Ni", "occu": 1 }],
        "abc": [-0.0, 0.500001, -0.0],
        "properties": { "magmom": 0.678 },
        "label": "Ni",
        "xyz": [2.84295996590856, -0.00013162526325000002, 2.8429754359395]
      }
    ]
  },
  "task_ids": null,
  "uncorrected_energy_per_atom": null,
  "energy_per_atom": -16.037081925833334,
  "formation_energy_per_atom": 0.006270499166665,
  "energy_above_hull": 0.006270499166667,
  "is_stable": false,
  "equilibrium_reaction_energy_per_atom": null,
  "decomposes_to": null,
  "xas": null,
  "grain_boundaries": null,
  "band_gap": 0.0,
  "cbm": null,
  "vbm": null,
  "efermi": 4.6665168999999995,
  "is_gap_direct": null,
  "is_metal": null,
  "es_source_calc_id": null,
  "bandstructure": null,
  "dos": null,
  "dos_energy_up": null,
  "dos_energy_down": null,
  "is_magnetic": null,
  "ordering": null,
  "total_magnetization": 6.5937916,
  "total_magnetization_normalized_vol": null,
  "total_magnetization_normalized_formula_units": null,
  "num_magnetic_sites": null,
  "num_unique_magnetic_sites": null,
  "types_of_magnetic_species": null,
  "bulk_modulus": null,
  "shear_modulus": null,
  "universal_anisotropy": null,
  "homogeneous_poisson": null,
  "e_total": null,
  "e_ionic": null,
  "e_electronic": null,
  "n": null,
  "e_ij_max": null,
  "weighted_surface_energy_EV_PER_ANG2": null,
  "weighted_surface_energy": null,
  "weighted_work_function": null,
  "surface_anisotropy": null,
  "shape_factor": null,
  "has_reconstructed": null,
  "possible_species": null,
  "has_props": null,
  "theoretical": null,
  "database_IDs": null,
  "fields_not_requested": [
    "builder_meta",
    "nsites",
    "elements",
    "nelements",
    "composition",
    "composition_reduced",
    "chemsys",
    "symmetry",
    "property_name",
    "deprecated",
    "deprecation_reasons",
    "last_updated",
    "origins",
    "warnings",
    "task_ids",
    "uncorrected_energy_per_atom",
    "equilibrium_reaction_energy_per_atom",
    "decomposes_to",
    "xas",
    "grain_boundaries",
    "cbm",
    "vbm",
    "is_gap_direct",
    "is_metal",
    "es_source_calc_id",
    "bandstructure",
    "dos",
    "dos_energy_up",
    "dos_energy_down",
    "is_magnetic",
    "ordering",
    "total_magnetization_normalized_vol",
    "total_magnetization_normalized_formula_units",
    "num_magnetic_sites",
    "num_unique_magnetic_sites",
    "types_of_magnetic_species",
    "bulk_modulus",
    "shear_modulus",
    "universal_anisotropy",
    "homogeneous_poisson",
    "e_total",
    "e_ionic",
    "e_electronic",
    "n",
    "e_ij_max",
    "weighted_surface_energy_EV_PER_ANG2",
    "weighted_surface_energy",
    "weighted_work_function",
    "surface_anisotropy",
    "shape_factor",
    "has_reconstructed",
    "possible_species",
    "has_props",
    "theoretical",
    "database_IDs"
  ]
}
