{"builder_meta": null, "nsites": null, "elements": null, "nelements": null, "composition": null, "composition_reduced": null, "formula_pretty": "CdO2", "formula_anonymous": "AB2", "chemsys": null, "volume": 157.87700371639545, "density": 6.075567913124506, "density_atomic": 13.156416976366287, "symmetry": null, "property_name": null, "material_id": "mp-2310", "deprecated": null, "deprecation_reasons": null, "last_updated": null, "origins": null, "warnings": null, "structure": {"@module": "pymatgen.core.structure", "@class": "Structure", "charge": 0, "lattice": {"matrix": [[5.404717, 0.0, 0.0], [0.0, 5.404717, 0.0], [0.0, 0.0, 5.404717]], "pbc": [true, true, true], "a": 5.404717, "b": 5.404717, "c": 5.404717, "alpha": 90.0, "beta": 90.0, "gamma": 90.0, "volume": 157.87700371639545}, "properties": {}, "sites": [{"species": [{"element": "Cd", "occu": 1}], "abc": [0.5, 0.0, 0.0], "properties": {"magmom": -0.0}, "label": "Cd", "xyz": [2.7023585, 0.0, 0.0]}, {"species": [{"element": "Cd", "occu": 1}], "abc": [0.0, 0.0, 0.5], "properties": {"magmom": -0.0}, "label": "Cd", "xyz": [0.0, 0.0, 2.7023585]}, {"species": [{"element": "Cd", "occu": 1}], "abc": [0.0, 0.5, 0.0], "properties": {"magmom": -0.0}, "label": "Cd", "xyz": [0.0, 2.7023585, 0.0]}, {"species": [{"element": "Cd", "occu": 1}], "abc": [0.5, 0.5, 0.5], "properties": {"magmom": -0.0}, "label": "Cd", "xyz": [2.7023585, 2.7023585, 2.7023585]}, {"species": [{"element": "O", "occu": 1}], "abc": [0.08032399999999901, 0.419676, 0.580324], "properties": {"magmom": 0.0}, "label": "O", "xyz": [0.4341284883079946, 2.268230011692, 3.1364869883079995]}, {"species": [{"element": "O", "occu": 1}], "abc": [0.419676, 0.580324, 0.08032399999999901], "properties": {"magmom": 0.0}, "label": "O", "xyz": [2.268230011692, 3.1364869883079995, 0.4341284883079946]}, {"species": [{"element": "O", "occu": 1}], "abc": [0.580324, 0.08032399999999901, 0.419676], "properties": {"magmom": 0.0}, "label": "O", "xyz": [3.1364869883079995, 0.4341284883079946, 2.268230011692]}, {"species": [{"element": "O", "occu": 1}], "abc": [0.919675999999999, 0.919675999999999, 0.919675999999999], "properties": {"magmom": 0.0}, "label": "O", "xyz": [4.970588511691995, 4.970588511691995, 4.970588511691995]}, {"species": [{"element": "O", "occu": 1}], "abc": [0.08032399999999901, 0.08032399999999901, 0.08032399999999901], "properties": {"magmom": 0.0}, "label": "O", "xyz": [0.4341284883079946, 0.4341284883079946, 0.4341284883079946]}, {"species": [{"element": "O", "occu": 1}], "abc": [0.419676, 0.919675999999999, 0.580324], "properties": {"magmom": 0.0}, "label": "O", "xyz": [2.268230011692, 4.970588511691995, 3.1364869883079995]}, {"species": [{"element": "O", "occu": 1}], "abc": [0.580324, 0.419676, 0.919675999999999], "properties": {"magmom": 0.0}, "label": "O", "xyz": [3.1364869883079995, 2.268230011692, 4.970588511691995]}, {"species": [{"element": "O", "occu": 1}], "abc": [0.919675999999999, 0.580324, 0.419676], "properties": {"magmom": 0.0}, "label": "O", "xyz": [4.970588511691995, 3.1364869883079995, 2.268230011692]}]}, "task_ids": null, "uncorrected_energy_per_atom": null, "energy_per_atom": -4.459844108333333, "formation_energy_per_atom": -0.8412000416666661, "energy_above_hull": 0.05623419, "is_stable": false, "equilibrium_reaction_energy_per_atom": null, "decomposes_to": null, "xas": null, "grain_boundaries": null, "band_gap": 1.2535, "cbm": null, "vbm": null, "efermi": 1.97427362, "is_gap_direct": null, "is_metal": null, "es_source_calc_id": null, "bandstructure": null, "dos": null, "dos_energy_up": null, "dos_energy_down": null, "is_magnetic": null, "ordering": null, "total_magnetization": 0.0006841, "total_magnetization_normalized_vol": null, "total_magnetization_normalized_formula_units": null, "num_magnetic_sites": null, "num_unique_magnetic_sites": null, "types_of_magnetic_species": null, "bulk_modulus": null, "shear_modulus": null, "universal_anisotropy": null, "homogeneous_poisson": null, "e_total": null, "e_ionic": null, "e_electronic": null, "n": null, "e_ij_max": null, "weighted_surface_energy_EV_PER_ANG2": null, "weighted_surface_energy": null, "weighted_work_function": null, "surface_anisotropy": null, "shape_factor": null, "has_reconstructed": null, "possible_species": null, "has_props": null, "theoretical": null, "database_IDs": null, "fields_not_requested": ["builder_meta", "nsites", "elements", "nelements", "composition", "composition_reduced", "chemsys", "symmetry", "property_name", "deprecated", "deprecation_reasons", "last_updated", "origins", "warnings", "task_ids", "uncorrected_energy_per_atom", "equilibrium_reaction_energy_per_atom", "decomposes_to", "xas", "grain_boundaries", "cbm", "vbm", "is_gap_direct", "is_metal", "es_source_calc_id", "bandstructure", "dos", "dos_energy_up", "dos_energy_down", "is_magnetic", "ordering", "total_magnetization_normalized_vol", "total_magnetization_normalized_formula_units", "num_magnetic_sites", "num_unique_magnetic_sites", "types_of_magnetic_species", "bulk_modulus", "shear_modulus", "universal_anisotropy", "homogeneous_poisson", "e_total", "e_ionic", "e_electronic", "n", "e_ij_max", "weighted_surface_energy_EV_PER_ANG2", "weighted_surface_energy", "weighted_work_function", "surface_anisotropy", "shape_factor", "has_reconstructed", "possible_species", "has_props", "theoretical", "database_IDs"]}