{
  "builder_meta": null,
  "nsites": null,
  "elements": null,
  "nelements": null,
  "composition": null,
  "composition_reduced": null,
  "formula_pretty": "CdP2",
  "formula_anonymous": "AB2",
  "chemsys": null,
  "volume": 560.7532228378684,
  "density": 4.130574789836572,
  "density_atomic": 23.364717618244516,
  "symmetry": null,
  "property_name": null,
  "material_id": "mp-913",
  "deprecated": null,
  "deprecation_reasons": null,
  "last_updated": null,
  "origins": null,
  "warnings": null,
  "structure": {
    "@module": "pymatgen.core.structure",
    "@class": "Structure",
    "charge": 0,
    "lattice": {
      "matrix": [
        [5.3155021, 0.0, 0.0],
        [-0.0, 5.3155021, -0.0],
        [0.0, -0.0, 19.84646626]
      ],
      "pbc": [true, true, true],
      "a": 5.3155021,
      "b": 5.3155021,
      "c": 19.84646626,
      "alpha": 90.0,
      "beta": 90.0,
      "gamma": 90.0,
      "volume": 560.7532228378684
    },
    "properties": {},
    "sites": [
      {
        "species": [{ "element": "Cd", "occu": 1 }],
        "abc": [0.346543799999999, 0.87303577, 0.45164808],
        "properties": { "magmom": 0.0 },
        "label": "Cd",
        "xyz": [1.8420542966419746, 4.640623468810117, 8.96361838111378]
      },
      {
        "species": [{ "element": "Cd", "occu": 1 }],
        "abc": [0.653456199999999, 0.12696423, 0.95164808],
        "properties": { "magmom": 0.0 },
        "label": "Cd",
        "xyz": [3.473447803358015, 0.674878631189883, 18.88685151111378]
      },
      {
        "species": [{ "element": "Cd", "occu": 1 }],
        "abc": [0.87303577, 0.346543799999999, 0.54835192],
        "properties": { "magmom": 0.0 },
        "label": "Cd",
        "xyz": [4.640623468810117, 1.8420542966419746, 10.882847878886219]
      },
      {
        "species": [{ "element": "Cd", "occu": 1 }],
        "abc": [0.37303577, 0.1534562, 0.70164808],
        "properties": { "magmom": 0.0 },
        "label": "Cd",
        "xyz": [1.9828724188101168, 0.8156967533580199, 13.92523494611378]
      },
      {
        "species": [{ "element": "Cd", "occu": 1 }],
        "abc": [0.62696423, 0.8465438, 0.20164808],
        "properties": { "magmom": 0.0 },
        "label": "Cd",
        "xyz": [3.332629681189883, 4.499805346641979, 4.002001816113781]
      },
      {
        "species": [{ "element": "Cd", "occu": 1 }],
        "abc": [0.1534562, 0.37303577, 0.29835192],
        "properties": { "magmom": 0.0 },
        "label": "Cd",
        "xyz": [0.8156967533580199, 1.9828724188101168, 5.921231313886219]
      },
      {
        "species": [{ "element": "Cd", "occu": 1 }],
        "abc": [0.8465438, 0.62696423, 0.79835192],
        "properties": { "magmom": 0.0 },
        "label": "Cd",
        "xyz": [4.499805346641979, 3.332629681189883, 15.844464443886219]
      },
      {
        "species": [{ "element": "Cd", "occu": 1 }],
        "abc": [0.12696423, 0.653456199999999, 0.04835192],
        "properties": { "magmom": 0.0 },
        "label": "Cd",
        "xyz": [0.674878631189883, 3.473447803358015, 0.9596147488862192]
      },
      {
        "species": [{ "element": "P", "occu": 1 }],
        "abc": [0.5242504, 0.51974515, 0.37404772000000003],
        "properties": { "magmom": 0.0 },
        "label": "P",
        "xyz": [2.7866541021258397, 2.762706436289815, 7.423525454609928]
      },
      {
        "species": [{ "element": "P", "occu": 1 }],
        "abc": [0.4757496, 0.48025485, 0.87404772],
        "properties": { "magmom": 0.0 },
        "label": "P",
        "xyz": [2.52884799787416, 2.5527956637101847, 17.346758584609926]
      },
      {
        "species": [{ "element": "P", "occu": 1 }],
        "abc": [0.51974515, 0.5242504, 0.62595228],
        "properties": { "magmom": 0.0 },
        "label": "P",
        "xyz": [2.762706436289815, 2.7866541021258397, 12.422940805390073]
      },
      {
        "species": [{ "element": "P", "occu": 1 }],
        "abc": [0.01974515, 0.9757496, 0.62404772],
        "properties": { "magmom": 0.0 },
        "label": "P",
        "xyz": [0.10495538628981499, 5.18659904787416, 12.385142019609926]
      },
      {
        "species": [{ "element": "P", "occu": 1 }],
        "abc": [0.98025485, 0.0242504, 0.12404772],
        "properties": { "magmom": 0.0 },
        "label": "P",
        "xyz": [5.210546713710185, 0.12890305212584, 2.4619088896099273]
      },
      {
        "species": [{ "element": "P", "occu": 1 }],
        "abc": [0.9757496, 0.01974515, 0.37595228],
        "properties": { "magmom": 0.0 },
        "label": "P",
        "xyz": [5.18659904787416, 0.10495538628981499, 7.4613242403900735]
      },
      {
        "species": [{ "element": "P", "occu": 1 }],
        "abc": [0.0242504, 0.98025485, 0.87595228],
        "properties": { "magmom": 0.0 },
        "label": "P",
        "xyz": [0.12890305212584, 5.210546713710185, 17.384557370390073]
      },
      {
        "species": [{ "element": "P", "occu": 1 }],
        "abc": [0.48025485, 0.4757496, 0.12595228],
        "properties": { "magmom": 0.0 },
        "label": "P",
        "xyz": [2.5527956637101847, 2.52884799787416, 2.4997076753900727]
      },
      {
        "species": [{ "element": "P", "occu": 1 }],
        "abc": [0.78580675, 0.30752234, 0.06546578],
        "properties": { "magmom": -0.0 },
        "label": "P",
        "xyz": [4.176957429819175, 1.6346356440669139, 1.2992643939545827]
      },
      {
        "species": [{ "element": "P", "occu": 1 }],
        "abc": [0.19247766, 0.28580675, 0.81546578],
        "properties": { "magmom": -0.0 },
        "label": "P",
        "xyz": [1.023115405933086, 1.5192063798191748, 16.184114088954583]
      },
      {
        "species": [{ "element": "P", "occu": 1 }],
        "abc": [0.80752234, 0.71419325, 0.31546578000000003],
        "properties": { "magmom": -0.0 },
        "label": "P",
        "xyz": [4.292386694066914, 3.796295720180825, 6.2608809589545835]
      },
      {
        "species": [{ "element": "P", "occu": 1 }],
        "abc": [0.28580675, 0.19247766, 0.18453422],
        "properties": { "magmom": -0.0 },
        "label": "P",
        "xyz": [1.5192063798191748, 1.023115405933086, 3.662352171045417]
      },
      {
        "species": [{ "element": "P", "occu": 1 }],
        "abc": [0.71419325, 0.80752234, 0.68453422],
        "properties": { "magmom": -0.0 },
        "label": "P",
        "xyz": [3.796295720180825, 4.292386694066914, 13.585585301045416]
      },
      {
        "species": [{ "element": "P", "occu": 1 }],
        "abc": [0.21419325, 0.69247766, 0.56546578],
        "properties": { "magmom": -0.0 },
        "label": "P",
        "xyz": [1.138544670180825, 3.680866455933086, 11.222497523954583]
      },
      {
        "species": [{ "element": "P", "occu": 1 }],
        "abc": [0.30752234, 0.78580675, 0.93453422],
        "properties": { "magmom": -0.0 },
        "label": "P",
        "xyz": [1.6346356440669139, 4.176957429819175, 18.547201866045416]
      },
      {
        "species": [{ "element": "P", "occu": 1 }],
        "abc": [0.69247766, 0.21419325, 0.43453422],
        "properties": { "magmom": -0.0 },
        "label": "P",
        "xyz": [3.680866455933086, 1.138544670180825, 8.623968736045418]
      }
    ]
  },
  "task_ids": null,
  "uncorrected_energy_per_atom": null,
  "energy_per_atom": -12.884366167083334,
  "formation_energy_per_atom": -0.181319395734126,
  "energy_above_hull": 0.0,
  "is_stable": true,
  "equilibrium_reaction_energy_per_atom": null,
  "decomposes_to": null,
  "xas": null,
  "grain_boundaries": null,
  "band_gap": 1.4556,
  "cbm": null,
  "vbm": null,
  "efermi": 2.87265022,
  "is_gap_direct": null,
  "is_metal": null,
  "es_source_calc_id": null,
  "bandstructure": null,
  "dos": null,
  "dos_energy_up": null,
  "dos_energy_down": null,
  "is_magnetic": null,
  "ordering": null,
  "total_magnetization": 0.0,
  "total_magnetization_normalized_vol": null,
  "total_magnetization_normalized_formula_units": null,
  "num_magnetic_sites": null,
  "num_unique_magnetic_sites": null,
  "types_of_magnetic_species": null,
  "bulk_modulus": null,
  "shear_modulus": null,
  "universal_anisotropy": null,
  "homogeneous_poisson": null,
  "e_total": null,
  "e_ionic": null,
  "e_electronic": null,
  "n": null,
  "e_ij_max": null,
  "weighted_surface_energy_EV_PER_ANG2": null,
  "weighted_surface_energy": null,
  "weighted_work_function": null,
  "surface_anisotropy": null,
  "shape_factor": null,
  "has_reconstructed": null,
  "possible_species": null,
  "has_props": null,
  "theoretical": null,
  "database_IDs": null,
  "fields_not_requested": [
    "builder_meta",
    "nsites",
    "elements",
    "nelements",
    "composition",
    "composition_reduced",
    "chemsys",
    "symmetry",
    "property_name",
    "deprecated",
    "deprecation_reasons",
    "last_updated",
    "origins",
    "warnings",
    "task_ids",
    "uncorrected_energy_per_atom",
    "equilibrium_reaction_energy_per_atom",
    "decomposes_to",
    "xas",
    "grain_boundaries",
    "cbm",
    "vbm",
    "is_gap_direct",
    "is_metal",
    "es_source_calc_id",
    "bandstructure",
    "dos",
    "dos_energy_up",
    "dos_energy_down",
    "is_magnetic",
    "ordering",
    "total_magnetization_normalized_vol",
    "total_magnetization_normalized_formula_units",
    "num_magnetic_sites",
    "num_unique_magnetic_sites",
    "types_of_magnetic_species",
    "bulk_modulus",
    "shear_modulus",
    "universal_anisotropy",
    "homogeneous_poisson",
    "e_total",
    "e_ionic",
    "e_electronic",
    "n",
    "e_ij_max",
    "weighted_surface_energy_EV_PER_ANG2",
    "weighted_surface_energy",
    "weighted_work_function",
    "surface_anisotropy",
    "shape_factor",
    "has_reconstructed",
    "possible_species",
    "has_props",
    "theoretical",
    "database_IDs"
  ]
}
