{"builder_meta": null, "nsites": null, "elements": null, "nelements": null, "composition": null, "composition_reduced": null, "formula_pretty": "CdP4", "formula_anonymous": "AB4", "chemsys": null, "volume": 206.57294924246142, "density": 3.7990978568765783, "density_atomic": 20.65729492424614, "symmetry": null, "property_name": null, "material_id": "mp-7904", "deprecated": null, "deprecation_reasons": null, "last_updated": null, "origins": null, "warnings": null, "structure": {"@module": "pymatgen.core.structure", "@class": "Structure", "charge": 0, "lattice": {"matrix": [[5.17206495, 0.0, 0.0], [0.0, 5.21931584, -0.8576497], [0.0, 0.01159272, 7.65046402]], "pbc": [true, true, true], "a": 5.17206495, "b": 5.289311944438992, "c": 7.650472803197954, "alpha": 99.24475770312154, "beta": 90.0, "gamma": 90.0, "volume": 206.57294924246142}, "properties": {}, "sites": [{"species": [{"element": "Cd", "occu": 1}], "abc": [0.5, -0.0, 0.5], "properties": {"magmom": -0.0}, "label": "Cd", "xyz": [2.586032475, 0.00579636, 3.82523201]}, {"species": [{"element": "Cd", "occu": 1}], "abc": [0.0, -0.0, -0.0], "properties": {"magmom": -0.0}, "label": "Cd", "xyz": [0.0, 0.0, 0.0]}, {"species": [{"element": "P", "occu": 1}], "abc": [0.60127637, 0.6000231500000001, 0.8992315], "properties": {"magmom": -0.0}, "label": "P", "xyz": [3.109840438540232, 3.1421348701563763, 6.364928561810075]}, {"species": [{"element": "P", "occu": 1}], "abc": [0.10127637, 0.39997685, 0.600768499999999], "properties": {"magmom": -0.0}, "label": "P", "xyz": [0.5238079635402315, 2.094570049843624, 4.253117768189918]}, {"species": [{"element": "P", "occu": 1}], "abc": [0.28937911, 0.73645077, 0.74753723], "properties": {"magmom": -0.0}, "label": "P", "xyz": [1.4966875520931946, 3.8524351590381625, 5.087389899770196]}, {"species": [{"element": "P", "occu": 1}], "abc": [0.78937911, 0.26354923, 0.7524627700000001], "properties": {"magmom": -0.0}, "label": "P", "xyz": [4.082720027093195, 1.3842697609618377, 5.530656430229805]}, {"species": [{"element": "P", "occu": 1}], "abc": [0.7106208900000001, 0.26354923, 0.25246277], "properties": {"magmom": -0.0}, "label": "P", "xyz": [3.675377397906806, 1.3784734009618378, 1.7054244202298046]}, {"species": [{"element": "P", "occu": 1}], "abc": [0.21062089, 0.73645077, 0.24753723], "properties": {"magmom": -0.0}, "label": "P", "xyz": [1.0893449229068055, 3.8466387990381627, 1.2621578897701955]}, {"species": [{"element": "P", "occu": 1}], "abc": [0.89872363, 0.6000231500000001, 0.399231499999999], "properties": {"magmom": -0.0}, "label": "P", "xyz": [4.648256986459769, 3.136338510156376, 2.5396965518100676]}, {"species": [{"element": "P", "occu": 1}], "abc": [0.39872363, 0.39997685, 0.1007685], "properties": {"magmom": -0.0}, "label": "P", "xyz": [2.0622245114597684, 2.0887736898436238, 0.427885758189925]}]}, "task_ids": null, "uncorrected_energy_per_atom": null, "energy_per_atom": -11.34340112, "formation_energy_per_atom": -0.120742532380951, "energy_above_hull": 0.0, "is_stable": true, "equilibrium_reaction_energy_per_atom": null, "decomposes_to": null, "xas": null, "grain_boundaries": null, "band_gap": 0.6551, "cbm": null, "vbm": null, "efermi": 5.06563875, "is_gap_direct": null, "is_metal": null, "es_source_calc_id": null, "bandstructure": null, "dos": null, "dos_energy_up": null, "dos_energy_down": null, "is_magnetic": null, "ordering": null, "total_magnetization": 0.0, "total_magnetization_normalized_vol": null, "total_magnetization_normalized_formula_units": null, "num_magnetic_sites": null, "num_unique_magnetic_sites": null, "types_of_magnetic_species": null, "bulk_modulus": null, "shear_modulus": null, "universal_anisotropy": null, "homogeneous_poisson": null, "e_total": null, "e_ionic": null, "e_electronic": null, "n": null, "e_ij_max": null, "weighted_surface_energy_EV_PER_ANG2": null, "weighted_surface_energy": null, "weighted_work_function": null, "surface_anisotropy": null, "shape_factor": null, "has_reconstructed": null, "possible_species": null, "has_props": null, "theoretical": null, "database_IDs": null, "fields_not_requested": ["builder_meta", "nsites", "elements", "nelements", "composition", "composition_reduced", "chemsys", "symmetry", "property_name", "deprecated", "deprecation_reasons", "last_updated", "origins", "warnings", "task_ids", "uncorrected_energy_per_atom", "equilibrium_reaction_energy_per_atom", "decomposes_to", "xas", "grain_boundaries", "cbm", "vbm", "is_gap_direct", "is_metal", "es_source_calc_id", "bandstructure", "dos", "dos_energy_up", "dos_energy_down", "is_magnetic", "ordering", "total_magnetization_normalized_vol", "total_magnetization_normalized_formula_units", "num_magnetic_sites", "num_unique_magnetic_sites", "types_of_magnetic_species", "bulk_modulus", "shear_modulus", "universal_anisotropy", "homogeneous_poisson", "e_total", "e_ionic", "e_electronic", "n", "e_ij_max", "weighted_surface_energy_EV_PER_ANG2", "weighted_surface_energy", "weighted_work_function", "surface_anisotropy", "shape_factor", "has_reconstructed", "possible_species", "has_props", "theoretical", "database_IDs"]}