{
  "builder_meta": null,
  "nsites": null,
  "elements": null,
  "nelements": null,
  "composition": null,
  "composition_reduced": null,
  "formula_pretty": "CdS",
  "formula_anonymous": "AB",
  "chemsys": null,
  "volume": 102.03892478274858,
  "density": 4.702284793707707,
  "density_atomic": 25.509731195687145,
  "symmetry": null,
  "property_name": null,
  "material_id": "mp-672",
  "deprecated": null,
  "deprecation_reasons": null,
  "last_updated": null,
  "origins": null,
  "warnings": null,
  "structure": {
    "@module": "pymatgen.core.structure",
    "@class": "Structure",
    "charge": 0,
    "lattice": {
      "matrix": [
        [4.16883814, 0.0, 0.0],
        [-2.08441907, 3.61031964, 0.0],
        [0.0, 0.0, 6.77961741]
      ],
      "pbc": [true, true, true],
      "a": 4.16883814,
      "b": 4.16883805902189,
      "c": 6.77961741,
      "alpha": 90.0,
      "beta": 90.0,
      "gamma": 120.00000064256139,
      "volume": 102.03892478274858
    },
    "properties": {},
    "sites": [
      {
        "species": [{ "element": "Cd", "occu": 1 }],
        "abc": [0.666667, 0.333333, 0.50022437],
        "properties": { "magmom": -0.0 },
        "label": "Cd",
        "xyz": [2.0844211544190703, 1.20343867656012, 3.3913298477582816]
      },
      {
        "species": [{ "element": "Cd", "occu": 1 }],
        "abc": [0.333333, 0.666667, 0.00022437],
        "properties": { "magmom": -0.0 },
        "label": "Cd",
        "xyz": [-2.0844190700142207e-6, 2.40688096343988, 0.0015211427582817]
      },
      {
        "species": [{ "element": "S", "occu": 1 }],
        "abc": [0.666667, 0.333333, 0.87677563],
        "properties": { "magmom": 0.0 },
        "label": "S",
        "xyz": [2.0844211544190703, 1.20343867656012, 5.944203325811719]
      },
      {
        "species": [{ "element": "S", "occu": 1 }],
        "abc": [0.333333, 0.666667, 0.37677563000000003],
        "properties": { "magmom": 0.0 },
        "label": "S",
        "xyz": [-2.0844190700142207e-6, 2.40688096343988, 2.5543946208117188]
      }
    ]
  },
  "task_ids": null,
  "uncorrected_energy_per_atom": null,
  "energy_per_atom": -14.8461208475,
  "formation_energy_per_atom": -0.7761274614062491,
  "energy_above_hull": 0.0,
  "is_stable": true,
  "equilibrium_reaction_energy_per_atom": null,
  "decomposes_to": null,
  "xas": null,
  "grain_boundaries": null,
  "band_gap": 1.125,
  "cbm": null,
  "vbm": null,
  "efermi": 0.90711455,
  "is_gap_direct": null,
  "is_metal": null,
  "es_source_calc_id": null,
  "bandstructure": null,
  "dos": null,
  "dos_energy_up": null,
  "dos_energy_down": null,
  "is_magnetic": null,
  "ordering": null,
  "total_magnetization": 0.0,
  "total_magnetization_normalized_vol": null,
  "total_magnetization_normalized_formula_units": null,
  "num_magnetic_sites": null,
  "num_unique_magnetic_sites": null,
  "types_of_magnetic_species": null,
  "bulk_modulus": null,
  "shear_modulus": null,
  "universal_anisotropy": null,
  "homogeneous_poisson": null,
  "e_total": null,
  "e_ionic": null,
  "e_electronic": null,
  "n": null,
  "e_ij_max": null,
  "weighted_surface_energy_EV_PER_ANG2": null,
  "weighted_surface_energy": null,
  "weighted_work_function": null,
  "surface_anisotropy": null,
  "shape_factor": null,
  "has_reconstructed": null,
  "possible_species": null,
  "has_props": null,
  "theoretical": null,
  "database_IDs": null,
  "fields_not_requested": [
    "builder_meta",
    "nsites",
    "elements",
    "nelements",
    "composition",
    "composition_reduced",
    "chemsys",
    "symmetry",
    "property_name",
    "deprecated",
    "deprecation_reasons",
    "last_updated",
    "origins",
    "warnings",
    "task_ids",
    "uncorrected_energy_per_atom",
    "equilibrium_reaction_energy_per_atom",
    "decomposes_to",
    "xas",
    "grain_boundaries",
    "cbm",
    "vbm",
    "is_gap_direct",
    "is_metal",
    "es_source_calc_id",
    "bandstructure",
    "dos",
    "dos_energy_up",
    "dos_energy_down",
    "is_magnetic",
    "ordering",
    "total_magnetization_normalized_vol",
    "total_magnetization_normalized_formula_units",
    "num_magnetic_sites",
    "num_unique_magnetic_sites",
    "types_of_magnetic_species",
    "bulk_modulus",
    "shear_modulus",
    "universal_anisotropy",
    "homogeneous_poisson",
    "e_total",
    "e_ionic",
    "e_electronic",
    "n",
    "e_ij_max",
    "weighted_surface_energy_EV_PER_ANG2",
    "weighted_surface_energy",
    "weighted_work_function",
    "surface_anisotropy",
    "shape_factor",
    "has_reconstructed",
    "possible_species",
    "has_props",
    "theoretical",
    "database_IDs"
  ]
}
