{
  "builder_meta": null,
  "nsites": null,
  "elements": null,
  "nelements": null,
  "composition": null,
  "composition_reduced": null,
  "formula_pretty": "CdS2",
  "formula_anonymous": "AB2",
  "chemsys": null,
  "volume": 256.4655668126394,
  "density": 4.572204074019703,
  "density_atomic": 21.37213056771995,
  "symmetry": null,
  "property_name": null,
  "material_id": "mp-1095440",
  "deprecated": null,
  "deprecation_reasons": null,
  "last_updated": null,
  "origins": null,
  "warnings": null,
  "structure": {
    "@module": "pymatgen.core.structure",
    "@class": "Structure",
    "charge": 0,
    "lattice": {
      "matrix": [
        [6.35345105, -0.0, -0.0],
        [-0.0, 6.35345105, -0.0],
        [0.0, 0.0, 6.35345105]
      ],
      "pbc": [true, true, true],
      "a": 6.35345105,
      "b": 6.35345105,
      "c": 6.35345105,
      "alpha": 90.0,
      "beta": 90.0,
      "gamma": 90.0,
      "volume": 256.4655668126394
    },
    "properties": {},
    "sites": [
      {
        "species": [{ "element": "Cd", "occu": 1 }],
        "abc": [0.5, 0.5, 0.0],
        "properties": { "magmom": -0.0 },
        "label": "Cd",
        "xyz": [3.176725525, 3.176725525, 0.0]
      },
      {
        "species": [{ "element": "Cd", "occu": 1 }],
        "abc": [0.5, 0.0, 0.5],
        "properties": { "magmom": -0.0 },
        "label": "Cd",
        "xyz": [3.176725525, 0.0, 3.176725525]
      },
      {
        "species": [{ "element": "Cd", "occu": 1 }],
        "abc": [-0.0, 0.5, 0.5],
        "properties": { "magmom": -0.0 },
        "label": "Cd",
        "xyz": [0.0, 3.176725525, 3.176725525]
      },
      {
        "species": [{ "element": "Cd", "occu": 1 }],
        "abc": [-0.0, 0.0, 0.0],
        "properties": { "magmom": -0.0 },
        "label": "Cd",
        "xyz": [0.0, 0.0, 0.0]
      },
      {
        "species": [{ "element": "S", "occu": 1 }],
        "abc": [0.09419376, 0.90580624, 0.40580624],
        "properties": { "magmom": 0.0 },
        "label": "S",
        "xyz": [0.5984554433754481, 5.7549956066245525, 2.578270081624552]
      },
      {
        "species": [{ "element": "S", "occu": 1 }],
        "abc": [0.90580624, 0.40580624, 0.09419376],
        "properties": { "magmom": 0.0 },
        "label": "S",
        "xyz": [5.7549956066245525, 2.578270081624552, 0.5984554433754481]
      },
      {
        "species": [{ "element": "S", "occu": 1 }],
        "abc": [0.40580624, 0.09419376, 0.90580624],
        "properties": { "magmom": 0.0 },
        "label": "S",
        "xyz": [2.578270081624552, 0.5984554433754481, 5.7549956066245525]
      },
      {
        "species": [{ "element": "S", "occu": 1 }],
        "abc": [0.59419376, 0.59419376, 0.59419376],
        "properties": { "magmom": 0.0 },
        "label": "S",
        "xyz": [3.7751809683754485, 3.7751809683754485, 3.7751809683754485]
      },
      {
        "species": [{ "element": "S", "occu": 1 }],
        "abc": [0.90580624, 0.09419376, 0.59419376],
        "properties": { "magmom": 0.0 },
        "label": "S",
        "xyz": [5.7549956066245525, 0.5984554433754481, 3.7751809683754485]
      },
      {
        "species": [{ "element": "S", "occu": 1 }],
        "abc": [0.09419376, 0.59419376, 0.90580624],
        "properties": { "magmom": 0.0 },
        "label": "S",
        "xyz": [0.5984554433754481, 3.7751809683754485, 5.7549956066245525]
      },
      {
        "species": [{ "element": "S", "occu": 1 }],
        "abc": [0.59419376, 0.90580624, 0.09419376],
        "properties": { "magmom": 0.0 },
        "label": "S",
        "xyz": [3.7751809683754485, 5.7549956066245525, 0.5984554433754481]
      },
      {
        "species": [{ "element": "S", "occu": 1 }],
        "abc": [0.40580624, 0.40580624, 0.40580624],
        "properties": { "magmom": 0.0 },
        "label": "S",
        "xyz": [2.578270081624552, 2.578270081624552, 2.578270081624552]
      }
    ]
  },
  "task_ids": null,
  "uncorrected_energy_per_atom": null,
  "energy_per_atom": -12.524659573333333,
  "formation_energy_per_atom": -0.466330955208332,
  "energy_above_hull": 0.051087352395835006,
  "is_stable": false,
  "equilibrium_reaction_energy_per_atom": null,
  "decomposes_to": null,
  "xas": null,
  "grain_boundaries": null,
  "band_gap": 1.1625,
  "cbm": null,
  "vbm": null,
  "efermi": 3.54424209,
  "is_gap_direct": null,
  "is_metal": null,
  "es_source_calc_id": null,
  "bandstructure": null,
  "dos": null,
  "dos_energy_up": null,
  "dos_energy_down": null,
  "is_magnetic": null,
  "ordering": null,
  "total_magnetization": 0.0,
  "total_magnetization_normalized_vol": null,
  "total_magnetization_normalized_formula_units": null,
  "num_magnetic_sites": null,
  "num_unique_magnetic_sites": null,
  "types_of_magnetic_species": null,
  "bulk_modulus": null,
  "shear_modulus": null,
  "universal_anisotropy": null,
  "homogeneous_poisson": null,
  "e_total": null,
  "e_ionic": null,
  "e_electronic": null,
  "n": null,
  "e_ij_max": null,
  "weighted_surface_energy_EV_PER_ANG2": null,
  "weighted_surface_energy": null,
  "weighted_work_function": null,
  "surface_anisotropy": null,
  "shape_factor": null,
  "has_reconstructed": null,
  "possible_species": null,
  "has_props": null,
  "theoretical": null,
  "database_IDs": null,
  "fields_not_requested": [
    "builder_meta",
    "nsites",
    "elements",
    "nelements",
    "composition",
    "composition_reduced",
    "chemsys",
    "symmetry",
    "property_name",
    "deprecated",
    "deprecation_reasons",
    "last_updated",
    "origins",
    "warnings",
    "task_ids",
    "uncorrected_energy_per_atom",
    "equilibrium_reaction_energy_per_atom",
    "decomposes_to",
    "xas",
    "grain_boundaries",
    "cbm",
    "vbm",
    "is_gap_direct",
    "is_metal",
    "es_source_calc_id",
    "bandstructure",
    "dos",
    "dos_energy_up",
    "dos_energy_down",
    "is_magnetic",
    "ordering",
    "total_magnetization_normalized_vol",
    "total_magnetization_normalized_formula_units",
    "num_magnetic_sites",
    "num_unique_magnetic_sites",
    "types_of_magnetic_species",
    "bulk_modulus",
    "shear_modulus",
    "universal_anisotropy",
    "homogeneous_poisson",
    "e_total",
    "e_ionic",
    "e_electronic",
    "n",
    "e_ij_max",
    "weighted_surface_energy_EV_PER_ANG2",
    "weighted_surface_energy",
    "weighted_work_function",
    "surface_anisotropy",
    "shape_factor",
    "has_reconstructed",
    "possible_species",
    "has_props",
    "theoretical",
    "database_IDs"
  ]
}
