{
  "builder_meta": null,
  "nsites": null,
  "elements": null,
  "nelements": null,
  "composition": null,
  "composition_reduced": null,
  "formula_pretty": "CdSb",
  "formula_anonymous": "AB",
  "chemsys": null,
  "volume": 471.39929543536505,
  "density": 6.599078064478864,
  "density_atomic": 29.462455964710315,
  "symmetry": null,
  "property_name": null,
  "material_id": "mp-1321",
  "deprecated": null,
  "deprecation_reasons": null,
  "last_updated": null,
  "origins": null,
  "warnings": null,
  "structure": {
    "@module": "pymatgen.core.structure",
    "@class": "Structure",
    "charge": 0,
    "lattice": {
      "matrix": [
        [8.33310615, 0.0, -0.0],
        [0.0, 8.64824985, 0.0],
        [0.0, 0.0, 6.54114516]
      ],
      "pbc": [true, true, true],
      "a": 8.33310615,
      "b": 8.64824985,
      "c": 6.54114516,
      "alpha": 90.0,
      "beta": 90.0,
      "gamma": 90.0,
      "volume": 471.39929543536505
    },
    "properties": {},
    "sites": [
      {
        "species": [{ "element": "Cd", "occu": 1 }],
        "abc": [0.38069125, 0.13458219, 0.95252694],
        "properties": { "magmom": -0.0 },
        "label": "Cd",
        "xyz": [3.1723405966261877, 1.1639004044801713, 6.230616983350611]
      },
      {
        "species": [{ "element": "Cd", "occu": 1 }],
        "abc": [0.88069125, 0.36541781, 0.047473060000000004],
        "properties": { "magmom": -0.0 },
        "label": "Cd",
        "xyz": [7.338893671626188, 3.160224520519828, 0.31052817664938964]
      },
      {
        "species": [{ "element": "Cd", "occu": 1 }],
        "abc": [0.61930875, 0.63458219, 0.5474730600000001],
        "properties": { "magmom": -0.0 },
        "label": "Cd",
        "xyz": [5.160765553373813, 5.4880253294801715, 3.58110075664939]
      },
      {
        "species": [{ "element": "Cd", "occu": 1 }],
        "abc": [0.11930875, 0.8654178100000001, 0.45252694],
        "properties": { "magmom": -0.0 },
        "label": "Cd",
        "xyz": [0.9942124783738127, 7.484349445519828, 2.9600444033506106]
      },
      {
        "species": [{ "element": "Cd", "occu": 1 }],
        "abc": [0.61930875, 0.8654178100000001, 0.047473060000000004],
        "properties": { "magmom": -0.0 },
        "label": "Cd",
        "xyz": [5.160765553373813, 7.484349445519828, 0.31052817664938964]
      },
      {
        "species": [{ "element": "Cd", "occu": 1 }],
        "abc": [0.11930875, 0.63458219, 0.95252694],
        "properties": { "magmom": -0.0 },
        "label": "Cd",
        "xyz": [0.9942124783738127, 5.4880253294801715, 6.230616983350611]
      },
      {
        "species": [{ "element": "Cd", "occu": 1 }],
        "abc": [0.38069125, 0.36541781, 0.45252694],
        "properties": { "magmom": -0.0 },
        "label": "Cd",
        "xyz": [3.1723405966261877, 3.160224520519828, 2.9600444033506106]
      },
      {
        "species": [{ "element": "Cd", "occu": 1 }],
        "abc": [0.88069125, 0.13458219, 0.5474730600000001],
        "properties": { "magmom": -0.0 },
        "label": "Cd",
        "xyz": [7.338893671626188, 1.1639004044801713, 3.58110075664939]
      },
      {
        "species": [{ "element": "Sb", "occu": 1 }],
        "abc": [0.07515966, 0.10230026, 0.13868721],
        "properties": { "magmom": 0.0 },
        "label": "Sb",
        "xyz": [0.6263134249779091, 0.8847182081999609, 0.9071731724454036]
      },
      {
        "species": [{ "element": "Sb", "occu": 1 }],
        "abc": [0.57515966, 0.39769974, 0.86131279],
        "properties": { "magmom": 0.0 },
        "label": "Sb",
        "xyz": [4.792866499977909, 3.439406716800039, 5.633971987554597]
      },
      {
        "species": [{ "element": "Sb", "occu": 1 }],
        "abc": [0.92484034, 0.60230026, 0.36131279],
        "properties": { "magmom": 0.0 },
        "label": "Sb",
        "xyz": [7.706792725022092, 5.208843133199961, 2.3633994075545965]
      },
      {
        "species": [{ "element": "Sb", "occu": 1 }],
        "abc": [0.42484034, 0.89769974, 0.6386872100000001],
        "properties": { "magmom": 0.0 },
        "label": "Sb",
        "xyz": [3.5402396500220914, 7.7635316418000375, 4.1777457524454045]
      },
      {
        "species": [{ "element": "Sb", "occu": 1 }],
        "abc": [0.92484034, 0.89769974, 0.86131279],
        "properties": { "magmom": 0.0 },
        "label": "Sb",
        "xyz": [7.706792725022092, 7.7635316418000375, 5.633971987554597]
      },
      {
        "species": [{ "element": "Sb", "occu": 1 }],
        "abc": [0.42484034, 0.60230026, 0.13868721],
        "properties": { "magmom": 0.0 },
        "label": "Sb",
        "xyz": [3.5402396500220914, 5.208843133199961, 0.9071731724454036]
      },
      {
        "species": [{ "element": "Sb", "occu": 1 }],
        "abc": [0.07515966, 0.39769974, 0.6386872100000001],
        "properties": { "magmom": 0.0 },
        "label": "Sb",
        "xyz": [0.6263134249779091, 3.439406716800039, 4.1777457524454045]
      },
      {
        "species": [{ "element": "Sb", "occu": 1 }],
        "abc": [0.57515966, 0.10230026, 0.36131279],
        "properties": { "magmom": 0.0 },
        "label": "Sb",
        "xyz": [4.792866499977909, 0.8847182081999609, 2.3633994075545965]
      }
    ]
  },
  "task_ids": null,
  "uncorrected_energy_per_atom": null,
  "energy_per_atom": -23.001521559375,
  "formation_energy_per_atom": -0.09586984937499901,
  "energy_above_hull": 0.0,
  "is_stable": true,
  "equilibrium_reaction_energy_per_atom": null,
  "decomposes_to": null,
  "xas": null,
  "grain_boundaries": null,
  "band_gap": 0.020099999999999,
  "cbm": null,
  "vbm": null,
  "efermi": 3.82295437,
  "is_gap_direct": null,
  "is_metal": null,
  "es_source_calc_id": null,
  "bandstructure": null,
  "dos": null,
  "dos_energy_up": null,
  "dos_energy_down": null,
  "is_magnetic": null,
  "ordering": null,
  "total_magnetization": 0.0,
  "total_magnetization_normalized_vol": null,
  "total_magnetization_normalized_formula_units": null,
  "num_magnetic_sites": null,
  "num_unique_magnetic_sites": null,
  "types_of_magnetic_species": null,
  "bulk_modulus": null,
  "shear_modulus": null,
  "universal_anisotropy": null,
  "homogeneous_poisson": null,
  "e_total": null,
  "e_ionic": null,
  "e_electronic": null,
  "n": null,
  "e_ij_max": null,
  "weighted_surface_energy_EV_PER_ANG2": null,
  "weighted_surface_energy": null,
  "weighted_work_function": null,
  "surface_anisotropy": null,
  "shape_factor": null,
  "has_reconstructed": null,
  "possible_species": null,
  "has_props": null,
  "theoretical": null,
  "database_IDs": null,
  "fields_not_requested": [
    "builder_meta",
    "nsites",
    "elements",
    "nelements",
    "composition",
    "composition_reduced",
    "chemsys",
    "symmetry",
    "property_name",
    "deprecated",
    "deprecation_reasons",
    "last_updated",
    "origins",
    "warnings",
    "task_ids",
    "uncorrected_energy_per_atom",
    "equilibrium_reaction_energy_per_atom",
    "decomposes_to",
    "xas",
    "grain_boundaries",
    "cbm",
    "vbm",
    "is_gap_direct",
    "is_metal",
    "es_source_calc_id",
    "bandstructure",
    "dos",
    "dos_energy_up",
    "dos_energy_down",
    "is_magnetic",
    "ordering",
    "total_magnetization_normalized_vol",
    "total_magnetization_normalized_formula_units",
    "num_magnetic_sites",
    "num_unique_magnetic_sites",
    "types_of_magnetic_species",
    "bulk_modulus",
    "shear_modulus",
    "universal_anisotropy",
    "homogeneous_poisson",
    "e_total",
    "e_ionic",
    "e_electronic",
    "n",
    "e_ij_max",
    "weighted_surface_energy_EV_PER_ANG2",
    "weighted_surface_energy",
    "weighted_work_function",
    "surface_anisotropy",
    "shape_factor",
    "has_reconstructed",
    "possible_species",
    "has_props",
    "theoretical",
    "database_IDs"
  ]
}
