{"builder_meta": null, "nsites": null, "elements": null, "nelements": null, "composition": null, "composition_reduced": null, "formula_pretty": "CdSb3", "formula_anonymous": "AB3", "chemsys": null, "volume": 215.40526312743947, "density": 7.364950658554038, "density_atomic": 26.925657890929934, "symmetry": null, "property_name": null, "material_id": "mp-1183739", "deprecated": null, "deprecation_reasons": null, "last_updated": null, "origins": null, "warnings": null, "structure": {"@module": "pymatgen.core.structure", "@class": "Structure", "charge": 0, "lattice": {"matrix": [[3.296817, -5.710255, 0.0], [3.296817, 5.710255, 0.0], [0.0, 0.0, 5.7210529999999995]], "pbc": [true, true, true], "a": 6.593634392087114, "b": 6.593634392087114, "c": 5.7210529999999995, "alpha": 90.0, "beta": 90.0, "gamma": 120.00000393413904, "volume": 215.4052631274394}, "properties": {}, "sites": [{"species": [{"element": "Cd", "occu": 1}], "abc": [0.333333, 0.666667, 0.75], "properties": {"magmom": -0.0}, "label": "Cd", "xyz": [3.296817, 1.90342214017, 4.29078975]}, {"species": [{"element": "Cd", "occu": 1}], "abc": [0.666667, 0.333333, 0.25], "properties": {"magmom": -0.0}, "label": "Cd", "xyz": [3.296817, -1.90342214017, 1.4302632499999999]}, {"species": [{"element": "Sb", "occu": 1}], "abc": [0.171423, 0.342845, 0.25], "properties": {"magmom": 0.0}, "label": "Sb", "xyz": [1.695447484956, 0.97886333261, 1.4302632499999999]}, {"species": [{"element": "Sb", "occu": 1}], "abc": [0.657154999999999, 0.828577, 0.25], "properties": {"magmom": 0.0}, "label": "Sb", "xyz": [4.898186515043997, 0.9788633326100054, 1.4302632499999999]}, {"species": [{"element": "Sb", "occu": 1}], "abc": [0.171423, 0.828577, 0.25], "properties": {"magmom": 0.0}, "label": "Sb", "xyz": [3.296817, 3.75251691427, 1.4302632499999999]}, {"species": [{"element": "Sb", "occu": 1}], "abc": [0.828577, 0.657154999999999, 0.75], "properties": {"magmom": 0.0}, "label": "Sb", "xyz": [4.898186515043997, -0.9788633326100054, 4.29078975]}, {"species": [{"element": "Sb", "occu": 1}], "abc": [0.342845, 0.171423, 0.75], "properties": {"magmom": 0.0}, "label": "Sb", "xyz": [1.695447484956, -0.97886333261, 4.29078975]}, {"species": [{"element": "Sb", "occu": 1}], "abc": [0.828577, 0.171423, 0.75], "properties": {"magmom": 0.0}, "label": "Sb", "xyz": [3.296817, -3.75251691427, 4.29078975]}]}, "task_ids": null, "uncorrected_energy_per_atom": null, "energy_per_atom": -24.077985497812502, "formation_energy_per_atom": 0.22799822218749802, "energy_above_hull": 0.27593314687499704, "is_stable": false, "equilibrium_reaction_energy_per_atom": null, "decomposes_to": null, "xas": null, "grain_boundaries": null, "band_gap": 0.0, "cbm": null, "vbm": null, "efermi": 6.88387738, "is_gap_direct": null, "is_metal": null, "es_source_calc_id": null, "bandstructure": null, "dos": null, "dos_energy_up": null, "dos_energy_down": null, "is_magnetic": null, "ordering": null, "total_magnetization": 0.0027903, "total_magnetization_normalized_vol": null, "total_magnetization_normalized_formula_units": null, "num_magnetic_sites": null, "num_unique_magnetic_sites": null, "types_of_magnetic_species": null, "bulk_modulus": null, "shear_modulus": null, "universal_anisotropy": null, "homogeneous_poisson": null, "e_total": null, "e_ionic": null, "e_electronic": null, "n": null, "e_ij_max": null, "weighted_surface_energy_EV_PER_ANG2": null, "weighted_surface_energy": null, "weighted_work_function": null, "surface_anisotropy": null, "shape_factor": null, "has_reconstructed": null, "possible_species": null, "has_props": null, "theoretical": null, "database_IDs": null, "fields_not_requested": ["builder_meta", "nsites", "elements", "nelements", "composition", "composition_reduced", "chemsys", "symmetry", "property_name", "deprecated", "deprecation_reasons", "last_updated", "origins", "warnings", "task_ids", "uncorrected_energy_per_atom", "equilibrium_reaction_energy_per_atom", "decomposes_to", "xas", "grain_boundaries", "cbm", "vbm", "is_gap_direct", "is_metal", "es_source_calc_id", "bandstructure", "dos", "dos_energy_up", "dos_energy_down", "is_magnetic", "ordering", "total_magnetization_normalized_vol", "total_magnetization_normalized_formula_units", "num_magnetic_sites", "num_unique_magnetic_sites", "types_of_magnetic_species", "bulk_modulus", "shear_modulus", "universal_anisotropy", "homogeneous_poisson", "e_total", "e_ionic", "e_electronic", "n", "e_ij_max", "weighted_surface_energy_EV_PER_ANG2", "weighted_surface_energy", "weighted_work_function", "surface_anisotropy", "shape_factor", "has_reconstructed", "possible_species", "has_props", "theoretical", "database_IDs"]}