{"builder_meta": null, "nsites": null, "elements": null, "nelements": null, "composition": null, "composition_reduced": null, "formula_pretty": "CdSe2", "formula_anonymous": "AB2", "chemsys": null, "volume": 307.12565988219865, "density": 5.846404192801385, "density_atomic": 25.59380499018322, "symmetry": null, "property_name": null, "material_id": "mp-1095493", "deprecated": null, "deprecation_reasons": null, "last_updated": null, "origins": null, "warnings": null, "structure": {"@module": "pymatgen.core.structure", "@class": "Structure", "charge": 0, "lattice": {"matrix": [[6.746917, 0.0, 0.0], [0.0, 6.746917, 0.0], [0.0, 0.0, 6.746917]], "pbc": [true, true, true], "a": 6.746917, "b": 6.746917, "c": 6.746917, "alpha": 90.0, "beta": 90.0, "gamma": 90.0, "volume": 307.12565988219865}, "properties": {}, "sites": [{"species": [{"element": "Cd", "occu": 1}], "abc": [0.5, 0.5, 0.0], "properties": {"magmom": -0.0}, "label": "Cd", "xyz": [3.3734585, 3.3734585, 0.0]}, {"species": [{"element": "Cd", "occu": 1}], "abc": [0.5, 0.0, 0.5], "properties": {"magmom": -0.0}, "label": "Cd", "xyz": [3.3734585, 0.0, 3.3734585]}, {"species": [{"element": "Cd", "occu": 1}], "abc": [0.0, 0.5, 0.5], "properties": {"magmom": -0.0}, "label": "Cd", "xyz": [0.0, 3.3734585, 3.3734585]}, {"species": [{"element": "Cd", "occu": 1}], "abc": [0.0, 0.0, 0.0], "properties": {"magmom": -0.0}, "label": "Cd", "xyz": [0.0, 0.0, 0.0]}, {"species": [{"element": "Se", "occu": 1}], "abc": [0.102522, 0.897478, 0.397478], "properties": {"magmom": 0.0}, "label": "Se", "xyz": [0.691707424674, 6.055209575326, 2.681751075326]}, {"species": [{"element": "Se", "occu": 1}], "abc": [0.897478, 0.397478, 0.102522], "properties": {"magmom": 0.0}, "label": "Se", "xyz": [6.055209575326, 2.681751075326, 0.691707424674]}, {"species": [{"element": "Se", "occu": 1}], "abc": [0.397478, 0.102522, 0.897478], "properties": {"magmom": 0.0}, "label": "Se", "xyz": [2.681751075326, 0.691707424674, 6.055209575326]}, {"species": [{"element": "Se", "occu": 1}], "abc": [0.602522, 0.602522, 0.602522], "properties": {"magmom": 0.0}, "label": "Se", "xyz": [4.065165924674, 4.065165924674, 4.065165924674]}, {"species": [{"element": "Se", "occu": 1}], "abc": [0.897478, 0.102522, 0.602522], "properties": {"magmom": 0.0}, "label": "Se", "xyz": [6.055209575326, 0.691707424674, 4.065165924674]}, {"species": [{"element": "Se", "occu": 1}], "abc": [0.102522, 0.602522, 0.897478], "properties": {"magmom": 0.0}, "label": "Se", "xyz": [0.691707424674, 4.065165924674, 6.055209575326]}, {"species": [{"element": "Se", "occu": 1}], "abc": [0.602522, 0.897478, 0.102522], "properties": {"magmom": 0.0}, "label": "Se", "xyz": [4.065165924674, 6.055209575326, 0.691707424674]}, {"species": [{"element": "Se", "occu": 1}], "abc": [0.397478, 0.397478, 0.397478], "properties": {"magmom": 0.0}, "label": "Se", "xyz": [2.681751075326, 2.681751075326, 2.681751075326]}]}, "task_ids": null, "uncorrected_energy_per_atom": null, "energy_per_atom": -3.285896419166667, "formation_energy_per_atom": -0.635285370729166, "energy_above_hull": 0.0, "is_stable": true, "equilibrium_reaction_energy_per_atom": null, "decomposes_to": null, "xas": null, "grain_boundaries": null, "band_gap": 0.6141999999999991, "cbm": null, "vbm": null, "efermi": 2.7812826, "is_gap_direct": null, "is_metal": null, "es_source_calc_id": null, "bandstructure": null, "dos": null, "dos_energy_up": null, "dos_energy_down": null, "is_magnetic": null, "ordering": null, "total_magnetization": 2.1800000000000005e-05, "total_magnetization_normalized_vol": null, "total_magnetization_normalized_formula_units": null, "num_magnetic_sites": null, "num_unique_magnetic_sites": null, "types_of_magnetic_species": null, "bulk_modulus": null, "shear_modulus": null, "universal_anisotropy": null, "homogeneous_poisson": null, "e_total": null, "e_ionic": null, "e_electronic": null, "n": null, "e_ij_max": null, "weighted_surface_energy_EV_PER_ANG2": null, "weighted_surface_energy": null, "weighted_work_function": null, "surface_anisotropy": null, "shape_factor": null, "has_reconstructed": null, "possible_species": null, "has_props": null, "theoretical": null, "database_IDs": null, "fields_not_requested": ["builder_meta", "nsites", "elements", "nelements", "composition", "composition_reduced", "chemsys", "symmetry", "property_name", "deprecated", "deprecation_reasons", "last_updated", "origins", "warnings", "task_ids", "uncorrected_energy_per_atom", "equilibrium_reaction_energy_per_atom", "decomposes_to", "xas", "grain_boundaries", "cbm", "vbm", "is_gap_direct", "is_metal", "es_source_calc_id", "bandstructure", "dos", "dos_energy_up", "dos_energy_down", "is_magnetic", "ordering", "total_magnetization_normalized_vol", "total_magnetization_normalized_formula_units", "num_magnetic_sites", "num_unique_magnetic_sites", "types_of_magnetic_species", "bulk_modulus", "shear_modulus", "universal_anisotropy", "homogeneous_poisson", "e_total", "e_ionic", "e_electronic", "n", "e_ij_max", "weighted_surface_energy_EV_PER_ANG2", "weighted_surface_energy", "weighted_work_function", "surface_anisotropy", "shape_factor", "has_reconstructed", "possible_species", "has_props", "theoretical", "database_IDs"]}