{
  "builder_meta": null,
  "nsites": null,
  "elements": null,
  "nelements": null,
  "composition": null,
  "composition_reduced": null,
  "formula_pretty": "Ce2Au",
  "formula_anonymous": "AB2",
  "chemsys": null,
  "volume": 336.41941754604005,
  "density": 9.421654340052143,
  "density_atomic": 28.034951462170003,
  "symmetry": null,
  "property_name": null,
  "material_id": "mp-1102362",
  "deprecated": null,
  "deprecation_reasons": null,
  "last_updated": null,
  "origins": null,
  "warnings": null,
  "structure": {
    "@module": "pymatgen.core.structure",
    "@class": "Structure",
    "charge": 0,
    "lattice": {
      "matrix": [
        [0.0, -5.002252, 0.0],
        [-7.28195, 0.0, 0.0],
        [0.0, 0.0, -9.235657]
      ],
      "pbc": [true, true, true],
      "a": 5.002252,
      "b": 7.28195,
      "c": 9.235657,
      "alpha": 90.0,
      "beta": 90.0,
      "gamma": 90.0,
      "volume": 336.41941754604005
    },
    "properties": {},
    "sites": [
      {
        "species": [{ "element": "Ce", "occu": 1 }],
        "abc": [0.75, 0.659306, 0.5706869999999991],
        "properties": { "magmom": 0.788 },
        "label": "Ce",
        "xyz": [-4.8010333267, -3.7516890000000003, -5.270669386358991]
      },
      {
        "species": [{ "element": "Ce", "occu": 1 }],
        "abc": [0.75, 0.159306, 0.929313],
        "properties": { "magmom": 0.788 },
        "label": "Ce",
        "xyz": [-1.1600583267, -3.7516890000000003, -8.582816113641]
      },
      {
        "species": [{ "element": "Ce", "occu": 1 }],
        "abc": [0.25, 0.340694, 0.429313],
        "properties": { "magmom": 0.788 },
        "label": "Ce",
        "xyz": [-2.4809166733, -1.250563, -3.964987613641]
      },
      {
        "species": [{ "element": "Ce", "occu": 1 }],
        "abc": [0.25, 0.840693999999999, 0.070687],
        "properties": { "magmom": 0.788 },
        "label": "Ce",
        "xyz": [-6.121891673299993, -1.250563, -0.652840886359]
      },
      {
        "species": [{ "element": "Ce", "occu": 1 }],
        "abc": [0.75, 0.013253, 0.317847],
        "properties": { "magmom": 0.915 },
        "label": "Ce",
        "xyz": [-0.09650768335, -3.7516890000000003, -2.9355258704789997]
      },
      {
        "species": [{ "element": "Ce", "occu": 1 }],
        "abc": [0.75, 0.513253, 0.182152999999999],
        "properties": { "magmom": 0.915 },
        "label": "Ce",
        "xyz": [-3.7374826833499997, -3.7516890000000003, -1.6823026295209909]
      },
      {
        "species": [{ "element": "Ce", "occu": 1 }],
        "abc": [0.25, 0.986746999999999, 0.682153],
        "properties": { "magmom": 0.915 },
        "label": "Ce",
        "xyz": [-7.185442316649993, -1.250563, -6.300131129521]
      },
      {
        "species": [{ "element": "Ce", "occu": 1 }],
        "abc": [0.25, 0.486747, 0.817847],
        "properties": { "magmom": 0.915 },
        "label": "Ce",
        "xyz": [-3.54446731665, -1.250563, -7.553354370479]
      },
      {
        "species": [{ "element": "Au", "occu": 1 }],
        "abc": [0.75, 0.244972, 0.610364],
        "properties": { "magmom": 0.005 },
        "label": "Au",
        "xyz": [-1.7838738554, -3.7516890000000003, -5.637112549148]
      },
      {
        "species": [{ "element": "Au", "occu": 1 }],
        "abc": [0.75, 0.744972, 0.889636],
        "properties": { "magmom": 0.005 },
        "label": "Au",
        "xyz": [-5.4248488554, -3.7516890000000003, -8.216372950852]
      },
      {
        "species": [{ "element": "Au", "occu": 1 }],
        "abc": [0.25, 0.755027999999999, 0.389636],
        "properties": { "magmom": 0.005 },
        "label": "Au",
        "xyz": [-5.4980761445999935, -1.250563, -3.5985444508519997]
      },
      {
        "species": [{ "element": "Au", "occu": 1 }],
        "abc": [0.25, 0.255028, 0.110363999999999],
        "properties": { "magmom": 0.005 },
        "label": "Au",
        "xyz": [-1.8571011445999999, -1.250563, -1.0192840491479909]
      }
    ]
  },
  "task_ids": null,
  "uncorrected_energy_per_atom": null,
  "energy_per_atom": -5.394346539166666,
  "formation_energy_per_atom": -0.345085959166664,
  "energy_above_hull": 0.09219829500000101,
  "is_stable": false,
  "equilibrium_reaction_energy_per_atom": null,
  "decomposes_to": null,
  "xas": null,
  "grain_boundaries": null,
  "band_gap": 0.0,
  "cbm": null,
  "vbm": null,
  "efermi": 7.01304248,
  "is_gap_direct": null,
  "is_metal": null,
  "es_source_calc_id": null,
  "bandstructure": null,
  "dos": null,
  "dos_energy_up": null,
  "dos_energy_down": null,
  "is_magnetic": null,
  "ordering": null,
  "total_magnetization": 8.3210014,
  "total_magnetization_normalized_vol": null,
  "total_magnetization_normalized_formula_units": null,
  "num_magnetic_sites": null,
  "num_unique_magnetic_sites": null,
  "types_of_magnetic_species": null,
  "bulk_modulus": null,
  "shear_modulus": null,
  "universal_anisotropy": null,
  "homogeneous_poisson": null,
  "e_total": null,
  "e_ionic": null,
  "e_electronic": null,
  "n": null,
  "e_ij_max": null,
  "weighted_surface_energy_EV_PER_ANG2": null,
  "weighted_surface_energy": null,
  "weighted_work_function": null,
  "surface_anisotropy": null,
  "shape_factor": null,
  "has_reconstructed": null,
  "possible_species": null,
  "has_props": null,
  "theoretical": null,
  "database_IDs": null,
  "fields_not_requested": [
    "builder_meta",
    "nsites",
    "elements",
    "nelements",
    "composition",
    "composition_reduced",
    "chemsys",
    "symmetry",
    "property_name",
    "deprecated",
    "deprecation_reasons",
    "last_updated",
    "origins",
    "warnings",
    "task_ids",
    "uncorrected_energy_per_atom",
    "equilibrium_reaction_energy_per_atom",
    "decomposes_to",
    "xas",
    "grain_boundaries",
    "cbm",
    "vbm",
    "is_gap_direct",
    "is_metal",
    "es_source_calc_id",
    "bandstructure",
    "dos",
    "dos_energy_up",
    "dos_energy_down",
    "is_magnetic",
    "ordering",
    "total_magnetization_normalized_vol",
    "total_magnetization_normalized_formula_units",
    "num_magnetic_sites",
    "num_unique_magnetic_sites",
    "types_of_magnetic_species",
    "bulk_modulus",
    "shear_modulus",
    "universal_anisotropy",
    "homogeneous_poisson",
    "e_total",
    "e_ionic",
    "e_electronic",
    "n",
    "e_ij_max",
    "weighted_surface_energy_EV_PER_ANG2",
    "weighted_surface_energy",
    "weighted_work_function",
    "surface_anisotropy",
    "shape_factor",
    "has_reconstructed",
    "possible_species",
    "has_props",
    "theoretical",
    "database_IDs"
  ]
}
