{"builder_meta": null, "nsites": null, "elements": null, "nelements": null, "composition": null, "composition_reduced": null, "formula_pretty": "Ce2Bi", "formula_anonymous": "AB2", "chemsys": null, "volume": 196.59542662305506, "density": 8.264244148697601, "density_atomic": 32.76590443717584, "symmetry": null, "property_name": null, "material_id": "mp-1077367", "deprecated": null, "deprecation_reasons": null, "last_updated": null, "origins": null, "warnings": null, "structure": {"@module": "pymatgen.core.structure", "@class": "Structure", "charge": 0, "lattice": {"matrix": [[4.61025285, 0.00012495, 0.00039709], [9.66e-05, 4.61028776, 0.00039752], [-2.30410867, -2.30419444, 9.24915347]], "pbc": [true, true, true], "a": 4.610252868794302, "b": 4.610287778150029, "c": 9.80637897962898, "alpha": 103.58528809136621, "beta": 103.58486286843315, "gamma": 89.99724618147813, "volume": 196.59542662305506}, "properties": {}, "sites": [{"species": [{"element": "Ce", "occu": 1}], "abc": [0.5, -0.0, -0.0], "properties": {"magmom": 1.345}, "label": "Ce", "xyz": [2.305126425, 6.2475e-05, 0.000198545]}, {"species": [{"element": "Ce", "occu": 1}], "abc": [-0.0, 0.5, -0.0], "properties": {"magmom": 1.346}, "label": "Ce", "xyz": [4.83e-05, 2.30514388, 0.00019876]}, {"species": [{"element": "Ce", "occu": 1}], "abc": [0.68021454, 0.6802237600000001, 0.36040763000000003], "properties": {"magmom": 1.246999999999999}, "label": "Ce", "xyz": [2.3056083862445034, 2.3056630104163736, 3.33400599056974]}, {"species": [{"element": "Ce", "occu": 1}], "abc": [0.31978546, 0.31977624, 0.63959237], "properties": {"magmom": 1.246999999999999}, "label": "Ce", "xyz": [0.0006323937554970627, 0.0005552595836268992, 5.91594208943026]}, {"species": [{"element": "Bi", "occu": 1}], "abc": [0.86308564, 0.8630731500000001, 0.72642381], "properties": {"magmom": -0.075}, "label": "Bi", "xyz": [2.305367005754931, 2.3053017178947464, 6.719491114467496]}, {"species": [{"element": "Bi", "occu": 1}], "abc": [0.13691436, 0.13692685000000002, 0.27357619], "properties": {"magmom": -0.075}, "label": "Bi", "xyz": [0.0008737742450687369, 0.0009165521052545422, 2.5304569655325033]}]}, "task_ids": null, "uncorrected_energy_per_atom": null, "energy_per_atom": -40.863670078333335, "formation_energy_per_atom": -0.8024929899999991, "energy_above_hull": 0.0, "is_stable": true, "equilibrium_reaction_energy_per_atom": null, "decomposes_to": null, "xas": null, "grain_boundaries": null, "band_gap": 0.0, "cbm": null, "vbm": null, "efermi": 7.50401054, "is_gap_direct": null, "is_metal": null, "es_source_calc_id": null, "bandstructure": null, "dos": null, "dos_energy_up": null, "dos_energy_down": null, "is_magnetic": null, "ordering": null, "total_magnetization": 6.7208027999999995, "total_magnetization_normalized_vol": null, "total_magnetization_normalized_formula_units": null, "num_magnetic_sites": null, "num_unique_magnetic_sites": null, "types_of_magnetic_species": null, "bulk_modulus": null, "shear_modulus": null, "universal_anisotropy": null, "homogeneous_poisson": null, "e_total": null, "e_ionic": null, "e_electronic": null, "n": null, "e_ij_max": null, "weighted_surface_energy_EV_PER_ANG2": null, "weighted_surface_energy": null, "weighted_work_function": null, "surface_anisotropy": null, "shape_factor": null, "has_reconstructed": null, "possible_species": null, "has_props": null, "theoretical": null, "database_IDs": null, "fields_not_requested": ["builder_meta", "nsites", "elements", "nelements", "composition", "composition_reduced", "chemsys", "symmetry", "property_name", "deprecated", "deprecation_reasons", "last_updated", "origins", "warnings", "task_ids", "uncorrected_energy_per_atom", "equilibrium_reaction_energy_per_atom", "decomposes_to", "xas", "grain_boundaries", "cbm", "vbm", "is_gap_direct", "is_metal", "es_source_calc_id", "bandstructure", "dos", "dos_energy_up", "dos_energy_down", "is_magnetic", "ordering", "total_magnetization_normalized_vol", "total_magnetization_normalized_formula_units", "num_magnetic_sites", "num_unique_magnetic_sites", "types_of_magnetic_species", "bulk_modulus", "shear_modulus", "universal_anisotropy", "homogeneous_poisson", "e_total", "e_ionic", "e_electronic", "n", "e_ij_max", "weighted_surface_energy_EV_PER_ANG2", "weighted_surface_energy", "weighted_work_function", "surface_anisotropy", "shape_factor", "has_reconstructed", "possible_species", "has_props", "theoretical", "database_IDs"]}