{
  "builder_meta": null,
  "nsites": null,
  "elements": null,
  "nelements": null,
  "composition": null,
  "composition_reduced": null,
  "formula_pretty": "Ce2Br5",
  "formula_anonymous": "A2B5",
  "chemsys": null,
  "volume": 458.7151523049832,
  "density": 4.921375480742849,
  "density_atomic": 32.76536802178451,
  "symmetry": null,
  "property_name": null,
  "material_id": "mp-1104603",
  "deprecated": null,
  "deprecation_reasons": null,
  "last_updated": null,
  "origins": null,
  "warnings": null,
  "structure": {
    "@module": "pymatgen.core.structure",
    "@class": "Structure",
    "charge": 0,
    "lattice": {
      "matrix": [
        [4.240461, 0.0, 0.0],
        [0.0, 7.9129006, -0.018164490000000002],
        [0.0, 0.25721549, 13.67022128]
      ],
      "pbc": [true, true, true],
      "a": 4.240461,
      "b": 7.9129214487556565,
      "c": 13.672640917264696,
      "alpha": 89.0535893526612,
      "beta": 90.0,
      "gamma": 90.0,
      "volume": 458.7151523049831
    },
    "properties": {},
    "sites": [
      {
        "species": [{ "element": "Ce", "occu": 1 }],
        "abc": [0.25, 0.57018842, 0.65664361],
        "properties": { "magmom": 1.263 },
        "label": "Ce",
        "xyz": [1.06011525, 4.680743198632571, 8.966106268944817]
      },
      {
        "species": [{ "element": "Ce", "occu": 1 }],
        "abc": [0.75, 0.42981158, 0.34335639],
        "properties": { "magmom": 1.263 },
        "label": "Ce",
        "xyz": [3.18034575, 3.4893728913674296, 4.685950521055186]
      },
      {
        "species": [{ "element": "Ce", "occu": 1 }],
        "abc": [0.25, 0.06407595, 0.16019338],
        "properties": { "magmom": 1.326 },
        "label": "Ce",
        "xyz": [1.06011525, 0.5482308419320263, 2.188715045238111]
      },
      {
        "species": [{ "element": "Ce", "occu": 1 }],
        "abc": [0.75, 0.93592405, 0.8398066200000001],
        "properties": { "magmom": 1.326 },
        "label": "Ce",
        "xyz": [3.18034575, 7.621885248067974, 11.46334174476189]
      },
      {
        "species": [{ "element": "Br", "occu": 1 }],
        "abc": [0.25, 0.30795559, 0.48730449000000003],
        "properties": { "magmom": -0.008 },
        "label": "Br",
        "xyz": [1.06011525, 2.562164236058904, 6.655966352802548]
      },
      {
        "species": [{ "element": "Br", "occu": 1 }],
        "abc": [0.75, 0.69204441, 0.51269551],
        "properties": { "magmom": -0.008 },
        "label": "Br",
        "xyz": [3.18034575, 5.607951853941096, 6.996090437197452]
      },
      {
        "species": [{ "element": "Br", "occu": 1 }],
        "abc": [0.25, 0.95075435, 0.67725686],
        "properties": { "magmom": -0.012 },
        "label": "Br",
        "xyz": [1.06011525, 7.697425621668371, 9.24098117171495]
      },
      {
        "species": [{ "element": "Br", "occu": 1 }],
        "abc": [0.75, 0.04924565, 0.32274314],
        "properties": { "magmom": -0.012 },
        "label": "Br",
        "xyz": [3.18034575, 0.47269046833162864, 4.41107561828505]
      },
      {
        "species": [{ "element": "Br", "occu": 1 }],
        "abc": [0.25, 0.65480519, 0.8722486700000001],
        "properties": { "magmom": -0.012 },
        "label": "Br",
        "xyz": [1.06011525, 5.405764249890013, 11.911938127759996]
      },
      {
        "species": [{ "element": "Br", "occu": 1 }],
        "abc": [0.75, 0.34519481, 0.12775133],
        "properties": { "magmom": -0.012 },
        "label": "Br",
        "xyz": [3.18034575, 2.764351840109988, 1.7401186622400056]
      },
      {
        "species": [{ "element": "Br", "occu": 1 }],
        "abc": [0.25, 0.15491376, 0.93353204],
        "properties": { "magmom": -0.013000000000000001 },
        "label": "Br",
        "xyz": [1.06011525, 1.4659360855515557, 12.758775629325429]
      },
      {
        "species": [{ "element": "Br", "occu": 1 }],
        "abc": [0.75, 0.84508624, 0.06646796],
        "properties": { "magmom": -0.013000000000000001 },
        "label": "Br",
        "xyz": [3.18034575, 6.704180004448444, 0.8932811606745713]
      },
      {
        "species": [{ "element": "Br", "occu": 1 }],
        "abc": [0.25, 0.66951435, 0.27247859],
        "properties": { "magmom": -0.009000000000000001 },
        "label": "Br",
        "xyz": [1.06011525, 5.36788621586497, 3.712681232646964]
      },
      {
        "species": [{ "element": "Br", "occu": 1 }],
        "abc": [0.75, 0.33048565, 0.72752141],
        "properties": { "magmom": -0.009000000000000001 },
        "label": "Br",
        "xyz": [3.18034575, 2.802229874135031, 9.939375557353037]
      }
    ]
  },
  "task_ids": null,
  "uncorrected_energy_per_atom": null,
  "energy_per_atom": -5.059148910714283,
  "formation_energy_per_atom": -2.19362999428571,
  "energy_above_hull": 0.0,
  "is_stable": true,
  "equilibrium_reaction_energy_per_atom": null,
  "decomposes_to": null,
  "xas": null,
  "grain_boundaries": null,
  "band_gap": 0.0,
  "cbm": null,
  "vbm": null,
  "efermi": 4.38347799,
  "is_gap_direct": null,
  "is_metal": null,
  "es_source_calc_id": null,
  "bandstructure": null,
  "dos": null,
  "dos_energy_up": null,
  "dos_energy_down": null,
  "is_magnetic": null,
  "ordering": null,
  "total_magnetization": 5.9999996,
  "total_magnetization_normalized_vol": null,
  "total_magnetization_normalized_formula_units": null,
  "num_magnetic_sites": null,
  "num_unique_magnetic_sites": null,
  "types_of_magnetic_species": null,
  "bulk_modulus": null,
  "shear_modulus": null,
  "universal_anisotropy": null,
  "homogeneous_poisson": null,
  "e_total": null,
  "e_ionic": null,
  "e_electronic": null,
  "n": null,
  "e_ij_max": null,
  "weighted_surface_energy_EV_PER_ANG2": null,
  "weighted_surface_energy": null,
  "weighted_work_function": null,
  "surface_anisotropy": null,
  "shape_factor": null,
  "has_reconstructed": null,
  "possible_species": null,
  "has_props": null,
  "theoretical": null,
  "database_IDs": null,
  "fields_not_requested": [
    "builder_meta",
    "nsites",
    "elements",
    "nelements",
    "composition",
    "composition_reduced",
    "chemsys",
    "symmetry",
    "property_name",
    "deprecated",
    "deprecation_reasons",
    "last_updated",
    "origins",
    "warnings",
    "task_ids",
    "uncorrected_energy_per_atom",
    "equilibrium_reaction_energy_per_atom",
    "decomposes_to",
    "xas",
    "grain_boundaries",
    "cbm",
    "vbm",
    "is_gap_direct",
    "is_metal",
    "es_source_calc_id",
    "bandstructure",
    "dos",
    "dos_energy_up",
    "dos_energy_down",
    "is_magnetic",
    "ordering",
    "total_magnetization_normalized_vol",
    "total_magnetization_normalized_formula_units",
    "num_magnetic_sites",
    "num_unique_magnetic_sites",
    "types_of_magnetic_species",
    "bulk_modulus",
    "shear_modulus",
    "universal_anisotropy",
    "homogeneous_poisson",
    "e_total",
    "e_ionic",
    "e_electronic",
    "n",
    "e_ij_max",
    "weighted_surface_energy_EV_PER_ANG2",
    "weighted_surface_energy",
    "weighted_work_function",
    "surface_anisotropy",
    "shape_factor",
    "has_reconstructed",
    "possible_species",
    "has_props",
    "theoretical",
    "database_IDs"
  ]
}
