{
  "builder_meta": null,
  "nsites": null,
  "elements": null,
  "nelements": null,
  "composition": null,
  "composition_reduced": null,
  "formula_pretty": "Ce2C3",
  "formula_anonymous": "A2B3",
  "chemsys": null,
  "volume": 296.17579772122406,
  "density": 7.092664524971147,
  "density_atomic": 14.808789886061202,
  "symmetry": null,
  "property_name": null,
  "material_id": "mp-20181",
  "deprecated": null,
  "deprecation_reasons": null,
  "last_updated": null,
  "origins": null,
  "warnings": null,
  "structure": {
    "@module": "pymatgen.core.structure",
    "@class": "Structure",
    "charge": 0,
    "lattice": {
      "matrix": [
        [6.85721161, -2e-8, -2.42439068],
        [-3.42860683, 5.93851906, -2.42439068],
        [-0.0, -0.0, 7.27317205]
      ],
      "pbc": [true, true, true],
      "a": 7.273171332616169,
      "b": 7.273171494607892,
      "c": 7.27317205,
      "alpha": 109.4712221535078,
      "beta": 109.47122260468453,
      "gamma": 109.47122642419644,
      "volume": 296.17579772122406
    },
    "properties": {},
    "sites": [
      {
        "species": [{ "element": "Ce", "occu": 1 }],
        "abc": [0.59720228, 0.59720228, 0.59720228],
        "properties": { "magmom": 0.0 },
        "label": "Ce",
        "xyz": [2.0475705918348988, 3.5464971105114107, 1.4478516476787728]
      },
      {
        "species": [{ "element": "Ce", "occu": 1 }],
        "abc": [0.40279772, 0.5, -0.0],
        "properties": { "magmom": 0.0 },
        "label": "Ce",
        "xyz": [1.0477657870655295, 2.9692595219440454, -2.18873437829325]
      },
      {
        "species": [{ "element": "Ce", "occu": 1 }],
        "abc": [0.5, 0.0, 0.40279772],
        "properties": { "magmom": 0.0 },
        "label": "Ce",
        "xyz": [3.428605805, -1e-8, 1.7174217789077262]
      },
      {
        "species": [{ "element": "Ce", "occu": 1 }],
        "abc": [-0.0, 0.40279772, 0.5],
        "properties": { "magmom": 0.0 },
        "label": "Ce",
        "xyz": [-1.3810350139004277, 2.3920219375445435, 2.6600469867067504]
      },
      {
        "species": [{ "element": "Ce", "occu": 1 }],
        "abc": [0.5, 0.0, 0.90279772],
        "properties": { "magmom": 0.0 },
        "label": "Ce",
        "xyz": [3.428605805, -1e-8, 5.354007803907726]
      },
      {
        "species": [{ "element": "Ce", "occu": 1 }],
        "abc": [-0.0, 0.90279772, 0.5],
        "properties": { "magmom": 0.0 },
        "label": "Ce",
        "xyz": [-3.095338428900428, 5.3612814675445435, 1.4478516467067504]
      },
      {
        "species": [{ "element": "Ce", "occu": 1 }],
        "abc": [0.90279772, 0.5, -0.0],
        "properties": { "magmom": 0.0 },
        "label": "Ce",
        "xyz": [4.476371592065529, 2.9692595119440455, -3.40092971829325]
      },
      {
        "species": [{ "element": "Ce", "occu": 1 }],
        "abc": [0.09720228, 0.09720228, 0.09720228],
        "properties": { "magmom": 0.0 },
        "label": "Ce",
        "xyz": [0.3332682018348984, 0.5772375905114112, 0.2356563026787732]
      },
      {
        "species": [{ "element": "C", "occu": 1 }],
        "abc": [0.75, 0.793416599999999, 0.0434166],
        "properties": { "magmom": 0.0 },
        "label": "C",
        "xyz": [2.4225951337046254, 4.71171958662039, -3.426068418771256]
      },
      {
        "species": [{ "element": "C", "occu": 1 }],
        "abc": [0.75, 0.9565834, 0.2065834],
        "properties": { "magmom": 0.0 },
        "label": "C",
        "xyz": [1.8631603287953782, 5.680688738379604, -2.6349082787287426]
      },
      {
        "species": [{ "element": "C", "occu": 1 }],
        "abc": [0.29341659999999903, 0.25, 0.5434166],
        "properties": { "magmom": 0.0 },
        "label": "C",
        "xyz": [1.1548680085867193, 1.484629759131668, 2.634908286228745]
      },
      {
        "species": [{ "element": "C", "occu": 1 }],
        "abc": [0.5434166, 0.29341659999999903, 0.25],
        "properties": { "magmom": 0.0 },
        "label": "C",
        "xyz": [2.7203124597913515, 1.7424600607520582, -0.21051759829457395]
      },
      {
        "species": [{ "element": "C", "occu": 1 }],
        "abc": [0.2065834, 0.75, 0.9565834],
        "properties": { "magmom": 0.0 },
        "label": "C",
        "xyz": [-1.1548690335867262, 4.453889290868331, 4.6382637687712585]
      },
      {
        "species": [{ "element": "C", "occu": 1 }],
        "abc": [0.9565834, 0.2065834, 0.75],
        "properties": { "magmom": 0.0 },
        "label": "C",
        "xyz": [5.851201540208652, 1.226799439247936, 2.6349082882945765]
      },
      {
        "species": [{ "element": "C", "occu": 1 }],
        "abc": [0.25, 0.7065834, 0.4565834],
        "properties": { "magmom": 0.0 },
        "label": "C",
        "xyz": [-0.708293768704622, 4.196058983379603, 1.0016777437712578]
      },
      {
        "species": [{ "element": "C", "occu": 1 }],
        "abc": [0.7065834, 0.4565834, 0.25],
        "properties": { "magmom": 0.0 },
        "label": "C",
        "xyz": [3.2797469302086517, 2.711429209247936, -1.001677736705424]
      },
      {
        "species": [{ "element": "C", "occu": 1 }],
        "abc": [0.25, 0.5434166, 0.29341659999999903],
        "properties": { "magmom": 0.0 },
        "label": "C",
        "xyz": [-0.1488589637953781, 3.227089831620396, 0.21051760372873485]
      },
      {
        "species": [{ "element": "C", "occu": 1 }],
        "abc": [0.4565834, 0.25, 0.7065834],
        "properties": { "magmom": 0.0 },
        "label": "C",
        "xyz": [2.273737283913274, 1.484629755868332, 3.4260684262712577]
      },
      {
        "species": [{ "element": "C", "occu": 1 }],
        "abc": [0.0434166, 0.75, 0.793416599999999],
        "properties": { "magmom": 0.0 },
        "label": "C",
        "xyz": [-2.2737383089132743, 4.453889294131668, 3.847103628728735]
      },
      {
        "species": [{ "element": "C", "occu": 1 }],
        "abc": [0.793416599999999, 0.0434166, 0.75],
        "properties": { "magmom": 0.0 },
        "label": "C",
        "xyz": [5.291767069791342, 0.25783029075206404, 3.426068426705427]
      }
    ]
  },
  "task_ids": null,
  "uncorrected_energy_per_atom": null,
  "energy_per_atom": -8.166077355999997,
  "formation_energy_per_atom": -0.25409811249999503,
  "energy_above_hull": 0.0,
  "is_stable": true,
  "equilibrium_reaction_energy_per_atom": null,
  "decomposes_to": null,
  "xas": null,
  "grain_boundaries": null,
  "band_gap": 0.0,
  "cbm": null,
  "vbm": null,
  "efermi": 8.34326891,
  "is_gap_direct": null,
  "is_metal": null,
  "es_source_calc_id": null,
  "bandstructure": null,
  "dos": null,
  "dos_energy_up": null,
  "dos_energy_down": null,
  "is_magnetic": null,
  "ordering": null,
  "total_magnetization": 4e-7,
  "total_magnetization_normalized_vol": null,
  "total_magnetization_normalized_formula_units": null,
  "num_magnetic_sites": null,
  "num_unique_magnetic_sites": null,
  "types_of_magnetic_species": null,
  "bulk_modulus": null,
  "shear_modulus": null,
  "universal_anisotropy": null,
  "homogeneous_poisson": null,
  "e_total": null,
  "e_ionic": null,
  "e_electronic": null,
  "n": null,
  "e_ij_max": null,
  "weighted_surface_energy_EV_PER_ANG2": null,
  "weighted_surface_energy": null,
  "weighted_work_function": null,
  "surface_anisotropy": null,
  "shape_factor": null,
  "has_reconstructed": null,
  "possible_species": null,
  "has_props": null,
  "theoretical": null,
  "database_IDs": null,
  "fields_not_requested": [
    "builder_meta",
    "nsites",
    "elements",
    "nelements",
    "composition",
    "composition_reduced",
    "chemsys",
    "symmetry",
    "property_name",
    "deprecated",
    "deprecation_reasons",
    "last_updated",
    "origins",
    "warnings",
    "task_ids",
    "uncorrected_energy_per_atom",
    "equilibrium_reaction_energy_per_atom",
    "decomposes_to",
    "xas",
    "grain_boundaries",
    "cbm",
    "vbm",
    "is_gap_direct",
    "is_metal",
    "es_source_calc_id",
    "bandstructure",
    "dos",
    "dos_energy_up",
    "dos_energy_down",
    "is_magnetic",
    "ordering",
    "total_magnetization_normalized_vol",
    "total_magnetization_normalized_formula_units",
    "num_magnetic_sites",
    "num_unique_magnetic_sites",
    "types_of_magnetic_species",
    "bulk_modulus",
    "shear_modulus",
    "universal_anisotropy",
    "homogeneous_poisson",
    "e_total",
    "e_ionic",
    "e_electronic",
    "n",
    "e_ij_max",
    "weighted_surface_energy_EV_PER_ANG2",
    "weighted_surface_energy",
    "weighted_work_function",
    "surface_anisotropy",
    "shape_factor",
    "has_reconstructed",
    "possible_species",
    "has_props",
    "theoretical",
    "database_IDs"
  ]
}
