{"builder_meta": null, "nsites": null, "elements": null, "nelements": null, "composition": null, "composition_reduced": null, "formula_pretty": "Ce2Co7", "formula_anonymous": "A2B7", "chemsys": null, "volume": 255.14893603137003, "density": 9.01718274764357, "density_atomic": 14.174940890631667, "symmetry": null, "property_name": null, "material_id": "mp-1188550", "deprecated": null, "deprecation_reasons": null, "last_updated": null, "origins": null, "warnings": null, "structure": {"@module": "pymatgen.core.structure", "@class": "Structure", "charge": 0, "lattice": {"matrix": [[-2.439339, -4.225059, 0.0], [-4.878678, 0.0, 0.0], [-2.439339, -1.408353, -12.378238]], "pbc": [true, true, true], "a": 4.878677926488077, "b": 4.878678, "c": 12.694668523209812, "alpha": 78.9214488135081, "beta": 78.92144886985596, "gamma": 59.99999950155455, "volume": 255.14893603137003}, "properties": {}, "sites": [{"species": [{"element": "Ce", "occu": 1}], "abc": [0.948577, 0.948577, 0.154269], "properties": {"magmom": -0.377}, "label": "Ce", "xyz": [-7.318016999999999, -4.225059, -1.9095783980219998]}, {"species": [{"element": "Ce", "occu": 1}], "abc": [0.051422999999999004, 0.051422999999999004, 0.845731], "properties": {"magmom": -0.377}, "label": "Ce", "xyz": [-2.4393389999999924, -1.4083529999999957, -10.468659601978]}, {"species": [{"element": "Ce", "occu": 1}], "abc": [0.852623999999999, 0.852623999999999, 0.442127999999999], "properties": {"magmom": -0.304}, "label": "Ce", "xyz": [-7.318016999999991, -4.225058999999995, -5.472765610463988]}, {"species": [{"element": "Ce", "occu": 1}], "abc": [0.147376, 0.147376, 0.557871999999999], "properties": {"magmom": -0.304}, "label": "Ce", "xyz": [-2.4393389999999977, -1.4083529999999986, -6.905472389535988]}, {"species": [{"element": "Co", "occu": 1}], "abc": [0.5, 0.5, 0.5], "properties": {"magmom": 0.388}, "label": "Co", "xyz": [-4.878678, -2.816706, -6.189119]}, {"species": [{"element": "Co", "occu": 1}], "abc": [0.7218, 0.7218, 0.8346], "properties": {"magmom": 0.883}, "label": "Co", "xyz": [-7.318017, -4.225059, -10.3308774348]}, {"species": [{"element": "Co", "occu": 1}], "abc": [0.2782, 0.2782, 0.16540000000000002], "properties": {"magmom": 0.883}, "label": "Co", "xyz": [-2.439339, -1.408353, -2.0473605652]}, {"species": [{"element": "Co", "occu": 1}], "abc": [0.611781, 0.611781, 0.164657], "properties": {"magmom": 1.041}, "label": "Co", "xyz": [-4.878678, -2.816706, -2.038163534366]}, {"species": [{"element": "Co", "occu": 1}], "abc": [0.388219, 0.388219, 0.835343], "properties": {"magmom": 1.041}, "label": "Co", "xyz": [-4.878678, -2.816706, -10.340074465633998]}, {"species": [{"element": "Co", "occu": 1}], "abc": [0.0, 0.5, 0.0], "properties": {"magmom": 0.298}, "label": "Co", "xyz": [-2.439339, 0.0, 0.0]}, {"species": [{"element": "Co", "occu": 1}], "abc": [0.5, 0.0, 0.0], "properties": {"magmom": 0.298}, "label": "Co", "xyz": [-1.2196695, -2.1125295, 0.0]}, {"species": [{"element": "Co", "occu": 1}], "abc": [0.5, 0.5, 0.0], "properties": {"magmom": 0.298}, "label": "Co", "xyz": [-3.6590084999999997, -2.1125295, 0.0]}, {"species": [{"element": "Co", "occu": 1}], "abc": [0.391099, 0.391099, 0.327519], "properties": {"magmom": 0.626}, "label": "Co", "xyz": [-3.6609990006239994, -2.1136787160479997, -4.054108131522]}, {"species": [{"element": "Co", "occu": 1}], "abc": [0.890282999999999, 0.391099, 0.327519], "properties": {"magmom": 0.626}, "label": "Co", "xyz": [-4.878677999999998, -4.222760567903996, -4.054108131522]}, {"species": [{"element": "Co", "occu": 1}], "abc": [0.391099, 0.890282999999999, 0.327519], "properties": {"magmom": 0.626}, "label": "Co", "xyz": [-6.096356999375995, -2.1136787160479997, -4.054108131522]}, {"species": [{"element": "Co", "occu": 1}], "abc": [0.608901, 0.608901, 0.672481], "properties": {"magmom": 0.626}, "label": "Co", "xyz": [-6.096356999376, -3.519733283952, -8.324129868478]}, {"species": [{"element": "Co", "occu": 1}], "abc": [0.109717, 0.608901, 0.672481], "properties": {"magmom": 0.626}, "label": "Co", "xyz": [-4.878678, -1.410651432096, -8.324129868478]}, {"species": [{"element": "Co", "occu": 1}], "abc": [0.608901, 0.109717, 0.672481], "properties": {"magmom": 0.626}, "label": "Co", "xyz": [-3.660999000624, -3.519733283952, -8.324129868478]}]}, "task_ids": null, "uncorrected_energy_per_atom": null, "energy_per_atom": -6.989006987222222, "formation_energy_per_atom": -0.121471789444444, "energy_above_hull": 0.034658021666666004, "is_stable": false, "equilibrium_reaction_energy_per_atom": null, "decomposes_to": null, "xas": null, "grain_boundaries": null, "band_gap": 0.0, "cbm": null, "vbm": null, "efermi": 6.85403161, "is_gap_direct": null, "is_metal": null, "es_source_calc_id": null, "bandstructure": null, "dos": null, "dos_energy_up": null, "dos_energy_down": null, "is_magnetic": null, "ordering": null, "total_magnetization": 7.4319245, "total_magnetization_normalized_vol": null, "total_magnetization_normalized_formula_units": null, "num_magnetic_sites": null, "num_unique_magnetic_sites": null, "types_of_magnetic_species": null, "bulk_modulus": null, "shear_modulus": null, "universal_anisotropy": null, "homogeneous_poisson": null, "e_total": null, "e_ionic": null, "e_electronic": null, "n": null, "e_ij_max": null, "weighted_surface_energy_EV_PER_ANG2": null, "weighted_surface_energy": null, "weighted_work_function": null, "surface_anisotropy": null, "shape_factor": null, "has_reconstructed": null, "possible_species": null, "has_props": null, "theoretical": null, "database_IDs": null, "fields_not_requested": ["builder_meta", "nsites", "elements", "nelements", "composition", "composition_reduced", "chemsys", "symmetry", "property_name", "deprecated", "deprecation_reasons", "last_updated", "origins", "warnings", "task_ids", "uncorrected_energy_per_atom", "equilibrium_reaction_energy_per_atom", "decomposes_to", "xas", "grain_boundaries", "cbm", "vbm", "is_gap_direct", "is_metal", "es_source_calc_id", "bandstructure", "dos", "dos_energy_up", "dos_energy_down", "is_magnetic", "ordering", "total_magnetization_normalized_vol", "total_magnetization_normalized_formula_units", "num_magnetic_sites", "num_unique_magnetic_sites", "types_of_magnetic_species", "bulk_modulus", "shear_modulus", "universal_anisotropy", "homogeneous_poisson", "e_total", "e_ionic", "e_electronic", "n", "e_ij_max", "weighted_surface_energy_EV_PER_ANG2", "weighted_surface_energy", "weighted_work_function", "surface_anisotropy", "shape_factor", "has_reconstructed", "possible_species", "has_props", "theoretical", "database_IDs"]}