{"builder_meta": null, "nsites": null, "elements": null, "nelements": null, "composition": null, "composition_reduced": null, "formula_pretty": "Ce2H5", "formula_anonymous": "A2B5", "chemsys": null, "volume": 169.82041763919923, "density": 5.578891031251958, "density_atomic": 12.130029831371374, "symmetry": null, "property_name": null, "material_id": "mp-1104579", "deprecated": null, "deprecation_reasons": null, "last_updated": null, "origins": null, "warnings": null, "structure": {"@module": "pymatgen.core.structure", "@class": "Structure", "charge": 0, "lattice": {"matrix": [[5.51956511, 0.0, 2e-08], [0.0, 5.51956511, 2e-08], [-2.7597820200000003, -2.7597820200000003, 5.57416964]], "pbc": [true, true, true], "a": 5.51956511, "b": 5.51956511, "c": 6.8047160683843595, "alpha": 113.92678952242366, "beta": 113.92678952242366, "gamma": 90.0, "volume": 169.82041763919923}, "properties": {}, "sites": [{"species": [{"element": "Ce", "occu": 1}], "abc": [0.24998906, 0.74998906, 0.49997813], "properties": {"magmom": 1.063}, "label": "Ce", "xyz": [2.3989047392980467e-07, 2.759782794890474, 2.786962932909536]}, {"species": [{"element": "Ce", "occu": 1}], "abc": [-1.0940000000000002e-05, -1.0940000000000002e-05, -2.187e-05], "properties": {"magmom": 1.063}, "label": "Ce", "xyz": [-2.7609526000010583e-08, -2.7609526000010583e-08, -0.00012190709046439999]}, {"species": [{"element": "Ce", "occu": 1}], "abc": [0.73756985, 0.23756985, 0.4751417], "properties": {"magmom": 1.063}, "label": "Ce", "xyz": [2.759777289635699, -5.265364300566233e-06, 2.648520458340782]}, {"species": [{"element": "Ce", "occu": 1}], "abc": [0.48756985, 0.48756985, 0.9751417], "properties": {"magmom": 1.063}, "label": "Ce", "xyz": [-4.997864300637644e-06, -4.997864300637644e-06, 5.435605278340782]}, {"species": [{"element": "H", "occu": 1}], "abc": [0.640135599999999, 0.61873868, 0.73752655], "properties": {"magmom": -0.009000000000000001}, "label": "H", "xyz": [1.4978576114662796, 1.3797559183728234, 4.111098128881428]}, {"species": [{"element": "H", "occu": 1}], "abc": [0.09739195, 0.11878787, 0.73752655], "properties": {"magmom": -0.009000000000000001}, "label": "H", "xyz": [-1.497851302747767, -1.3797551292194157, 4.111098108027539]}, {"species": [{"element": "H", "occu": 1}], "abc": [0.36878787, 0.84739195, 0.23752655], "properties": {"magmom": -0.009000000000000001}, "label": "H", "xyz": [1.380027158280585, 4.021713539752234, 1.3240133080275385]}, {"species": [{"element": "H", "occu": 1}], "abc": [0.86873868, 0.390135599999999, 0.23752655], "properties": {"magmom": -0.009000000000000001}, "label": "H", "xyz": [4.1395382058728245, 1.49785734396628, 1.3240133088814277]}, {"species": [{"element": "H", "occu": 1}], "abc": [0.09739195, 0.61873868, 0.73752655], "properties": {"magmom": -0.009000000000000001}, "label": "H", "xyz": [-1.497851302747767, 1.3797559183728234, 4.111098118026555]}, {"species": [{"element": "H", "occu": 1}], "abc": [0.640135599999999, 0.11878787, 0.73752655], "properties": {"magmom": -0.009000000000000001}, "label": "H", "xyz": [1.4978576114662796, -1.3797551292194157, 4.111098118882412]}, {"species": [{"element": "H", "occu": 1}], "abc": [0.86873868, 0.84739195, 0.23752655], "properties": {"magmom": -0.009000000000000001}, "label": "H", "xyz": [4.1395382058728245, 4.021713539752234, 1.3240133180265545]}, {"species": [{"element": "H", "occu": 1}], "abc": [0.36878787, 0.390135599999999, 0.23752655], "properties": {"magmom": -0.009000000000000001}, "label": "H", "xyz": [1.380027158280585, 1.49785734396628, 1.3240132988824114]}, {"species": [{"element": "H", "occu": 1}], "abc": [0.49338699, 0.99338699, 0.98677398], "properties": {"magmom": -0.007}, "label": "H", "xyz": [5.279240791189466e-07, 2.759783082924079, 5.500445590593447]}, {"species": [{"element": "H", "occu": 1}], "abc": [0.24338699, 0.24338699, 0.48677398], "properties": {"magmom": -0.007}, "label": "H", "xyz": [2.604240791903578e-07, 2.604240791903578e-07, 2.7133607505934467]}]}, "task_ids": null, "uncorrected_energy_per_atom": null, "energy_per_atom": -11.916758609285713, "formation_energy_per_atom": -0.6372129626785701, "energy_above_hull": 0.011713889025973001, "is_stable": false, "equilibrium_reaction_energy_per_atom": null, "decomposes_to": null, "xas": null, "grain_boundaries": null, "band_gap": 0.0, "cbm": null, "vbm": null, "efermi": 6.58647029, "is_gap_direct": null, "is_metal": null, "es_source_calc_id": null, "bandstructure": null, "dos": null, "dos_energy_up": null, "dos_energy_down": null, "is_magnetic": null, "ordering": null, "total_magnetization": 4.7735401, "total_magnetization_normalized_vol": null, "total_magnetization_normalized_formula_units": null, "num_magnetic_sites": null, "num_unique_magnetic_sites": null, "types_of_magnetic_species": null, "bulk_modulus": null, "shear_modulus": null, "universal_anisotropy": null, "homogeneous_poisson": null, "e_total": null, "e_ionic": null, "e_electronic": null, "n": null, "e_ij_max": null, "weighted_surface_energy_EV_PER_ANG2": null, "weighted_surface_energy": null, "weighted_work_function": null, "surface_anisotropy": null, "shape_factor": null, "has_reconstructed": null, "possible_species": null, "has_props": null, "theoretical": null, "database_IDs": null, "fields_not_requested": ["builder_meta", "nsites", "elements", "nelements", "composition", "composition_reduced", "chemsys", "symmetry", "property_name", "deprecated", "deprecation_reasons", "last_updated", "origins", "warnings", "task_ids", "uncorrected_energy_per_atom", "equilibrium_reaction_energy_per_atom", "decomposes_to", "xas", "grain_boundaries", "cbm", "vbm", "is_gap_direct", "is_metal", "es_source_calc_id", "bandstructure", "dos", "dos_energy_up", "dos_energy_down", "is_magnetic", "ordering", "total_magnetization_normalized_vol", "total_magnetization_normalized_formula_units", "num_magnetic_sites", "num_unique_magnetic_sites", "types_of_magnetic_species", "bulk_modulus", "shear_modulus", "universal_anisotropy", "homogeneous_poisson", "e_total", "e_ionic", "e_electronic", "n", "e_ij_max", "weighted_surface_energy_EV_PER_ANG2", "weighted_surface_energy", "weighted_work_function", "surface_anisotropy", "shape_factor", "has_reconstructed", "possible_species", "has_props", "theoretical", "database_IDs"]}