{"builder_meta": null, "nsites": null, "elements": null, "nelements": null, "composition": null, "composition_reduced": null, "formula_pretty": "Ce2In", "formula_anonymous": "AB2", "chemsys": null, "volume": 180.2861619955159, "density": 7.27727465047091, "density_atomic": 30.047693665919315, "symmetry": null, "property_name": null, "material_id": "mp-19733", "deprecated": null, "deprecation_reasons": null, "last_updated": null, "origins": null, "warnings": null, "structure": {"@module": "pymatgen.core.structure", "@class": "Structure", "charge": 0, "lattice": {"matrix": [[2.77945194, -4.81415264, 0.0], [2.77945194, 4.81415264, 0.0], [0.0, 0.0, 6.73679563]], "pbc": [true, true, true], "a": 5.558904453935931, "b": 5.558904453935931, "c": 6.73679563, "alpha": 90.0, "beta": 90.0, "gamma": 120.00000683071553, "volume": 180.2861619955159}, "properties": {}, "sites": [{"species": [{"element": "Ce", "occu": 1}], "abc": [0.333333, 0.666667, 0.74996019], "properties": {"magmom": 1.061}, "label": "Ce", "xyz": [2.77945194, 1.60472075610176, 5.05232853066597]}, {"species": [{"element": "Ce", "occu": 1}], "abc": [0.666667, 0.333333, 0.25003981000000003], "properties": {"magmom": 1.061}, "label": "Ce", "xyz": [2.77945194, -1.60472075610176, 1.6844670993340305]}, {"species": [{"element": "Ce", "occu": 1}], "abc": [0.0, 0.0, 0.5], "properties": {"magmom": 1.332}, "label": "Ce", "xyz": [0.0, 0.0, 3.368397815]}, {"species": [{"element": "Ce", "occu": 1}], "abc": [0.0, 0.0, 0.0], "properties": {"magmom": 1.332}, "label": "Ce", "xyz": [0.0, 0.0, 0.0]}, {"species": [{"element": "In", "occu": 1}], "abc": [0.666667, 0.333333, 0.7501064900000001], "properties": {"magmom": -0.084}, "label": "In", "xyz": [2.77945194, -1.60472075610176, 5.053314123866639]}, {"species": [{"element": "In", "occu": 1}], "abc": [0.333333, 0.666667, 0.24989351], "properties": {"magmom": -0.084}, "label": "In", "xyz": [2.77945194, 1.60472075610176, 1.6834815061333612]}]}, "task_ids": null, "uncorrected_energy_per_atom": null, "energy_per_atom": -28.49358184333333, "formation_energy_per_atom": -0.40696587666666, "energy_above_hull": 0.0, "is_stable": true, "equilibrium_reaction_energy_per_atom": null, "decomposes_to": null, "xas": null, "grain_boundaries": null, "band_gap": 0.0, "cbm": null, "vbm": null, "efermi": 7.77595437, "is_gap_direct": null, "is_metal": null, "es_source_calc_id": null, "bandstructure": null, "dos": null, "dos_energy_up": null, "dos_energy_down": null, "is_magnetic": null, "ordering": null, "total_magnetization": 6.03326, "total_magnetization_normalized_vol": null, "total_magnetization_normalized_formula_units": null, "num_magnetic_sites": null, "num_unique_magnetic_sites": null, "types_of_magnetic_species": null, "bulk_modulus": null, "shear_modulus": null, "universal_anisotropy": null, "homogeneous_poisson": null, "e_total": null, "e_ionic": null, "e_electronic": null, "n": null, "e_ij_max": null, "weighted_surface_energy_EV_PER_ANG2": null, "weighted_surface_energy": null, "weighted_work_function": null, "surface_anisotropy": null, "shape_factor": null, "has_reconstructed": null, "possible_species": null, "has_props": null, "theoretical": null, "database_IDs": null, "fields_not_requested": ["builder_meta", "nsites", "elements", "nelements", "composition", "composition_reduced", "chemsys", "symmetry", "property_name", "deprecated", "deprecation_reasons", "last_updated", "origins", "warnings", "task_ids", "uncorrected_energy_per_atom", "equilibrium_reaction_energy_per_atom", "decomposes_to", "xas", "grain_boundaries", "cbm", "vbm", "is_gap_direct", "is_metal", "es_source_calc_id", "bandstructure", "dos", "dos_energy_up", "dos_energy_down", "is_magnetic", "ordering", "total_magnetization_normalized_vol", "total_magnetization_normalized_formula_units", "num_magnetic_sites", "num_unique_magnetic_sites", "types_of_magnetic_species", "bulk_modulus", "shear_modulus", "universal_anisotropy", "homogeneous_poisson", "e_total", "e_ionic", "e_electronic", "n", "e_ij_max", "weighted_surface_energy_EV_PER_ANG2", "weighted_surface_energy", "weighted_work_function", "surface_anisotropy", "shape_factor", "has_reconstructed", "possible_species", "has_props", "theoretical", "database_IDs"]}