{"builder_meta": null, "nsites": null, "elements": null, "nelements": null, "composition": null, "composition_reduced": null, "formula_pretty": "Ce2Ir7", "formula_anonymous": "A2B7", "chemsys": null, "volume": 324.4366553867425, "density": 16.641911468640615, "density_atomic": 18.024258632596805, "symmetry": null, "property_name": null, "material_id": "mp-1190097", "deprecated": null, "deprecation_reasons": null, "last_updated": null, "origins": null, "warnings": null, "structure": {"@module": "pymatgen.core.structure", "@class": "Structure", "charge": 0, "lattice": {"matrix": [[13.293939, -2.663208, 0.0], [13.293939, 2.663208, 0.0], [12.760411, 0.0, 4.581853]], "pbc": [true, true, true], "a": 13.558078440066092, "b": 13.558078440066092, "c": 13.5580775113041, "alpha": 22.65649873424993, "beta": 22.65649873424993, "gamma": 22.656498560254857, "volume": 324.4366553867425}, "properties": {}, "sites": [{"species": [{"element": "Ce", "occu": 1}], "abc": [0.949704999999999, 0.949704999999999, 0.949704999999999], "properties": {"magmom": -0.0}, "label": "Ce", "xyz": [37.36926680474496, 0.0, 4.351408703364995]}, {"species": [{"element": "Ce", "occu": 1}], "abc": [0.050295, 0.050295, 0.050295], "properties": {"magmom": -0.0}, "label": "Ce", "xyz": [1.9790221952549998, 0.0, 0.230444296635]}, {"species": [{"element": "Ce", "occu": 1}], "abc": [0.852868, 0.852868, 0.852868], "properties": {"magmom": -0.0}, "label": "Ce", "xyz": [33.558896542852, 0.0, 3.9077158044039995]}, {"species": [{"element": "Ce", "occu": 1}], "abc": [0.147131999999999, 0.147131999999999, 0.147131999999999], "properties": {"magmom": -0.0}, "label": "Ce", "xyz": [5.789392457147962, 0.0, 0.6741371955959954]}, {"species": [{"element": "Ir", "occu": 1}], "abc": [0.5, 0.5, 0.5], "properties": {"magmom": 0.0}, "label": "Ir", "xyz": [19.6741445, 0.0, 2.2909265]}, {"species": [{"element": "Ir", "occu": 1}], "abc": [0.722178, 0.722178, 0.722178], "properties": {"magmom": 0.0}, "label": "Ir", "xyz": [28.416468653442003, 0.0, 3.3089134358339996]}, {"species": [{"element": "Ir", "occu": 1}], "abc": [0.277822, 0.277822, 0.277822], "properties": {"magmom": 0.0}, "label": "Ir", "xyz": [10.931820346558, 0.0, 1.272939564166]}, {"species": [{"element": "Ir", "occu": 1}], "abc": [0.610861, 0.610861, 0.610861], "properties": {"magmom": -0.0}, "label": "Ir", "xyz": [24.036335166828998, 0.0, 2.7988753054329996]}, {"species": [{"element": "Ir", "occu": 1}], "abc": [0.389138999999999, 0.389138999999999, 0.389138999999999], "properties": {"magmom": -0.0}, "label": "Ir", "xyz": [15.31195383317096, 0.0, 1.7829776945669953]}, {"species": [{"element": "Ir", "occu": 1}], "abc": [0.5, 0.5, 0.0], "properties": {"magmom": 0.0}, "label": "Ir", "xyz": [13.293939, 0.0, 0.0]}, {"species": [{"element": "Ir", "occu": 1}], "abc": [0.0, 0.5, 0.5], "properties": {"magmom": -0.0}, "label": "Ir", "xyz": [13.027175, 1.331604, 2.2909265]}, {"species": [{"element": "Ir", "occu": 1}], "abc": [0.5, 0.0, 0.5], "properties": {"magmom": 0.0}, "label": "Ir", "xyz": [13.027175, -1.331604, 2.2909265]}, {"species": [{"element": "Ir", "occu": 1}], "abc": [0.388438, 0.891714999999999, 0.388438], "properties": {"magmom": 0.0}, "label": "Ir", "xyz": [21.974904420684986, 1.3403313326159974, 1.779765815614]}, {"species": [{"element": "Ir", "occu": 1}], "abc": [0.388438, 0.388438, 0.891714999999999], "properties": {"magmom": 0.0}, "label": "Ir", "xyz": [21.706392049428985, 0.0, 4.085707047894996]}, {"species": [{"element": "Ir", "occu": 1}], "abc": [0.891714999999999, 0.388438, 0.388438], "properties": {"magmom": -0.0}, "label": "Ir", "xyz": [21.974904420684986, -1.3403313326159974, 1.779765815614]}, {"species": [{"element": "Ir", "occu": 1}], "abc": [0.611561999999999, 0.10828499999999901, 0.611561999999999], "properties": {"magmom": 0.0}, "label": "Ir", "xyz": [17.373384579314962, -1.3403313326160002, 2.8020871843859956]}, {"species": [{"element": "Ir", "occu": 1}], "abc": [0.611561999999999, 0.611561999999999, 0.10828499999999901], "properties": {"magmom": 0.0}, "label": "Ir", "xyz": [17.641896950570963, 0.0, 0.4961459521049954]}, {"species": [{"element": "Ir", "occu": 1}], "abc": [0.10828499999999901, 0.611561999999999, 0.611561999999999], "properties": {"magmom": -0.0}, "label": "Ir", "xyz": [17.373384579314962, 1.3403313326160002, 2.8020871843859956]}]}, "task_ids": null, "uncorrected_energy_per_atom": null, "energy_per_atom": -8.741927087222223, "formation_energy_per_atom": -0.548267198333333, "energy_above_hull": 0.014709150185186001, "is_stable": false, "equilibrium_reaction_energy_per_atom": null, "decomposes_to": null, "xas": null, "grain_boundaries": null, "band_gap": 0.0, "cbm": null, "vbm": null, "efermi": 8.7670095, "is_gap_direct": null, "is_metal": null, "es_source_calc_id": null, "bandstructure": null, "dos": null, "dos_energy_up": null, "dos_energy_down": null, "is_magnetic": null, "ordering": null, "total_magnetization": 0.000377999999999, "total_magnetization_normalized_vol": null, "total_magnetization_normalized_formula_units": null, "num_magnetic_sites": null, "num_unique_magnetic_sites": null, "types_of_magnetic_species": null, "bulk_modulus": null, "shear_modulus": null, "universal_anisotropy": null, "homogeneous_poisson": null, "e_total": null, "e_ionic": null, "e_electronic": null, "n": null, "e_ij_max": null, "weighted_surface_energy_EV_PER_ANG2": null, "weighted_surface_energy": null, "weighted_work_function": null, "surface_anisotropy": null, "shape_factor": null, "has_reconstructed": null, "possible_species": null, "has_props": null, "theoretical": null, "database_IDs": null, "fields_not_requested": ["builder_meta", "nsites", "elements", "nelements", "composition", "composition_reduced", "chemsys", "symmetry", "property_name", "deprecated", "deprecation_reasons", "last_updated", "origins", "warnings", "task_ids", "uncorrected_energy_per_atom", "equilibrium_reaction_energy_per_atom", "decomposes_to", "xas", "grain_boundaries", "cbm", "vbm", "is_gap_direct", "is_metal", "es_source_calc_id", "bandstructure", "dos", "dos_energy_up", "dos_energy_down", "is_magnetic", "ordering", "total_magnetization_normalized_vol", "total_magnetization_normalized_formula_units", "num_magnetic_sites", "num_unique_magnetic_sites", "types_of_magnetic_species", "bulk_modulus", "shear_modulus", "universal_anisotropy", "homogeneous_poisson", "e_total", "e_ionic", "e_electronic", "n", "e_ij_max", "weighted_surface_energy_EV_PER_ANG2", "weighted_surface_energy", "weighted_work_function", "surface_anisotropy", "shape_factor", "has_reconstructed", "possible_species", "has_props", "theoretical", "database_IDs"]}