{
  "builder_meta": null,
  "nsites": null,
  "elements": null,
  "nelements": null,
  "composition": null,
  "composition_reduced": null,
  "formula_pretty": "Ce2Mg",
  "formula_anonymous": "AB2",
  "chemsys": null,
  "volume": 166.4458688987596,
  "density": 6.076396958013451,
  "density_atomic": 27.740978149793268,
  "symmetry": null,
  "property_name": null,
  "material_id": "mp-2016632",
  "deprecated": null,
  "deprecation_reasons": null,
  "last_updated": null,
  "origins": null,
  "warnings": null,
  "structure": {
    "@module": "pymatgen.core.structure",
    "@class": "Structure",
    "charge": 0,
    "lattice": {
      "matrix": [
        [3.12924859, 4.8033328, 0.28789733],
        [-3.12924859, 4.8033328, 0.28789733],
        [0.0, 3.4035777400000002, 5.74081865]
      ],
      "pbc": [true, true, true],
      "a": 5.739955365522798,
      "b": 5.739955365522798,
      "c": 6.673929892080927,
      "alpha": 61.971642612785054,
      "beta": 61.971642612785054,
      "gamma": 66.07249469897252,
      "volume": 166.44586889875958
    },
    "properties": {},
    "sites": [
      {
        "species": [{ "element": "Ce", "occu": 1 }],
        "abc": [0.21779088, 0.46684436, 0.7894666100000001],
        "properties": { "magmom": 0.809 },
        "label": "Ce",
        "xyz": [-0.7793502511245933, 5.975541884597133, 4.729289295860186]
      },
      {
        "species": [{ "element": "Ce", "occu": 1 }],
        "abc": [0.53315564, 0.78220912, 0.71053339],
        "properties": { "magmom": 0.809 },
        "label": "Ce",
        "xyz": [-0.7793502511245931, 8.736490325402867, 4.457733339139814]
      },
      {
        "species": [{ "element": "Ce", "occu": 1 }],
        "abc": [0.46684436, 0.21779088, 0.28946661],
        "properties": { "magmom": 0.809 },
        "label": "Ce",
        "xyz": [0.7793502511245933, 4.273753014597133, 1.8588799708601855]
      },
      {
        "species": [{ "element": "Ce", "occu": 1 }],
        "abc": [0.78220912, 0.53315564, 0.21053339000000001],
        "properties": { "magmom": 0.809 },
        "label": "Ce",
        "xyz": [0.7793502511245931, 7.0347014554028675, 1.5873240141398142]
      },
      {
        "species": [{ "element": "Mg", "occu": 1 }],
        "abc": [0.12181614, 0.87818386, 0.25],
        "properties": { "magmom": -0.006 },
        "label": "Mg",
        "xyz": [-2.366862621331515, 5.654227235, 1.7231019925]
      },
      {
        "species": [{ "element": "Mg", "occu": 1 }],
        "abc": [0.87818386, 0.12181614, 0.75],
        "properties": { "magmom": -0.006 },
        "label": "Mg",
        "xyz": [2.366862621331515, 7.356016105, 4.593511317499999]
      }
    ]
  },
  "task_ids": null,
  "uncorrected_energy_per_atom": null,
  "energy_per_atom": -21.940698038333334,
  "formation_energy_per_atom": 0.009488996666666001,
  "energy_above_hull": 0.033750480555553006,
  "is_stable": false,
  "equilibrium_reaction_energy_per_atom": null,
  "decomposes_to": null,
  "xas": null,
  "grain_boundaries": null,
  "band_gap": 0.0,
  "cbm": null,
  "vbm": null,
  "efermi": 6.24819725,
  "is_gap_direct": null,
  "is_metal": null,
  "es_source_calc_id": null,
  "bandstructure": null,
  "dos": null,
  "dos_energy_up": null,
  "dos_energy_down": null,
  "is_magnetic": null,
  "ordering": null,
  "total_magnetization": 3.605863,
  "total_magnetization_normalized_vol": null,
  "total_magnetization_normalized_formula_units": null,
  "num_magnetic_sites": null,
  "num_unique_magnetic_sites": null,
  "types_of_magnetic_species": null,
  "bulk_modulus": null,
  "shear_modulus": null,
  "universal_anisotropy": null,
  "homogeneous_poisson": null,
  "e_total": null,
  "e_ionic": null,
  "e_electronic": null,
  "n": null,
  "e_ij_max": null,
  "weighted_surface_energy_EV_PER_ANG2": null,
  "weighted_surface_energy": null,
  "weighted_work_function": null,
  "surface_anisotropy": null,
  "shape_factor": null,
  "has_reconstructed": null,
  "possible_species": null,
  "has_props": null,
  "theoretical": null,
  "database_IDs": null,
  "fields_not_requested": [
    "builder_meta",
    "nsites",
    "elements",
    "nelements",
    "composition",
    "composition_reduced",
    "chemsys",
    "symmetry",
    "property_name",
    "deprecated",
    "deprecation_reasons",
    "last_updated",
    "origins",
    "warnings",
    "task_ids",
    "uncorrected_energy_per_atom",
    "equilibrium_reaction_energy_per_atom",
    "decomposes_to",
    "xas",
    "grain_boundaries",
    "cbm",
    "vbm",
    "is_gap_direct",
    "is_metal",
    "es_source_calc_id",
    "bandstructure",
    "dos",
    "dos_energy_up",
    "dos_energy_down",
    "is_magnetic",
    "ordering",
    "total_magnetization_normalized_vol",
    "total_magnetization_normalized_formula_units",
    "num_magnetic_sites",
    "num_unique_magnetic_sites",
    "types_of_magnetic_species",
    "bulk_modulus",
    "shear_modulus",
    "universal_anisotropy",
    "homogeneous_poisson",
    "e_total",
    "e_ionic",
    "e_electronic",
    "n",
    "e_ij_max",
    "weighted_surface_energy_EV_PER_ANG2",
    "weighted_surface_energy",
    "weighted_work_function",
    "surface_anisotropy",
    "shape_factor",
    "has_reconstructed",
    "possible_species",
    "has_props",
    "theoretical",
    "database_IDs"
  ]
}
