{
  "builder_meta": null,
  "nsites": null,
  "elements": null,
  "nelements": null,
  "composition": null,
  "composition_reduced": null,
  "formula_pretty": "Ce2O3",
  "formula_anonymous": "A2B3",
  "chemsys": null,
  "volume": 700.7557879941837,
  "density": 6.222299742945029,
  "density_atomic": 17.51889469985459,
  "symmetry": null,
  "property_name": null,
  "material_id": "mp-542313",
  "deprecated": null,
  "deprecation_reasons": null,
  "last_updated": null,
  "origins": null,
  "warnings": null,
  "structure": {
    "@module": "pymatgen.core.structure",
    "@class": "Structure",
    "charge": 0,
    "lattice": {
      "matrix": [
        [9.13734374, 2e-8, -3.23053908],
        [-4.56867135, 7.91317049, -3.23053908],
        [-1e-8, -1e-8, 9.69161621]
      ],
      "pbc": [true, true, true],
      "a": 9.69161665411527,
      "b": 9.69161533778167,
      "c": 9.69161621,
      "alpha": 109.47122463208817,
      "beta": 109.47122191820773,
      "gamma": 109.47121898467192,
      "volume": 700.7557879941837
    },
    "properties": {},
    "sites": [
      {
        "species": [{ "element": "Ce", "occu": 1 }],
        "abc": [0.5, 0.5, 0.5],
        "properties": { "magmom": 0.9570000000000001 },
        "label": "Ce",
        "xyz": [2.2843361900000003, 3.95658525, 1.615269025]
      },
      {
        "species": [{ "element": "Ce", "occu": 1 }],
        "abc": [-0.0, -0.0, 0.5],
        "properties": { "magmom": 0.9570000000000001 },
        "label": "Ce",
        "xyz": [-5e-9, -5e-9, 4.845808105]
      },
      {
        "species": [{ "element": "Ce", "occu": 1 }],
        "abc": [0.5, -0.0, 0.0],
        "properties": { "magmom": 0.9570000000000001 },
        "label": "Ce",
        "xyz": [4.56867187, 1e-8, -1.61526954]
      },
      {
        "species": [{ "element": "Ce", "occu": 1 }],
        "abc": [-0.0, 0.5, 0.0],
        "properties": { "magmom": 0.9570000000000001 },
        "label": "Ce",
        "xyz": [-2.284335675, 3.956585245, -1.61526954]
      },
      {
        "species": [{ "element": "Ce", "occu": 1 }],
        "abc": [0.25, 0.22226223, 0.97226223],
        "properties": { "magmom": 0.96 },
        "label": "Ce",
        "xyz": [1.2688928428892674, 1.7587989147549703, 7.897130798615799]
      },
      {
        "species": [{ "element": "Ce", "occu": 1 }],
        "abc": [0.27773777, 0.52773777, 0.75],
        "properties": { "magmom": 0.96 },
        "label": "Ce",
        "xyz": [0.1267250364591705, 4.176078946077163, 4.666591947545896]
      },
      {
        "species": [{ "element": "Ce", "occu": 1 }],
        "abc": [0.52773777, 0.75, 0.27773777],
        "properties": { "magmom": 0.96 },
        "label": "Ce",
        "xyz": [1.395617893793682, 5.934877875277378, -1.4360539261157999]
      },
      {
        "species": [{ "element": "Ce", "occu": 1 }],
        "abc": [0.22226223, 0.97226223, 0.25],
        "properties": { "magmom": 0.96 },
        "label": "Ce",
        "xyz": [-2.4110602014591698, 7.693676788922836, -1.4360538975458965]
      },
      {
        "species": [{ "element": "Ce", "occu": 1 }],
        "abc": [0.97226223, 0.25, 0.22226223],
        "properties": { "magmom": 0.96 },
        "label": "Ce",
        "xyz": [7.741726361206319, 1.9782926397226221, -1.7944856688842]
      },
      {
        "species": [{ "element": "Ce", "occu": 1 }],
        "abc": [0.75, 0.27773777, 0.52773777],
        "properties": { "magmom": 0.96 },
        "label": "Ce",
        "xyz": [5.584115207110734, 2.1977863352450293, 1.7944848963841995]
      },
      {
        "species": [{ "element": "Ce", "occu": 1 }],
        "abc": [0.75, 0.77773777, 0.027737770000000002],
        "properties": { "magmom": 0.96 },
        "label": "Ce",
        "xyz": [3.2997795371107337, 6.15437158524503, -4.6665927486158]
      },
      {
        "species": [{ "element": "Ce", "occu": 1 }],
        "abc": [0.72226223, 0.47226223, 0.25],
        "properties": { "magmom": 0.96 },
        "label": "Ce",
        "xyz": [4.441947343540829, 3.737091553922837, -1.4360538975458965]
      },
      {
        "species": [{ "element": "Ce", "occu": 1 }],
        "abc": [0.47226223, 0.25, 0.72226223],
        "properties": { "magmom": 0.96 },
        "label": "Ce",
        "xyz": [3.1730544862063184, 1.9782926247226222, 4.6665919761158]
      },
      {
        "species": [{ "element": "Ce", "occu": 1 }],
        "abc": [0.77773777, 0.027737770000000002, 0.75],
        "properties": { "magmom": 0.96 },
        "label": "Ce",
        "xyz": [6.979732581459171, 0.2194937110771627, 4.666591947545896]
      },
      {
        "species": [{ "element": "Ce", "occu": 1 }],
        "abc": [0.027737770000000002, 0.75, 0.77773777],
        "properties": { "magmom": 0.96 },
        "label": "Ce",
        "xyz": [-3.1730539812063183, 5.9348778602773775, 5.025023718884199]
      },
      {
        "species": [{ "element": "Ce", "occu": 1 }],
        "abc": [0.25, 0.72226223, 0.47226223],
        "properties": { "magmom": 0.96 },
        "label": "Ce",
        "xyz": [-1.0154428271107325, 5.715384164754971, 1.4360531536158003]
      },
      {
        "species": [{ "element": "O", "occu": 1 }],
        "abc": [0.52733104, 0.7682272800000001, 0.53802053],
        "properties": { "magmom": -0.024 },
        "label": "O",
        "xyz": [1.308627007447056, 6.0791134468753825, 1.0289367066816464]
      },
      {
        "species": [{ "element": "O", "occu": 1 }],
        "abc": [0.98930851, 0.9619794700000001, 0.73020575],
        "properties": { "magmom": -0.024 },
        "label": "O",
        "xyz": [4.644683869597985, 7.612307566473953, 0.7731618076109488]
      },
      {
        "species": [{ "element": "O", "occu": 1 }],
        "abc": [0.25910276, 0.76979425, 0.73177272],
        "properties": { "magmom": -0.024 },
        "label": "O",
        "xyz": [-1.1494259605847421, 6.09151314033601, 3.7681683550876404]
      },
      {
        "species": [{ "element": "O", "occu": 1 }],
        "abc": [0.51069149, 0.24089724, 0.97266896],
        "properties": { "magmom": -0.024 },
        "label": "O",
        "xyz": [3.565783360814009, 1.9062609311775878, 6.998697495347273]
      },
      {
        "species": [{ "element": "O", "occu": 1 }],
        "abc": [0.9619794700000001, 0.73020575, 0.98930851],
        "properties": { "magmom": -0.024 },
        "label": "O",
        "xyz": [5.453866988689672, 5.778242601874822, 4.121327908398549]
      },
      {
        "species": [{ "element": "O", "occu": 1 }],
        "abc": [0.73177272, 0.25910276, 0.76979425],
        "properties": { "magmom": -0.024 },
        "label": "O",
        "xyz": [5.502703518178905, 2.0503243212470643, 4.259488470111034]
      },
      {
        "species": [{ "element": "O", "occu": 1 }],
        "abc": [0.24089724, 0.97266896, 0.51069149],
        "properties": { "magmom": -0.024 },
        "label": "O",
        "xyz": [-2.242643927795933, 7.696895310522021, 1.028952887525957]
      },
      {
        "species": [{ "element": "O", "occu": 1 }],
        "abc": [0.53802053, 0.52733104, 0.7682272800000001],
        "properties": { "magmom": -0.024 },
        "label": "O",
        "xyz": [2.506876299691007, 4.172860427267147, 4.0037040789878535]
      },
      {
        "species": [{ "element": "O", "occu": 1 }],
        "abc": [0.7682272800000001, 0.53802053, 0.52733104],
        "properties": { "magmom": -0.024 },
        "label": "O",
        "xyz": [4.5615177414091015, 4.257448191101394, 0.8908054569307433]
      },
      {
        "species": [{ "element": "O", "occu": 1 }],
        "abc": [0.73020575, 0.98930851, 0.9619794700000001],
        "properties": { "magmom": -0.024 },
        "label": "O",
        "xyz": [2.1523154831065217, 7.82856691182219, 3.768177809591929]
      },
      {
        "species": [{ "element": "O", "occu": 1 }],
        "abc": [0.76979425, 0.73177272, 0.25910276],
        "properties": { "magmom": -0.024 },
        "label": "O",
        "xyz": [3.690645608158896, 5.79064230609589, -2.3397462689504485]
      },
      {
        "species": [{ "element": "O", "occu": 1 }],
        "abc": [0.97266896, 0.51069149, 0.24089724],
        "properties": { "magmom": -0.024 },
        "label": "O",
        "xyz": [6.554429051287527, 4.041188845206537, -2.4573703073231252]
      },
      {
        "species": [{ "element": "O", "occu": 1 }],
        "abc": [0.47266896, 0.23177272000000002, 0.46197947],
        "properties": { "magmom": -0.024 },
        "label": "O",
        "xyz": [3.2600453725529444, 1.8340570531246172, 2.2016013433183543]
      },
      {
        "species": [{ "element": "O", "occu": 1 }],
        "abc": [0.01069149, 0.038020530000000004, 0.26979425],
        "properties": { "magmom": -0.024 },
        "label": "O",
        "xyz": [-0.0760114895979854, 0.30086293352604704, 2.457376242389051]
      },
      {
        "species": [{ "element": "O", "occu": 1 }],
        "abc": [0.74089724, 0.23020575000000001, 0.26822728],
        "properties": { "magmom": -0.024 },
        "label": "O",
        "xyz": [5.718098340584743, 1.8216573596639896, -0.5376303050876401]
      },
      {
        "species": [{ "element": "O", "occu": 1 }],
        "abc": [0.48930851000000003, 0.75910276, 0.02733104],
        "properties": { "magmom": -0.024 },
        "label": "O",
        "xyz": [1.0028890191859914, 6.006909568822412, -3.7681594453472735]
      },
      {
        "species": [{ "element": "O", "occu": 1 }],
        "abc": [0.038020530000000004, 0.26979425, 0.01069149],
        "properties": { "magmom": -0.024 },
        "label": "O",
        "xyz": [-0.8851946086896703, 2.134927898125178, -0.8907898583985495]
      },
      {
        "species": [{ "element": "O", "occu": 1 }],
        "abc": [0.26822728, 0.74089724, 0.23020575000000001],
        "properties": { "magmom": -0.024 },
        "label": "O",
        "xyz": [-0.9340311381789038, 5.862846178752935, -1.0289504201110335]
      },
      {
        "species": [{ "element": "O", "occu": 1 }],
        "abc": [0.75910276, 0.02733104, 0.48930851000000003],
        "properties": { "magmom": -0.024 },
        "label": "O",
        "xyz": [6.811316307795933, 0.2162751894779797, 2.201585162474043]
      },
      {
        "species": [{ "element": "O", "occu": 1 }],
        "abc": [0.46197947, 0.47266896, 0.23177272000000002],
        "properties": { "magmom": -0.024 },
        "label": "O",
        "xyz": [2.0617960803089947, 3.7403100727328527, -0.7731660289878532]
      },
      {
        "species": [{ "element": "O", "occu": 1 }],
        "abc": [0.23177272000000002, 0.46197947, 0.47266896],
        "properties": { "magmom": -0.024 },
        "label": "O",
        "xyz": [0.0071546385908988165, 3.655722308898605, 2.339732593069256]
      },
      {
        "species": [{ "element": "O", "occu": 1 }],
        "abc": [0.26979425, 0.01069149, 0.038020530000000004],
        "properties": { "magmom": -0.024 },
        "label": "O",
        "xyz": [2.4163568968934785, 0.0846035881778098, -0.537639759591928]
      },
      {
        "species": [{ "element": "O", "occu": 1 }],
        "abc": [0.23020575000000001, 0.26822728, 0.74089724],
        "properties": { "magmom": -0.024 },
        "label": "O",
        "xyz": [0.8780267718411049, 2.1225281939041096, 5.570284318950447]
      },
      {
        "species": [{ "element": "O", "occu": 1 }],
        "abc": [0.02733104, 0.48930851000000003, 0.75910276],
        "properties": { "magmom": -0.024 },
        "label": "O",
        "xyz": [-1.9857566712875265, 3.8719816547934633, 5.687908357323125]
      }
    ]
  },
  "task_ids": null,
  "uncorrected_energy_per_atom": null,
  "energy_per_atom": -9.111807831250001,
  "formation_energy_per_atom": -3.768251280249999,
  "energy_above_hull": 0.0,
  "is_stable": true,
  "equilibrium_reaction_energy_per_atom": null,
  "decomposes_to": null,
  "xas": null,
  "grain_boundaries": null,
  "band_gap": 0.0,
  "cbm": null,
  "vbm": null,
  "efermi": 7.290864369999999,
  "is_gap_direct": null,
  "is_metal": null,
  "es_source_calc_id": null,
  "bandstructure": null,
  "dos": null,
  "dos_energy_up": null,
  "dos_energy_down": null,
  "is_magnetic": null,
  "ordering": null,
  "total_magnetization": 15.9999991,
  "total_magnetization_normalized_vol": null,
  "total_magnetization_normalized_formula_units": null,
  "num_magnetic_sites": null,
  "num_unique_magnetic_sites": null,
  "types_of_magnetic_species": null,
  "bulk_modulus": null,
  "shear_modulus": null,
  "universal_anisotropy": null,
  "homogeneous_poisson": null,
  "e_total": null,
  "e_ionic": null,
  "e_electronic": null,
  "n": null,
  "e_ij_max": null,
  "weighted_surface_energy_EV_PER_ANG2": null,
  "weighted_surface_energy": null,
  "weighted_work_function": null,
  "surface_anisotropy": null,
  "shape_factor": null,
  "has_reconstructed": null,
  "possible_species": null,
  "has_props": null,
  "theoretical": null,
  "database_IDs": null,
  "fields_not_requested": [
    "builder_meta",
    "nsites",
    "elements",
    "nelements",
    "composition",
    "composition_reduced",
    "chemsys",
    "symmetry",
    "property_name",
    "deprecated",
    "deprecation_reasons",
    "last_updated",
    "origins",
    "warnings",
    "task_ids",
    "uncorrected_energy_per_atom",
    "equilibrium_reaction_energy_per_atom",
    "decomposes_to",
    "xas",
    "grain_boundaries",
    "cbm",
    "vbm",
    "is_gap_direct",
    "is_metal",
    "es_source_calc_id",
    "bandstructure",
    "dos",
    "dos_energy_up",
    "dos_energy_down",
    "is_magnetic",
    "ordering",
    "total_magnetization_normalized_vol",
    "total_magnetization_normalized_formula_units",
    "num_magnetic_sites",
    "num_unique_magnetic_sites",
    "types_of_magnetic_species",
    "bulk_modulus",
    "shear_modulus",
    "universal_anisotropy",
    "homogeneous_poisson",
    "e_total",
    "e_ionic",
    "e_electronic",
    "n",
    "e_ij_max",
    "weighted_surface_energy_EV_PER_ANG2",
    "weighted_surface_energy",
    "weighted_work_function",
    "surface_anisotropy",
    "shape_factor",
    "has_reconstructed",
    "possible_species",
    "has_props",
    "theoretical",
    "database_IDs"
  ]
}
