{"builder_meta": null, "nsites": null, "elements": null, "nelements": null, "composition": null, "composition_reduced": null, "formula_pretty": "Ce2Sn3", "formula_anonymous": "A2B3", "chemsys": null, "volume": 561.5484528731569, "density": 7.52707237349222, "density_atomic": 28.077422643657844, "symmetry": null, "property_name": null, "material_id": "mp-1213936", "deprecated": null, "deprecation_reasons": null, "last_updated": null, "origins": null, "warnings": null, "structure": {"@module": "pymatgen.core.structure", "@class": "Structure", "charge": 0, "lattice": {"matrix": [[6.38476543, -0.03945946, -0.73745833], [-1.7362792900000001, 7.89307449, -2.5124310100000002], [-0.0159855, 0.04402786, 11.14474097]], "pbc": [true, true, true], "a": 6.427334706827781, "b": 8.463309060738672, "c": 11.144839401133737, "alpha": 107.03047569296173, "beta": 96.67203035149366, "gamma": 100.10539184043367, "volume": 561.5484528731569}, "properties": {}, "sites": [{"species": [{"element": "Ce", "occu": 1}], "abc": [0.33472155000000003, 0.03524282, 0.74446554], "properties": {"magmom": 0.9540000000000001}, "label": "Ce", "xyz": [2.0640265487391485, 0.29774349645424325, 7.961487255265314]}, {"species": [{"element": "Ce", "occu": 1}], "abc": [0.66527845, 0.96475718, 0.25553446], "properties": {"magmom": 0.9540000000000001}, "label": "Ce", "xyz": [2.5684740912608506, 7.599899393545757, -0.06663562526531441]}, {"species": [{"element": "Ce", "occu": 1}], "abc": [0.95549256, 0.25281529, 0.05242042], "properties": {"magmom": 0.855}, "label": "Ce", "xyz": [5.660799946863947, 1.9600946546422358, -0.7556049195845604]}, {"species": [{"element": "Ce", "occu": 1}], "abc": [0.04450744, 0.74718471, 0.94757958], "properties": {"magmom": 0.855}, "label": "Ce", "xyz": [-1.0282993068639468, 5.937548235357764, 8.65045654958456]}, {"species": [{"element": "Ce", "occu": 1}], "abc": [0.55787502, 0.43125993, 0.33542305], "properties": {"magmom": 0.923}, "label": "Ce", "xyz": [2.807751551724934, 3.3967212640916697, 2.2432826055170128]}, {"species": [{"element": "Ce", "occu": 1}], "abc": [0.44212498, 0.56874007, 0.66457695], "properties": {"magmom": 0.923}, "label": "Ce", "xyz": [1.8247490882750657, 4.5009216259083304, 5.651569024482988]}, {"species": [{"element": "Ce", "occu": 1}], "abc": [0.12740547, 0.7551392, 0.38364526], "properties": {"magmom": 1.004}, "label": "Ce", "xyz": [-0.5038112748819961, 5.972233684668705, 2.284435678982645]}, {"species": [{"element": "Ce", "occu": 1}], "abc": [0.87259453, 0.2448608, 0.61635474], "properties": {"magmom": 1.004}, "label": "Ce", "xyz": [5.136311914881996, 1.9254092053312946, 5.610415951017355]}, {"species": [{"element": "Sn", "occu": 1}], "abc": [0.04740347, 0.35353752, 0.37691201], "properties": {"magmom": -0.018000000000000002}, "label": "Sn", "xyz": [-0.31720496463177367, 2.805222094250137, 3.27739000766315]}, {"species": [{"element": "Sn", "occu": 1}], "abc": [0.95259653, 0.6464624800000001, 0.62308799], "properties": {"magmom": -0.018000000000000002}, "label": "Sn", "xyz": [4.949705604631773, 5.092420795749863, 4.617461622336851]}, {"species": [{"element": "Sn", "occu": 1}], "abc": [0.35548823, 0.16709108, 0.49706021], "properties": {"magmom": -0.019}, "label": "Sn", "xyz": [1.9716464239412006, 1.326719464799844, 4.857644719626958]}, {"species": [{"element": "Sn", "occu": 1}], "abc": [0.64451177, 0.83290892, 0.50293979], "properties": {"magmom": -0.019}, "label": "Sn", "xyz": [2.660854216058799, 6.570923425200157, 3.037206910373043]}, {"species": [{"element": "Sn", "occu": 1}], "abc": [0.4355692, 0.16936, 0.05019312], "properties": {"magmom": -0.011}, "label": "Sn", "xyz": [2.4861485478585954, 1.3217936658620912, -0.18733012980890962]}, {"species": [{"element": "Sn", "occu": 1}], "abc": [0.5644308, 0.83064, 0.94980688], "properties": {"magmom": -0.011}, "label": "Sn", "xyz": [2.146352092141404, 6.575849224137909, 8.08218175980891]}, {"species": [{"element": "Sn", "occu": 1}], "abc": [0.32366687, 0.6004262300000001, 0.13857479], "properties": {"magmom": -0.009000000000000001}, "label": "Sn", "xyz": [1.0218142267849823, 4.732538390683432, -0.20284016937377336]}, {"species": [{"element": "Sn", "occu": 1}], "abc": [0.6763331300000001, 0.39957377, 0.86142521], "properties": {"magmom": -0.009000000000000001}, "label": "Sn", "xyz": [3.6106864132150185, 3.165104499316568, 8.097691799373775]}, {"species": [{"element": "Sn", "occu": 1}], "abc": [0.21948956, 0.40460659, 0.86330317], "properties": {"magmom": -0.009000000000000001}, "label": "Sn", "xyz": [0.6850789792953546, 3.2229384056079677, 8.442879660293485]}, {"species": [{"element": "Sn", "occu": 1}], "abc": [0.78051044, 0.59539341, 0.13669683], "properties": {"magmom": -0.009000000000000001}, "label": "Sn", "xyz": [3.9474216607046455, 4.674704484392033, -0.5480280302934846]}, {"species": [{"element": "Sn", "occu": 1}], "abc": [0.17380297, 0.038836999999999004, 0.22210138000000001], "properties": {"magmom": -0.004}, "label": "Sn", "xyz": [1.0387089140916088, 0.3094638110899728, 2.249514618038931]}, {"species": [{"element": "Sn", "occu": 1}], "abc": [0.82619703, 0.961163, 0.77789862], "properties": {"magmom": -0.004}, "label": "Sn", "xyz": [3.5937917259083925, 7.58817907891002, 5.645337011961072]}]}, "task_ids": null, "uncorrected_energy_per_atom": null, "energy_per_atom": -5.374292181499999, "formation_energy_per_atom": -0.5937691204999981, "energy_above_hull": 0.0, "is_stable": true, "equilibrium_reaction_energy_per_atom": null, "decomposes_to": null, "xas": null, "grain_boundaries": null, "band_gap": 0.0, "cbm": null, "vbm": null, "efermi": 7.89259636, "is_gap_direct": null, "is_metal": null, "es_source_calc_id": null, "bandstructure": null, "dos": null, "dos_energy_up": null, "dos_energy_down": null, "is_magnetic": null, "ordering": null, "total_magnetization": 7.0351996, "total_magnetization_normalized_vol": null, "total_magnetization_normalized_formula_units": null, "num_magnetic_sites": null, "num_unique_magnetic_sites": null, "types_of_magnetic_species": null, "bulk_modulus": null, "shear_modulus": null, "universal_anisotropy": null, "homogeneous_poisson": null, "e_total": null, "e_ionic": null, "e_electronic": null, "n": null, "e_ij_max": null, "weighted_surface_energy_EV_PER_ANG2": null, "weighted_surface_energy": null, "weighted_work_function": null, "surface_anisotropy": null, "shape_factor": null, "has_reconstructed": null, "possible_species": null, "has_props": null, "theoretical": null, "database_IDs": null, "fields_not_requested": ["builder_meta", "nsites", "elements", "nelements", "composition", "composition_reduced", "chemsys", "symmetry", "property_name", "deprecated", "deprecation_reasons", "last_updated", "origins", "warnings", "task_ids", "uncorrected_energy_per_atom", "equilibrium_reaction_energy_per_atom", "decomposes_to", "xas", "grain_boundaries", "cbm", "vbm", "is_gap_direct", "is_metal", "es_source_calc_id", "bandstructure", "dos", "dos_energy_up", "dos_energy_down", "is_magnetic", "ordering", "total_magnetization_normalized_vol", "total_magnetization_normalized_formula_units", "num_magnetic_sites", "num_unique_magnetic_sites", "types_of_magnetic_species", "bulk_modulus", "shear_modulus", "universal_anisotropy", "homogeneous_poisson", "e_total", "e_ionic", "e_electronic", "n", "e_ij_max", "weighted_surface_energy_EV_PER_ANG2", "weighted_surface_energy", "weighted_work_function", "surface_anisotropy", "shape_factor", "has_reconstructed", "possible_species", "has_props", "theoretical", "database_IDs"]}