{"builder_meta": null, "nsites": null, "elements": null, "nelements": null, "composition": null, "composition_reduced": null, "formula_pretty": "Ce2Sn5", "formula_anonymous": "A2B5", "chemsys": null, "volume": 382.35273718107027, "density": 7.589584201170538, "density_atomic": 27.310909798647877, "symmetry": null, "property_name": null, "material_id": "mp-541131", "deprecated": null, "deprecation_reasons": null, "last_updated": null, "origins": null, "warnings": null, "structure": {"@module": "pymatgen.core.structure", "@class": "Structure", "charge": 0, "lattice": {"matrix": [[4.55652358, 1e-06, -0.57709699], [-1.009999999999998e-06, 4.6876508999999995, 1.08e-06], [-0.07319113000000001, 1.16e-06, 17.91018857]], "pbc": [true, true, true], "a": 4.5929236953126145, "b": 4.687650900000232, "c": 17.910338119490394, "alpha": 89.99998303826027, "beta": 97.4523868682416, "gamma": 90.0000014309364, "volume": 382.3527371810702}, "properties": {}, "sites": [{"species": [{"element": "Ce", "occu": 1}], "abc": [0.56800229, -0.0, 0.13562676], "properties": {"magmom": 0.895}, "label": "Ce", "xyz": [2.5781891520563596, 7.253293316e-07, 2.1013084348660263]}, {"species": [{"element": "Ce", "occu": 1}], "abc": [0.43195824, 0.0, 0.86432999], "properties": {"magmom": 0.895}, "label": "Ce", "xyz": [1.9049666174743107, 1.4345810283999999e-06, 15.231031307496515]}, {"species": [{"element": "Ce", "occu": 1}], "abc": [0.701842, -0.0, 0.4037542], "properties": {"magmom": 0.9380000000000001}, "label": "Ce", "xyz": [3.168408396294114, 1.170196872e-06, 6.826282952273914]}, {"species": [{"element": "Ce", "occu": 1}], "abc": [0.29822675, 0.0, 0.59630273], "properties": {"magmom": 0.9380000000000001}, "label": "Ce", "xyz": [1.31523314793098, 9.899379168e-07, 10.507788579343313]}, {"species": [{"element": "Sn", "occu": 1}], "abc": [-3.313e-05, 0.0, -2.5230000000000004e-05], "properties": {"magmom": 0.008}, "label": "Sn", "xyz": [-0.00014911101399550002, -6.23968e-11, -0.00043275483434240006]}, {"species": [{"element": "Sn", "occu": 1}], "abc": [0.499944599999999, 0.5, -2.736e-05], "properties": {"magmom": 0.013000000000000001}, "label": "Sn", "xyz": [2.27801085610298, 2.343825949912862, -0.28900600658602865]}, {"species": [{"element": "Sn", "occu": 1}], "abc": [0.86374858, 0.0, 0.72772313], "properties": {"magmom": 0.01}, "label": "Sn", "xyz": [3.88242789374968, 1.7079074108e-06, 12.535191779415849]}, {"species": [{"element": "Sn", "occu": 1}], "abc": [0.13627404, -0.0, 0.27226981], "properties": {"magmom": 0.01}, "label": "Sn", "xyz": [0.601008141543078, 4.5210701959999995e-07, 4.797760300718932]}, {"species": [{"element": "Sn", "occu": 1}], "abc": [0.63665917, 0.5, 0.2738924], "properties": {"magmom": 0.002}, "label": "Sn", "xyz": [2.8809055212738173, 2.3438264043743535, 4.538050981226969]}, {"species": [{"element": "Sn", "occu": 1}], "abc": [0.36334289000000003, 0.5, 0.72610364], "properties": {"magmom": 0.002}, "label": "Sn", "xyz": [1.6024355950016331, 2.343826655623112, 12.794969565606493]}, {"species": [{"element": "Sn", "occu": 1}], "abc": [0.92862296, 0.5, 0.85810871], "properties": {"magmom": 0.004}, "label": "Sn", "xyz": [4.168485963021655, 2.3438273740290634, 14.832983834598553]}, {"species": [{"element": "Sn", "occu": 1}], "abc": [0.07132288, 0.5, 0.14185752000000001], "properties": {"magmom": 0.005}, "label": "Sn", "xyz": [0.31460116732571286, 2.343825685877603, 2.4995352539064153]}, {"species": [{"element": "Sn", "occu": 1}], "abc": [0.7778822200000001, 0.5, 0.5558844900000001], "properties": {"magmom": -0.01}, "label": "Sn", "xyz": [3.5037523589201744, 2.3438268727082283, 9.50708309130176]}, {"species": [{"element": "Sn", "occu": 1}], "abc": [0.22220751, 0.499998999999999, 0.44419721], "properties": {"magmom": -0.01}, "label": "Sn", "xyz": [0.9799819582263485, 2.343821499825369, 7.8274210481904145]}]}, "task_ids": null, "uncorrected_energy_per_atom": null, "energy_per_atom": -5.11586846642857, "formation_energy_per_atom": -0.555617178571425, "energy_above_hull": 0.016432730714284, "is_stable": false, "equilibrium_reaction_energy_per_atom": null, "decomposes_to": null, "xas": null, "grain_boundaries": null, "band_gap": 0.0, "cbm": null, "vbm": null, "efermi": 8.47627594, "is_gap_direct": null, "is_metal": null, "es_source_calc_id": null, "bandstructure": null, "dos": null, "dos_energy_up": null, "dos_energy_down": null, "is_magnetic": null, "ordering": null, "total_magnetization": 4.0131818, "total_magnetization_normalized_vol": null, "total_magnetization_normalized_formula_units": null, "num_magnetic_sites": null, "num_unique_magnetic_sites": null, "types_of_magnetic_species": null, "bulk_modulus": null, "shear_modulus": null, "universal_anisotropy": null, "homogeneous_poisson": null, "e_total": null, "e_ionic": null, "e_electronic": null, "n": null, "e_ij_max": null, "weighted_surface_energy_EV_PER_ANG2": null, "weighted_surface_energy": null, "weighted_work_function": null, "surface_anisotropy": null, "shape_factor": null, "has_reconstructed": null, "possible_species": null, "has_props": null, "theoretical": null, "database_IDs": null, "fields_not_requested": ["builder_meta", "nsites", "elements", "nelements", "composition", "composition_reduced", "chemsys", "symmetry", "property_name", "deprecated", "deprecation_reasons", "last_updated", "origins", "warnings", "task_ids", "uncorrected_energy_per_atom", "equilibrium_reaction_energy_per_atom", "decomposes_to", "xas", "grain_boundaries", "cbm", "vbm", "is_gap_direct", "is_metal", "es_source_calc_id", "bandstructure", "dos", "dos_energy_up", "dos_energy_down", "is_magnetic", "ordering", "total_magnetization_normalized_vol", "total_magnetization_normalized_formula_units", "num_magnetic_sites", "num_unique_magnetic_sites", "types_of_magnetic_species", "bulk_modulus", "shear_modulus", "universal_anisotropy", "homogeneous_poisson", "e_total", "e_ionic", "e_electronic", "n", "e_ij_max", "weighted_surface_energy_EV_PER_ANG2", "weighted_surface_energy", "weighted_work_function", "surface_anisotropy", "shape_factor", "has_reconstructed", "possible_species", "has_props", "theoretical", "database_IDs"]}