{"builder_meta": null, "nsites": null, "elements": null, "nelements": null, "composition": null, "composition_reduced": null, "formula_pretty": "Ce2Se3", "formula_anonymous": "A2B3", "chemsys": null, "volume": 1056.9652546808159, "density": 6.4992462070437025, "density_atomic": 26.424131367020397, "symmetry": null, "property_name": null, "material_id": "mp-32578", "deprecated": null, "deprecation_reasons": null, "last_updated": null, "origins": null, "warnings": null, "structure": {"@module": "pymatgen.core.structure", "@class": "Structure", "charge": 0, "lattice": {"matrix": [[-4.44835, 4.44835, 13.353737], [4.44835, -4.44835, 13.353737], [4.44835, 4.44835, -13.353737]], "pbc": [true, true, true], "a": 14.761366038079572, "b": 14.761366038079572, "c": 14.761366038079572, "alpha": 144.92248889293242, "beta": 144.92248889293242, "gamma": 50.45004856270723, "volume": 1056.9652546808159}, "properties": {}, "sites": [{"species": [{"element": "Ce", "occu": 1}], "abc": [0.416506, 0.916505999999999, 0.5], "properties": {"magmom": 0.933}, "label": "Ce", "xyz": [4.448349999999995, 4.440892098500626e-15, 11.123823165843987]}, {"species": [{"element": "Ce", "occu": 1}], "abc": [0.754884999999999, 0.125, 0.129885], "properties": {"magmom": 0.9500000000000001}, "label": "Ce", "xyz": [-2.2241749999999954, 3.3797228794999956, 10.015302749999988]}, {"species": [{"element": "Ce", "occu": 1}], "abc": [0.545621, 0.656295, 0.622227], "properties": {"magmom": 0.903}, "label": "Ce", "xyz": [3.2602001633499995, 2.27556678755, 7.7410144477930025]}, {"species": [{"element": "Ce", "occu": 1}], "abc": [0.333494, 0.333494, 0.0], "properties": {"magmom": 0.9390000000000001}, "label": "Ce", "xyz": [0.0, 0.0, 8.906782334156]}, {"species": [{"element": "Ce", "occu": 1}], "abc": [0.034068, 0.923393999999999, 0.377772999999999], "properties": {"magmom": 0.906}, "label": "Ce", "xyz": [5.636499836649991, -2.27556678755, 7.741014447793001]}, {"species": [{"element": "Ce", "occu": 1}], "abc": [0.995115, 0.625, 0.870115], "properties": {"magmom": 0.9530000000000001}, "label": "Ce", "xyz": [2.224175, 5.516977120499999, 10.015302750000002]}, {"species": [{"element": "Ce", "occu": 1}], "abc": [0.076606, 0.454379, 0.110673], "properties": {"magmom": 0.918}, "label": "Ce", "xyz": [2.1727787641, -1.188154285, 5.612735905944]}, {"species": [{"element": "Ce", "occu": 1}], "abc": [0.875, 0.004885, 0.629884999999999], "properties": {"magmom": 0.9400000000000001}, "label": "Ce", "xyz": [-1.0686271205000044, 6.672524999999995, 3.338434250000013]}, {"species": [{"element": "Ce", "occu": 1}], "abc": [0.666505999999999, 0.666505999999999, 0.0], "properties": {"magmom": 0.9430000000000001}, "label": "Ce", "xyz": [0.0, 0.0, 17.800691665843974]}, {"species": [{"element": "Ce", "occu": 1}], "abc": [0.375, 0.245115, 0.37011499999999903], "properties": {"magmom": 0.9420000000000001}, "label": "Ce", "xyz": [1.0686271204999955, 2.2241749999999954, 3.338434250000013]}, {"species": [{"element": "Ce", "occu": 1}], "abc": [0.343705, 0.9659319999999991, 0.889327], "properties": {"magmom": 0.919}, "label": "Ce", "xyz": [6.723921235899995, 1.1881542850000044, 5.6127091984699895]}, {"species": [{"element": "Ce", "occu": 1}], "abc": [0.083494, 0.583494, 0.5], "properties": {"magmom": 0.9490000000000001}, "label": "Ce", "xyz": [4.44835, 0.0, 2.229913834156]}, {"species": [{"element": "Ce", "occu": 1}], "abc": [0.406294999999999, 0.795620999999999, 0.122226999999999], "properties": {"magmom": 0.919}, "label": "Ce", "xyz": [2.2755667875499954, -1.188149836650004, 14.41788294779299]}, {"species": [{"element": "Ce", "occu": 1}], "abc": [0.204378999999999, 0.326606, 0.610673], "properties": {"magmom": 0.903}, "label": "Ce", "xyz": [3.260195715000004, 2.1727787640999954, -1.064132594056014]}, {"species": [{"element": "Ce", "occu": 1}], "abc": [0.715932, 0.593704999999999, 0.389327], "properties": {"magmom": 0.903}, "label": "Ce", "xyz": [1.1881542849999953, 2.2755712359000038, 12.28957769846999]}, {"species": [{"element": "Ce", "occu": 1}], "abc": [0.673393999999999, 0.284068, 0.877772999999999], "properties": {"magmom": 0.921}, "label": "Ce", "xyz": [2.1727832124499997, 5.636499836649991, 1.0641459477929995]}, {"species": [{"element": "Se", "occu": 1}], "abc": [0.359054, 0.606823999999999, 0.099968], "properties": {"magmom": -0.032}, "label": "Se", "xyz": [1.5468603322999959, -0.657475026699996, 11.563134405669988]}, {"species": [{"element": "Se", "occu": 1}], "abc": [0.076158, 0.971102999999999, 0.25375000000000003], "properties": {"magmom": -0.034}, "label": "Se", "xyz": [5.1097974032499955, -2.852259778249995, 10.596337200606987]}, {"species": [{"element": "Se", "occu": 1}], "abc": [0.506856, 0.259086, 0.900031999999999], "properties": {"magmom": -0.032}, "label": "Se", "xyz": [2.9014896676999955, 5.105825026699995, -1.7906025943299895]}, {"species": [{"element": "Se", "occu": 1}], "abc": [0.390945999999999, 0.990914, 0.747771], "properties": {"magmom": -0.032}, "label": "Se", "xyz": [5.995214780650003, 0.6574794750499962, 8.46745774059299]}, {"species": [{"element": "Se", "occu": 1}], "abc": [0.243144, 0.643176, 0.252229], "properties": {"magmom": -0.032}, "label": "Se", "xyz": [2.901485219349999, -0.6574794750499997, 8.467484448067]}, {"species": [{"element": "Se", "occu": 1}], "abc": [0.717352, 0.822407999999999, 0.7462500000000001], "properties": {"magmom": -0.034}, "label": "Se", "xyz": [3.7869070450999955, 2.852255329900004, 10.596323846869987]}, {"species": [{"element": "Se", "occu": 1}], "abc": [0.686790999999999, 0.937823, 0.092608], "properties": {"magmom": -0.036000000000000004}, "label": "Se", "xyz": [1.5286309940000038, -0.7047254004000038, 20.458005206421987]}, {"species": [{"element": "Se", "occu": 1}], "abc": [0.673841999999999, 0.42759199999999903, 0.394945], "properties": {"magmom": -0.034}, "label": "Se", "xyz": [0.66144740325, 2.8522597782499997, 9.434268299392976]}, {"species": [{"element": "Se", "occu": 1}], "abc": [0.405817, 0.313208999999999, 0.251032], "properties": {"magmom": -0.036000000000000004}, "label": "Se", "xyz": [0.7047254003999954, 1.528630994000004, 6.249468793577986]}, {"species": [{"element": "Se", "occu": 1}], "abc": [0.845214999999999, 0.594183, 0.907392], "properties": {"magmom": -0.036000000000000004}, "label": "Se", "xyz": [2.9197190060000047, 5.153075400399995, 7.104268206421988]}, {"species": [{"element": "Se", "occu": 1}], "abc": [0.032647999999999004, 0.278897, 0.605055], "properties": {"magmom": -0.034}, "label": "Se", "xyz": [3.786898148400004, 1.5960946700999956, -3.919455346870013]}, {"species": [{"element": "Se", "occu": 1}], "abc": [0.721102999999999, 0.326158, 0.75375], "properties": {"magmom": -0.035}, "label": "Se", "xyz": [1.5960902217500046, 5.1097974032499955, 3.9194687006069877]}, {"species": [{"element": "Se", "occu": 1}], "abc": [0.572408, 0.967352, 0.24625000000000002], "properties": {"magmom": -0.035}, "label": "Se", "xyz": [2.8522553299, -0.6614429549, 17.27319234687]}, {"species": [{"element": "Se", "occu": 1}], "abc": [0.062176999999999004, 0.154785, 0.748968], "properties": {"magmom": -0.036000000000000004}, "label": "Se", "xyz": [3.743624599600004, 2.919719005999995, -7.104268206422014]}, {"species": [{"element": "Se", "occu": 1}], "abc": [0.028897, 0.282648, 0.105055], "properties": {"magmom": -0.035}, "label": "Se", "xyz": [1.5960946701, -0.6614518516000001, 2.757413153130001]}, {"species": [{"element": "Se", "occu": 1}], "abc": [0.009086, 0.756856, 0.400032], "properties": {"magmom": -0.032}, "label": "Se", "xyz": [5.105825026699999, -1.5468603322999994, 4.886265905670001]}, {"species": [{"element": "Se", "occu": 1}], "abc": [0.740914, 0.640946, 0.247771], "properties": {"magmom": -0.032}, "label": "Se", "xyz": [0.6574794750500002, 1.5468647806499995, 15.144326240593001]}, {"species": [{"element": "Se", "occu": 1}], "abc": [0.177592, 0.923841999999999, 0.894945], "properties": {"magmom": -0.035}, "label": "Se", "xyz": [7.300609778249996, 0.6614474032500035, 2.7573997993929886]}, {"species": [{"element": "Se", "occu": 1}], "abc": [0.356824, 0.609054, 0.599968], "properties": {"magmom": -0.032}, "label": "Se", "xyz": [3.7908749732999993, 1.5468603322999996, 4.886265905670003]}, {"species": [{"element": "Se", "occu": 1}], "abc": [0.063209, 0.655817, 0.751031999999999], "properties": {"magmom": -0.036000000000000004}, "label": "Se", "xyz": [5.9769809939999945, 0.7047254003999961, -0.427399706421987]}, {"species": [{"element": "Se", "occu": 1}], "abc": [0.904785, 0.312177, 0.248968], "properties": {"magmom": -0.036000000000000004}, "label": "Se", "xyz": [-1.5286309939999996, 3.7436245995999995, 12.926337293577998]}, {"species": [{"element": "Se", "occu": 1}], "abc": [0.393175999999999, 0.493143999999999, 0.752228999999999], "properties": {"magmom": -0.032}, "label": "Se", "xyz": [3.7908705249499954, 2.901485219349995, 1.7906159480669874]}, {"species": [{"element": "Se", "occu": 1}], "abc": [0.344182999999999, 0.095215, 0.407392], "properties": {"magmom": -0.036000000000000004}, "label": "Se", "xyz": [0.7047254004000041, 2.9197190059999953, 0.427399706421987]}, {"species": [{"element": "Se", "occu": 1}], "abc": [0.687823, 0.936790999999999, 0.592608], "properties": {"magmom": -0.036000000000000004}, "label": "Se", "xyz": [3.743624599599996, 1.5286309940000038, 13.781136706421986]}]}, "task_ids": null, "uncorrected_energy_per_atom": null, "energy_per_atom": -6.573068619749999, "formation_energy_per_atom": -2.100741785156247, "energy_above_hull": 0.0, "is_stable": true, "equilibrium_reaction_energy_per_atom": null, "decomposes_to": null, "xas": null, "grain_boundaries": null, "band_gap": 0.0, "cbm": null, "vbm": null, "efermi": 6.23689374, "is_gap_direct": null, "is_metal": null, "es_source_calc_id": null, "bandstructure": null, "dos": null, "dos_energy_up": null, "dos_energy_down": null, "is_magnetic": null, "ordering": null, "total_magnetization": 16.0760163, "total_magnetization_normalized_vol": null, "total_magnetization_normalized_formula_units": null, "num_magnetic_sites": null, "num_unique_magnetic_sites": null, "types_of_magnetic_species": null, "bulk_modulus": null, "shear_modulus": null, "universal_anisotropy": null, "homogeneous_poisson": null, "e_total": null, "e_ionic": null, "e_electronic": null, "n": null, "e_ij_max": null, "weighted_surface_energy_EV_PER_ANG2": null, "weighted_surface_energy": null, "weighted_work_function": null, "surface_anisotropy": null, "shape_factor": null, "has_reconstructed": null, "possible_species": null, "has_props": null, "theoretical": null, "database_IDs": null, "fields_not_requested": ["builder_meta", "nsites", "elements", "nelements", "composition", "composition_reduced", "chemsys", "symmetry", "property_name", "deprecated", "deprecation_reasons", "last_updated", "origins", "warnings", "task_ids", "uncorrected_energy_per_atom", "equilibrium_reaction_energy_per_atom", "decomposes_to", "xas", "grain_boundaries", "cbm", "vbm", "is_gap_direct", "is_metal", "es_source_calc_id", "bandstructure", "dos", "dos_energy_up", "dos_energy_down", "is_magnetic", "ordering", "total_magnetization_normalized_vol", "total_magnetization_normalized_formula_units", "num_magnetic_sites", "num_unique_magnetic_sites", "types_of_magnetic_species", "bulk_modulus", "shear_modulus", "universal_anisotropy", "homogeneous_poisson", "e_total", "e_ionic", "e_electronic", "n", "e_ij_max", "weighted_surface_energy_EV_PER_ANG2", "weighted_surface_energy", "weighted_work_function", "surface_anisotropy", "shape_factor", "has_reconstructed", "possible_species", "has_props", "theoretical", "database_IDs"]}