{
  "builder_meta": null,
  "nsites": null,
  "elements": null,
  "nelements": null,
  "composition": null,
  "composition_reduced": null,
  "formula_pretty": "Ce2S3",
  "formula_anonymous": "A2B3",
  "chemsys": null,
  "volume": 485.0388733277749,
  "density": 5.154817674175432,
  "density_atomic": 24.251943666388748,
  "symmetry": null,
  "property_name": null,
  "material_id": "mp-20973",
  "deprecated": null,
  "deprecation_reasons": null,
  "last_updated": null,
  "origins": null,
  "warnings": null,
  "structure": {
    "@module": "pymatgen.core.structure",
    "@class": "Structure",
    "charge": 0,
    "lattice": {
      "matrix": [
        [4.09449793, 0.0, 0.0],
        [0.0, 7.5719663, 0.014949299999999001],
        [0.0, 0.00405911, 15.64470724]
      ],
      "pbc": [true, true, true],
      "a": 4.09449793,
      "b": 7.571981057154473,
      "c": 15.644707766579804,
      "alpha": 89.8720156178288,
      "beta": 90.0,
      "gamma": 90.0,
      "volume": 485.0388733277749
    },
    "properties": {},
    "sites": [
      {
        "species": [{ "element": "Ce", "occu": 1 }],
        "abc": [0.25, 0.76355437, 0.54201429],
        "properties": { "magmom": -0.9580000000000001 },
        "label": "Ce",
        "xyz": [1.0236244825, 5.783808053482413, 8.491069490289899]
      },
      {
        "species": [{ "element": "Ce", "occu": 1 }],
        "abc": [0.75, 0.23644563000000002, 0.45798571],
        "properties": { "magmom": -0.9580000000000001 },
        "label": "Ce",
        "xyz": [3.0708734475000004, 1.7922173565175872, 7.168587049710099]
      },
      {
        "species": [{ "element": "Ce", "occu": 1 }],
        "abc": [0.25, 0.26316354000000003, 0.95767136],
        "properties": { "magmom": 0.9460000000000001 },
        "label": "Ce",
        "xyz": [1.0236244825, 1.9965527496627917, 14.98642217004117]
      },
      {
        "species": [{ "element": "Ce", "occu": 1 }],
        "abc": [0.75, 0.73683646, 0.04232864],
        "properties": { "magmom": 0.9460000000000001 },
        "label": "Ce",
        "xyz": [3.0708734475000004, 5.579472660337209, 0.6732343699588309]
      },
      {
        "species": [{ "element": "Ce", "occu": 1 }],
        "abc": [0.25, 0.63717015, 0.29341182],
        "properties": { "magmom": -0.968 },
        "label": "Ce",
        "xyz": [1.0236244825, 4.825821894018625, 4.5998672723789715]
      },
      {
        "species": [{ "element": "Ce", "occu": 1 }],
        "abc": [0.75, 0.36282985, 0.70658818],
        "properties": { "magmom": -0.968 },
        "label": "Ce",
        "xyz": [3.0708734475000004, 2.750203515981375, 11.059789267621028]
      },
      {
        "species": [{ "element": "Ce", "occu": 1 }],
        "abc": [0.25, 0.13638221, 0.20761762],
        "properties": { "magmom": -0.98 },
        "label": "Ce",
        "xyz": [1.0236244825, 1.033524240797041, 3.2501557013375217]
      },
      {
        "species": [{ "element": "Ce", "occu": 1 }],
        "abc": [0.75, 0.86361779, 0.79238238],
        "properties": { "magmom": -0.98 },
        "label": "Ce",
        "xyz": [3.0708734475000004, 6.542501169202959, 12.409500838662478]
      },
      {
        "species": [{ "element": "S", "occu": 1 }],
        "abc": [0.25, 0.64964907, 0.7197057],
        "properties": { "magmom": 0.022 },
        "label": "S",
        "xyz": [1.0236244825, 4.922042229470269, 11.26929677430142]
      },
      {
        "species": [{ "element": "S", "occu": 1 }],
        "abc": [0.75, 0.35035093, 0.2802943],
        "properties": { "magmom": 0.022 },
        "label": "S",
        "xyz": [3.0708734475000004, 2.653983180529732, 4.390359765698581]
      },
      {
        "species": [{ "element": "S", "occu": 1 }],
        "abc": [0.25, 0.15065121, 0.7798871900000001],
        "properties": { "magmom": 0.015 },
        "label": "S",
        "xyz": [1.0236244825, 1.143891533066024, 12.203358897909911]
      },
      {
        "species": [{ "element": "S", "occu": 1 }],
        "abc": [0.75, 0.84934879, 0.22011281],
        "properties": { "magmom": 0.015 },
        "label": "S",
        "xyz": [3.0708734475000004, 6.4321338769339755, 3.4562976420900906]
      },
      {
        "species": [{ "element": "S", "occu": 1 }],
        "abc": [0.25, 0.87314309, 0.93172805],
        "properties": { "magmom": -0.005 },
        "label": "S",
        "xyz": [1.0236244825, 6.615192039202903, 14.589665447541421]
      },
      {
        "species": [{ "element": "S", "occu": 1 }],
        "abc": [0.75, 0.12685691, 0.06827195],
        "properties": { "magmom": -0.005 },
        "label": "S",
        "xyz": [3.0708734475000004, 0.9608333707970974, 1.069991092458581]
      },
      {
        "species": [{ "element": "S", "occu": 1 }],
        "abc": [0.25, 0.37278657, 0.568045399999999],
        "properties": { "magmom": 0.025 },
        "label": "S",
        "xyz": [1.0236244825, 2.825033103896185, 8.892476880299581]
      },
      {
        "species": [{ "element": "S", "occu": 1 }],
        "abc": [0.75, 0.62721343, 0.431954599999999],
        "properties": { "magmom": 0.025 },
        "label": "S",
        "xyz": [3.0708734475000004, 4.750992306103814, 6.767179659700387]
      },
      {
        "species": [{ "element": "S", "occu": 1 }],
        "abc": [0.75, 0.9877477, 0.60804536],
        "properties": { "magmom": 0.023 },
        "label": "S",
        "xyz": [3.0708734475000004, 7.48166042030374, 9.527457782532016]
      },
      {
        "species": [{ "element": "S", "occu": 1 }],
        "abc": [0.25, 0.012252299999999001, 0.39195464],
        "properties": { "magmom": 0.023 },
        "label": "S",
        "xyz": [1.0236244825, 0.09436498969625284, 6.132198757467984]
      },
      {
        "species": [{ "element": "S", "occu": 1 }],
        "abc": [0.75, 0.48773772, 0.89196987],
        "properties": { "magmom": -0.009000000000000001 },
        "label": "S",
        "xyz": [3.0708734475000004, 3.6967541828978514, 13.961898820548456]
      },
      {
        "species": [{ "element": "S", "occu": 1 }],
        "abc": [0.25, 0.51226228, 0.10803013],
        "properties": { "magmom": -0.009000000000000001 },
        "label": "S",
        "xyz": [1.0236244825, 3.879271227102148, 1.697757719451545]
      }
    ]
  },
  "task_ids": null,
  "uncorrected_energy_per_atom": null,
  "energy_per_atom": -19.566122223,
  "formation_energy_per_atom": -2.408871269687497,
  "energy_above_hull": 0.0,
  "is_stable": true,
  "equilibrium_reaction_energy_per_atom": null,
  "decomposes_to": null,
  "xas": null,
  "grain_boundaries": null,
  "band_gap": 0.0,
  "cbm": null,
  "vbm": null,
  "efermi": 7.21711582,
  "is_gap_direct": null,
  "is_metal": null,
  "es_source_calc_id": null,
  "bandstructure": null,
  "dos": null,
  "dos_energy_up": null,
  "dos_energy_down": null,
  "is_magnetic": null,
  "ordering": null,
  "total_magnetization": 4.0573519,
  "total_magnetization_normalized_vol": null,
  "total_magnetization_normalized_formula_units": null,
  "num_magnetic_sites": null,
  "num_unique_magnetic_sites": null,
  "types_of_magnetic_species": null,
  "bulk_modulus": null,
  "shear_modulus": null,
  "universal_anisotropy": null,
  "homogeneous_poisson": null,
  "e_total": null,
  "e_ionic": null,
  "e_electronic": null,
  "n": null,
  "e_ij_max": null,
  "weighted_surface_energy_EV_PER_ANG2": null,
  "weighted_surface_energy": null,
  "weighted_work_function": null,
  "surface_anisotropy": null,
  "shape_factor": null,
  "has_reconstructed": null,
  "possible_species": null,
  "has_props": null,
  "theoretical": null,
  "database_IDs": null,
  "fields_not_requested": [
    "builder_meta",
    "nsites",
    "elements",
    "nelements",
    "composition",
    "composition_reduced",
    "chemsys",
    "symmetry",
    "property_name",
    "deprecated",
    "deprecation_reasons",
    "last_updated",
    "origins",
    "warnings",
    "task_ids",
    "uncorrected_energy_per_atom",
    "equilibrium_reaction_energy_per_atom",
    "decomposes_to",
    "xas",
    "grain_boundaries",
    "cbm",
    "vbm",
    "is_gap_direct",
    "is_metal",
    "es_source_calc_id",
    "bandstructure",
    "dos",
    "dos_energy_up",
    "dos_energy_down",
    "is_magnetic",
    "ordering",
    "total_magnetization_normalized_vol",
    "total_magnetization_normalized_formula_units",
    "num_magnetic_sites",
    "num_unique_magnetic_sites",
    "types_of_magnetic_species",
    "bulk_modulus",
    "shear_modulus",
    "universal_anisotropy",
    "homogeneous_poisson",
    "e_total",
    "e_ionic",
    "e_electronic",
    "n",
    "e_ij_max",
    "weighted_surface_energy_EV_PER_ANG2",
    "weighted_surface_energy",
    "weighted_work_function",
    "surface_anisotropy",
    "shape_factor",
    "has_reconstructed",
    "possible_species",
    "has_props",
    "theoretical",
    "database_IDs"
  ]
}
