{
  "builder_meta": null,
  "nsites": null,
  "elements": null,
  "nelements": null,
  "composition": null,
  "composition_reduced": null,
  "formula_pretty": "Ce2Sb",
  "formula_anonymous": "AB2",
  "chemsys": null,
  "volume": 185.8640803438278,
  "density": 7.182920112652465,
  "density_atomic": 30.977346723971298,
  "symmetry": null,
  "property_name": null,
  "material_id": "mp-22678",
  "deprecated": null,
  "deprecation_reasons": null,
  "last_updated": null,
  "origins": null,
  "warnings": null,
  "structure": {
    "@module": "pymatgen.core.structure",
    "@class": "Structure",
    "charge": 0,
    "lattice": {
      "matrix": [
        [4.37033163, -0.0049247200000000005, -1.07084175],
        [-0.26992675, 4.36199083, -1.07084173],
        [0.09161135000000001, 0.09734608, 9.70264415]
      ],
      "pbc": [true, true, true],
      "a": 4.49961385705358,
      "b": 4.499614034789989,
      "c": 9.70356493255285,
      "alpha": 103.22665996542686,
      "beta": 103.22666315293729,
      "gamma": 90.15408567803127,
      "volume": 185.86408034382782
    },
    "properties": {},
    "sites": [
      {
        "species": [{ "element": "Ce", "occu": 1 }],
        "abc": [0.18038426, 0.18038426, 0.36403722],
        "properties": { "magmom": 1.229 },
        "label": "Ce",
        "xyz": [0.7729984411536357, 0.821383742364526, 3.1457976133212378]
      },
      {
        "species": [{ "element": "Ce", "occu": 1 }],
        "abc": [0.81947461, 0.81947461, 0.63567765],
        "properties": { "magmom": 1.229 },
        "label": "Ce",
        "xyz": [3.418412977561424, 3.6323857786075795, 4.412698797541804]
      },
      {
        "species": [{ "element": "Ce", "occu": 1 }],
        "abc": [6.156e-5, 0.50006728, 0.00012121],
        "properties": { "magmom": 1.232 },
        "label": "Ce",
        "xyz": [-0.1347013938448637, 2.1813003858956357, -0.5343827747523029]
      },
      {
        "species": [{ "element": "Ce", "occu": 1 }],
        "abc": [0.50006728, 6.156e-5, 0.00012121],
        "properties": { "magmom": 1.232 },
        "label": "Ce",
        "xyz": [2.18545433843307, -0.00218236786131, -0.5343827847524174]
      },
      {
        "species": [{ "element": "Sb", "occu": 1 }],
        "abc": [0.63426072, 0.63426072, 0.27100345],
        "properties": { "magmom": -0.056 },
        "label": "Sb",
        "xyz": [2.625552743389471, 2.7898970115401753, 1.2710643327354116]
      },
      {
        "species": [{ "element": "Sb", "occu": 1 }],
        "abc": [0.36575057, 0.36575057, 0.72903726],
        "properties": { "magmom": -0.056 },
        "label": "Sb",
        "xyz": [1.5665135096796827, 1.6645683326951235, 6.290267152301444]
      }
    ]
  },
  "task_ids": null,
  "uncorrected_energy_per_atom": null,
  "energy_per_atom": -30.112409253333336,
  "formation_energy_per_atom": -0.9832181700000001,
  "energy_above_hull": 0.0,
  "is_stable": true,
  "equilibrium_reaction_energy_per_atom": null,
  "decomposes_to": null,
  "xas": null,
  "grain_boundaries": null,
  "band_gap": 0.0,
  "cbm": null,
  "vbm": null,
  "efermi": 8.24554172,
  "is_gap_direct": null,
  "is_metal": null,
  "es_source_calc_id": null,
  "bandstructure": null,
  "dos": null,
  "dos_energy_up": null,
  "dos_energy_down": null,
  "is_magnetic": null,
  "ordering": null,
  "total_magnetization": 6.3035864,
  "total_magnetization_normalized_vol": null,
  "total_magnetization_normalized_formula_units": null,
  "num_magnetic_sites": null,
  "num_unique_magnetic_sites": null,
  "types_of_magnetic_species": null,
  "bulk_modulus": null,
  "shear_modulus": null,
  "universal_anisotropy": null,
  "homogeneous_poisson": null,
  "e_total": null,
  "e_ionic": null,
  "e_electronic": null,
  "n": null,
  "e_ij_max": null,
  "weighted_surface_energy_EV_PER_ANG2": null,
  "weighted_surface_energy": null,
  "weighted_work_function": null,
  "surface_anisotropy": null,
  "shape_factor": null,
  "has_reconstructed": null,
  "possible_species": null,
  "has_props": null,
  "theoretical": null,
  "database_IDs": null,
  "fields_not_requested": [
    "builder_meta",
    "nsites",
    "elements",
    "nelements",
    "composition",
    "composition_reduced",
    "chemsys",
    "symmetry",
    "property_name",
    "deprecated",
    "deprecation_reasons",
    "last_updated",
    "origins",
    "warnings",
    "task_ids",
    "uncorrected_energy_per_atom",
    "equilibrium_reaction_energy_per_atom",
    "decomposes_to",
    "xas",
    "grain_boundaries",
    "cbm",
    "vbm",
    "is_gap_direct",
    "is_metal",
    "es_source_calc_id",
    "bandstructure",
    "dos",
    "dos_energy_up",
    "dos_energy_down",
    "is_magnetic",
    "ordering",
    "total_magnetization_normalized_vol",
    "total_magnetization_normalized_formula_units",
    "num_magnetic_sites",
    "num_unique_magnetic_sites",
    "types_of_magnetic_species",
    "bulk_modulus",
    "shear_modulus",
    "universal_anisotropy",
    "homogeneous_poisson",
    "e_total",
    "e_ionic",
    "e_electronic",
    "n",
    "e_ij_max",
    "weighted_surface_energy_EV_PER_ANG2",
    "weighted_surface_energy",
    "weighted_work_function",
    "surface_anisotropy",
    "shape_factor",
    "has_reconstructed",
    "possible_species",
    "has_props",
    "theoretical",
    "database_IDs"
  ]
}
