{
  "builder_meta": null,
  "nsites": null,
  "elements": null,
  "nelements": null,
  "composition": null,
  "composition_reduced": null,
  "formula_pretty": "Ce2Si7",
  "formula_anonymous": "A2B7",
  "chemsys": null,
  "volume": 156.42526108791822,
  "density": 5.061814619260156,
  "density_atomic": 17.380584565324245,
  "symmetry": null,
  "property_name": null,
  "material_id": "mp-1079241",
  "deprecated": null,
  "deprecation_reasons": null,
  "last_updated": null,
  "origins": null,
  "warnings": null,
  "structure": {
    "@module": "pymatgen.core.structure",
    "@class": "Structure",
    "charge": 0,
    "lattice": {
      "matrix": [
        [3.527484, -4.9906939999999995, 0.0],
        [3.527484, 4.9906939999999995, 0.0],
        [0.0, 0.0, 4.44274]
      ],
      "pbc": [true, true, true],
      "a": 6.111478542209896,
      "b": 6.111478542209896,
      "c": 4.44274,
      "alpha": 90.0,
      "beta": 90.0,
      "gamma": 109.49371900449343,
      "volume": 156.4252610879182
    },
    "properties": {},
    "sites": [
      {
        "species": [{ "element": "Ce", "occu": 1 }],
        "abc": [0.295746, 0.704253999999999, 0.0],
        "properties": { "magmom": -0.0 },
        "label": "Ce",
        "xyz": [3.5274839999999967, 2.038738424551995, 0.0]
      },
      {
        "species": [{ "element": "Ce", "occu": 1 }],
        "abc": [0.704253999999999, 0.295746, 0.0],
        "properties": { "magmom": -0.0 },
        "label": "Ce",
        "xyz": [3.5274839999999967, -2.038738424551995, 0.0]
      },
      {
        "species": [{ "element": "Si", "occu": 1 }],
        "abc": [0.5, 0.5, 0.5],
        "properties": { "magmom": 0.0 },
        "label": "Si",
        "xyz": [3.527484, 0.0, 2.22137]
      },
      {
        "species": [{ "element": "Si", "occu": 1 }],
        "abc": [0.321146, 0.056464, 0.5],
        "properties": { "magmom": 0.0 },
        "label": "Si",
        "xyz": [1.3320132332399999, -1.320946869308, 2.22137]
      },
      {
        "species": [{ "element": "Si", "occu": 1 }],
        "abc": [0.678854, 0.943535999999999, 0.5],
        "properties": { "magmom": 0.0 },
        "label": "Si",
        "xyz": [5.722954766759996, 1.3209468693079955, 2.22137]
      },
      {
        "species": [{ "element": "Si", "occu": 1 }],
        "abc": [0.056464, 0.321146, 0.5],
        "properties": { "magmom": 0.0 },
        "label": "Si",
        "xyz": [1.3320132332399999, 1.320946869308, 2.22137]
      },
      {
        "species": [{ "element": "Si", "occu": 1 }],
        "abc": [0.943535999999999, 0.678854, 0.5],
        "properties": { "magmom": 0.0 },
        "label": "Si",
        "xyz": [5.722954766759996, -1.3209468693079955, 2.22137]
      },
      {
        "species": [{ "element": "Si", "occu": 1 }],
        "abc": [0.179327, 0.179327, 0.0],
        "properties": { "magmom": 0.0 },
        "label": "Si",
        "xyz": [1.265146246536, 0.0, 0.0]
      },
      {
        "species": [{ "element": "Si", "occu": 1 }],
        "abc": [0.820673, 0.820673, 0.0],
        "properties": { "magmom": 0.0 },
        "label": "Si",
        "xyz": [5.7898217534639995, 0.0, 0.0]
      }
    ]
  },
  "task_ids": null,
  "uncorrected_energy_per_atom": null,
  "energy_per_atom": -14.033329841666665,
  "formation_energy_per_atom": -0.355817654444444,
  "energy_above_hull": 0.09605580555555601,
  "is_stable": false,
  "equilibrium_reaction_energy_per_atom": null,
  "decomposes_to": null,
  "xas": null,
  "grain_boundaries": null,
  "band_gap": 0.0,
  "cbm": null,
  "vbm": null,
  "efermi": 9.64268133,
  "is_gap_direct": null,
  "is_metal": null,
  "es_source_calc_id": null,
  "bandstructure": null,
  "dos": null,
  "dos_energy_up": null,
  "dos_energy_down": null,
  "is_magnetic": null,
  "ordering": null,
  "total_magnetization": 0.0002547,
  "total_magnetization_normalized_vol": null,
  "total_magnetization_normalized_formula_units": null,
  "num_magnetic_sites": null,
  "num_unique_magnetic_sites": null,
  "types_of_magnetic_species": null,
  "bulk_modulus": null,
  "shear_modulus": null,
  "universal_anisotropy": null,
  "homogeneous_poisson": null,
  "e_total": null,
  "e_ionic": null,
  "e_electronic": null,
  "n": null,
  "e_ij_max": null,
  "weighted_surface_energy_EV_PER_ANG2": null,
  "weighted_surface_energy": null,
  "weighted_work_function": null,
  "surface_anisotropy": null,
  "shape_factor": null,
  "has_reconstructed": null,
  "possible_species": null,
  "has_props": null,
  "theoretical": null,
  "database_IDs": null,
  "fields_not_requested": [
    "builder_meta",
    "nsites",
    "elements",
    "nelements",
    "composition",
    "composition_reduced",
    "chemsys",
    "symmetry",
    "property_name",
    "deprecated",
    "deprecation_reasons",
    "last_updated",
    "origins",
    "warnings",
    "task_ids",
    "uncorrected_energy_per_atom",
    "equilibrium_reaction_energy_per_atom",
    "decomposes_to",
    "xas",
    "grain_boundaries",
    "cbm",
    "vbm",
    "is_gap_direct",
    "is_metal",
    "es_source_calc_id",
    "bandstructure",
    "dos",
    "dos_energy_up",
    "dos_energy_down",
    "is_magnetic",
    "ordering",
    "total_magnetization_normalized_vol",
    "total_magnetization_normalized_formula_units",
    "num_magnetic_sites",
    "num_unique_magnetic_sites",
    "types_of_magnetic_species",
    "bulk_modulus",
    "shear_modulus",
    "universal_anisotropy",
    "homogeneous_poisson",
    "e_total",
    "e_ionic",
    "e_electronic",
    "n",
    "e_ij_max",
    "weighted_surface_energy_EV_PER_ANG2",
    "weighted_surface_energy",
    "weighted_work_function",
    "surface_anisotropy",
    "shape_factor",
    "has_reconstructed",
    "possible_species",
    "has_props",
    "theoretical",
    "database_IDs"
  ]
}
