{"builder_meta": null, "nsites": null, "elements": null, "nelements": null, "composition": null, "composition_reduced": null, "formula_pretty": "Ce2Si3", "formula_anonymous": "A2B3", "chemsys": null, "volume": 113.12380323420416, "density": 5.350309804589661, "density_atomic": 22.624760646840834, "symmetry": null, "property_name": null, "material_id": "mp-1226801", "deprecated": null, "deprecation_reasons": null, "last_updated": null, "origins": null, "warnings": null, "structure": {"@module": "pymatgen.core.structure", "@class": "Structure", "charge": 0, "lattice": {"matrix": [[-1.948887, 2.080572, 6.974685], [1.948887, -2.080572, 6.974685], [1.948887, 2.080572, -6.974685]], "pbc": [true, true, true], "a": 7.5347973586008266, "b": 7.5347973586008266, "c": 7.5347973586008266, "alpha": 150.01987038544897, "beta": 147.94145126590195, "gamma": 44.46283873254744, "volume": 113.12380323420416}, "properties": {}, "sites": [{"species": [{"element": "Ce", "occu": 1}], "abc": [0.627977999999999, 0.127977999999999, 0.5], "properties": {"magmom": 0.61}, "label": "Ce", "xyz": [0.0, 2.080572, 1.785212473859986]}, {"species": [{"element": "Ce", "occu": 1}], "abc": [0.875176, 0.875176, 0.0], "properties": {"magmom": 0.193}, "label": "Ce", "xyz": [0.0, 0.0, 12.20815383912]}, {"species": [{"element": "Si", "occu": 1}], "abc": [0.462947, 0.462947, 0.0], "properties": {"magmom": -0.008}, "label": "Si", "xyz": [0.0, 0.0, 6.45781899339]}, {"species": [{"element": "Si", "occu": 1}], "abc": [0.201967999999999, 0.701967999999999, 0.5], "properties": {"magmom": -0.005}, "label": "Si", "xyz": [1.948887, 0.0, 2.8173263601599863]}, {"species": [{"element": "Si", "occu": 1}], "abc": [0.29593, 0.29593, 0.0], "properties": {"magmom": 0.001}, "label": "Si", "xyz": [0.0, 0.0, 4.128037064100001]}]}, "task_ids": null, "uncorrected_energy_per_atom": null, "energy_per_atom": -18.228759899499998, "formation_energy_per_atom": -0.6282496385, "energy_above_hull": 0.07808822250000301, "is_stable": false, "equilibrium_reaction_energy_per_atom": null, "decomposes_to": null, "xas": null, "grain_boundaries": null, "band_gap": 0.0, "cbm": null, "vbm": null, "efermi": 7.535854, "is_gap_direct": null, "is_metal": null, "es_source_calc_id": null, "bandstructure": null, "dos": null, "dos_energy_up": null, "dos_energy_down": null, "is_magnetic": null, "ordering": null, "total_magnetization": 0.9267137, "total_magnetization_normalized_vol": null, "total_magnetization_normalized_formula_units": null, "num_magnetic_sites": null, "num_unique_magnetic_sites": null, "types_of_magnetic_species": null, "bulk_modulus": null, "shear_modulus": null, "universal_anisotropy": null, "homogeneous_poisson": null, "e_total": null, "e_ionic": null, "e_electronic": null, "n": null, "e_ij_max": null, "weighted_surface_energy_EV_PER_ANG2": null, "weighted_surface_energy": null, "weighted_work_function": null, "surface_anisotropy": null, "shape_factor": null, "has_reconstructed": null, "possible_species": null, "has_props": null, "theoretical": null, "database_IDs": null, "fields_not_requested": ["builder_meta", "nsites", "elements", "nelements", "composition", "composition_reduced", "chemsys", "symmetry", "property_name", "deprecated", "deprecation_reasons", "last_updated", "origins", "warnings", "task_ids", "uncorrected_energy_per_atom", "equilibrium_reaction_energy_per_atom", "decomposes_to", "xas", "grain_boundaries", "cbm", "vbm", "is_gap_direct", "is_metal", "es_source_calc_id", "bandstructure", "dos", "dos_energy_up", "dos_energy_down", "is_magnetic", "ordering", "total_magnetization_normalized_vol", "total_magnetization_normalized_formula_units", "num_magnetic_sites", "num_unique_magnetic_sites", "types_of_magnetic_species", "bulk_modulus", "shear_modulus", "universal_anisotropy", "homogeneous_poisson", "e_total", "e_ionic", "e_electronic", "n", "e_ij_max", "weighted_surface_energy_EV_PER_ANG2", "weighted_surface_energy", "weighted_work_function", "surface_anisotropy", "shape_factor", "has_reconstructed", "possible_species", "has_props", "theoretical", "database_IDs"]}