{"builder_meta": null, "nsites": null, "elements": null, "nelements": null, "composition": null, "composition_reduced": null, "formula_pretty": "Ce2Te5", "formula_anonymous": "A2B5", "chemsys": null, "volume": 423.5646150729727, "density": 7.199657638726794, "density_atomic": 30.254615362355192, "symmetry": null, "property_name": null, "material_id": "mp-1104233", "deprecated": null, "deprecation_reasons": null, "last_updated": null, "origins": null, "warnings": null, "structure": {"@module": "pymatgen.core.structure", "@class": "Structure", "charge": 0, "lattice": {"matrix": [[2.208666, -21.706198, 0.0], [2.208666, 21.706198, 0.0], [0.0, 0.0, 4.417493]], "pbc": [true, true, true], "a": 21.818277592760616, "b": 21.818277592760616, "c": 4.417493, "alpha": 90.0, "beta": 90.0, "gamma": 168.37998323504243, "volume": 423.5646150729727}, "properties": {}, "sites": [{"species": [{"element": "Ce", "occu": 1}], "abc": [0.903304, 0.096695999999999, 0.75], "properties": {"magmom": -0.001}, "label": "Ce", "xyz": [2.208665999999998, -17.50839295638402, 3.3131197500000003]}, {"species": [{"element": "Ce", "occu": 1}], "abc": [0.096695999999999, 0.903304, 0.25], "properties": {"magmom": -0.001}, "label": "Ce", "xyz": [2.208665999999998, 17.50839295638402, 1.10437325]}, {"species": [{"element": "Ce", "occu": 1}], "abc": [0.692824, 0.307176, 0.75], "properties": {"magmom": 0.221}, "label": "Ce", "xyz": [2.208666, -8.370951846304, 3.3131197500000003]}, {"species": [{"element": "Ce", "occu": 1}], "abc": [0.307176, 0.692824, 0.25], "properties": {"magmom": 0.221}, "label": "Ce", "xyz": [2.208666, 8.370951846304, 1.10437325]}, {"species": [{"element": "Te", "occu": 1}], "abc": [0.041893, 0.958106999999999, 0.75], "properties": {"magmom": -0.001}, "label": "Te", "xyz": [2.208665999999998, 19.88752249437198, 3.3131197500000003]}, {"species": [{"element": "Te", "occu": 1}], "abc": [0.958106999999999, 0.041893, 0.25], "properties": {"magmom": -0.001}, "label": "Te", "xyz": [2.208665999999998, -19.88752249437198, 1.10437325]}, {"species": [{"element": "Te", "occu": 1}], "abc": [0.457816, 0.542184, 0.75], "properties": {"magmom": 0.0}, "label": "Te", "xyz": [2.208666, 1.8313085128639983, 3.3131197500000003]}, {"species": [{"element": "Te", "occu": 1}], "abc": [0.542184, 0.457816, 0.25], "properties": {"magmom": 0.0}, "label": "Te", "xyz": [2.208666, -1.8313085128639983, 1.10437325]}, {"species": [{"element": "Te", "occu": 1}], "abc": [0.24999000000000002, 0.7500100000000001, 0.75], "properties": {"magmom": -0.001}, "label": "Te", "xyz": [2.2086660000000005, 10.853533123960002, 3.3131197500000003]}, {"species": [{"element": "Te", "occu": 1}], "abc": [0.7500100000000001, 0.24999000000000002, 0.25], "properties": {"magmom": -0.001}, "label": "Te", "xyz": [2.2086660000000005, -10.853533123960002, 1.10437325]}, {"species": [{"element": "Te", "occu": 1}], "abc": [0.826608, 0.173392, 0.75], "properties": {"magmom": -0.007}, "label": "Te", "xyz": [2.208666, -14.178835832768002, 3.3131197500000003]}, {"species": [{"element": "Te", "occu": 1}], "abc": [0.173392, 0.826608, 0.25], "properties": {"magmom": -0.007}, "label": "Te", "xyz": [2.208666, 14.178835832768002, 1.10437325]}, {"species": [{"element": "Te", "occu": 1}], "abc": [0.618274, 0.381726, 0.75], "properties": {"magmom": -0.004}, "label": "Te", "xyz": [2.208666, -5.134557724503999, 3.3131197500000003]}, {"species": [{"element": "Te", "occu": 1}], "abc": [0.381726, 0.618274, 0.25], "properties": {"magmom": -0.004}, "label": "Te", "xyz": [2.208666, 5.134557724503999, 1.10437325]}]}, "task_ids": null, "uncorrected_energy_per_atom": null, "energy_per_atom": -5.690078642857143, "formation_energy_per_atom": -1.748588756190475, "energy_above_hull": 0.0, "is_stable": true, "equilibrium_reaction_energy_per_atom": null, "decomposes_to": null, "xas": null, "grain_boundaries": null, "band_gap": 0.0, "cbm": null, "vbm": null, "efermi": 7.33332525, "is_gap_direct": null, "is_metal": null, "es_source_calc_id": null, "bandstructure": null, "dos": null, "dos_energy_up": null, "dos_energy_down": null, "is_magnetic": null, "ordering": null, "total_magnetization": 0.138191999999999, "total_magnetization_normalized_vol": null, "total_magnetization_normalized_formula_units": null, "num_magnetic_sites": null, "num_unique_magnetic_sites": null, "types_of_magnetic_species": null, "bulk_modulus": null, "shear_modulus": null, "universal_anisotropy": null, "homogeneous_poisson": null, "e_total": null, "e_ionic": null, "e_electronic": null, "n": null, "e_ij_max": null, "weighted_surface_energy_EV_PER_ANG2": null, "weighted_surface_energy": null, "weighted_work_function": null, "surface_anisotropy": null, "shape_factor": null, "has_reconstructed": null, "possible_species": null, "has_props": null, "theoretical": null, "database_IDs": null, "fields_not_requested": ["builder_meta", "nsites", "elements", "nelements", "composition", "composition_reduced", "chemsys", "symmetry", "property_name", "deprecated", "deprecation_reasons", "last_updated", "origins", "warnings", "task_ids", "uncorrected_energy_per_atom", "equilibrium_reaction_energy_per_atom", "decomposes_to", "xas", "grain_boundaries", "cbm", "vbm", "is_gap_direct", "is_metal", "es_source_calc_id", "bandstructure", "dos", "dos_energy_up", "dos_energy_down", "is_magnetic", "ordering", "total_magnetization_normalized_vol", "total_magnetization_normalized_formula_units", "num_magnetic_sites", "num_unique_magnetic_sites", "types_of_magnetic_species", "bulk_modulus", "shear_modulus", "universal_anisotropy", "homogeneous_poisson", "e_total", "e_ionic", "e_electronic", "n", "e_ij_max", "weighted_surface_energy_EV_PER_ANG2", "weighted_surface_energy", "weighted_work_function", "surface_anisotropy", "shape_factor", "has_reconstructed", "possible_species", "has_props", "theoretical", "database_IDs"]}