{
  "builder_meta": null,
  "nsites": null,
  "elements": null,
  "nelements": null,
  "composition": null,
  "composition_reduced": null,
  "formula_pretty": "Ce2Te3",
  "formula_anonymous": "A2B3",
  "chemsys": null,
  "volume": 674.4844085816678,
  "density": 6.5293757684993015,
  "density_atomic": 33.72422042908339,
  "symmetry": null,
  "property_name": null,
  "material_id": "mp-1188216",
  "deprecated": null,
  "deprecation_reasons": null,
  "last_updated": null,
  "origins": null,
  "warnings": null,
  "structure": {
    "@module": "pymatgen.core.structure",
    "@class": "Structure",
    "charge": 0,
    "lattice": {
      "matrix": [
        [4.48213712, -0.0, 0.0],
        [-0.0, 12.15455066, 0.0],
        [0.0, 0.0, 12.38077606]
      ],
      "pbc": [true, true, true],
      "a": 4.48213712,
      "b": 12.15455066,
      "c": 12.38077606,
      "alpha": 90.0,
      "beta": 90.0,
      "gamma": 90.0,
      "volume": 674.4844085816678
    },
    "properties": {},
    "sites": [
      {
        "species": [{ "element": "Ce", "occu": 1 }],
        "abc": [0.25, 0.18706903, 0.488485599999999],
        "properties": { "magmom": 0.999 },
        "label": "Ce",
        "xyz": [1.12053428, 2.27374000205206, 6.047830822134724]
      },
      {
        "species": [{ "element": "Ce", "occu": 1 }],
        "abc": [0.25, 0.31293097000000003, 0.9884856],
        "properties": { "magmom": 0.999 },
        "label": "Ce",
        "xyz": [1.12053428, 3.8035353279479405, 12.238218852134736]
      },
      {
        "species": [{ "element": "Ce", "occu": 1 }],
        "abc": [0.75, 0.81293097, 0.511514399999999],
        "properties": { "magmom": 0.999 },
        "label": "Ce",
        "xyz": [3.3616028399999998, 9.88081065794794, 6.332945237865252]
      },
      {
        "species": [{ "element": "Ce", "occu": 1 }],
        "abc": [0.75, 0.68706903, 0.0115144],
        "properties": { "magmom": 0.999 },
        "label": "Ce",
        "xyz": [3.3616028399999998, 8.351015332052059, 0.142557207865264]
      },
      {
        "species": [{ "element": "Ce", "occu": 1 }],
        "abc": [0.25, -0.00258681, 0.80640579],
        "properties": { "magmom": 1.0 },
        "label": "Ce",
        "xyz": [1.12053428, -0.031441513192794604, 9.983929499477387]
      },
      {
        "species": [{ "element": "Ce", "occu": 1 }],
        "abc": [0.25, 0.50258681, 0.30640579],
        "properties": { "magmom": 1.0 },
        "label": "Ce",
        "xyz": [1.12053428, 6.108716843192795, 3.793541469477388]
      },
      {
        "species": [{ "element": "Ce", "occu": 1 }],
        "abc": [0.75, 0.00258681, 0.19359421000000002],
        "properties": { "magmom": 1.0 },
        "label": "Ce",
        "xyz": [3.3616028399999998, 0.031441513192794604, 2.396846560522613]
      },
      {
        "species": [{ "element": "Ce", "occu": 1 }],
        "abc": [0.75, 0.49741319, 0.69359421],
        "properties": { "magmom": 1.0 },
        "label": "Ce",
        "xyz": [3.3616028399999998, 6.045833816807205, 8.587234590522613]
      },
      {
        "species": [{ "element": "Te", "occu": 1 }],
        "abc": [0.25, 0.6253474800000001, 0.54525172],
        "properties": { "magmom": -0.031 },
        "label": "Te",
        "xyz": [1.12053428, 7.600817625763337, 6.750639441649823]
      },
      {
        "species": [{ "element": "Te", "occu": 1 }],
        "abc": [0.25, 0.87465252, 0.04525172],
        "properties": { "magmom": -0.031 },
        "label": "Te",
        "xyz": [1.12053428, 10.631008364236664, 0.5602514116498233]
      },
      {
        "species": [{ "element": "Te", "occu": 1 }],
        "abc": [0.75, 0.37465252, 0.45474828],
        "properties": { "magmom": -0.031 },
        "label": "Te",
        "xyz": [3.3616028399999998, 4.553733034236663, 5.6301366183501775]
      },
      {
        "species": [{ "element": "Te", "occu": 1 }],
        "abc": [0.75, 0.12534748, 0.95474828],
        "properties": { "magmom": -0.031 },
        "label": "Te",
        "xyz": [3.3616028399999998, 1.5235422957633369, 11.820524648350178]
      },
      {
        "species": [{ "element": "Te", "occu": 1 }],
        "abc": [0.25, 0.944020499999999, 0.3790069],
        "properties": { "magmom": -0.03 },
        "label": "Te",
        "xyz": [1.12053428, 11.474144991328519, 4.692399554094814]
      },
      {
        "species": [{ "element": "Te", "occu": 1 }],
        "abc": [0.25, 0.5559795, 0.879006899999999],
        "properties": { "magmom": -0.03 },
        "label": "Te",
        "xyz": [1.12053428, 6.75768099867147, 10.882787584094803]
      },
      {
        "species": [{ "element": "Te", "occu": 1 }],
        "abc": [0.75, 0.055979499999999, 0.6209931],
        "properties": { "magmom": -0.03 },
        "label": "Te",
        "xyz": [3.3616028399999998, 0.6804056686714579, 7.688376505905186]
      },
      {
        "species": [{ "element": "Te", "occu": 1 }],
        "abc": [0.75, 0.4440205, 0.12099309999999901],
        "properties": { "magmom": -0.03 },
        "label": "Te",
        "xyz": [3.3616028399999998, 5.396869661328529, 1.4979884759051738]
      },
      {
        "species": [{ "element": "Te", "occu": 1 }],
        "abc": [0.25, 0.30012209, 0.72732356],
        "properties": { "magmom": -0.034 },
        "label": "Te",
        "xyz": [1.12053428, 3.6478491470900796, 9.004830119521973]
      },
      {
        "species": [{ "element": "Te", "occu": 1 }],
        "abc": [0.25, 0.19987791, 0.22732356],
        "properties": { "magmom": -0.034 },
        "label": "Te",
        "xyz": [1.12053428, 2.4294261829099204, 2.814442089521974]
      },
      {
        "species": [{ "element": "Te", "occu": 1 }],
        "abc": [0.75, 0.69987791, 0.27267644],
        "properties": { "magmom": -0.034 },
        "label": "Te",
        "xyz": [3.3616028399999998, 8.50670151290992, 3.3759459404780268]
      },
      {
        "species": [{ "element": "Te", "occu": 1 }],
        "abc": [0.75, 0.80012209, 0.77267644],
        "properties": { "magmom": -0.034 },
        "label": "Te",
        "xyz": [3.3616028399999998, 9.725124477090079, 9.566333970478027]
      }
    ]
  },
  "task_ids": null,
  "uncorrected_energy_per_atom": null,
  "energy_per_atom": -5.902224128,
  "formation_energy_per_atom": -1.6414606439999981,
  "energy_above_hull": 0.023493755428573,
  "is_stable": false,
  "equilibrium_reaction_energy_per_atom": null,
  "decomposes_to": null,
  "xas": null,
  "grain_boundaries": null,
  "band_gap": 0.0,
  "cbm": null,
  "vbm": null,
  "efermi": 6.9461011599999996,
  "is_gap_direct": null,
  "is_metal": null,
  "es_source_calc_id": null,
  "bandstructure": null,
  "dos": null,
  "dos_energy_up": null,
  "dos_energy_down": null,
  "is_magnetic": null,
  "ordering": null,
  "total_magnetization": 7.9998441,
  "total_magnetization_normalized_vol": null,
  "total_magnetization_normalized_formula_units": null,
  "num_magnetic_sites": null,
  "num_unique_magnetic_sites": null,
  "types_of_magnetic_species": null,
  "bulk_modulus": null,
  "shear_modulus": null,
  "universal_anisotropy": null,
  "homogeneous_poisson": null,
  "e_total": null,
  "e_ionic": null,
  "e_electronic": null,
  "n": null,
  "e_ij_max": null,
  "weighted_surface_energy_EV_PER_ANG2": null,
  "weighted_surface_energy": null,
  "weighted_work_function": null,
  "surface_anisotropy": null,
  "shape_factor": null,
  "has_reconstructed": null,
  "possible_species": null,
  "has_props": null,
  "theoretical": null,
  "database_IDs": null,
  "fields_not_requested": [
    "builder_meta",
    "nsites",
    "elements",
    "nelements",
    "composition",
    "composition_reduced",
    "chemsys",
    "symmetry",
    "property_name",
    "deprecated",
    "deprecation_reasons",
    "last_updated",
    "origins",
    "warnings",
    "task_ids",
    "uncorrected_energy_per_atom",
    "equilibrium_reaction_energy_per_atom",
    "decomposes_to",
    "xas",
    "grain_boundaries",
    "cbm",
    "vbm",
    "is_gap_direct",
    "is_metal",
    "es_source_calc_id",
    "bandstructure",
    "dos",
    "dos_energy_up",
    "dos_energy_down",
    "is_magnetic",
    "ordering",
    "total_magnetization_normalized_vol",
    "total_magnetization_normalized_formula_units",
    "num_magnetic_sites",
    "num_unique_magnetic_sites",
    "types_of_magnetic_species",
    "bulk_modulus",
    "shear_modulus",
    "universal_anisotropy",
    "homogeneous_poisson",
    "e_total",
    "e_ionic",
    "e_electronic",
    "n",
    "e_ij_max",
    "weighted_surface_energy_EV_PER_ANG2",
    "weighted_surface_energy",
    "weighted_work_function",
    "surface_anisotropy",
    "shape_factor",
    "has_reconstructed",
    "possible_species",
    "has_props",
    "theoretical",
    "database_IDs"
  ]
}
