{"builder_meta": null, "nsites": null, "elements": null, "nelements": null, "composition": null, "composition_reduced": null, "formula_pretty": "Ce3Ag", "formula_anonymous": "AB3", "chemsys": null, "volume": 210.49584102148688, "density": 8.333880911418715, "density_atomic": 26.31198012768586, "symmetry": null, "property_name": null, "material_id": "mp-1183754", "deprecated": null, "deprecation_reasons": null, "last_updated": null, "origins": null, "warnings": null, "structure": {"@module": "pymatgen.core.structure", "@class": "Structure", "charge": 0, "lattice": {"matrix": [[6.829493, 0.0, 0.0], [-3.414746, 5.914514, 0.0], [0.0, 0.0, 5.211179]], "pbc": [true, true, true], "a": 6.829493, "b": 6.829492375038718, "c": 5.211179, "alpha": 90.0, "beta": 90.0, "gamma": 119.99999818344028, "volume": 210.49584102148688}, "properties": {}, "sites": [{"species": [{"element": "Ce", "occu": 1}], "abc": [0.175624, 0.351249, 0.250001], "properties": {"magmom": 0.6910000000000001}, "label": "Ce", "xyz": [-3.239121999953909e-06, 2.0774671279859995, 1.3027999611789998]}, {"species": [{"element": "Ce", "occu": 1}], "abc": [0.648749, 0.824375, 0.250001], "properties": {"magmom": 0.6910000000000001}, "label": "Ce", "xyz": [1.615595520507, 4.87577747875, 1.3027999611789998]}, {"species": [{"element": "Ce", "occu": 1}], "abc": [0.175625, 0.824375, 0.250001], "properties": {"magmom": 0.6910000000000001}, "label": "Ce", "xyz": [-1.615601525625, 4.87577747875, 1.3027999611789998]}, {"species": [{"element": "Ce", "occu": 1}], "abc": [0.824376999999999, 0.648751, 0.750000999999999], "properties": {"magmom": 0.6910000000000001}, "label": "Ce", "xyz": [3.4147570686149935, 3.8370468720139996, 3.9083894611789947]}, {"species": [{"element": "Ce", "occu": 1}], "abc": [0.351251, 0.175626, 0.750000999999999], "properties": {"magmom": 0.6910000000000001}, "label": "Ce", "xyz": [1.799148064747, 1.038742435764, 3.9083894611789947]}, {"species": [{"element": "Ce", "occu": 1}], "abc": [0.824376999999999, 0.175626, 0.750000999999999], "properties": {"magmom": 0.6910000000000001}, "label": "Ce", "xyz": [5.030358769864994, 1.038742435764, 3.9083894611789947]}, {"species": [{"element": "Ag", "occu": 1}], "abc": [0.333333, 0.666665, 0.750000999999999], "properties": {"magmom": 0.015}, "label": "Ag", "xyz": [3.7480790000543607e-06, 3.9429994758099993, 3.9083894611789947]}, {"species": [{"element": "Ag", "occu": 1}], "abc": [0.666666, 0.333331999999999, 0.250001], "properties": {"magmom": 0.015}, "label": "Ag", "xyz": [3.4147466666660033, 1.9714967806479942, 1.3027999611789998]}]}, "task_ids": null, "uncorrected_energy_per_atom": null, "energy_per_atom": -5.06523089625, "formation_energy_per_atom": 0.09821592583333501, "energy_above_hull": 0.164523278125001, "is_stable": false, "equilibrium_reaction_energy_per_atom": null, "decomposes_to": null, "xas": null, "grain_boundaries": null, "band_gap": 0.0, "cbm": null, "vbm": null, "efermi": 7.53840731, "is_gap_direct": null, "is_metal": null, "es_source_calc_id": null, "bandstructure": null, "dos": null, "dos_energy_up": null, "dos_energy_down": null, "is_magnetic": null, "ordering": null, "total_magnetization": 5.0984505, "total_magnetization_normalized_vol": null, "total_magnetization_normalized_formula_units": null, "num_magnetic_sites": null, "num_unique_magnetic_sites": null, "types_of_magnetic_species": null, "bulk_modulus": null, "shear_modulus": null, "universal_anisotropy": null, "homogeneous_poisson": null, "e_total": null, "e_ionic": null, "e_electronic": null, "n": null, "e_ij_max": null, "weighted_surface_energy_EV_PER_ANG2": null, "weighted_surface_energy": null, "weighted_work_function": null, "surface_anisotropy": null, "shape_factor": null, "has_reconstructed": null, "possible_species": null, "has_props": null, "theoretical": null, "database_IDs": null, "fields_not_requested": ["builder_meta", "nsites", "elements", "nelements", "composition", "composition_reduced", "chemsys", "symmetry", "property_name", "deprecated", "deprecation_reasons", "last_updated", "origins", "warnings", "task_ids", "uncorrected_energy_per_atom", "equilibrium_reaction_energy_per_atom", "decomposes_to", "xas", "grain_boundaries", "cbm", "vbm", "is_gap_direct", "is_metal", "es_source_calc_id", "bandstructure", "dos", "dos_energy_up", "dos_energy_down", "is_magnetic", "ordering", "total_magnetization_normalized_vol", "total_magnetization_normalized_formula_units", "num_magnetic_sites", "num_unique_magnetic_sites", "types_of_magnetic_species", "bulk_modulus", "shear_modulus", "universal_anisotropy", "homogeneous_poisson", "e_total", "e_ionic", "e_electronic", "n", "e_ij_max", "weighted_surface_energy_EV_PER_ANG2", "weighted_surface_energy", "weighted_work_function", "surface_anisotropy", "shape_factor", "has_reconstructed", "possible_species", "has_props", "theoretical", "database_IDs"]}