{
  "builder_meta": null,
  "nsites": null,
  "elements": null,
  "nelements": null,
  "composition": null,
  "composition_reduced": null,
  "formula_pretty": "Ce3Au",
  "formula_anonymous": "AB3",
  "chemsys": null,
  "volume": 204.47556782138443,
  "density": 10.026380844691188,
  "density_atomic": 25.559445977673054,
  "symmetry": null,
  "property_name": null,
  "material_id": "mp-1183852",
  "deprecated": null,
  "deprecation_reasons": null,
  "last_updated": null,
  "origins": null,
  "warnings": null,
  "structure": {
    "@module": "pymatgen.core.structure",
    "@class": "Structure",
    "charge": 0,
    "lattice": {
      "matrix": [
        [6.708125, -0.015382999999999002, 0.000865],
        [-3.367369, 5.832855, 0.001095],
        [0.0006709999999990001, 0.0013449999999990002, 5.232804]
      ],
      "pbc": [true, true, true],
      "a": 6.708142693811679,
      "b": 6.735085198585909,
      "c": 5.23280421587527,
      "alpha": 89.98160402257882,
      "beta": 89.98529861768242,
      "gamma": 120.12968289666092,
      "volume": 204.47556782138446
    },
    "properties": {},
    "sites": [
      {
        "species": [{ "element": "Ce", "occu": 1 }],
        "abc": [0.179034, 0.358288, 0.25021000000000004],
        "properties": { "magmom": 0.535 },
        "label": "Ce",
        "xyz": [-0.005337562112000257, 2.087424404668, 1.3098470786100003]
      },
      {
        "species": [{ "element": "Ce", "occu": 1 }],
        "abc": [0.641697, 0.820639, 0.250108999999999],
        "properties": { "magmom": 0.542 },
        "label": "Ce",
        "xyz": [1.5413571824729992, 4.777133465999, 1.310225043245995]
      },
      {
        "species": [{ "element": "Ce", "occu": 1 }],
        "abc": [0.178797999999999, 0.820638, 0.250147],
        "properties": { "magmom": 0.536 },
        "label": "Ce",
        "xyz": [-1.563823779035007, 4.784248459571, 1.310023481068]
      },
      {
        "species": [{ "element": "Ce", "occu": 1 }],
        "abc": [0.820619, 0.641678, 0.749813],
        "properties": { "magmom": 0.533 },
        "label": "Ce",
        "xyz": [3.344551348715999, 3.7311996470980002, 3.925036938496999]
      },
      {
        "species": [{ "element": "Ce", "occu": 1 }],
        "abc": [0.359108999999999, 0.17972000000000002, 0.749881],
        "properties": { "magmom": 0.534 },
        "label": "Ce",
        "xyz": [1.8042676740959922, 1.0437651167979998, 3.924487719009]
      },
      {
        "species": [{ "element": "Ce", "occu": 1 }],
        "abc": [0.820851999999999, 0.179087, 0.749842],
        "properties": { "magmom": 0.532 },
        "label": "Ce",
        "xyz": [4.903828954378992, 1.0329698745590001, 3.9246823542129996]
      },
      {
        "species": [{ "element": "Au", "occu": 1 }],
        "abc": [0.333426, 0.666702, 0.7501800000000001],
        "properties": { "magmom": 0.011 },
        "label": "Au",
        "xyz": [-0.007864990008001045, 3.884655994152, 3.9265633569]
      },
      {
        "species": [{ "element": "Au", "occu": 1 }],
        "abc": [0.666465, 0.333246, 0.24981899999999901],
        "properties": { "magmom": 0.011 },
        "label": "Au",
        "xyz": [3.348735906899999, 1.9338593727900004, 1.3081952590709949]
      }
    ]
  },
  "task_ids": null,
  "uncorrected_energy_per_atom": null,
  "energy_per_atom": -5.45157730875,
  "formation_energy_per_atom": -0.180394406249997,
  "energy_above_hull": 0.147568784375001,
  "is_stable": false,
  "equilibrium_reaction_energy_per_atom": null,
  "decomposes_to": null,
  "xas": null,
  "grain_boundaries": null,
  "band_gap": 0.0,
  "cbm": null,
  "vbm": null,
  "efermi": 8.19996448,
  "is_gap_direct": null,
  "is_metal": null,
  "es_source_calc_id": null,
  "bandstructure": null,
  "dos": null,
  "dos_energy_up": null,
  "dos_energy_down": null,
  "is_magnetic": null,
  "ordering": null,
  "total_magnetization": 3.9044687,
  "total_magnetization_normalized_vol": null,
  "total_magnetization_normalized_formula_units": null,
  "num_magnetic_sites": null,
  "num_unique_magnetic_sites": null,
  "types_of_magnetic_species": null,
  "bulk_modulus": null,
  "shear_modulus": null,
  "universal_anisotropy": null,
  "homogeneous_poisson": null,
  "e_total": null,
  "e_ionic": null,
  "e_electronic": null,
  "n": null,
  "e_ij_max": null,
  "weighted_surface_energy_EV_PER_ANG2": null,
  "weighted_surface_energy": null,
  "weighted_work_function": null,
  "surface_anisotropy": null,
  "shape_factor": null,
  "has_reconstructed": null,
  "possible_species": null,
  "has_props": null,
  "theoretical": null,
  "database_IDs": null,
  "fields_not_requested": [
    "builder_meta",
    "nsites",
    "elements",
    "nelements",
    "composition",
    "composition_reduced",
    "chemsys",
    "symmetry",
    "property_name",
    "deprecated",
    "deprecation_reasons",
    "last_updated",
    "origins",
    "warnings",
    "task_ids",
    "uncorrected_energy_per_atom",
    "equilibrium_reaction_energy_per_atom",
    "decomposes_to",
    "xas",
    "grain_boundaries",
    "cbm",
    "vbm",
    "is_gap_direct",
    "is_metal",
    "es_source_calc_id",
    "bandstructure",
    "dos",
    "dos_energy_up",
    "dos_energy_down",
    "is_magnetic",
    "ordering",
    "total_magnetization_normalized_vol",
    "total_magnetization_normalized_formula_units",
    "num_magnetic_sites",
    "num_unique_magnetic_sites",
    "types_of_magnetic_species",
    "bulk_modulus",
    "shear_modulus",
    "universal_anisotropy",
    "homogeneous_poisson",
    "e_total",
    "e_ionic",
    "e_electronic",
    "n",
    "e_ij_max",
    "weighted_surface_energy_EV_PER_ANG2",
    "weighted_surface_energy",
    "weighted_work_function",
    "surface_anisotropy",
    "shape_factor",
    "has_reconstructed",
    "possible_species",
    "has_props",
    "theoretical",
    "database_IDs"
  ]
}
