{"builder_meta": null, "nsites": null, "elements": null, "nelements": null, "composition": null, "composition_reduced": null, "formula_pretty": "Ce3Er", "formula_anonymous": "AB3", "chemsys": null, "volume": 114.8006419148075, "density": 8.499467973634827, "density_atomic": 28.700160478701875, "symmetry": null, "property_name": null, "material_id": "mp-1183435", "deprecated": null, "deprecation_reasons": null, "last_updated": null, "origins": null, "warnings": null, "structure": {"@module": "pymatgen.core.structure", "@class": "Structure", "charge": 0, "lattice": {"matrix": [[-2.41423, 2.41423, 4.9241019999999995], [2.41423, -2.41423, 4.9241019999999995], [2.41423, 2.41423, -4.9241019999999995]], "pbc": [true, true, true], "a": 5.991977427544599, "b": 5.991977427544599, "c": 5.991977427544599, "alpha": 132.47950411857065, "beta": 132.47950411857065, "gamma": 69.4727484594983, "volume": 114.80064191480749}, "properties": {}, "sites": [{"species": [{"element": "Ce", "occu": 1}], "abc": [0.25, 0.75, 0.5], "properties": {"magmom": 0.307}, "label": "Ce", "xyz": [2.41423, 0.0, 2.4620509999999998]}, {"species": [{"element": "Ce", "occu": 1}], "abc": [0.75, 0.25, 0.5], "properties": {"magmom": 0.307}, "label": "Ce", "xyz": [0.0, 2.41423, 2.4620509999999998]}, {"species": [{"element": "Ce", "occu": 1}], "abc": [0.5, 0.5, 0.0], "properties": {"magmom": 0.379}, "label": "Ce", "xyz": [0.0, 0.0, 4.9241019999999995]}, {"species": [{"element": "Er", "occu": 1}], "abc": [0.0, 0.0, 0.0], "properties": {"magmom": 0.017}, "label": "Er", "xyz": [0.0, 0.0, 0.0]}]}, "task_ids": null, "uncorrected_energy_per_atom": null, "energy_per_atom": -31.52205115041667, "formation_energy_per_atom": 0.089779211249999, "energy_above_hull": 0.089779211249999, "is_stable": false, "equilibrium_reaction_energy_per_atom": null, "decomposes_to": null, "xas": null, "grain_boundaries": null, "band_gap": 0.0, "cbm": null, "vbm": null, "efermi": 7.18584993, "is_gap_direct": null, "is_metal": null, "es_source_calc_id": null, "bandstructure": null, "dos": null, "dos_energy_up": null, "dos_energy_down": null, "is_magnetic": null, "ordering": null, "total_magnetization": 1.2497808, "total_magnetization_normalized_vol": null, "total_magnetization_normalized_formula_units": null, "num_magnetic_sites": null, "num_unique_magnetic_sites": null, "types_of_magnetic_species": null, "bulk_modulus": null, "shear_modulus": null, "universal_anisotropy": null, "homogeneous_poisson": null, "e_total": null, "e_ionic": null, "e_electronic": null, "n": null, "e_ij_max": null, "weighted_surface_energy_EV_PER_ANG2": null, "weighted_surface_energy": null, "weighted_work_function": null, "surface_anisotropy": null, "shape_factor": null, "has_reconstructed": null, "possible_species": null, "has_props": null, "theoretical": null, "database_IDs": null, "fields_not_requested": ["builder_meta", "nsites", "elements", "nelements", "composition", "composition_reduced", "chemsys", "symmetry", "property_name", "deprecated", "deprecation_reasons", "last_updated", "origins", "warnings", "task_ids", "uncorrected_energy_per_atom", "equilibrium_reaction_energy_per_atom", "decomposes_to", "xas", "grain_boundaries", "cbm", "vbm", "is_gap_direct", "is_metal", "es_source_calc_id", "bandstructure", "dos", "dos_energy_up", "dos_energy_down", "is_magnetic", "ordering", "total_magnetization_normalized_vol", "total_magnetization_normalized_formula_units", "num_magnetic_sites", "num_unique_magnetic_sites", "types_of_magnetic_species", "bulk_modulus", "shear_modulus", "universal_anisotropy", "homogeneous_poisson", "e_total", "e_ionic", "e_electronic", "n", "e_ij_max", "weighted_surface_energy_EV_PER_ANG2", "weighted_surface_energy", "weighted_work_function", "surface_anisotropy", "shape_factor", "has_reconstructed", "possible_species", "has_props", "theoretical", "database_IDs"]}