{"builder_meta": null, "nsites": null, "elements": null, "nelements": null, "composition": null, "composition_reduced": null, "formula_pretty": "Ce3Ge5", "formula_anonymous": "A3B5", "chemsys": null, "volume": 370.17956656008766, "density": 7.029626603364125, "density_atomic": 23.13622291000548, "symmetry": null, "property_name": null, "material_id": "mp-1213908", "deprecated": null, "deprecation_reasons": null, "last_updated": null, "origins": null, "warnings": null, "structure": {"@module": "pymatgen.core.structure", "@class": "Structure", "charge": 0, "lattice": {"matrix": [[0.0, 7.079528, 8.868113], [2.948132, 0.0, 8.868113], [2.948132, 7.079528, 0.0]], "pbc": [true, true, true], "a": 11.347384935902765, "b": 9.345314894116356, "c": 7.668846001336055, "alpha": 83.03433025239043, "beta": 54.833995534952564, "gamma": 42.13167421265704, "volume": 370.17956656008766}, "properties": {}, "sites": [{"species": [{"element": "Ce", "occu": 1}], "abc": [0.035727, 0.1283, 0.346713999999999], "properties": {"magmom": 0.5650000000000001}, "label": "Ce", "xyz": [1.4004039738479972, 2.707501767847993, 1.4546099710509999]}, {"species": [{"element": "Ce", "occu": 1}], "abc": [0.346713999999999, 0.489259, 0.035727], "properties": {"magmom": 0.554}, "label": "Ce", "xyz": [1.5477280261520001, 2.707501767847993, 7.413503028948991]}, {"species": [{"element": "Ce", "occu": 1}], "abc": [0.1217, 0.214273, 0.760741], "properties": {"magmom": 0.557}, "label": "Ce", "xyz": [2.874469973848, 6.247265767848, 2.9794465289489995]}, {"species": [{"element": "Ce", "occu": 1}], "abc": [0.760741, 0.903285999999999, 0.1217], "properties": {"magmom": 0.556}, "label": "Ce", "xyz": [3.0217940261519973, 6.247265767848, 14.75677947105099]}, {"species": [{"element": "Ce", "occu": 1}], "abc": [0.449001999999999, 0.550998, 0.449001999999999], "properties": {"magmom": 0.561}, "label": "Ce", "xyz": [2.948131999999997, 6.357444462111986, 8.86811299999999]}, {"species": [{"element": "Ce", "occu": 1}], "abc": [0.699002, 0.800998, 0.699002], "properties": {"magmom": 0.5650000000000001}, "label": "Ce", "xyz": [4.422198, 9.897208462112, 13.302169499999998]}, {"species": [{"element": "Ge", "occu": 1}], "abc": [0.525709, 0.800263, 0.196541], "properties": {"magmom": 0.002}, "label": "Ge", "xyz": [2.938709770128, 5.113189097999999, 11.758869530835998]}, {"species": [{"element": "Ge", "occu": 1}], "abc": [0.196541, 0.477487999999999, 0.525709], "properties": {"magmom": 0.002}, "label": "Ge", "xyz": [2.9575571780039973, 5.113189097999999, 5.977365337276991]}, {"species": [{"element": "Ge", "occu": 1}], "abc": [0.449737, 0.724291, 0.772512], "properties": {"magmom": 0.002}, "label": "Ge", "xyz": [4.4127728219960005, 8.652946018471999, 10.411412969164]}, {"species": [{"element": "Ge", "occu": 1}], "abc": [0.772512, 0.053459, 0.449737], "properties": {"magmom": 0.002}, "label": "Ge", "xyz": [1.483488229872, 8.652946018471999, 7.324804162722999]}, {"species": [{"element": "Ge", "occu": 1}], "abc": [0.302828999999999, 0.329572, 0.783705], "properties": {"magmom": -0.001}, "label": "Ge", "xyz": [3.282087548564, 7.692147875951993, 5.608203529312991]}, {"species": [{"element": "Ge", "occu": 1}], "abc": [0.783705, 0.583893, 0.302828999999999], "properties": {"magmom": -0.001}, "label": "Ge", "xyz": [2.6141735033039972, 7.692147875951993, 12.128013602573999]}, {"species": [{"element": "Ge", "occu": 1}], "abc": [0.920427999999999, 0.947171, 0.666107], "properties": {"magmom": -0.001}, "label": "Ge", "xyz": [4.756156496696001, 11.231918955479994, 16.56207897068699]}, {"species": [{"element": "Ge", "occu": 1}], "abc": [0.666107, 0.466294999999999, 0.920427999999999], "properties": {"magmom": -0.001}, "label": "Ge", "xyz": [4.0882424514359945, 11.231918955479994, 10.042268897425991]}, {"species": [{"element": "Ge", "occu": 1}], "abc": [0.001273, 0.998726999999999, 0.001273], "properties": {"magmom": 0.002}, "label": "Ge", "xyz": [2.9481319999999975, 0.018024478288, 8.86811299999999]}, {"species": [{"element": "Ge", "occu": 1}], "abc": [0.251272999999999, 0.24872699999999903, 0.251272999999999], "properties": {"magmom": 0.002}, "label": "Ge", "xyz": [1.4740659999999943, 3.557788478287986, 4.434056499999983]}]}, "task_ids": null, "uncorrected_energy_per_atom": null, "energy_per_atom": -5.78786955875, "formation_energy_per_atom": -0.672120948124998, "energy_above_hull": 0.0, "is_stable": true, "equilibrium_reaction_energy_per_atom": null, "decomposes_to": null, "xas": null, "grain_boundaries": null, "band_gap": 0.0, "cbm": null, "vbm": null, "efermi": 7.23218358, "is_gap_direct": null, "is_metal": null, "es_source_calc_id": null, "bandstructure": null, "dos": null, "dos_energy_up": null, "dos_energy_down": null, "is_magnetic": null, "ordering": null, "total_magnetization": 3.9179803, "total_magnetization_normalized_vol": null, "total_magnetization_normalized_formula_units": null, "num_magnetic_sites": null, "num_unique_magnetic_sites": null, "types_of_magnetic_species": null, "bulk_modulus": null, "shear_modulus": null, "universal_anisotropy": null, "homogeneous_poisson": null, "e_total": null, "e_ionic": null, "e_electronic": null, "n": null, "e_ij_max": null, "weighted_surface_energy_EV_PER_ANG2": null, "weighted_surface_energy": null, "weighted_work_function": null, "surface_anisotropy": null, "shape_factor": null, "has_reconstructed": null, "possible_species": null, "has_props": null, "theoretical": null, "database_IDs": null, "fields_not_requested": ["builder_meta", "nsites", "elements", "nelements", "composition", "composition_reduced", "chemsys", "symmetry", "property_name", "deprecated", "deprecation_reasons", "last_updated", "origins", "warnings", "task_ids", "uncorrected_energy_per_atom", "equilibrium_reaction_energy_per_atom", "decomposes_to", "xas", "grain_boundaries", "cbm", "vbm", "is_gap_direct", "is_metal", "es_source_calc_id", "bandstructure", "dos", "dos_energy_up", "dos_energy_down", "is_magnetic", "ordering", "total_magnetization_normalized_vol", "total_magnetization_normalized_formula_units", "num_magnetic_sites", "num_unique_magnetic_sites", "types_of_magnetic_species", "bulk_modulus", "shear_modulus", "universal_anisotropy", "homogeneous_poisson", "e_total", "e_ionic", "e_electronic", "n", "e_ij_max", "weighted_surface_energy_EV_PER_ANG2", "weighted_surface_energy", "weighted_work_function", "surface_anisotropy", "shape_factor", "has_reconstructed", "possible_species", "has_props", "theoretical", "database_IDs"]}