{"builder_meta": null, "nsites": null, "elements": null, "nelements": null, "composition": null, "composition_reduced": null, "formula_pretty": "Ce3Ge", "formula_anonymous": "AB3", "chemsys": null, "volume": 850.1337444986292, "density": 7.703501607011632, "density_atomic": 26.566679515582162, "symmetry": null, "property_name": null, "material_id": "mp-1200337", "deprecated": null, "deprecation_reasons": null, "last_updated": null, "origins": null, "warnings": null, "structure": {"@module": "pymatgen.core.structure", "@class": "Structure", "charge": 0, "lattice": {"matrix": [[11.967705, 0.0, 0.0], [0.0, 11.967705, 0.0], [0.0, 0.0, 5.935612]], "pbc": [true, true, true], "a": 11.967705, "b": 11.967705, "c": 5.935612, "alpha": 90.0, "beta": 90.0, "gamma": 90.0, "volume": 850.1337444986292}, "properties": {}, "sites": [{"species": [{"element": "Ce", "occu": 1}], "abc": [0.28203, 0.826056, 0.983175999999999], "properties": {"magmom": 0.125}, "label": "Ce", "xyz": [3.3752518411500003, 9.88599452148, 5.835751263711995]}, {"species": [{"element": "Ce", "occu": 1}], "abc": [0.7179700000000001, 0.173944, 0.983175999999999], "properties": {"magmom": 0.125}, "label": "Ce", "xyz": [8.592453158850002, 2.08171047852, 5.835751263711995]}, {"species": [{"element": "Ce", "occu": 1}], "abc": [0.673944, 0.7820300000000001, 0.483176], "properties": {"magmom": 0.121}, "label": "Ce", "xyz": [8.065562978520001, 9.359104341150001, 2.867945263712]}, {"species": [{"element": "Ce", "occu": 1}], "abc": [0.326056, 0.21797000000000002, 0.483176], "properties": {"magmom": 0.122}, "label": "Ce", "xyz": [3.9021420214800004, 2.6086006588500004, 2.867945263712]}, {"species": [{"element": "Ce", "occu": 1}], "abc": [0.21797000000000002, 0.673944, 0.516824], "properties": {"magmom": 0.125}, "label": "Ce", "xyz": [2.6086006588500004, 8.065562978520001, 3.0676667362879995]}, {"species": [{"element": "Ce", "occu": 1}], "abc": [0.7820300000000001, 0.326056, 0.516824], "properties": {"magmom": 0.125}, "label": "Ce", "xyz": [9.359104341150001, 3.9021420214800004, 3.0676667362879995]}, {"species": [{"element": "Ce", "occu": 1}], "abc": [0.826056, 0.7179700000000001, 0.016824], "properties": {"magmom": 0.12}, "label": "Ce", "xyz": [9.88599452148, 8.592453158850002, 0.09986073628799999]}, {"species": [{"element": "Ce", "occu": 1}], "abc": [0.173944, 0.28203, 0.016824], "properties": {"magmom": 0.121}, "label": "Ce", "xyz": [2.08171047852, 3.3752518411500003, 0.09986073628799999]}, {"species": [{"element": "Ce", "occu": 1}], "abc": [0.3876, 0.919335, 0.525270999999999], "properties": {"magmom": 0.014}, "label": "Ce", "xyz": [4.638682458, 11.002330076175001, 3.117804850851994]}, {"species": [{"element": "Ce", "occu": 1}], "abc": [0.6124, 0.080665, 0.525270999999999], "properties": {"magmom": 0.014}, "label": "Ce", "xyz": [7.329022542000001, 0.965374923825, 3.117804850851994]}, {"species": [{"element": "Ce", "occu": 1}], "abc": [0.580665, 0.8876000000000001, 0.025271], "properties": {"magmom": 0.016}, "label": "Ce", "xyz": [6.9492274238250005, 10.622534958000001, 0.149998850852]}, {"species": [{"element": "Ce", "occu": 1}], "abc": [0.419334999999999, 0.1124, 0.025271], "properties": {"magmom": 0.016}, "label": "Ce", "xyz": [5.0184775761749885, 1.3451700420000001, 0.149998850852]}, {"species": [{"element": "Ce", "occu": 1}], "abc": [0.1124, 0.580665, 0.974729], "properties": {"magmom": 0.013000000000000001}, "label": "Ce", "xyz": [1.3451700420000001, 6.9492274238250005, 5.785613149147999]}, {"species": [{"element": "Ce", "occu": 1}], "abc": [0.8876000000000001, 0.419334999999999, 0.974729], "properties": {"magmom": 0.013000000000000001}, "label": "Ce", "xyz": [10.622534958000001, 5.0184775761749885, 5.785613149147999]}, {"species": [{"element": "Ce", "occu": 1}], "abc": [0.919335, 0.6124, 0.474728999999999], "properties": {"magmom": 0.015}, "label": "Ce", "xyz": [11.002330076175001, 7.329022542000001, 2.817807149147994]}, {"species": [{"element": "Ce", "occu": 1}], "abc": [0.080665, 0.3876, 0.474728999999999], "properties": {"magmom": 0.016}, "label": "Ce", "xyz": [0.965374923825, 4.638682458, 2.817807149147994]}, {"species": [{"element": "Ce", "occu": 1}], "abc": [0.031671, 0.860584, 0.730325], "properties": {"magmom": -0.146}, "label": "Ce", "xyz": [0.379029185055, 10.299215439720001, 4.3349258339]}, {"species": [{"element": "Ce", "occu": 1}], "abc": [0.968329, 0.139415999999999, 0.730325], "properties": {"magmom": -0.147}, "label": "Ce", "xyz": [11.588675814945, 1.6684895602799883, 4.3349258339]}, {"species": [{"element": "Ce", "occu": 1}], "abc": [0.639416, 0.531671, 0.230325], "properties": {"magmom": -0.166}, "label": "Ce", "xyz": [7.6523420602800005, 6.362881685055, 1.3671198339]}, {"species": [{"element": "Ce", "occu": 1}], "abc": [0.360583999999999, 0.468329, 0.230325], "properties": {"magmom": -0.167}, "label": "Ce", "xyz": [4.315362939719988, 5.604823314945, 1.3671198339]}, {"species": [{"element": "Ce", "occu": 1}], "abc": [0.468329, 0.639416, 0.769675], "properties": {"magmom": -0.145}, "label": "Ce", "xyz": [5.604823314945, 7.6523420602800005, 4.5684921660999995]}, {"species": [{"element": "Ce", "occu": 1}], "abc": [0.531671, 0.360583999999999, 0.769675], "properties": {"magmom": -0.145}, "label": "Ce", "xyz": [6.362881685055, 4.315362939719988, 4.5684921660999995]}, {"species": [{"element": "Ce", "occu": 1}], "abc": [0.860584, 0.968329, 0.269675], "properties": {"magmom": -0.167}, "label": "Ce", "xyz": [10.299215439720001, 11.588675814945, 1.6006861661]}, {"species": [{"element": "Ce", "occu": 1}], "abc": [0.139415999999999, 0.031671, 0.269675], "properties": {"magmom": -0.167}, "label": "Ce", "xyz": [1.6684895602799883, 0.379029185055, 1.6006861661]}, {"species": [{"element": "Ge", "occu": 1}], "abc": [0.7963300000000001, 0.950317, 0.777689], "properties": {"magmom": 0.005}, "label": "Ge", "xyz": [9.530242522650001, 11.373113512485, 4.616060160668]}, {"species": [{"element": "Ge", "occu": 1}], "abc": [0.20367000000000002, 0.049683, 0.777689], "properties": {"magmom": 0.005}, "label": "Ge", "xyz": [2.4374624773500004, 0.594591487515, 4.616060160668]}, {"species": [{"element": "Ge", "occu": 1}], "abc": [0.549682999999999, 0.29633000000000004, 0.277688999999999], "properties": {"magmom": 0.003}, "label": "Ge", "xyz": [6.578443987514989, 3.5463900226500007, 1.6482541606679941]}, {"species": [{"element": "Ge", "occu": 1}], "abc": [0.450316999999999, 0.70367, 0.277688999999999], "properties": {"magmom": 0.003}, "label": "Ge", "xyz": [5.3892610124849885, 8.42131497735, 1.6482541606679941]}, {"species": [{"element": "Ge", "occu": 1}], "abc": [0.70367, 0.549682999999999, 0.722310999999999], "properties": {"magmom": 0.005}, "label": "Ge", "xyz": [8.42131497735, 6.578443987514989, 4.287357839331994]}, {"species": [{"element": "Ge", "occu": 1}], "abc": [0.29633000000000004, 0.450316999999999, 0.722310999999999], "properties": {"magmom": 0.005}, "label": "Ge", "xyz": [3.5463900226500007, 5.3892610124849885, 4.287357839331994]}, {"species": [{"element": "Ge", "occu": 1}], "abc": [0.950317, 0.20367000000000002, 0.222310999999999], "properties": {"magmom": 0.003}, "label": "Ge", "xyz": [11.373113512485, 2.4374624773500004, 1.319551839331994]}, {"species": [{"element": "Ge", "occu": 1}], "abc": [0.049683, 0.7963300000000001, 0.222310999999999], "properties": {"magmom": 0.003}, "label": "Ge", "xyz": [0.594591487515, 9.530242522650001, 1.319551839331994]}]}, "task_ids": null, "uncorrected_energy_per_atom": null, "energy_per_atom": -5.95844786625, "formation_energy_per_atom": -0.34997849999999703, "energy_above_hull": 0.055319593333335006, "is_stable": false, "equilibrium_reaction_energy_per_atom": null, "decomposes_to": null, "xas": null, "grain_boundaries": null, "band_gap": 0.0, "cbm": null, "vbm": null, "efermi": 7.54920602, "is_gap_direct": null, "is_metal": null, "es_source_calc_id": null, "bandstructure": null, "dos": null, "dos_energy_up": null, "dos_energy_down": null, "is_magnetic": null, "ordering": null, "total_magnetization": 0.066226, "total_magnetization_normalized_vol": null, "total_magnetization_normalized_formula_units": null, "num_magnetic_sites": null, "num_unique_magnetic_sites": null, "types_of_magnetic_species": null, "bulk_modulus": null, "shear_modulus": null, "universal_anisotropy": null, "homogeneous_poisson": null, "e_total": null, "e_ionic": null, "e_electronic": null, "n": null, "e_ij_max": null, "weighted_surface_energy_EV_PER_ANG2": null, "weighted_surface_energy": null, "weighted_work_function": null, "surface_anisotropy": null, "shape_factor": null, "has_reconstructed": null, "possible_species": null, "has_props": null, "theoretical": null, "database_IDs": null, "fields_not_requested": ["builder_meta", "nsites", "elements", "nelements", "composition", "composition_reduced", "chemsys", "symmetry", "property_name", "deprecated", "deprecation_reasons", "last_updated", "origins", "warnings", "task_ids", "uncorrected_energy_per_atom", "equilibrium_reaction_energy_per_atom", "decomposes_to", "xas", "grain_boundaries", "cbm", "vbm", "is_gap_direct", "is_metal", "es_source_calc_id", "bandstructure", "dos", "dos_energy_up", "dos_energy_down", "is_magnetic", "ordering", "total_magnetization_normalized_vol", "total_magnetization_normalized_formula_units", "num_magnetic_sites", "num_unique_magnetic_sites", "types_of_magnetic_species", "bulk_modulus", "shear_modulus", "universal_anisotropy", "homogeneous_poisson", "e_total", "e_ionic", "e_electronic", "n", "e_ij_max", "weighted_surface_energy_EV_PER_ANG2", "weighted_surface_energy", "weighted_work_function", "surface_anisotropy", "shape_factor", "has_reconstructed", "possible_species", "has_props", "theoretical", "database_IDs"]}