{"builder_meta": null, "nsites": null, "elements": null, "nelements": null, "composition": null, "composition_reduced": null, "formula_pretty": "Ce3Ga2", "formula_anonymous": "A2B3", "chemsys": null, "volume": 506.6496599494944, "density": 7.338876385239806, "density_atomic": 25.33248299747472, "symmetry": null, "property_name": null, "material_id": "mp-1106087", "deprecated": null, "deprecation_reasons": null, "last_updated": null, "origins": null, "warnings": null, "structure": {"@module": "pymatgen.core.structure", "@class": "Structure", "charge": 0, "lattice": {"matrix": [[8.393973, 0.0, 0.0], [0.0, 8.393973, 0.0], [0.0, 0.0, 7.190724]], "pbc": [true, true, true], "a": 8.393973, "b": 8.393973, "c": 7.190724, "alpha": 90.0, "beta": 90.0, "gamma": 90.0, "volume": 506.6496599494944}, "properties": {}, "sites": [{"species": [{"element": "Ce", "occu": 1}], "abc": [0.5, 0.0, 0.25], "properties": {"magmom": 0.744}, "label": "Ce", "xyz": [4.1969865, 0.0, 1.797681]}, {"species": [{"element": "Ce", "occu": 1}], "abc": [0.0, 0.5, 0.75], "properties": {"magmom": 0.744}, "label": "Ce", "xyz": [0.0, 4.1969865, 5.3930430000000005]}, {"species": [{"element": "Ce", "occu": 1}], "abc": [0.5, 0.0, 0.75], "properties": {"magmom": 0.744}, "label": "Ce", "xyz": [4.1969865, 0.0, 5.3930430000000005]}, {"species": [{"element": "Ce", "occu": 1}], "abc": [0.0, 0.5, 0.25], "properties": {"magmom": 0.744}, "label": "Ce", "xyz": [0.0, 4.1969865, 1.797681]}, {"species": [{"element": "Ce", "occu": 1}], "abc": [0.842977, 0.157023, 0.5], "properties": {"magmom": 0.631}, "label": "Ce", "xyz": [7.0759261776210005, 1.318046822379, 3.595362]}, {"species": [{"element": "Ce", "occu": 1}], "abc": [0.157023, 0.842977, 0.5], "properties": {"magmom": 0.631}, "label": "Ce", "xyz": [1.318046822379, 7.0759261776210005, 3.595362]}, {"species": [{"element": "Ce", "occu": 1}], "abc": [0.342977, 0.342977, 0.0], "properties": {"magmom": 0.631}, "label": "Ce", "xyz": [2.878939677621, 2.878939677621, 0.0]}, {"species": [{"element": "Ce", "occu": 1}], "abc": [0.657023, 0.657023, 0.0], "properties": {"magmom": 0.631}, "label": "Ce", "xyz": [5.515033322379001, 5.515033322379001, 0.0]}, {"species": [{"element": "Ce", "occu": 1}], "abc": [0.695867, 0.695867, 0.5], "properties": {"magmom": 0.559}, "label": "Ce", "xyz": [5.8410888095910005, 5.8410888095910005, 3.595362]}, {"species": [{"element": "Ce", "occu": 1}], "abc": [0.304133, 0.304133, 0.5], "properties": {"magmom": 0.559}, "label": "Ce", "xyz": [2.5528841904090003, 2.5528841904090003, 3.595362]}, {"species": [{"element": "Ce", "occu": 1}], "abc": [0.19586699999999901, 0.804133, 0.0], "properties": {"magmom": 0.559}, "label": "Ce", "xyz": [1.644102309590992, 6.749870690409001, 0.0]}, {"species": [{"element": "Ce", "occu": 1}], "abc": [0.804133, 0.19586699999999901, 0.0], "properties": {"magmom": 0.559}, "label": "Ce", "xyz": [6.749870690409001, 1.644102309590992, 0.0]}, {"species": [{"element": "Ga", "occu": 1}], "abc": [0.620028, 0.379972, 0.297981999999999], "properties": {"magmom": -0.005}, "label": "Ga", "xyz": [5.2044982912440005, 3.1894747087560003, 2.142706318967993]}, {"species": [{"element": "Ga", "occu": 1}], "abc": [0.379972, 0.620028, 0.297981999999999], "properties": {"magmom": -0.005}, "label": "Ga", "xyz": [3.1894747087560003, 5.2044982912440005, 2.142706318967993]}, {"species": [{"element": "Ga", "occu": 1}], "abc": [0.120028, 0.120028, 0.797982], "properties": {"magmom": -0.005}, "label": "Ga", "xyz": [1.0075117912440001, 1.0075117912440001, 5.738068318968]}, {"species": [{"element": "Ga", "occu": 1}], "abc": [0.879972, 0.879972, 0.797982], "properties": {"magmom": -0.005}, "label": "Ga", "xyz": [7.386461208756001, 7.386461208756001, 5.738068318968]}, {"species": [{"element": "Ga", "occu": 1}], "abc": [0.379972, 0.620028, 0.702017999999999], "properties": {"magmom": -0.005}, "label": "Ga", "xyz": [3.1894747087560003, 5.2044982912440005, 5.048017681031993]}, {"species": [{"element": "Ga", "occu": 1}], "abc": [0.620028, 0.379972, 0.702017999999999], "properties": {"magmom": -0.005}, "label": "Ga", "xyz": [5.2044982912440005, 3.1894747087560003, 5.048017681031993]}, {"species": [{"element": "Ga", "occu": 1}], "abc": [0.879972, 0.879972, 0.202018], "properties": {"magmom": -0.005}, "label": "Ga", "xyz": [7.386461208756001, 7.386461208756001, 1.4526556810320002]}, {"species": [{"element": "Ga", "occu": 1}], "abc": [0.120028, 0.120028, 0.202018], "properties": {"magmom": -0.005}, "label": "Ga", "xyz": [1.0075117912440001, 1.0075117912440001, 1.4526556810320002]}]}, "task_ids": null, "uncorrected_energy_per_atom": null, "energy_per_atom": -23.57421156, "formation_energy_per_atom": -0.49272392399999704, "energy_above_hull": 0.017467407499999, "is_stable": false, "equilibrium_reaction_energy_per_atom": null, "decomposes_to": null, "xas": null, "grain_boundaries": null, "band_gap": 0.0, "cbm": null, "vbm": null, "efermi": 6.72994279, "is_gap_direct": null, "is_metal": null, "es_source_calc_id": null, "bandstructure": null, "dos": null, "dos_energy_up": null, "dos_energy_down": null, "is_magnetic": null, "ordering": null, "total_magnetization": 9.9446112, "total_magnetization_normalized_vol": null, "total_magnetization_normalized_formula_units": null, "num_magnetic_sites": null, "num_unique_magnetic_sites": null, "types_of_magnetic_species": null, "bulk_modulus": null, "shear_modulus": null, "universal_anisotropy": null, "homogeneous_poisson": null, "e_total": null, "e_ionic": null, "e_electronic": null, "n": null, "e_ij_max": null, "weighted_surface_energy_EV_PER_ANG2": null, "weighted_surface_energy": null, "weighted_work_function": null, "surface_anisotropy": null, "shape_factor": null, "has_reconstructed": null, "possible_species": null, "has_props": null, "theoretical": null, "database_IDs": null, "fields_not_requested": ["builder_meta", "nsites", "elements", "nelements", "composition", "composition_reduced", "chemsys", "symmetry", "property_name", "deprecated", "deprecation_reasons", "last_updated", "origins", "warnings", "task_ids", "uncorrected_energy_per_atom", "equilibrium_reaction_energy_per_atom", "decomposes_to", "xas", "grain_boundaries", "cbm", "vbm", "is_gap_direct", "is_metal", "es_source_calc_id", "bandstructure", "dos", "dos_energy_up", "dos_energy_down", "is_magnetic", "ordering", "total_magnetization_normalized_vol", "total_magnetization_normalized_formula_units", "num_magnetic_sites", "num_unique_magnetic_sites", "types_of_magnetic_species", "bulk_modulus", "shear_modulus", "universal_anisotropy", "homogeneous_poisson", "e_total", "e_ionic", "e_electronic", "n", "e_ij_max", "weighted_surface_energy_EV_PER_ANG2", "weighted_surface_energy", "weighted_work_function", "surface_anisotropy", "shape_factor", "has_reconstructed", "possible_species", "has_props", "theoretical", "database_IDs"]}