{"builder_meta": null, "nsites": null, "elements": null, "nelements": null, "composition": null, "composition_reduced": null, "formula_pretty": "Ce3Hg", "formula_anonymous": "AB3", "chemsys": null, "volume": 111.06408487250218, "density": 9.283755483333154, "density_atomic": 27.766021218125545, "symmetry": null, "property_name": null, "material_id": "mp-1183746", "deprecated": null, "deprecation_reasons": null, "last_updated": null, "origins": null, "warnings": null, "structure": {"@module": "pymatgen.core.structure", "@class": "Structure", "charge": 0, "lattice": {"matrix": [[-2.38228038, 2.38228038, 4.89246698], [2.38228038, -2.38228038, 4.89246698], [2.38228038, 2.38228038, -4.89246698]], "pbc": [true, true, true], "a": 5.940265378605253, "b": 5.940265378605253, "c": 5.940265378605253, "alpha": 132.71365678335985, "beta": 132.71365678335985, "gamma": 69.10419227425439, "volume": 111.06408487250218}, "properties": {}, "sites": [{"species": [{"element": "Ce", "occu": 1}], "abc": [0.75, 0.25, 0.5], "properties": {"magmom": 1.114}, "label": "Ce", "xyz": [0.0, 2.38228038, 2.44623349]}, {"species": [{"element": "Ce", "occu": 1}], "abc": [0.25, 0.75, 0.5], "properties": {"magmom": 1.114}, "label": "Ce", "xyz": [2.38228038, 0.0, 2.44623349]}, {"species": [{"element": "Ce", "occu": 1}], "abc": [0.5, 0.5, 0.0], "properties": {"magmom": 1.063}, "label": "Ce", "xyz": [0.0, 0.0, 4.89246698]}, {"species": [{"element": "Hg", "occu": 1}], "abc": [0.0, -0.0, 0.0], "properties": {"magmom": -0.018000000000000002}, "label": "Hg", "xyz": [0.0, 0.0, 0.0]}]}, "task_ids": null, "uncorrected_energy_per_atom": null, "energy_per_atom": -35.656889065, "formation_energy_per_atom": -0.184465864374999, "energy_above_hull": 0.049506507499998006, "is_stable": false, "equilibrium_reaction_energy_per_atom": null, "decomposes_to": null, "xas": null, "grain_boundaries": null, "band_gap": 0.0, "cbm": null, "vbm": null, "efermi": 7.69188908, "is_gap_direct": null, "is_metal": null, "es_source_calc_id": null, "bandstructure": null, "dos": null, "dos_energy_up": null, "dos_energy_down": null, "is_magnetic": null, "ordering": null, "total_magnetization": 4.0746282, "total_magnetization_normalized_vol": null, "total_magnetization_normalized_formula_units": null, "num_magnetic_sites": null, "num_unique_magnetic_sites": null, "types_of_magnetic_species": null, "bulk_modulus": null, "shear_modulus": null, "universal_anisotropy": null, "homogeneous_poisson": null, "e_total": null, "e_ionic": null, "e_electronic": null, "n": null, "e_ij_max": null, "weighted_surface_energy_EV_PER_ANG2": null, "weighted_surface_energy": null, "weighted_work_function": null, "surface_anisotropy": null, "shape_factor": null, "has_reconstructed": null, "possible_species": null, "has_props": null, "theoretical": null, "database_IDs": null, "fields_not_requested": ["builder_meta", "nsites", "elements", "nelements", "composition", "composition_reduced", "chemsys", "symmetry", "property_name", "deprecated", "deprecation_reasons", "last_updated", "origins", "warnings", "task_ids", "uncorrected_energy_per_atom", "equilibrium_reaction_energy_per_atom", "decomposes_to", "xas", "grain_boundaries", "cbm", "vbm", "is_gap_direct", "is_metal", "es_source_calc_id", "bandstructure", "dos", "dos_energy_up", "dos_energy_down", "is_magnetic", "ordering", "total_magnetization_normalized_vol", "total_magnetization_normalized_formula_units", "num_magnetic_sites", "num_unique_magnetic_sites", "types_of_magnetic_species", "bulk_modulus", "shear_modulus", "universal_anisotropy", "homogeneous_poisson", "e_total", "e_ionic", "e_electronic", "n", "e_ij_max", "weighted_surface_energy_EV_PER_ANG2", "weighted_surface_energy", "weighted_work_function", "surface_anisotropy", "shape_factor", "has_reconstructed", "possible_species", "has_props", "theoretical", "database_IDs"]}