{
  "builder_meta": null,
  "nsites": null,
  "elements": null,
  "nelements": null,
  "composition": null,
  "composition_reduced": null,
  "formula_pretty": "Ce3Ir",
  "formula_anonymous": "AB3",
  "chemsys": null,
  "volume": 428.448000256962,
  "density": 9.496490708060438,
  "density_atomic": 26.778000016060126,
  "symmetry": null,
  "property_name": null,
  "material_id": "mp-1106033",
  "deprecated": null,
  "deprecation_reasons": null,
  "last_updated": null,
  "origins": null,
  "warnings": null,
  "structure": {
    "@module": "pymatgen.core.structure",
    "@class": "Structure",
    "charge": 0,
    "lattice": {
      "matrix": [
        [0.0, 0.0, 6.168503],
        [7.08027, 0.0, 0.0],
        [0.0, 9.809989, 0.0]
      ],
      "pbc": [true, true, true],
      "a": 6.168503,
      "b": 7.08027,
      "c": 9.809989,
      "alpha": 90.0,
      "beta": 90.0,
      "gamma": 90.0,
      "volume": 428.448000256962
    },
    "properties": {},
    "sites": [
      {
        "species": [{ "element": "Ce", "occu": 1 }],
        "abc": [0.347157, 0.671016, 0.056991],
        "properties": { "magmom": 0.506 },
        "label": "Ce",
        "xyz": [4.75097445432, 0.559081083099, 2.141438995971]
      },
      {
        "species": [{ "element": "Ce", "occu": 1 }],
        "abc": [0.152843, 0.171016, 0.443009],
        "properties": { "magmom": 0.506 },
        "label": "Ce",
        "xyz": [1.2108394543199998, 4.345913416900999, 0.9428125040290001]
      },
      {
        "species": [{ "element": "Ce", "occu": 1 }],
        "abc": [0.652843, 0.328984, 0.556991],
        "properties": { "magmom": 0.506 },
        "label": "Ce",
        "xyz": [2.32929554568, 5.464075583099, 4.0270640040289996]
      },
      {
        "species": [{ "element": "Ce", "occu": 1 }],
        "abc": [0.847156999999999, 0.828983999999999, 0.943009],
        "properties": { "magmom": 0.506 },
        "label": "Ce",
        "xyz": [5.869430545679993, 9.250907916901, 5.225690495970994]
      },
      {
        "species": [{ "element": "Ce", "occu": 1 }],
        "abc": [0.652843, 0.328984, 0.943009],
        "properties": { "magmom": 0.506 },
        "label": "Ce",
        "xyz": [2.32929554568, 9.250907916901, 4.0270640040289996]
      },
      {
        "species": [{ "element": "Ce", "occu": 1 }],
        "abc": [0.847156999999999, 0.828983999999999, 0.556991],
        "properties": { "magmom": 0.506 },
        "label": "Ce",
        "xyz": [5.869430545679993, 5.464075583099, 5.225690495970994]
      },
      {
        "species": [{ "element": "Ce", "occu": 1 }],
        "abc": [0.347157, 0.671016, 0.443009],
        "properties": { "magmom": 0.506 },
        "label": "Ce",
        "xyz": [4.75097445432, 4.345913416900999, 2.141438995971]
      },
      {
        "species": [{ "element": "Ce", "occu": 1 }],
        "abc": [0.152843, 0.171016, 0.056991],
        "properties": { "magmom": 0.506 },
        "label": "Ce",
        "xyz": [1.2108394543199998, 0.559081083099, 0.9428125040290001]
      },
      {
        "species": [{ "element": "Ce", "occu": 1 }],
        "abc": [0.854602, 0.534407, 0.25],
        "properties": { "magmom": 0.609 },
        "label": "Ce",
        "xyz": [3.7837458498899994, 2.45249725, 5.271615000806]
      },
      {
        "species": [{ "element": "Ce", "occu": 1 }],
        "abc": [0.645397999999999, 0.034407, 0.25],
        "properties": { "magmom": 0.609 },
        "label": "Ce",
        "xyz": [0.24361084988999998, 2.45249725, 3.9811394991939943]
      },
      {
        "species": [{ "element": "Ce", "occu": 1 }],
        "abc": [0.145398, 0.465593, 0.75],
        "properties": { "magmom": 0.609 },
        "label": "Ce",
        "xyz": [3.2965241501099998, 7.357491749999999, 0.8968879991940001]
      },
      {
        "species": [{ "element": "Ce", "occu": 1 }],
        "abc": [0.354602, 0.965592999999999, 0.75],
        "properties": { "magmom": 0.609 },
        "label": "Ce",
        "xyz": [6.836659150109993, 7.357491749999999, 2.1873635008059997]
      },
      {
        "species": [{ "element": "Ir", "occu": 1 }],
        "abc": [0.089393, 0.876269, 0.25],
        "properties": { "magmom": -0.032 },
        "label": "Ir",
        "xyz": [6.204221112629999, 2.45249725, 0.551420988679]
      },
      {
        "species": [{ "element": "Ir", "occu": 1 }],
        "abc": [0.410607, 0.376268999999999, 0.25],
        "properties": { "magmom": -0.032 },
        "label": "Ir",
        "xyz": [2.664086112629993, 2.45249725, 2.532830511321]
      },
      {
        "species": [{ "element": "Ir", "occu": 1 }],
        "abc": [0.9106069999999991, 0.123731, 0.75],
        "properties": { "magmom": -0.032 },
        "label": "Ir",
        "xyz": [0.8760488873699999, 7.357491749999999, 5.617082011320995]
      },
      {
        "species": [{ "element": "Ir", "occu": 1 }],
        "abc": [0.589393, 0.623730999999999, 0.75],
        "properties": { "magmom": -0.032 },
        "label": "Ir",
        "xyz": [4.416183887369993, 7.357491749999999, 3.635672488679]
      }
    ]
  },
  "task_ids": null,
  "uncorrected_energy_per_atom": null,
  "energy_per_atom": -7.067867403125,
  "formation_energy_per_atom": -0.405546455624997,
  "energy_above_hull": 0.033640848124999005,
  "is_stable": false,
  "equilibrium_reaction_energy_per_atom": null,
  "decomposes_to": null,
  "xas": null,
  "grain_boundaries": null,
  "band_gap": 0.0,
  "cbm": null,
  "vbm": null,
  "efermi": 8.04771418,
  "is_gap_direct": null,
  "is_metal": null,
  "es_source_calc_id": null,
  "bandstructure": null,
  "dos": null,
  "dos_energy_up": null,
  "dos_energy_down": null,
  "is_magnetic": null,
  "ordering": null,
  "total_magnetization": 8.0150265,
  "total_magnetization_normalized_vol": null,
  "total_magnetization_normalized_formula_units": null,
  "num_magnetic_sites": null,
  "num_unique_magnetic_sites": null,
  "types_of_magnetic_species": null,
  "bulk_modulus": null,
  "shear_modulus": null,
  "universal_anisotropy": null,
  "homogeneous_poisson": null,
  "e_total": null,
  "e_ionic": null,
  "e_electronic": null,
  "n": null,
  "e_ij_max": null,
  "weighted_surface_energy_EV_PER_ANG2": null,
  "weighted_surface_energy": null,
  "weighted_work_function": null,
  "surface_anisotropy": null,
  "shape_factor": null,
  "has_reconstructed": null,
  "possible_species": null,
  "has_props": null,
  "theoretical": null,
  "database_IDs": null,
  "fields_not_requested": [
    "builder_meta",
    "nsites",
    "elements",
    "nelements",
    "composition",
    "composition_reduced",
    "chemsys",
    "symmetry",
    "property_name",
    "deprecated",
    "deprecation_reasons",
    "last_updated",
    "origins",
    "warnings",
    "task_ids",
    "uncorrected_energy_per_atom",
    "equilibrium_reaction_energy_per_atom",
    "decomposes_to",
    "xas",
    "grain_boundaries",
    "cbm",
    "vbm",
    "is_gap_direct",
    "is_metal",
    "es_source_calc_id",
    "bandstructure",
    "dos",
    "dos_energy_up",
    "dos_energy_down",
    "is_magnetic",
    "ordering",
    "total_magnetization_normalized_vol",
    "total_magnetization_normalized_formula_units",
    "num_magnetic_sites",
    "num_unique_magnetic_sites",
    "types_of_magnetic_species",
    "bulk_modulus",
    "shear_modulus",
    "universal_anisotropy",
    "homogeneous_poisson",
    "e_total",
    "e_ionic",
    "e_electronic",
    "n",
    "e_ij_max",
    "weighted_surface_energy_EV_PER_ANG2",
    "weighted_surface_energy",
    "weighted_work_function",
    "surface_anisotropy",
    "shape_factor",
    "has_reconstructed",
    "possible_species",
    "has_props",
    "theoretical",
    "database_IDs"
  ]
}
