{
  "builder_meta": null,
  "nsites": null,
  "elements": null,
  "nelements": null,
  "composition": null,
  "composition_reduced": null,
  "formula_pretty": "Ce3Os",
  "formula_anonymous": "AB3",
  "chemsys": null,
  "volume": 423.1440867946085,
  "density": 9.584334545585934,
  "density_atomic": 26.44650542466303,
  "symmetry": null,
  "property_name": null,
  "material_id": "mp-1188974",
  "deprecated": null,
  "deprecation_reasons": null,
  "last_updated": null,
  "origins": null,
  "warnings": null,
  "structure": {
    "@module": "pymatgen.core.structure",
    "@class": "Structure",
    "charge": 0,
    "lattice": {
      "matrix": [
        [7.073605, 0.0, 0.0],
        [0.0, 9.6894, 0.0],
        [0.0, 0.0, 6.173772]
      ],
      "pbc": [true, true, true],
      "a": 7.073605,
      "b": 9.6894,
      "c": 6.173772,
      "alpha": 90.0,
      "beta": 90.0,
      "gamma": 90.0,
      "volume": 423.1440867946085
    },
    "properties": {},
    "sites": [
      {
        "species": [{ "element": "Ce", "occu": 1 }],
        "abc": [0.668723, 0.059320000000000005, 0.345861],
        "properties": { "magmom": 0.34700000000000003 },
        "label": "Ce",
        "xyz": [4.730282356415, 0.574775208, 2.1352669576919996]
      },
      {
        "species": [{ "element": "Ce", "occu": 1 }],
        "abc": [0.168722999999999, 0.44068, 0.154139],
        "properties": { "magmom": 0.34700000000000003 },
        "label": "Ce",
        "xyz": [1.1934798564149929, 4.269924791999999, 0.9516190423079999]
      },
      {
        "species": [{ "element": "Ce", "occu": 1 }],
        "abc": [0.331277, 0.55932, 0.654138999999999],
        "properties": { "magmom": 0.34700000000000003 },
        "label": "Ce",
        "xyz": [2.3433226435849996, 5.419475208, 4.038505042307993]
      },
      {
        "species": [{ "element": "Ce", "occu": 1 }],
        "abc": [0.831276999999999, 0.9406800000000001, 0.845861],
        "properties": { "magmom": 0.34700000000000003 },
        "label": "Ce",
        "xyz": [5.880125143584993, 9.114624792, 5.222152957692]
      },
      {
        "species": [{ "element": "Ce", "occu": 1 }],
        "abc": [0.331277, 0.9406800000000001, 0.654138999999999],
        "properties": { "magmom": 0.34700000000000003 },
        "label": "Ce",
        "xyz": [2.3433226435849996, 9.114624792, 4.038505042307993]
      },
      {
        "species": [{ "element": "Ce", "occu": 1 }],
        "abc": [0.831276999999999, 0.55932, 0.845861],
        "properties": { "magmom": 0.34700000000000003 },
        "label": "Ce",
        "xyz": [5.880125143584993, 5.419475208, 5.222152957692]
      },
      {
        "species": [{ "element": "Ce", "occu": 1 }],
        "abc": [0.668723, 0.44068, 0.345861],
        "properties": { "magmom": 0.34700000000000003 },
        "label": "Ce",
        "xyz": [4.730282356415, 4.269924791999999, 2.1352669576919996]
      },
      {
        "species": [{ "element": "Ce", "occu": 1 }],
        "abc": [0.168722999999999, 0.059320000000000005, 0.154139],
        "properties": { "magmom": 0.34700000000000003 },
        "label": "Ce",
        "xyz": [1.1934798564149929, 0.574775208, 0.9516190423079999]
      },
      {
        "species": [{ "element": "Ce", "occu": 1 }],
        "abc": [0.5369700000000001, 0.25, 0.854333999999999],
        "properties": { "magmom": 0.424 },
        "label": "Ce",
        "xyz": [3.7983136768500003, 2.42235, 5.274463327847994]
      },
      {
        "species": [{ "element": "Ce", "occu": 1 }],
        "abc": [0.03697, 0.25, 0.645666],
        "properties": { "magmom": 0.424 },
        "label": "Ce",
        "xyz": [0.26151117685, 2.42235, 3.9861946721519996]
      },
      {
        "species": [{ "element": "Ce", "occu": 1 }],
        "abc": [0.46303000000000005, 0.75, 0.145666],
        "properties": { "magmom": 0.424 },
        "label": "Ce",
        "xyz": [3.2752913231500003, 7.267049999999999, 0.8993086721519998]
      },
      {
        "species": [{ "element": "Ce", "occu": 1 }],
        "abc": [0.96303, 0.75, 0.354334],
        "properties": { "magmom": 0.424 },
        "label": "Ce",
        "xyz": [6.81209382315, 7.267049999999999, 2.187577327848]
      },
      {
        "species": [{ "element": "Os", "occu": 1 }],
        "abc": [0.872915, 0.25, 0.074818],
        "properties": { "magmom": -0.047 },
        "label": "Os",
        "xyz": [6.174655908575, 2.42235, 0.4619092734959999]
      },
      {
        "species": [{ "element": "Os", "occu": 1 }],
        "abc": [0.372915, 0.25, 0.425182],
        "properties": { "magmom": -0.047 },
        "label": "Os",
        "xyz": [2.637853408575, 2.42235, 2.624976726504]
      },
      {
        "species": [{ "element": "Os", "occu": 1 }],
        "abc": [0.127085, 0.75, 0.925182],
        "properties": { "magmom": -0.047 },
        "label": "Os",
        "xyz": [0.898949091425, 7.267049999999999, 5.711862726503999]
      },
      {
        "species": [{ "element": "Os", "occu": 1 }],
        "abc": [0.627085, 0.75, 0.574817999999999],
        "properties": { "magmom": -0.047 },
        "label": "Os",
        "xyz": [4.435751591424999, 7.267049999999999, 3.548795273495994]
      }
    ]
  },
  "task_ids": null,
  "uncorrected_energy_per_atom": null,
  "energy_per_atom": -7.385915409375,
  "formation_energy_per_atom": -0.126361149374997,
  "energy_above_hull": 0.0,
  "is_stable": true,
  "equilibrium_reaction_energy_per_atom": null,
  "decomposes_to": null,
  "xas": null,
  "grain_boundaries": null,
  "band_gap": 0.0,
  "cbm": null,
  "vbm": null,
  "efermi": 7.90462403,
  "is_gap_direct": null,
  "is_metal": null,
  "es_source_calc_id": null,
  "bandstructure": null,
  "dos": null,
  "dos_energy_up": null,
  "dos_energy_down": null,
  "is_magnetic": null,
  "ordering": null,
  "total_magnetization": 5.4342728,
  "total_magnetization_normalized_vol": null,
  "total_magnetization_normalized_formula_units": null,
  "num_magnetic_sites": null,
  "num_unique_magnetic_sites": null,
  "types_of_magnetic_species": null,
  "bulk_modulus": null,
  "shear_modulus": null,
  "universal_anisotropy": null,
  "homogeneous_poisson": null,
  "e_total": null,
  "e_ionic": null,
  "e_electronic": null,
  "n": null,
  "e_ij_max": null,
  "weighted_surface_energy_EV_PER_ANG2": null,
  "weighted_surface_energy": null,
  "weighted_work_function": null,
  "surface_anisotropy": null,
  "shape_factor": null,
  "has_reconstructed": null,
  "possible_species": null,
  "has_props": null,
  "theoretical": null,
  "database_IDs": null,
  "fields_not_requested": [
    "builder_meta",
    "nsites",
    "elements",
    "nelements",
    "composition",
    "composition_reduced",
    "chemsys",
    "symmetry",
    "property_name",
    "deprecated",
    "deprecation_reasons",
    "last_updated",
    "origins",
    "warnings",
    "task_ids",
    "uncorrected_energy_per_atom",
    "equilibrium_reaction_energy_per_atom",
    "decomposes_to",
    "xas",
    "grain_boundaries",
    "cbm",
    "vbm",
    "is_gap_direct",
    "is_metal",
    "es_source_calc_id",
    "bandstructure",
    "dos",
    "dos_energy_up",
    "dos_energy_down",
    "is_magnetic",
    "ordering",
    "total_magnetization_normalized_vol",
    "total_magnetization_normalized_formula_units",
    "num_magnetic_sites",
    "num_unique_magnetic_sites",
    "types_of_magnetic_species",
    "bulk_modulus",
    "shear_modulus",
    "universal_anisotropy",
    "homogeneous_poisson",
    "e_total",
    "e_ionic",
    "e_electronic",
    "n",
    "e_ij_max",
    "weighted_surface_energy_EV_PER_ANG2",
    "weighted_surface_energy",
    "weighted_work_function",
    "surface_anisotropy",
    "shape_factor",
    "has_reconstructed",
    "possible_species",
    "has_props",
    "theoretical",
    "database_IDs"
  ]
}
