{"builder_meta": null, "nsites": null, "elements": null, "nelements": null, "composition": null, "composition_reduced": null, "formula_pretty": "Ce3Pb", "formula_anonymous": "AB3", "chemsys": null, "volume": 120.12711151651799, "density": 8.674710954182961, "density_atomic": 30.031777879129496, "symmetry": null, "property_name": null, "material_id": "mp-570018", "deprecated": null, "deprecation_reasons": null, "last_updated": null, "origins": null, "warnings": null, "structure": {"@module": "pymatgen.core.structure", "@class": "Structure", "charge": 0, "lattice": {"matrix": [[4.93413771, 0.0, -0.0], [0.0, 4.93538542, 0.0], [0.0, 0.0, 4.9329725]], "pbc": [true, true, true], "a": 4.93413771, "b": 4.93538542, "c": 4.9329725, "alpha": 90.0, "beta": 90.0, "gamma": 90.0, "volume": 120.12711151651799}, "properties": {}, "sites": [{"species": [{"element": "Ce", "occu": 1}], "abc": [-0.0, 0.5, 0.5], "properties": {"magmom": 1.369}, "label": "Ce", "xyz": [0.0, 2.46769271, 2.46648625]}, {"species": [{"element": "Ce", "occu": 1}], "abc": [0.5, -0.0, 0.5], "properties": {"magmom": 1.367999999999999}, "label": "Ce", "xyz": [2.467068855, 0.0, 2.46648625]}, {"species": [{"element": "Ce", "occu": 1}], "abc": [0.5, 0.5, 0.0], "properties": {"magmom": 1.369}, "label": "Ce", "xyz": [2.467068855, 2.46769271, 0.0]}, {"species": [{"element": "Pb", "occu": 1}], "abc": [0.0, -0.0, -0.0], "properties": {"magmom": -0.10200000000000001}, "label": "Pb", "xyz": [0.0, 0.0, 0.0]}]}, "task_ids": null, "uncorrected_energy_per_atom": null, "energy_per_atom": -5.6568939275000005, "formation_energy_per_atom": -0.276019757499997, "energy_above_hull": 0.0, "is_stable": true, "equilibrium_reaction_energy_per_atom": null, "decomposes_to": null, "xas": null, "grain_boundaries": null, "band_gap": 0.0, "cbm": null, "vbm": null, "efermi": 8.44744791, "is_gap_direct": null, "is_metal": null, "es_source_calc_id": null, "bandstructure": null, "dos": null, "dos_energy_up": null, "dos_energy_down": null, "is_magnetic": null, "ordering": null, "total_magnetization": 5.4078976, "total_magnetization_normalized_vol": null, "total_magnetization_normalized_formula_units": null, "num_magnetic_sites": null, "num_unique_magnetic_sites": null, "types_of_magnetic_species": null, "bulk_modulus": null, "shear_modulus": null, "universal_anisotropy": null, "homogeneous_poisson": null, "e_total": null, "e_ionic": null, "e_electronic": null, "n": null, "e_ij_max": null, "weighted_surface_energy_EV_PER_ANG2": null, "weighted_surface_energy": null, "weighted_work_function": null, "surface_anisotropy": null, "shape_factor": null, "has_reconstructed": null, "possible_species": null, "has_props": null, "theoretical": null, "database_IDs": null, "fields_not_requested": ["builder_meta", "nsites", "elements", "nelements", "composition", "composition_reduced", "chemsys", "symmetry", "property_name", "deprecated", "deprecation_reasons", "last_updated", "origins", "warnings", "task_ids", "uncorrected_energy_per_atom", "equilibrium_reaction_energy_per_atom", "decomposes_to", "xas", "grain_boundaries", "cbm", "vbm", "is_gap_direct", "is_metal", "es_source_calc_id", "bandstructure", "dos", "dos_energy_up", "dos_energy_down", "is_magnetic", "ordering", "total_magnetization_normalized_vol", "total_magnetization_normalized_formula_units", "num_magnetic_sites", "num_unique_magnetic_sites", "types_of_magnetic_species", "bulk_modulus", "shear_modulus", "universal_anisotropy", "homogeneous_poisson", "e_total", "e_ionic", "e_electronic", "n", "e_ij_max", "weighted_surface_energy_EV_PER_ANG2", "weighted_surface_energy", "weighted_work_function", "surface_anisotropy", "shape_factor", "has_reconstructed", "possible_species", "has_props", "theoretical", "database_IDs"]}