{
  "builder_meta": null,
  "nsites": null,
  "elements": null,
  "nelements": null,
  "composition": null,
  "composition_reduced": null,
  "formula_pretty": "Ce3Pt4",
  "formula_anonymous": "A3B4",
  "chemsys": null,
  "volume": 311.051144533968,
  "density": 12.819645409945283,
  "density_atomic": 22.217938895283428,
  "symmetry": null,
  "property_name": null,
  "material_id": "mp-1104294",
  "deprecated": null,
  "deprecation_reasons": null,
  "last_updated": null,
  "origins": null,
  "warnings": null,
  "structure": {
    "@module": "pymatgen.core.structure",
    "@class": "Structure",
    "charge": 0,
    "lattice": {
      "matrix": [
        [4.39117918, -6.84226934, -0.01006986],
        [4.39151167, 6.842242, -0.00895341],
        [-6.25957898, 0.00044601, 5.18968509]
      ],
      "pbc": [true, true, true],
      "a": 8.130141801595462,
      "b": 8.130297073161646,
      "c": 8.131122956833888,
      "alpha": 114.6121558184611,
      "beta": 114.62201547681195,
      "gamma": 114.61535201900793,
      "volume": 311.05114453396806
    },
    "properties": {},
    "sites": [
      {
        "species": [{ "element": "Ce", "occu": 1 }],
        "abc": [0.03204191, 0.28396485, 0.40709807000000003],
        "properties": { "magmom": -0.871 },
        "label": "Ce",
        "xyz": [-1.1605258010463355, 1.7238984146158614, 2.1098456727713057]
      },
      {
        "species": [{ "element": "Ce", "occu": 1 }],
        "abc": [0.28407351000000003, 0.40717475000000003, 0.03206422],
        "properties": { "magmom": -0.871 },
        "label": "Ce",
        "xyz": [2.834821831533759, 0.8422950089730787, 0.1598970215026737]
      },
      {
        "species": [{ "element": "Ce", "occu": 1 }],
        "abc": [0.40703595000000004, 0.03198202, 0.28397136],
        "properties": { "magmom": -0.872 },
        "label": "Ce",
        "xyz": [0.1502760472336817, -2.56609422640766, 1.4693367898098673]
      },
      {
        "species": [{ "element": "Ce", "occu": 1 }],
        "abc": [0.96787313, 0.71589389, 0.59274485],
        "properties": { "magmom": -0.872 },
        "label": "Ce",
        "xyz": [3.6836275061908763, -1.7238650305769059, 3.06000307178876]
      },
      {
        "species": [{ "element": "Ce", "occu": 1 }],
        "abc": [0.71587692, 0.59282471, 0.96794554],
        "properties": { "magmom": -0.871 },
        "label": "Ce",
        "xyz": [-0.3119910971928572, -0.8415408581395176, 5.010815953821607]
      },
      {
        "species": [{ "element": "Ce", "occu": 1 }],
        "abc": [0.59301789, 0.96805787, 0.71607863],
        "properties": { "magmom": -0.871 },
        "label": "Ce",
        "xyz": [2.372934504900675, 2.5664174679558136, 3.701583563234995]
      },
      {
        "species": [{ "element": "Pt", "occu": 1 }],
        "abc": [-6.563000000000001e-5, -5.87e-6, -1.1330000000000002e-5],
        "properties": { "magmom": 0.01 },
        "label": "Pt",
        "xyz": [
          -0.0002430502332429, 0.00040888912295090007, -5.808569064120001e-5
        ]
      },
      {
        "species": [{ "element": "Pt", "occu": 1 }],
        "abc": [0.49998027, 0.50004632, 0.50003027],
        "properties": { "magmom": 0.019 },
        "label": "Pt",
        "xyz": [1.2614832343996087, 0.0006612791242409607, 2.585487785724061]
      },
      {
        "species": [{ "element": "Pt", "occu": 1 }],
        "abc": [0.057257510000000005, 0.55455554, 0.22255375],
        "properties": { "magmom": 0.021 },
        "label": "Pt",
        "xyz": [1.2936723359636182, 3.402731163160974, 1.1494421398715475]
      },
      {
        "species": [{ "element": "Pt", "occu": 1 }],
        "abc": [0.55452767, 0.2226471, 0.05718827],
        "properties": { "magmom": 0.021 },
        "label": "Pt",
        "xyz": [3.054813204385003, -2.270796829284136, 0.2892116453672571]
      },
      {
        "species": [{ "element": "Pt", "occu": 1 }],
        "abc": [0.22262092, 0.05728328, 0.55461346],
        "properties": { "magmom": 0.021 },
        "label": "Pt",
        "xyz": [-2.2425182146887472, -1.131038867895538, 2.8755145618858555]
      },
      {
        "species": [{ "element": "Pt", "occu": 1 }],
        "abc": [0.94282442, 0.44547998, 0.77749094],
        "properties": { "magmom": 0.021 },
        "label": "Pt",
        "xyz": [1.229675549256501, -3.402630023919973, 4.021450464106372]
      },
      {
        "species": [{ "element": "Pt", "occu": 1 }],
        "abc": [0.44552811000000003, 0.77734114, 0.94276294],
        "properties": { "magmom": 0.021 },
        "label": "Pt",
        "xyz": [-0.5312026337291478, 2.2707533509736013, 4.8811965134925135]
      },
      {
        "species": [{ "element": "Pt", "occu": 1 }],
        "abc": [0.7774074200000001, 0.94275441, 0.44546904],
        "properties": { "magmom": 0.021 },
        "label": "Pt",
        "xyz": [4.765403631515701, 1.131521548879247, 2.2955747843002143]
      }
    ]
  },
  "task_ids": null,
  "uncorrected_energy_per_atom": null,
  "energy_per_atom": -43.84791833642857,
  "formation_energy_per_atom": -1.208953496428567,
  "energy_above_hull": 0.0,
  "is_stable": true,
  "equilibrium_reaction_energy_per_atom": null,
  "decomposes_to": null,
  "xas": null,
  "grain_boundaries": null,
  "band_gap": 0.0,
  "cbm": null,
  "vbm": null,
  "efermi": 7.90416996,
  "is_gap_direct": null,
  "is_metal": null,
  "es_source_calc_id": null,
  "bandstructure": null,
  "dos": null,
  "dos_energy_up": null,
  "dos_energy_down": null,
  "is_magnetic": null,
  "ordering": null,
  "total_magnetization": 5.6888658,
  "total_magnetization_normalized_vol": null,
  "total_magnetization_normalized_formula_units": null,
  "num_magnetic_sites": null,
  "num_unique_magnetic_sites": null,
  "types_of_magnetic_species": null,
  "bulk_modulus": null,
  "shear_modulus": null,
  "universal_anisotropy": null,
  "homogeneous_poisson": null,
  "e_total": null,
  "e_ionic": null,
  "e_electronic": null,
  "n": null,
  "e_ij_max": null,
  "weighted_surface_energy_EV_PER_ANG2": null,
  "weighted_surface_energy": null,
  "weighted_work_function": null,
  "surface_anisotropy": null,
  "shape_factor": null,
  "has_reconstructed": null,
  "possible_species": null,
  "has_props": null,
  "theoretical": null,
  "database_IDs": null,
  "fields_not_requested": [
    "builder_meta",
    "nsites",
    "elements",
    "nelements",
    "composition",
    "composition_reduced",
    "chemsys",
    "symmetry",
    "property_name",
    "deprecated",
    "deprecation_reasons",
    "last_updated",
    "origins",
    "warnings",
    "task_ids",
    "uncorrected_energy_per_atom",
    "equilibrium_reaction_energy_per_atom",
    "decomposes_to",
    "xas",
    "grain_boundaries",
    "cbm",
    "vbm",
    "is_gap_direct",
    "is_metal",
    "es_source_calc_id",
    "bandstructure",
    "dos",
    "dos_energy_up",
    "dos_energy_down",
    "is_magnetic",
    "ordering",
    "total_magnetization_normalized_vol",
    "total_magnetization_normalized_formula_units",
    "num_magnetic_sites",
    "num_unique_magnetic_sites",
    "types_of_magnetic_species",
    "bulk_modulus",
    "shear_modulus",
    "universal_anisotropy",
    "homogeneous_poisson",
    "e_total",
    "e_ionic",
    "e_electronic",
    "n",
    "e_ij_max",
    "weighted_surface_energy_EV_PER_ANG2",
    "weighted_surface_energy",
    "weighted_work_function",
    "surface_anisotropy",
    "shape_factor",
    "has_reconstructed",
    "possible_species",
    "has_props",
    "theoretical",
    "database_IDs"
  ]
}
