{
  "builder_meta": null,
  "nsites": null,
  "elements": null,
  "nelements": null,
  "composition": null,
  "composition_reduced": null,
  "formula_pretty": "Ce3Pt2",
  "formula_anonymous": "A2B3",
  "chemsys": null,
  "volume": 385.3714299406937,
  "density": 10.477373600151083,
  "density_atomic": 25.691428662712912,
  "symmetry": null,
  "property_name": null,
  "material_id": "mp-1104731",
  "deprecated": null,
  "deprecation_reasons": null,
  "last_updated": null,
  "origins": null,
  "warnings": null,
  "structure": {
    "@module": "pymatgen.core.structure",
    "@class": "Structure",
    "charge": 0,
    "lattice": {
      "matrix": [
        [6.119325, -4.478657, 0.0],
        [6.119325, 4.478657, 0.0],
        [2.841452, 0.0, 7.030694]
      ],
      "pbc": [true, true, true],
      "a": 7.583172619641069,
      "b": 7.583172619641069,
      "c": 7.583172659905616,
      "alpha": 72.3998571339846,
      "beta": 72.3998571339846,
      "gamma": 72.3998552896555,
      "volume": 385.3714299406937
    },
    "properties": {},
    "sites": [
      {
        "species": [{ "element": "Ce", "occu": 1 }],
        "abc": [0.0, 0.0, 0.0],
        "properties": { "magmom": 0.618 },
        "label": "Ce",
        "xyz": [0.0, 0.0, 0.0]
      },
      {
        "species": [{ "element": "Ce", "occu": 1 }],
        "abc": [0.20705199999999901, 0.20705199999999901, 0.20705199999999901],
        "properties": { "magmom": 0.6990000000000001 },
        "label": "Ce",
        "xyz": [3.122365279303985, 0.0, 1.455719254087993]
      },
      {
        "species": [{ "element": "Ce", "occu": 1 }],
        "abc": [0.792948, 0.792948, 0.792948],
        "properties": { "magmom": 0.6990000000000001 },
        "label": "Ce",
        "xyz": [11.957736720696, 0.0, 5.574974745912]
      },
      {
        "species": [{ "element": "Ce", "occu": 1 }],
        "abc": [0.388972999999999, 0.661249, 0.167101],
        "properties": { "magmom": 0.745 },
        "label": "Ce",
        "xyz": [6.901459210801993, 1.2194308133320044, 1.174835998094]
      },
      {
        "species": [{ "element": "Ce", "occu": 1 }],
        "abc": [0.661249, 0.167101, 0.388972999999999],
        "properties": { "magmom": 0.745 },
        "label": "Ce",
        "xyz": [6.174190972545997, -2.213119399236, 2.7347501372619933]
      },
      {
        "species": [{ "element": "Ce", "occu": 1 }],
        "abc": [0.167101, 0.388972999999999, 0.661249],
        "properties": { "magmom": 0.745 },
        "label": "Ce",
        "xyz": [5.281704823597994, 0.9936885859039956, 4.649039376806]
      },
      {
        "species": [{ "element": "Ce", "occu": 1 }],
        "abc": [0.611027, 0.338750999999999, 0.832899],
        "properties": { "magmom": 0.745 },
        "label": "Ce",
        "xyz": [8.178642789197994, -1.2194308133320044, 5.855858001906]
      },
      {
        "species": [{ "element": "Ce", "occu": 1 }],
        "abc": [0.338750999999999, 0.832899, 0.611027],
        "properties": { "magmom": 0.745 },
        "label": "Ce",
        "xyz": [8.905911027453993, 2.213119399236004, 4.295943862738]
      },
      {
        "species": [{ "element": "Ce", "occu": 1 }],
        "abc": [0.832899, 0.611027, 0.338750999999999],
        "properties": { "magmom": 0.745 },
        "label": "Ce",
        "xyz": [9.798397176401997, -0.9936885859039997, 2.3816546231939935]
      },
      {
        "species": [{ "element": "Pt", "occu": 1 }],
        "abc": [0.04492, 0.841082999999999, 0.406146],
        "properties": { "magmom": -0.015 },
        "label": "Pt",
        "xyz": [6.575784671966994, 3.5657409930909956, 2.855488245324]
      },
      {
        "species": [{ "element": "Pt", "occu": 1 }],
        "abc": [0.841082999999999, 0.406146, 0.04492],
        "properties": { "magmom": -0.015 },
        "label": "Pt",
        "xyz": [7.759837624264994, -1.9479336396089955, 0.31581877448]
      },
      {
        "species": [{ "element": "Pt", "occu": 1 }],
        "abc": [0.406146, 0.04492, 0.841082999999999],
        "properties": { "magmom": -0.015 },
        "label": "Pt",
        "xyz": [5.150116422965997, -1.617807353482, 5.913397201601994]
      },
      {
        "species": [{ "element": "Pt", "occu": 1 }],
        "abc": [0.95508, 0.158917, 0.593854],
        "properties": { "magmom": -0.015 },
        "label": "Pt",
        "xyz": [8.504317328033, -3.5657409930910005, 4.175205754676]
      },
      {
        "species": [{ "element": "Pt", "occu": 1 }],
        "abc": [0.158917, 0.593854, 0.95508],
        "properties": { "magmom": -0.015 },
        "label": "Pt",
        "xyz": [7.320264375735, 1.947933639609, 6.714875225520001]
      },
      {
        "species": [{ "element": "Pt", "occu": 1 }],
        "abc": [0.593854, 0.95508, 0.158917],
        "properties": { "magmom": -0.015 },
        "label": "Pt",
        "xyz": [9.929985577034, 1.6178073534820006, 1.117296798398]
      }
    ]
  },
  "task_ids": null,
  "uncorrected_energy_per_atom": null,
  "energy_per_atom": -40.055333507666674,
  "formation_energy_per_atom": -0.9558694916666731,
  "energy_above_hull": 0.031002314333328004,
  "is_stable": false,
  "equilibrium_reaction_energy_per_atom": null,
  "decomposes_to": null,
  "xas": null,
  "grain_boundaries": null,
  "band_gap": 0.0,
  "cbm": null,
  "vbm": null,
  "efermi": 7.58983334,
  "is_gap_direct": null,
  "is_metal": null,
  "es_source_calc_id": null,
  "bandstructure": null,
  "dos": null,
  "dos_energy_up": null,
  "dos_energy_down": null,
  "is_magnetic": null,
  "ordering": null,
  "total_magnetization": 8.1426537,
  "total_magnetization_normalized_vol": null,
  "total_magnetization_normalized_formula_units": null,
  "num_magnetic_sites": null,
  "num_unique_magnetic_sites": null,
  "types_of_magnetic_species": null,
  "bulk_modulus": null,
  "shear_modulus": null,
  "universal_anisotropy": null,
  "homogeneous_poisson": null,
  "e_total": null,
  "e_ionic": null,
  "e_electronic": null,
  "n": null,
  "e_ij_max": null,
  "weighted_surface_energy_EV_PER_ANG2": null,
  "weighted_surface_energy": null,
  "weighted_work_function": null,
  "surface_anisotropy": null,
  "shape_factor": null,
  "has_reconstructed": null,
  "possible_species": null,
  "has_props": null,
  "theoretical": null,
  "database_IDs": null,
  "fields_not_requested": [
    "builder_meta",
    "nsites",
    "elements",
    "nelements",
    "composition",
    "composition_reduced",
    "chemsys",
    "symmetry",
    "property_name",
    "deprecated",
    "deprecation_reasons",
    "last_updated",
    "origins",
    "warnings",
    "task_ids",
    "uncorrected_energy_per_atom",
    "equilibrium_reaction_energy_per_atom",
    "decomposes_to",
    "xas",
    "grain_boundaries",
    "cbm",
    "vbm",
    "is_gap_direct",
    "is_metal",
    "es_source_calc_id",
    "bandstructure",
    "dos",
    "dos_energy_up",
    "dos_energy_down",
    "is_magnetic",
    "ordering",
    "total_magnetization_normalized_vol",
    "total_magnetization_normalized_formula_units",
    "num_magnetic_sites",
    "num_unique_magnetic_sites",
    "types_of_magnetic_species",
    "bulk_modulus",
    "shear_modulus",
    "universal_anisotropy",
    "homogeneous_poisson",
    "e_total",
    "e_ionic",
    "e_electronic",
    "n",
    "e_ij_max",
    "weighted_surface_energy_EV_PER_ANG2",
    "weighted_surface_energy",
    "weighted_work_function",
    "surface_anisotropy",
    "shape_factor",
    "has_reconstructed",
    "possible_species",
    "has_props",
    "theoretical",
    "database_IDs"
  ]
}
