{"builder_meta": null, "nsites": null, "elements": null, "nelements": null, "composition": null, "composition_reduced": null, "formula_pretty": "Ce3Pd4", "formula_anonymous": "A3B4", "chemsys": null, "volume": 316.26663917974247, "density": 8.884038791325349, "density_atomic": 22.590474227124464, "symmetry": null, "property_name": null, "material_id": "mp-1103851", "deprecated": null, "deprecation_reasons": null, "last_updated": null, "origins": null, "warnings": null, "structure": {"@module": "pymatgen.core.structure", "@class": "Structure", "charge": 0.0, "lattice": {"matrix": [[4.41782077, -6.89000094, -0.02946489], [4.4187258, 6.88941863, -0.02991002], [-6.28992477, 0.0005823, 5.2370761]], "pbc": [true, true, true], "a": 8.184749323515472, "b": 8.184749315909016, "c": 8.18474923430914, "alpha": 114.65587078205708, "beta": 114.65587076299545, "gamma": 114.65586929218634, "volume": 316.26663917974247}, "properties": {}, "sites": [{"species": [{"element": "Ce", "occu": 1}], "abc": [0.96917509, 0.59374918, 0.71728108], "properties": {"magmom": 0.979}, "label": "Ce", "xyz": [2.3936126306191117, -2.586612946112477, 3.7101399137838147]}, {"species": [{"element": "Ce", "occu": 1}], "abc": [0.71728108, 0.96917509, 0.59374918], "properties": {"magmom": 0.979}, "label": "Ce", "xyz": [3.7167005536031654, 1.7353313454812251, 3.059386985525915]}, {"species": [{"element": "Ce", "occu": 1}], "abc": [0.59374918, 0.71728108, 0.96917509], "properties": {"magmom": 0.979}, "label": "Ce", "xyz": [-0.3034925314356469, 0.8512815778291983, 5.036695054829638]}, {"species": [{"element": "Ce", "occu": 1}], "abc": [0.03082491, 0.40625082, 0.28271892], "properties": {"magmom": 0.979}, "label": "Ce", "xyz": [0.1530091693808886, 2.586612936112477, 1.4675612762161856]}, {"species": [{"element": "Ce", "occu": 1}], "abc": [0.28271892, 0.03082491, 0.40625082], "properties": {"magmom": 0.979}, "label": "Ce", "xyz": [-1.1700787536031654, -1.7353313554812255, 2.118314204474085]}, {"species": [{"element": "Ce", "occu": 1}], "abc": [0.40625082, 0.28271892, 0.03082491], "properties": {"magmom": 0.979}, "label": "Ce", "xyz": [2.8501143314356465, -0.8512815878291987, 0.1410061351703628]}, {"species": [{"element": "Pd", "occu": 1}], "abc": [0.0, 0.0, 0.0], "properties": {"magmom": -0.0}, "label": "Pd", "xyz": [0.0, 0.0, 0.0]}, {"species": [{"element": "Pd", "occu": 1}], "abc": [0.5, 0.5, 0.5], "properties": {"magmom": -0.007}, "label": "Pd", "xyz": [1.2733108999999998, -5.000000209438166e-09, 2.5888505950000003]}, {"species": [{"element": "Pd", "occu": 1}], "abc": [0.94309045, 0.7779319, 0.44348642], "properties": {"magmom": -0.009000000000000001}, "label": "Pd", "xyz": [4.814376116855043, -1.1381373201313603, 2.2715161157996238]}, {"species": [{"element": "Pd", "occu": 1}], "abc": [0.44348642, 0.94309045, 0.7779319], "properties": {"magmom": -0.009000000000000001}, "label": "Pd", "xyz": [1.2333684934543898, 3.4421760550732183, 4.032813428114488]}, {"species": [{"element": "Pd", "occu": 1}], "abc": [0.7779319, 0.44348642, 0.94309045], "properties": {"magmom": -0.009000000000000001}, "label": "Pd", "xyz": [-0.5355593903362479, -2.304038756586947, 4.902850090280326]}, {"species": [{"element": "Pd", "occu": 1}], "abc": [0.05690955, 0.2220681, 0.5565135800000001], "properties": {"magmom": -0.009000000000000001}, "label": "Pd", "xyz": [-2.2677543168550436, 1.1381373101313599, 2.906185074200377]}, {"species": [{"element": "Pd", "occu": 1}], "abc": [0.5565135800000001, 0.05690955, 0.2220681], "properties": {"magmom": -0.009000000000000001}, "label": "Pd", "xyz": [1.3132533065456093, -3.4421760650732196, 1.144887761885513]}, {"species": [{"element": "Pd", "occu": 1}], "abc": [0.2220681, 0.5565135800000001, 0.05690955], "properties": {"magmom": -0.009000000000000001}, "label": "Pd", "xyz": [3.0821811903362475, 2.3040387465869467, 0.2748510997196745]}]}, "task_ids": null, "uncorrected_energy_per_atom": null, "energy_per_atom": -27.13366223142857, "formation_energy_per_atom": -0.795990699999999, "energy_above_hull": 0.0, "is_stable": true, "equilibrium_reaction_energy_per_atom": null, "decomposes_to": null, "xas": null, "grain_boundaries": null, "band_gap": 0.0, "cbm": null, "vbm": null, "efermi": 6.96743879, "is_gap_direct": null, "is_metal": null, "es_source_calc_id": null, "bandstructure": null, "dos": null, "dos_energy_up": null, "dos_energy_down": null, "is_magnetic": null, "ordering": null, "total_magnetization": 6.5630718, "total_magnetization_normalized_vol": null, "total_magnetization_normalized_formula_units": null, "num_magnetic_sites": null, "num_unique_magnetic_sites": null, "types_of_magnetic_species": null, "bulk_modulus": null, "shear_modulus": null, "universal_anisotropy": null, "homogeneous_poisson": null, "e_total": null, "e_ionic": null, "e_electronic": null, "n": null, "e_ij_max": null, "weighted_surface_energy_EV_PER_ANG2": null, "weighted_surface_energy": null, "weighted_work_function": null, "surface_anisotropy": null, "shape_factor": null, "has_reconstructed": null, "possible_species": null, "has_props": null, "theoretical": null, "database_IDs": null, "fields_not_requested": ["builder_meta", "nsites", "elements", "nelements", "composition", "composition_reduced", "chemsys", "symmetry", "property_name", "deprecated", "deprecation_reasons", "last_updated", "origins", "warnings", "task_ids", "uncorrected_energy_per_atom", "equilibrium_reaction_energy_per_atom", "decomposes_to", "xas", "grain_boundaries", "cbm", "vbm", "is_gap_direct", "is_metal", "es_source_calc_id", "bandstructure", "dos", "dos_energy_up", "dos_energy_down", "is_magnetic", "ordering", "total_magnetization_normalized_vol", "total_magnetization_normalized_formula_units", "num_magnetic_sites", "num_unique_magnetic_sites", "types_of_magnetic_species", "bulk_modulus", "shear_modulus", "universal_anisotropy", "homogeneous_poisson", "e_total", "e_ionic", "e_electronic", "n", "e_ij_max", "weighted_surface_energy_EV_PER_ANG2", "weighted_surface_energy", "weighted_work_function", "surface_anisotropy", "shape_factor", "has_reconstructed", "possible_species", "has_props", "theoretical", "database_IDs"]}