{"builder_meta": null, "nsites": null, "elements": null, "nelements": null, "composition": null, "composition_reduced": null, "formula_pretty": "Ce3Pd5", "formula_anonymous": "A3B5", "chemsys": null, "volume": 172.25568378758408, "density": 9.181567064314395, "density_atomic": 21.53196047344801, "symmetry": null, "property_name": null, "material_id": "mp-1025404", "deprecated": null, "deprecation_reasons": null, "last_updated": null, "origins": null, "warnings": null, "structure": {"@module": "pymatgen.core.structure", "@class": "Structure", "charge": 0, "lattice": {"matrix": [[-0.0, -0.0, -3.94534135], [-3.55017059, -6.14907456, -0.0], [-3.55017059, 6.14907456, 0.0]], "pbc": [true, true, true], "a": 3.94534135, "b": 7.100340073724648, "c": 7.100340073724648, "alpha": 119.99998969195993, "beta": 90.0, "gamma": 90.0, "volume": 172.25568378758408}, "properties": {}, "sites": [{"species": [{"element": "Ce", "occu": 1}], "abc": [0.5, 0.35469952, 0.35469952], "properties": {"magmom": 0.85}, "label": "Ce", "xyz": [-2.5184876083822334, 0.0, -1.972670675]}, {"species": [{"element": "Ce", "occu": 1}], "abc": [0.5, -0.0, 0.6453004800000001], "properties": {"magmom": 0.85}, "label": "Ce", "xyz": [-2.2909267858088835, 3.968000765123789, -1.972670675]}, {"species": [{"element": "Ce", "occu": 1}], "abc": [0.5, 0.6453004800000001, -0.0], "properties": {"magmom": 0.85}, "label": "Ce", "xyz": [-2.2909267858088835, -3.968000765123789, -1.972670675]}, {"species": [{"element": "Pd", "occu": 1}], "abc": [-0.0, 0.77068534, 0.77068534], "properties": {"magmom": 0.002}, "label": "Pd", "xyz": [-5.472128856424301, 0.0, 0.0]}, {"species": [{"element": "Pd", "occu": 1}], "abc": [-0.0, 0.0, 0.22931466], "properties": {"magmom": 0.002}, "label": "Pd", "xyz": [-0.8141061617878494, 1.4100729420410496, 0.0]}, {"species": [{"element": "Pd", "occu": 1}], "abc": [0.0, 0.22931466, 0.0], "properties": {"magmom": 0.002}, "label": "Pd", "xyz": [-0.8141061617878494, -1.4100729420410496, 0.0]}, {"species": [{"element": "Pd", "occu": 1}], "abc": [0.0, 0.666667, 0.333333], "properties": {"magmom": 0.004}, "label": "Pd", "xyz": [-3.5501705899999996, -2.04969561938304, 0.0]}, {"species": [{"element": "Pd", "occu": 1}], "abc": [-0.0, 0.333333, 0.666667], "properties": {"magmom": 0.004}, "label": "Pd", "xyz": [-3.5501705899999996, 2.04969561938304, 0.0]}]}, "task_ids": null, "uncorrected_energy_per_atom": null, "energy_per_atom": -26.70903472875, "formation_energy_per_atom": -0.7935154375000011, "energy_above_hull": 0.010051346249998, "is_stable": false, "equilibrium_reaction_energy_per_atom": null, "decomposes_to": null, "xas": null, "grain_boundaries": null, "band_gap": 0.0, "cbm": null, "vbm": null, "efermi": 6.60776023, "is_gap_direct": null, "is_metal": null, "es_source_calc_id": null, "bandstructure": null, "dos": null, "dos_energy_up": null, "dos_energy_down": null, "is_magnetic": null, "ordering": null, "total_magnetization": 2.8642842, "total_magnetization_normalized_vol": null, "total_magnetization_normalized_formula_units": null, "num_magnetic_sites": null, "num_unique_magnetic_sites": null, "types_of_magnetic_species": null, "bulk_modulus": null, "shear_modulus": null, "universal_anisotropy": null, "homogeneous_poisson": null, "e_total": null, "e_ionic": null, "e_electronic": null, "n": null, "e_ij_max": null, "weighted_surface_energy_EV_PER_ANG2": null, "weighted_surface_energy": null, "weighted_work_function": null, "surface_anisotropy": null, "shape_factor": null, "has_reconstructed": null, "possible_species": null, "has_props": null, "theoretical": null, "database_IDs": null, "fields_not_requested": ["builder_meta", "nsites", "elements", "nelements", "composition", "composition_reduced", "chemsys", "symmetry", "property_name", "deprecated", "deprecation_reasons", "last_updated", "origins", "warnings", "task_ids", "uncorrected_energy_per_atom", "equilibrium_reaction_energy_per_atom", "decomposes_to", "xas", "grain_boundaries", "cbm", "vbm", "is_gap_direct", "is_metal", "es_source_calc_id", "bandstructure", "dos", "dos_energy_up", "dos_energy_down", "is_magnetic", "ordering", "total_magnetization_normalized_vol", "total_magnetization_normalized_formula_units", "num_magnetic_sites", "num_unique_magnetic_sites", "types_of_magnetic_species", "bulk_modulus", "shear_modulus", "universal_anisotropy", "homogeneous_poisson", "e_total", "e_ionic", "e_electronic", "n", "e_ij_max", "weighted_surface_energy_EV_PER_ANG2", "weighted_surface_energy", "weighted_work_function", "surface_anisotropy", "shape_factor", "has_reconstructed", "possible_species", "has_props", "theoretical", "database_IDs"]}