{
  "builder_meta": null,
  "nsites": null,
  "elements": null,
  "nelements": null,
  "composition": null,
  "composition_reduced": null,
  "formula_pretty": "Ce3Pa",
  "formula_anonymous": "AB3",
  "chemsys": null,
  "volume": 207.68622075319195,
  "density": 10.416178561782246,
  "density_atomic": 25.960777594148993,
  "symmetry": null,
  "property_name": null,
  "material_id": "mp-985284",
  "deprecated": null,
  "deprecation_reasons": null,
  "last_updated": null,
  "origins": null,
  "warnings": null,
  "structure": {
    "@module": "pymatgen.core.structure",
    "@class": "Structure",
    "charge": 0,
    "lattice": {
      "matrix": [
        [3.252989, -5.634342, 0.0],
        [3.252989, 5.634342, 0.0],
        [0.0, 0.0, 5.665678]
      ],
      "pbc": [true, true, true],
      "a": 6.505977805609622,
      "b": 6.505977805609622,
      "c": 5.665678,
      "alpha": 90.0,
      "beta": 90.0,
      "gamma": 119.9999980232389,
      "volume": 207.68622075319195
    },
    "properties": {},
    "sites": [
      {
        "species": [{ "element": "Ce", "occu": 1 }],
        "abc": [0.830243, 0.169757, 0.75],
        "properties": { "magmom": 0.0 },
        "label": "Ce",
        "xyz": [3.2529889999999995, -3.721404010212, 4.2492585]
      },
      {
        "species": [{ "element": "Ce", "occu": 1 }],
        "abc": [0.339515, 0.169757, 0.75],
        "properties": { "magmom": -0.001 },
        "label": "Ce",
        "xyz": [1.656656214008, -0.9564746292360002, 4.2492585]
      },
      {
        "species": [{ "element": "Ce", "occu": 1 }],
        "abc": [0.830243, 0.660485, 0.75],
        "properties": { "magmom": 0.001 },
        "label": "Ce",
        "xyz": [4.849321785991999, -0.9564746292359998, 4.2492585]
      },
      {
        "species": [{ "element": "Ce", "occu": 1 }],
        "abc": [0.169757, 0.830243, 0.25],
        "properties": { "magmom": -0.0 },
        "label": "Ce",
        "xyz": [3.2529889999999995, 3.721404010212, 1.4164195]
      },
      {
        "species": [{ "element": "Ce", "occu": 1 }],
        "abc": [0.660485, 0.830243, 0.25],
        "properties": { "magmom": -0.001 },
        "label": "Ce",
        "xyz": [4.849321785991999, 0.9564746292359998, 1.4164195]
      },
      {
        "species": [{ "element": "Ce", "occu": 1 }],
        "abc": [0.169757, 0.339515, 0.25],
        "properties": { "magmom": 0.001 },
        "label": "Ce",
        "xyz": [1.656656214008, 0.9564746292360002, 1.4164195]
      },
      {
        "species": [{ "element": "Pa", "occu": 1 }],
        "abc": [0.666667, 0.333333, 0.25],
        "properties": { "magmom": -0.0 },
        "label": "Pa",
        "xyz": [3.2529889999999995, -1.878117756228, 1.4164195]
      },
      {
        "species": [{ "element": "Pa", "occu": 1 }],
        "abc": [0.333333, 0.666667, 0.75],
        "properties": { "magmom": -0.0 },
        "label": "Pa",
        "xyz": [3.2529889999999995, 1.878117756228, 4.2492585]
      }
    ]
  },
  "task_ids": null,
  "uncorrected_energy_per_atom": null,
  "energy_per_atom": -42.230126015,
  "formation_energy_per_atom": 0.11435010000000201,
  "energy_above_hull": 0.11435010000000201,
  "is_stable": false,
  "equilibrium_reaction_energy_per_atom": null,
  "decomposes_to": null,
  "xas": null,
  "grain_boundaries": null,
  "band_gap": 0.0,
  "cbm": null,
  "vbm": null,
  "efermi": 10.35923165,
  "is_gap_direct": null,
  "is_metal": null,
  "es_source_calc_id": null,
  "bandstructure": null,
  "dos": null,
  "dos_energy_up": null,
  "dos_energy_down": null,
  "is_magnetic": null,
  "ordering": null,
  "total_magnetization": 0.0027937,
  "total_magnetization_normalized_vol": null,
  "total_magnetization_normalized_formula_units": null,
  "num_magnetic_sites": null,
  "num_unique_magnetic_sites": null,
  "types_of_magnetic_species": null,
  "bulk_modulus": null,
  "shear_modulus": null,
  "universal_anisotropy": null,
  "homogeneous_poisson": null,
  "e_total": null,
  "e_ionic": null,
  "e_electronic": null,
  "n": null,
  "e_ij_max": null,
  "weighted_surface_energy_EV_PER_ANG2": null,
  "weighted_surface_energy": null,
  "weighted_work_function": null,
  "surface_anisotropy": null,
  "shape_factor": null,
  "has_reconstructed": null,
  "possible_species": null,
  "has_props": null,
  "theoretical": null,
  "database_IDs": null,
  "fields_not_requested": [
    "builder_meta",
    "nsites",
    "elements",
    "nelements",
    "composition",
    "composition_reduced",
    "chemsys",
    "symmetry",
    "property_name",
    "deprecated",
    "deprecation_reasons",
    "last_updated",
    "origins",
    "warnings",
    "task_ids",
    "uncorrected_energy_per_atom",
    "equilibrium_reaction_energy_per_atom",
    "decomposes_to",
    "xas",
    "grain_boundaries",
    "cbm",
    "vbm",
    "is_gap_direct",
    "is_metal",
    "es_source_calc_id",
    "bandstructure",
    "dos",
    "dos_energy_up",
    "dos_energy_down",
    "is_magnetic",
    "ordering",
    "total_magnetization_normalized_vol",
    "total_magnetization_normalized_formula_units",
    "num_magnetic_sites",
    "num_unique_magnetic_sites",
    "types_of_magnetic_species",
    "bulk_modulus",
    "shear_modulus",
    "universal_anisotropy",
    "homogeneous_poisson",
    "e_total",
    "e_ionic",
    "e_electronic",
    "n",
    "e_ij_max",
    "weighted_surface_energy_EV_PER_ANG2",
    "weighted_surface_energy",
    "weighted_work_function",
    "surface_anisotropy",
    "shape_factor",
    "has_reconstructed",
    "possible_species",
    "has_props",
    "theoretical",
    "database_IDs"
  ]
}
