{"builder_meta": null, "nsites": null, "elements": null, "nelements": null, "composition": null, "composition_reduced": null, "formula_pretty": "Ce3Rh2", "formula_anonymous": "A2B3", "chemsys": null, "volume": 362.47703671644746, "density": 8.605467735186961, "density_atomic": 24.1651357810965, "symmetry": null, "property_name": null, "material_id": "mp-1103692", "deprecated": null, "deprecation_reasons": null, "last_updated": null, "origins": null, "warnings": null, "structure": {"@module": "pymatgen.core.structure", "@class": "Structure", "charge": 0, "lattice": {"matrix": [[6.045349, -4.363611, 0.0], [6.045349, 4.363611, 0.0], [2.895637, 0.0, 6.870417]], "pbc": [true, true, true], "a": 7.455692153725367, "b": 7.455692153725367, "c": 7.455692012795191, "alpha": 71.64448293161053, "beta": 71.64448293161053, "gamma": 71.64447533047452, "volume": 362.47703671644746}, "properties": {}, "sites": [{"species": [{"element": "Ce", "occu": 1}], "abc": [0.0, 0.0, 0.0], "properties": {"magmom": 0.503}, "label": "Ce", "xyz": [0.0, 0.0, 0.0]}, {"species": [{"element": "Ce", "occu": 1}], "abc": [0.795177999999999, 0.795177999999999, 0.795177999999999], "properties": {"magmom": 0.5760000000000001}, "label": "Ce", "xyz": [11.916803892629986, 0.0, 5.4632044492259935]}, {"species": [{"element": "Ce", "occu": 1}], "abc": [0.204822, 0.204822, 0.204822], "properties": {"magmom": 0.5760000000000001}, "label": "Ce", "xyz": [3.06953110737, 0.0, 1.4072125507739999]}, {"species": [{"element": "Ce", "occu": 1}], "abc": [0.165981, 0.390374, 0.663322], "properties": {"magmom": 0.5730000000000001}, "label": "Ce", "xyz": [5.284099869008999, 0.979163763123, 4.557298745273999]}, {"species": [{"element": "Ce", "occu": 1}], "abc": [0.663322, 0.165981, 0.390374], "properties": {"magmom": 0.5730000000000001}, "label": "Ce", "xyz": [6.143807459984999, -2.1702026583509997, 2.6820321659579998]}, {"species": [{"element": "Ce", "occu": 1}], "abc": [0.390374, 0.663322, 0.165981], "properties": {"magmom": 0.5730000000000001}, "label": "Ce", "xyz": [6.850580784800999, 1.1910388952279998, 1.140358684077]}, {"species": [{"element": "Ce", "occu": 1}], "abc": [0.834019, 0.609626, 0.336678], "properties": {"magmom": 0.5730000000000001}, "label": "Ce", "xyz": [9.702235130991, -0.9791637631229997, 2.3131182547259996]}, {"species": [{"element": "Ce", "occu": 1}], "abc": [0.336678, 0.834019, 0.609626], "properties": {"magmom": 0.5730000000000001}, "label": "Ce", "xyz": [8.842527540014999, 2.170202658351, 4.188384834042]}, {"species": [{"element": "Ce", "occu": 1}], "abc": [0.609626, 0.336678, 0.834019], "properties": {"magmom": 0.5730000000000001}, "label": "Ce", "xyz": [8.135754215199, -1.1910388952280002, 5.730058315922999]}, {"species": [{"element": "Rh", "occu": 1}], "abc": [0.953591, 0.166386999999999, 0.590905999999999], "properties": {"magmom": -0.052000000000000005}, "label": "Rh", "xyz": [8.48170715944399, -3.4350520336440042, 4.059770627801993]}, {"species": [{"element": "Rh", "occu": 1}], "abc": [0.590905999999999, 0.953591, 0.166386999999999], "properties": {"magmom": -0.052000000000000005}, "label": "Rh", "xyz": [9.81881974797199, 1.582616255535004, 1.1431480733789932]}, {"species": [{"element": "Rh", "occu": 1}], "abc": [0.166386999999999, 0.590905999999999, 0.953591], "properties": {"magmom": -0.052000000000000005}, "label": "Rh", "xyz": [7.339353862723987, 1.8524357781090002, 6.551567817446999]}, {"species": [{"element": "Rh", "occu": 1}], "abc": [0.046409, 0.833612999999999, 0.409093999999999], "properties": {"magmom": -0.052000000000000005}, "label": "Rh", "xyz": [6.504627840555991, 3.435052033643996, 2.810646372197993]}, {"species": [{"element": "Rh", "occu": 1}], "abc": [0.409093999999999, 0.046409, 0.833612999999999], "properties": {"magmom": -0.052000000000000005}, "label": "Rh", "xyz": [5.167515252027991, -1.5826162555349956, 5.727268926620993]}, {"species": [{"element": "Rh", "occu": 1}], "abc": [0.833612999999999, 0.409093999999999, 0.046409], "properties": {"magmom": -0.052000000000000005}, "label": "Rh", "xyz": [7.646981137275988, -1.852435778109, 0.318849182553]}]}, "task_ids": null, "uncorrected_energy_per_atom": null, "energy_per_atom": -28.769753885, "formation_energy_per_atom": -0.610885177, "energy_above_hull": 0.032865958999998, "is_stable": false, "equilibrium_reaction_energy_per_atom": null, "decomposes_to": null, "xas": null, "grain_boundaries": null, "band_gap": 0.0, "cbm": null, "vbm": null, "efermi": 7.66930035, "is_gap_direct": null, "is_metal": null, "es_source_calc_id": null, "bandstructure": null, "dos": null, "dos_energy_up": null, "dos_energy_down": null, "is_magnetic": null, "ordering": null, "total_magnetization": 6.0982742, "total_magnetization_normalized_vol": null, "total_magnetization_normalized_formula_units": null, "num_magnetic_sites": null, "num_unique_magnetic_sites": null, "types_of_magnetic_species": null, "bulk_modulus": null, "shear_modulus": null, "universal_anisotropy": null, "homogeneous_poisson": null, "e_total": null, "e_ionic": null, "e_electronic": null, "n": null, "e_ij_max": null, "weighted_surface_energy_EV_PER_ANG2": null, "weighted_surface_energy": null, "weighted_work_function": null, "surface_anisotropy": null, "shape_factor": null, "has_reconstructed": null, "possible_species": null, "has_props": null, "theoretical": null, "database_IDs": null, "fields_not_requested": ["builder_meta", "nsites", "elements", "nelements", "composition", "composition_reduced", "chemsys", "symmetry", "property_name", "deprecated", "deprecation_reasons", "last_updated", "origins", "warnings", "task_ids", "uncorrected_energy_per_atom", "equilibrium_reaction_energy_per_atom", "decomposes_to", "xas", "grain_boundaries", "cbm", "vbm", "is_gap_direct", "is_metal", "es_source_calc_id", "bandstructure", "dos", "dos_energy_up", "dos_energy_down", "is_magnetic", "ordering", "total_magnetization_normalized_vol", "total_magnetization_normalized_formula_units", "num_magnetic_sites", "num_unique_magnetic_sites", "types_of_magnetic_species", "bulk_modulus", "shear_modulus", "universal_anisotropy", "homogeneous_poisson", "e_total", "e_ionic", "e_electronic", "n", "e_ij_max", "weighted_surface_energy_EV_PER_ANG2", "weighted_surface_energy", "weighted_work_function", "surface_anisotropy", "shape_factor", "has_reconstructed", "possible_species", "has_props", "theoretical", "database_IDs"]}