{
  "builder_meta": null,
  "nsites": null,
  "elements": null,
  "nelements": null,
  "composition": null,
  "composition_reduced": null,
  "formula_pretty": "Ce3Ru",
  "formula_anonymous": "AB3",
  "chemsys": null,
  "volume": 414.79408407553666,
  "density": 8.349540094894554,
  "density_atomic": 25.92463025472104,
  "symmetry": null,
  "property_name": null,
  "material_id": "mp-672261",
  "deprecated": null,
  "deprecation_reasons": null,
  "last_updated": null,
  "origins": null,
  "warnings": null,
  "structure": {
    "@module": "pymatgen.core.structure",
    "@class": "Structure",
    "charge": 0,
    "lattice": {
      "matrix": [
        [6.098895, 0.0, 0.0],
        [0.0, 6.967463, 0.0],
        [0.0, 0.0, 9.761279]
      ],
      "pbc": [true, true, true],
      "a": 6.098895,
      "b": 6.967463,
      "c": 9.761279,
      "alpha": 90.0,
      "beta": 90.0,
      "gamma": 90.0,
      "volume": 414.79408407553666
    },
    "properties": {},
    "sites": [
      {
        "species": [{ "element": "Ce", "occu": 1 }],
        "abc": [0.656173, 0.165358, 0.058711],
        "properties": { "magmom": 0.23700000000000002 },
        "label": "Ce",
        "xyz": [4.001930228835, 1.152125746754, 0.573094451369]
      },
      {
        "species": [{ "element": "Ce", "occu": 1 }],
        "abc": [0.347398999999999, 0.541717999999999, 0.25],
        "properties": { "magmom": 0.217 },
        "label": "Ce",
        "xyz": [2.118750024104994, 3.7744001214339935, 2.44031975]
      },
      {
        "species": [{ "element": "Ce", "occu": 1 }],
        "abc": [0.843827, 0.665358, 0.058711],
        "properties": { "magmom": 0.25 },
        "label": "Ce",
        "xyz": [5.1464122711649996, 4.635857246754, 0.573094451369]
      },
      {
        "species": [{ "element": "Ce", "occu": 1 }],
        "abc": [0.156173, 0.334642, 0.941288999999999],
        "properties": { "magmom": 0.25 },
        "label": "Ce",
        "xyz": [0.952482728835, 2.331605753246, 9.188184548630991]
      },
      {
        "species": [{ "element": "Ce", "occu": 1 }],
        "abc": [0.343827, 0.834642, 0.941288999999999],
        "properties": { "magmom": 0.23700000000000002 },
        "label": "Ce",
        "xyz": [2.0969647711649997, 5.815337253246001, 9.188184548630991]
      },
      {
        "species": [{ "element": "Ce", "occu": 1 }],
        "abc": [0.652601, 0.458281999999999, 0.75],
        "properties": { "magmom": 0.216 },
        "label": "Ce",
        "xyz": [3.9801449758949996, 3.1930628785659936, 7.32095925]
      },
      {
        "species": [{ "element": "Ce", "occu": 1 }],
        "abc": [0.847399, 0.958282, 0.75],
        "properties": { "magmom": 0.214 },
        "label": "Ce",
        "xyz": [5.1681975241049996, 6.676794378566, 7.32095925]
      },
      {
        "species": [{ "element": "Ce", "occu": 1 }],
        "abc": [0.343827, 0.834642, 0.558711],
        "properties": { "magmom": 0.23700000000000002 },
        "label": "Ce",
        "xyz": [2.0969647711649997, 5.815337253246001, 5.453733951368999]
      },
      {
        "species": [{ "element": "Ce", "occu": 1 }],
        "abc": [0.156173, 0.334642, 0.558711],
        "properties": { "magmom": 0.252 },
        "label": "Ce",
        "xyz": [0.952482728835, 2.331605753246, 5.453733951368999]
      },
      {
        "species": [{ "element": "Ce", "occu": 1 }],
        "abc": [0.843827, 0.665358, 0.441289],
        "properties": { "magmom": 0.25 },
        "label": "Ce",
        "xyz": [5.1464122711649996, 4.635857246754, 4.307545048631]
      },
      {
        "species": [{ "element": "Ce", "occu": 1 }],
        "abc": [0.152601, 0.041718, 0.25],
        "properties": { "magmom": 0.214 },
        "label": "Ce",
        "xyz": [0.9306974758949998, 0.290668621434, 2.44031975]
      },
      {
        "species": [{ "element": "Ce", "occu": 1 }],
        "abc": [0.656173, 0.165358, 0.441289],
        "properties": { "magmom": 0.23600000000000002 },
        "label": "Ce",
        "xyz": [4.001930228835, 1.152125746754, 4.307545048631]
      },
      {
        "species": [{ "element": "Ru", "occu": 1 }],
        "abc": [0.933438, 0.362604, 0.25],
        "properties": { "magmom": -0.024 },
        "label": "Ru",
        "xyz": [5.69294035101, 2.526429953652, 2.44031975]
      },
      {
        "species": [{ "element": "Ru", "occu": 1 }],
        "abc": [0.433438, 0.137396, 0.75],
        "properties": { "magmom": -0.028 },
        "label": "Ru",
        "xyz": [2.64349285101, 0.957301546348, 7.32095925]
      },
      {
        "species": [{ "element": "Ru", "occu": 1 }],
        "abc": [0.566562, 0.862603999999999, 0.25],
        "properties": { "magmom": -0.028 },
        "label": "Ru",
        "xyz": [3.4554021489899998, 6.010161453651993, 2.44031975]
      },
      {
        "species": [{ "element": "Ru", "occu": 1 }],
        "abc": [0.066562, 0.637396, 0.75],
        "properties": { "magmom": -0.024 },
        "label": "Ru",
        "xyz": [0.40595464898999994, 4.441033046348, 7.32095925]
      }
    ]
  },
  "task_ids": null,
  "uncorrected_energy_per_atom": null,
  "energy_per_atom": -6.96803623375,
  "formation_energy_per_atom": -0.196723196249998,
  "energy_above_hull": 0.029734233611111,
  "is_stable": false,
  "equilibrium_reaction_energy_per_atom": null,
  "decomposes_to": null,
  "xas": null,
  "grain_boundaries": null,
  "band_gap": 0.0,
  "cbm": null,
  "vbm": null,
  "efermi": 8.11569363,
  "is_gap_direct": null,
  "is_metal": null,
  "es_source_calc_id": null,
  "bandstructure": null,
  "dos": null,
  "dos_energy_up": null,
  "dos_energy_down": null,
  "is_magnetic": null,
  "ordering": null,
  "total_magnetization": 3.0546147,
  "total_magnetization_normalized_vol": null,
  "total_magnetization_normalized_formula_units": null,
  "num_magnetic_sites": null,
  "num_unique_magnetic_sites": null,
  "types_of_magnetic_species": null,
  "bulk_modulus": null,
  "shear_modulus": null,
  "universal_anisotropy": null,
  "homogeneous_poisson": null,
  "e_total": null,
  "e_ionic": null,
  "e_electronic": null,
  "n": null,
  "e_ij_max": null,
  "weighted_surface_energy_EV_PER_ANG2": null,
  "weighted_surface_energy": null,
  "weighted_work_function": null,
  "surface_anisotropy": null,
  "shape_factor": null,
  "has_reconstructed": null,
  "possible_species": null,
  "has_props": null,
  "theoretical": null,
  "database_IDs": null,
  "fields_not_requested": [
    "builder_meta",
    "nsites",
    "elements",
    "nelements",
    "composition",
    "composition_reduced",
    "chemsys",
    "symmetry",
    "property_name",
    "deprecated",
    "deprecation_reasons",
    "last_updated",
    "origins",
    "warnings",
    "task_ids",
    "uncorrected_energy_per_atom",
    "equilibrium_reaction_energy_per_atom",
    "decomposes_to",
    "xas",
    "grain_boundaries",
    "cbm",
    "vbm",
    "is_gap_direct",
    "is_metal",
    "es_source_calc_id",
    "bandstructure",
    "dos",
    "dos_energy_up",
    "dos_energy_down",
    "is_magnetic",
    "ordering",
    "total_magnetization_normalized_vol",
    "total_magnetization_normalized_formula_units",
    "num_magnetic_sites",
    "num_unique_magnetic_sites",
    "types_of_magnetic_species",
    "bulk_modulus",
    "shear_modulus",
    "universal_anisotropy",
    "homogeneous_poisson",
    "e_total",
    "e_ionic",
    "e_electronic",
    "n",
    "e_ij_max",
    "weighted_surface_energy_EV_PER_ANG2",
    "weighted_surface_energy",
    "weighted_work_function",
    "surface_anisotropy",
    "shape_factor",
    "has_reconstructed",
    "possible_species",
    "has_props",
    "theoretical",
    "database_IDs"
  ]
}
