{"builder_meta": null, "nsites": null, "elements": null, "nelements": null, "composition": null, "composition_reduced": null, "formula_pretty": "Ce3Sm", "formula_anonymous": "AB3", "chemsys": null, "volume": 114.65844235139463, "density": 8.265269527356576, "density_atomic": 28.664610587848657, "symmetry": null, "property_name": null, "material_id": "mp-1183782", "deprecated": null, "deprecation_reasons": null, "last_updated": null, "origins": null, "warnings": null, "structure": {"@module": "pymatgen.core.structure", "@class": "Structure", "charge": 0, "lattice": {"matrix": [[-2.415143999999999, 2.415143999999999, 4.914281], [2.415143999999999, -2.415143999999999, 4.914281], [2.415143999999999, 2.415143999999999, -4.914281]], "pbc": [true, true, true], "a": 5.984646925962549, "b": 5.984646925962549, "c": 5.984646925962549, "alpha": 132.39857939798435, "beta": 132.39857939798435, "gamma": 69.60023787765515, "volume": 114.6584423513945}, "properties": {}, "sites": [{"species": [{"element": "Ce", "occu": 1}], "abc": [0.75, 0.25, 0.5], "properties": {"magmom": 0.015}, "label": "Ce", "xyz": [0.0, 2.415143999999999, 2.4571405]}, {"species": [{"element": "Ce", "occu": 1}], "abc": [0.25, 0.75, 0.5], "properties": {"magmom": 0.015}, "label": "Ce", "xyz": [2.415143999999999, 0.0, 2.4571405]}, {"species": [{"element": "Ce", "occu": 1}], "abc": [0.5, 0.5, 0.0], "properties": {"magmom": -0.027}, "label": "Ce", "xyz": [0.0, 0.0, 4.914281]}, {"species": [{"element": "Sm", "occu": 1}], "abc": [0.0, 0.0, 0.0], "properties": {"magmom": -0.001}, "label": "Sm", "xyz": [0.0, 0.0, 0.0]}]}, "task_ids": null, "uncorrected_energy_per_atom": null, "energy_per_atom": -30.4666893475, "formation_energy_per_atom": 0.09701330249999801, "energy_above_hull": 0.09701330249999801, "is_stable": false, "equilibrium_reaction_energy_per_atom": null, "decomposes_to": null, "xas": null, "grain_boundaries": null, "band_gap": 0.0, "cbm": null, "vbm": null, "efermi": 7.32970731, "is_gap_direct": null, "is_metal": null, "es_source_calc_id": null, "bandstructure": null, "dos": null, "dos_energy_up": null, "dos_energy_down": null, "is_magnetic": null, "ordering": null, "total_magnetization": 0.0028871, "total_magnetization_normalized_vol": null, "total_magnetization_normalized_formula_units": null, "num_magnetic_sites": null, "num_unique_magnetic_sites": null, "types_of_magnetic_species": null, "bulk_modulus": null, "shear_modulus": null, "universal_anisotropy": null, "homogeneous_poisson": null, "e_total": null, "e_ionic": null, "e_electronic": null, "n": null, "e_ij_max": null, "weighted_surface_energy_EV_PER_ANG2": null, "weighted_surface_energy": null, "weighted_work_function": null, "surface_anisotropy": null, "shape_factor": null, "has_reconstructed": null, "possible_species": null, "has_props": null, "theoretical": null, "database_IDs": null, "fields_not_requested": ["builder_meta", "nsites", "elements", "nelements", "composition", "composition_reduced", "chemsys", "symmetry", "property_name", "deprecated", "deprecation_reasons", "last_updated", "origins", "warnings", "task_ids", "uncorrected_energy_per_atom", "equilibrium_reaction_energy_per_atom", "decomposes_to", "xas", "grain_boundaries", "cbm", "vbm", "is_gap_direct", "is_metal", "es_source_calc_id", "bandstructure", "dos", "dos_energy_up", "dos_energy_down", "is_magnetic", "ordering", "total_magnetization_normalized_vol", "total_magnetization_normalized_formula_units", "num_magnetic_sites", "num_unique_magnetic_sites", "types_of_magnetic_species", "bulk_modulus", "shear_modulus", "universal_anisotropy", "homogeneous_poisson", "e_total", "e_ionic", "e_electronic", "n", "e_ij_max", "weighted_surface_energy_EV_PER_ANG2", "weighted_surface_energy", "weighted_work_function", "surface_anisotropy", "shape_factor", "has_reconstructed", "possible_species", "has_props", "theoretical", "database_IDs"]}