{"builder_meta": null, "nsites": null, "elements": null, "nelements": null, "composition": null, "composition_reduced": null, "formula_pretty": "Ce3Sn5", "formula_anonymous": "A3B5", "chemsys": null, "volume": 452.7597223732625, "density": 7.4371334522535335, "density_atomic": 28.297482648328906, "symmetry": null, "property_name": null, "material_id": "mp-1189084", "deprecated": null, "deprecation_reasons": null, "last_updated": null, "origins": null, "warnings": null, "structure": {"@module": "pymatgen.core.structure", "@class": "Structure", "charge": 0, "lattice": {"matrix": [[4.14928696, -5.18001026, -0.00570895], [4.14939395, 5.17990554, -0.00574864], [-0.01738849, 7.103e-05, 10.53254877]], "pbc": [true, true, true], "a": 6.636951194806349, "b": 6.636936386803866, "c": 10.532563123810759, "alpha": 90.10846377658405, "beta": 90.10872251279233, "gamma": 102.60787470415333, "volume": 452.75972237326255}, "properties": {}, "sites": [{"species": [{"element": "Ce", "occu": 1}], "abc": [0.63452003, 0.63452538, 0.25154161], "properties": {"magmom": 0.987}, "label": "Ce", "xyz": [5.261327530461192, -2.086744234462127e-05, 2.642104173903568]}, {"species": [{"element": "Ce", "occu": 1}], "abc": [0.3654902, 0.36549221, 0.74846176], "properties": {"magmom": 0.987}, "label": "Ce", "xyz": [3.0200802659847796, 2.5300715204042926e-05, 7.87902234126465]}, {"species": [{"element": "Ce", "occu": 1}], "abc": [0.20321578, 0.79677316, 0.50002758], "properties": {"magmom": 1.011}, "label": "Ce", "xyz": [4.140631591072057, 3.0745853971724113, 5.260824361909344]}, {"species": [{"element": "Ce", "occu": 1}], "abc": [0.20192357, 0.79806425, -2.5750000000000002e-05], "properties": {"magmom": 1.023}, "label": "Ce", "xyz": [4.149322254332553, 3.087931263686094, -0.006011768765899]}, {"species": [{"element": "Ce", "occu": 1}], "abc": [0.79677235, 0.20321549, 0.50002623], "properties": {"magmom": 1.011}, "label": "Ce", "xyz": [4.140563545595749, -3.07461638855638, 5.260833707552271]}, {"species": [{"element": "Ce", "occu": 1}], "abc": [0.79806247, 0.20192402, -2.3890000000000003e-05], "properties": {"magmom": 1.023}, "label": "Ce", "xyz": [4.149252922395097, -3.088024434560778, -0.0059685098265546]}, {"species": [{"element": "Sn", "occu": 1}], "abc": [0.02455038, 0.02454547, 0.25004253], "properties": {"magmom": 0.011}, "label": "Sn", "xyz": [0.19936753428247161, -1.0243731089106334e-05, 2.633303881836626]}, {"species": [{"element": "Sn", "occu": 1}], "abc": [0.97546374, 0.97545053, 0.74995668], "properties": {"magmom": 0.011}, "label": "Sn", "xyz": [8.081966889810511, -0.00011730769205602991, 7.887778919834032]}, {"species": [{"element": "Sn", "occu": 1}], "abc": [0.31986341, 0.31986027, 0.04743878], "properties": {"magmom": 0.023}, "label": "Sn", "xyz": [2.6536064565258584, -4.639142314760645e-05, 0.4959864181822483]}, {"species": [{"element": "Sn", "occu": 1}], "abc": [0.68009128, 0.68009316, 0.95257254], "properties": {"magmom": 0.023}, "label": "Sn", "xyz": [5.627304525168027, 6.180291089427897e-06, 10.025224516656518]}, {"species": [{"element": "Sn", "occu": 1}], "abc": [0.31602178000000003, 0.31602883, 0.45159497], "properties": {"magmom": 0.012}, "label": "Sn", "xyz": [2.614740611437673, 3.5501323974291877e-05, 4.7528251572974645]}, {"species": [{"element": "Sn", "occu": 1}], "abc": [0.68394358, 0.68394212, 0.54838419], "properties": {"magmom": 0.012}, "label": "Sn", "xyz": [5.666287899743919, -4.023350477077179e-05, 5.768046889142189]}, {"species": [{"element": "Sn", "occu": 1}], "abc": [0.49313256, 0.07203089, 0.25002195], "properties": {"magmom": -0.002}, "label": "Sn", "xyz": [2.3406855357611778, -2.181300755118827, 2.6301390331616]}, {"species": [{"element": "Sn", "occu": 1}], "abc": [0.92800605, 0.50692421, 0.74997782], "properties": {"magmom": -0.002}, "label": "Sn", "xyz": [5.940950670325345, -2.181208065678395, 7.89096590063856]}, {"species": [{"element": "Sn", "occu": 1}], "abc": [0.50691602, 0.9280043800000001, 0.74998038], "properties": {"magmom": -0.002}, "label": "Sn", "xyz": [5.940954765208775, 2.1811981156542912, 7.89097620758171]}, {"species": [{"element": "Sn", "occu": 1}], "abc": [0.07202879, 0.49312664, 0.25002463], "properties": {"magmom": -0.002}, "label": "Sn", "xyz": [2.340697264912898, 2.181257302491669, 2.630150592887765]}]}, "task_ids": null, "uncorrected_energy_per_atom": null, "energy_per_atom": -5.323168266875001, "formation_energy_per_atom": -0.5908296562499991, "energy_above_hull": 0.001250626749998, "is_stable": false, "equilibrium_reaction_energy_per_atom": null, "decomposes_to": null, "xas": null, "grain_boundaries": null, "band_gap": 0.0, "cbm": null, "vbm": null, "efermi": 8.54267721, "is_gap_direct": null, "is_metal": null, "es_source_calc_id": null, "bandstructure": null, "dos": null, "dos_energy_up": null, "dos_energy_down": null, "is_magnetic": null, "ordering": null, "total_magnetization": 6.8686884, "total_magnetization_normalized_vol": null, "total_magnetization_normalized_formula_units": null, "num_magnetic_sites": null, "num_unique_magnetic_sites": null, "types_of_magnetic_species": null, "bulk_modulus": null, "shear_modulus": null, "universal_anisotropy": null, "homogeneous_poisson": null, "e_total": null, "e_ionic": null, "e_electronic": null, "n": null, "e_ij_max": null, "weighted_surface_energy_EV_PER_ANG2": null, "weighted_surface_energy": null, "weighted_work_function": null, "surface_anisotropy": null, "shape_factor": null, "has_reconstructed": null, "possible_species": null, "has_props": null, "theoretical": null, "database_IDs": null, "fields_not_requested": ["builder_meta", "nsites", "elements", "nelements", "composition", "composition_reduced", "chemsys", "symmetry", "property_name", "deprecated", "deprecation_reasons", "last_updated", "origins", "warnings", "task_ids", "uncorrected_energy_per_atom", "equilibrium_reaction_energy_per_atom", "decomposes_to", "xas", "grain_boundaries", "cbm", "vbm", "is_gap_direct", "is_metal", "es_source_calc_id", "bandstructure", "dos", "dos_energy_up", "dos_energy_down", "is_magnetic", "ordering", "total_magnetization_normalized_vol", "total_magnetization_normalized_formula_units", "num_magnetic_sites", "num_unique_magnetic_sites", "types_of_magnetic_species", "bulk_modulus", "shear_modulus", "universal_anisotropy", "homogeneous_poisson", "e_total", "e_ionic", "e_electronic", "n", "e_ij_max", "weighted_surface_energy_EV_PER_ANG2", "weighted_surface_energy", "weighted_work_function", "surface_anisotropy", "shape_factor", "has_reconstructed", "possible_species", "has_props", "theoretical", "database_IDs"]}