{"builder_meta": null, "nsites": null, "elements": null, "nelements": null, "composition": null, "composition_reduced": null, "formula_pretty": "Ce3Sn7", "formula_anonymous": "A3B7", "chemsys": null, "volume": 275.7718345423446, "density": 7.534715889996823, "density_atomic": 27.57718345423446, "symmetry": null, "property_name": null, "material_id": "mp-28416", "deprecated": null, "deprecation_reasons": null, "last_updated": null, "origins": null, "warnings": null, "structure": {"@module": "pymatgen.core.structure", "@class": "Structure", "charge": 0, "lattice": {"matrix": [[4.50472184, 0.0, -0.8123401100000001], [0.0, 4.64156202, 0.0], [0.03788005, 0.0, 13.18234833]], "pbc": [true, true, true], "a": 4.577380835159753, "b": 4.64156202, "c": 13.182402754871427, "alpha": 90.0, "beta": 100.05769003816332, "gamma": 90.0, "volume": 275.77183454234455}, "properties": {}, "sites": [{"species": [{"element": "Ce", "occu": 1}], "abc": [0.18382176, -0.0, 0.36614499], "properties": {"magmom": 0.909}, "label": "Ce", "xyz": [0.841935487467688, 0.0, 4.677325008725573]}, {"species": [{"element": "Ce", "occu": 1}], "abc": [0.8160751900000001, -0.0, 0.63379017], "properties": {"magmom": 0.909}, "label": "Ce", "xyz": [3.7001997348042583, 0.0, 7.691912179457046]}, {"species": [{"element": "Ce", "occu": 1}], "abc": [9.427e-05, -0.0, 0.00013454], "properties": {"magmom": 0.8280000000000001}, "label": "Ce", "xyz": [0.0004297565097838001, 0.0, 0.0016969738421484999]}, {"species": [{"element": "Sn", "occu": 1}], "abc": [0.28778803000000003, 0.5, 0.57625933], "properties": {"magmom": -0.013000000000000001}, "label": "Sn", "xyz": [1.318233756264942, 2.32078101, 7.362669456525535]}, {"species": [{"element": "Sn", "occu": 1}], "abc": [0.71206828, 0.5, 0.4235292], "properties": {"magmom": -0.013000000000000001}, "label": "Sn", "xyz": [3.2237128397596955, 2.32078101, 5.004667817423525]}, {"species": [{"element": "Sn", "occu": 1}], "abc": [0.09395429, 0.5, 0.188635399999999], "properties": {"magmom": -0.008}, "label": "Sn", "xyz": [0.4303834605084636, 2.32078101, 2.4103347118952967]}, {"species": [{"element": "Sn", "occu": 1}], "abc": [0.50005929, 0.5, 4.919999999999999e-06], "properties": {"magmom": 0.005}, "label": "Sn", "xyz": [2.2526281913277395, 2.32078101, -0.40615336149133835]}, {"species": [{"element": "Sn", "occu": 1}], "abc": [0.59362916, -0.0, 0.186647899999999], "properties": {"magmom": -0.017}, "label": "Sn", "xyz": [2.6812044736972496, 0.0, 1.9782288557293863]}, {"species": [{"element": "Sn", "occu": 1}], "abc": [0.40642614, 0.0, 0.81344386], "properties": {"magmom": -0.017}, "label": "Sn", "xyz": [1.8616500032938905, 0.0, 10.392944054145278]}, {"species": [{"element": "Sn", "occu": 1}], "abc": [0.906088599999999, 0.5, 0.81140768], "properties": {"magmom": -0.008}, "label": "Sn", "xyz": [4.112413268883804, 2.32078101, 9.960206562403428]}]}, "task_ids": null, "uncorrected_energy_per_atom": null, "energy_per_atom": -5.174799029999997, "formation_energy_per_atom": -0.587013770499995, "energy_above_hull": 0.0, "is_stable": true, "equilibrium_reaction_energy_per_atom": null, "decomposes_to": null, "xas": null, "grain_boundaries": null, "band_gap": 0.0, "cbm": null, "vbm": null, "efermi": 8.49592052, "is_gap_direct": null, "is_metal": null, "es_source_calc_id": null, "bandstructure": null, "dos": null, "dos_energy_up": null, "dos_energy_down": null, "is_magnetic": null, "ordering": null, "total_magnetization": 2.699461, "total_magnetization_normalized_vol": null, "total_magnetization_normalized_formula_units": null, "num_magnetic_sites": null, "num_unique_magnetic_sites": null, "types_of_magnetic_species": null, "bulk_modulus": null, "shear_modulus": null, "universal_anisotropy": null, "homogeneous_poisson": null, "e_total": null, "e_ionic": null, "e_electronic": null, "n": null, "e_ij_max": null, "weighted_surface_energy_EV_PER_ANG2": null, "weighted_surface_energy": null, "weighted_work_function": null, "surface_anisotropy": null, "shape_factor": null, "has_reconstructed": null, "possible_species": null, "has_props": null, "theoretical": null, "database_IDs": null, "fields_not_requested": ["builder_meta", "nsites", "elements", "nelements", "composition", "composition_reduced", "chemsys", "symmetry", "property_name", "deprecated", "deprecation_reasons", "last_updated", "origins", "warnings", "task_ids", "uncorrected_energy_per_atom", "equilibrium_reaction_energy_per_atom", "decomposes_to", "xas", "grain_boundaries", "cbm", "vbm", "is_gap_direct", "is_metal", "es_source_calc_id", "bandstructure", "dos", "dos_energy_up", "dos_energy_down", "is_magnetic", "ordering", "total_magnetization_normalized_vol", "total_magnetization_normalized_formula_units", "num_magnetic_sites", "num_unique_magnetic_sites", "types_of_magnetic_species", "bulk_modulus", "shear_modulus", "universal_anisotropy", "homogeneous_poisson", "e_total", "e_ionic", "e_electronic", "n", "e_ij_max", "weighted_surface_energy_EV_PER_ANG2", "weighted_surface_energy", "weighted_work_function", "surface_anisotropy", "shape_factor", "has_reconstructed", "possible_species", "has_props", "theoretical", "database_IDs"]}