{"builder_meta": null, "nsites": null, "elements": null, "nelements": null, "composition": null, "composition_reduced": null, "formula_pretty": "Ce3Si2", "formula_anonymous": "A2B3", "chemsys": null, "volume": 258.89885689517035, "density": 6.112645107564601, "density_atomic": 25.889885689517037, "symmetry": null, "property_name": null, "material_id": "mp-1079007", "deprecated": null, "deprecation_reasons": null, "last_updated": null, "origins": null, "warnings": null, "structure": {"@module": "pymatgen.core.structure", "@class": "Structure", "charge": 0, "lattice": {"matrix": [[0.0, 0.0, 4.25348797], [7.80176431, 0.01010343, 0.0], [0.01010343, 7.80176431, 0.0]], "pbc": [true, true, true], "a": 4.25348797, "b": 7.801770852062213, "c": 7.801770852062213, "alpha": 89.85160188106325, "beta": 90.0, "gamma": 90.0, "volume": 258.89885689517035}, "properties": {}, "sites": [{"species": [{"element": "Ce", "occu": 1}], "abc": [0.0, 0.5, 0.5], "properties": {"magmom": 1.189}, "label": "Ce", "xyz": [3.90593387, 3.90593387, 0.0]}, {"species": [{"element": "Ce", "occu": 1}], "abc": [0.0, -0.0, -0.0], "properties": {"magmom": 1.189}, "label": "Ce", "xyz": [0.0, 0.0, 0.0]}, {"species": [{"element": "Ce", "occu": 1}], "abc": [0.5, 0.17877219, 0.67877219], "properties": {"magmom": 1.065}, "label": "Ce", "xyz": [1.4015964188701506, 5.297426858870151, 2.126743985]}, {"species": [{"element": "Ce", "occu": 1}], "abc": [0.5, 0.82122781, 0.32122781], "properties": {"magmom": 1.065}, "label": "Ce", "xyz": [6.41027132112985, 2.5144408811298495, 2.126743985]}, {"species": [{"element": "Ce", "occu": 1}], "abc": [0.5, 0.32225941, 0.17774059], "properties": {"magmom": 1.029}, "label": "Ce", "xyz": [2.515987753108881, 1.3899461168911191, 2.126743985]}, {"species": [{"element": "Ce", "occu": 1}], "abc": [0.5, 0.67774059, 0.82225941], "properties": {"magmom": 1.029}, "label": "Ce", "xyz": [5.295879986891119, 6.421921623108881, 2.126743985]}, {"species": [{"element": "Si", "occu": 1}], "abc": [-0.0, 0.60955096, 0.10955096], "properties": {"magmom": -0.041}, "label": "Si", "xyz": [4.756679765310031, 0.8608493253100304, 0.0]}, {"species": [{"element": "Si", "occu": 1}], "abc": [0.0, 0.39044904, 0.89044904], "properties": {"magmom": -0.041}, "label": "Si", "xyz": [3.0551879746899697, 6.95101841468997, 0.0]}, {"species": [{"element": "Si", "occu": 1}], "abc": [0.0, 0.88924963, 0.61075037], "properties": {"magmom": -0.036000000000000004}, "label": "Si", "xyz": [6.943886699625475, 4.7739149103745255, 0.0]}, {"species": [{"element": "Si", "occu": 1}], "abc": [0.0, 0.11075037, 0.38924963], "properties": {"magmom": -0.036000000000000004}, "label": "Si", "xyz": [0.8679810403745256, 3.0379528296254743, 0.0]}]}, "task_ids": null, "uncorrected_energy_per_atom": null, "energy_per_atom": -22.663234559, "formation_energy_per_atom": -0.6493514650000001, "energy_above_hull": 0.010537909499998001, "is_stable": false, "equilibrium_reaction_energy_per_atom": null, "decomposes_to": null, "xas": null, "grain_boundaries": null, "band_gap": 0.0, "cbm": null, "vbm": null, "efermi": 7.9412962, "is_gap_direct": null, "is_metal": null, "es_source_calc_id": null, "bandstructure": null, "dos": null, "dos_energy_up": null, "dos_energy_down": null, "is_magnetic": null, "ordering": null, "total_magnetization": 8.5374592, "total_magnetization_normalized_vol": null, "total_magnetization_normalized_formula_units": null, "num_magnetic_sites": null, "num_unique_magnetic_sites": null, "types_of_magnetic_species": null, "bulk_modulus": null, "shear_modulus": null, "universal_anisotropy": null, "homogeneous_poisson": null, "e_total": null, "e_ionic": null, "e_electronic": null, "n": null, "e_ij_max": null, "weighted_surface_energy_EV_PER_ANG2": null, "weighted_surface_energy": null, "weighted_work_function": null, "surface_anisotropy": null, "shape_factor": null, "has_reconstructed": null, "possible_species": null, "has_props": null, "theoretical": null, "database_IDs": null, "fields_not_requested": ["builder_meta", "nsites", "elements", "nelements", "composition", "composition_reduced", "chemsys", "symmetry", "property_name", "deprecated", "deprecation_reasons", "last_updated", "origins", "warnings", "task_ids", "uncorrected_energy_per_atom", "equilibrium_reaction_energy_per_atom", "decomposes_to", "xas", "grain_boundaries", "cbm", "vbm", "is_gap_direct", "is_metal", "es_source_calc_id", "bandstructure", "dos", "dos_energy_up", "dos_energy_down", "is_magnetic", "ordering", "total_magnetization_normalized_vol", "total_magnetization_normalized_formula_units", "num_magnetic_sites", "num_unique_magnetic_sites", "types_of_magnetic_species", "bulk_modulus", "shear_modulus", "universal_anisotropy", "homogeneous_poisson", "e_total", "e_ionic", "e_electronic", "n", "e_ij_max", "weighted_surface_energy_EV_PER_ANG2", "weighted_surface_energy", "weighted_work_function", "surface_anisotropy", "shape_factor", "has_reconstructed", "possible_species", "has_props", "theoretical", "database_IDs"]}