{"builder_meta": null, "nsites": null, "elements": null, "nelements": null, "composition": null, "composition_reduced": null, "formula_pretty": "Ce3Se4", "formula_anonymous": "A3B4", "chemsys": null, "volume": 369.3181750884278, "density": 6.620139580563121, "density_atomic": 26.37986964917341, "symmetry": null, "property_name": null, "material_id": "mp-567370", "deprecated": null, "deprecation_reasons": null, "last_updated": null, "origins": null, "warnings": null, "structure": {"@module": "pymatgen.core.structure", "@class": "Structure", "charge": 0, "lattice": {"matrix": [[7.37742021, -0.00127176, -2.60909245], [-3.69135817, 6.39362209, -2.61346569], [0.00154573, -0.00267928, 7.83164841]], "pbc": [true, true, true], "a": 7.825196098816754, "b": 7.831649346195786, "c": 7.831649020843444, "alpha": 109.51647837587154, "beta": 109.46529545390766, "gamma": 109.46526495201523, "volume": 369.31817508842784}, "properties": {}, "sites": [{"species": [{"element": "Ce", "occu": 1}], "abc": [0.12288104, 0.74875092, 0.87337016], "properties": {"magmom": 1.191}, "label": "Ce", "xyz": [-1.856012763457781, 4.784734143626108, 4.5624851914173625]}, {"species": [{"element": "Ce", "occu": 1}], "abc": [0.62288104, 0.37337016, 0.24875092000000001], "properties": {"magmom": 1.191}, "label": "Ce", "xyz": [3.217396684131183, 2.3857290741664663, -0.6528145744379212]}, {"species": [{"element": "Ce", "occu": 1}], "abc": [0.37711896, 0.25049012, 0.62586988], "properties": {"magmom": 1.191}, "label": "Ce", "xyz": [1.858483711961514, 1.5993826790980947, 3.263007284977056]}, {"species": [{"element": "Ce", "occu": 1}], "abc": [0.75, 0.87569434, 0.12569434000000002], "properties": {"magmom": 1.192}, "label": "Ce", "xyz": [2.3007579906304105, 5.597568085980695, -3.2610225720101944]}, {"species": [{"element": "Ce", "occu": 1}], "abc": [0.25, 0.62569434, 0.37569434], "properties": {"magmom": 1.192}, "label": "Ce", "xyz": [-0.46472613936958973, 3.999128623480695, 0.6548021779898048]}, {"species": [{"element": "Ce", "occu": 1}], "abc": [0.87711896, 0.12586988, 0.75049012], "properties": {"magmom": 1.191}, "label": "Ce", "xyz": [6.007404387276449, 0.8016381872563659, 3.26013368594644]}, {"species": [{"element": "Se", "occu": 1}], "abc": [0.64821169, 0.6476581, 0.6474794500000001], "properties": {"magmom": -0.024}, "label": "Se", "xyz": [2.3923928317728262, 4.1383219864877585, 1.6869549555188454]}, {"species": [{"element": "Se", "occu": 1}], "abc": [0.00044633, 0.85354517, 0.50004092], "properties": {"magmom": -0.023}, "label": "Se", "xyz": [-3.1466752445299377, 5.455904936464027, 1.6842691431595114]}, {"species": [{"element": "Se", "occu": 1}], "abc": [0.85178831, 0.49926776, -0.0005536], "properties": {"magmom": -0.024}, "label": "Se", "xyz": [4.441023312226018, 3.191047592109101, -3.5315492100621895]}, {"species": [{"element": "Se", "occu": 1}], "abc": [0.9995536700000001, 0.35309884, 0.49959459], "properties": {"magmom": -0.023}, "label": "Se", "xyz": [6.071485396531749, 2.2549707972089217, 0.3819095391325109]}, {"species": [{"element": "Se", "occu": 1}], "abc": [0.49955367, 0.9995945900000001, 0.85309884], "properties": {"magmom": -0.023}, "label": "Se", "xyz": [-0.003125654976676399, 6.3881090486330985, 2.765382300217436]}, {"species": [{"element": "Se", "occu": 1}], "abc": [0.50044633, 4.092e-05, 0.35354517], "properties": {"magmom": -0.023}, "label": "Se", "xyz": [3.6923983039616375, -0.0013220671117956002, 1.4630237842444367]}, {"species": [{"element": "Se", "occu": 1}], "abc": [0.35178831, 0.499446399999999, 0.9992677600000001], "properties": {"magmom": -0.024}, "label": "Se", "xyz": [0.7531992368733255, 3.1901468273858313, 5.602779509754988]}, {"species": [{"element": "Se", "occu": 1}], "abc": [0.14821169, 0.14747945, 0.1476581], "properties": {"magmom": -0.024}, "label": "Se", "xyz": [0.5492486840545614, 0.9423437622480081, 0.3842758401528099]}]}, "task_ids": null, "uncorrected_energy_per_atom": null, "energy_per_atom": -6.6540648257142845, "formation_energy_per_atom": -2.111994037053569, "energy_above_hull": 0.0, "is_stable": true, "equilibrium_reaction_energy_per_atom": null, "decomposes_to": null, "xas": null, "grain_boundaries": null, "band_gap": 0.0, "cbm": null, "vbm": null, "efermi": 7.50638957, "is_gap_direct": null, "is_metal": null, "es_source_calc_id": null, "bandstructure": null, "dos": null, "dos_energy_up": null, "dos_energy_down": null, "is_magnetic": null, "ordering": null, "total_magnetization": 7.9664428, "total_magnetization_normalized_vol": null, "total_magnetization_normalized_formula_units": null, "num_magnetic_sites": null, "num_unique_magnetic_sites": null, "types_of_magnetic_species": null, "bulk_modulus": null, "shear_modulus": null, "universal_anisotropy": null, "homogeneous_poisson": null, "e_total": null, "e_ionic": null, "e_electronic": null, "n": null, "e_ij_max": null, "weighted_surface_energy_EV_PER_ANG2": null, "weighted_surface_energy": null, "weighted_work_function": null, "surface_anisotropy": null, "shape_factor": null, "has_reconstructed": null, "possible_species": null, "has_props": null, "theoretical": null, "database_IDs": null, "fields_not_requested": ["builder_meta", "nsites", "elements", "nelements", "composition", "composition_reduced", "chemsys", "symmetry", "property_name", "deprecated", "deprecation_reasons", "last_updated", "origins", "warnings", "task_ids", "uncorrected_energy_per_atom", "equilibrium_reaction_energy_per_atom", "decomposes_to", "xas", "grain_boundaries", "cbm", "vbm", "is_gap_direct", "is_metal", "es_source_calc_id", "bandstructure", "dos", "dos_energy_up", "dos_energy_down", "is_magnetic", "ordering", "total_magnetization_normalized_vol", "total_magnetization_normalized_formula_units", "num_magnetic_sites", "num_unique_magnetic_sites", "types_of_magnetic_species", "bulk_modulus", "shear_modulus", "universal_anisotropy", "homogeneous_poisson", "e_total", "e_ionic", "e_electronic", "n", "e_ij_max", "weighted_surface_energy_EV_PER_ANG2", "weighted_surface_energy", "weighted_work_function", "surface_anisotropy", "shape_factor", "has_reconstructed", "possible_species", "has_props", "theoretical", "database_IDs"]}