{"builder_meta": null, "nsites": null, "elements": null, "nelements": null, "composition": null, "composition_reduced": null, "formula_pretty": "Ce3S4", "formula_anonymous": "A3B4", "chemsys": null, "volume": 311.0994753843742, "density": 5.856551285557388, "density_atomic": 22.221391098883874, "symmetry": null, "property_name": null, "material_id": "mp-1382", "deprecated": null, "deprecation_reasons": null, "last_updated": null, "origins": null, "warnings": null, "structure": {"@module": "pymatgen.core.structure", "@class": "Structure", "charge": 0, "lattice": {"matrix": [[-4.268544, 4.268544, 4.268544], [4.268544, -4.268544, 4.268544], [4.268544, 4.268544, -4.268544]], "pbc": [true, true, true], "a": 7.393335082343286, "b": 7.393335082343286, "c": 7.393335082343286, "alpha": 109.47122063449069, "beta": 109.47122063449069, "gamma": 109.47122063449069, "volume": 311.0994753843742}, "properties": {}, "sites": [{"species": [{"element": "Ce", "occu": 1}], "abc": [0.875, 0.25, 0.125], "properties": {"magmom": 1.062}, "label": "Ce", "xyz": [-2.134272, 3.2014080000000007, 4.268544000000001]}, {"species": [{"element": "Ce", "occu": 1}], "abc": [0.125, 0.875, 0.25], "properties": {"magmom": 1.057}, "label": "Ce", "xyz": [4.268544, -2.1342720000000006, 3.2014080000000003]}, {"species": [{"element": "Ce", "occu": 1}], "abc": [0.375, 0.625, 0.75], "properties": {"magmom": 1.057}, "label": "Ce", "xyz": [4.268544, 2.134272, 1.067136]}, {"species": [{"element": "Ce", "occu": 1}], "abc": [0.25, 0.125, 0.875], "properties": {"magmom": 1.098}, "label": "Ce", "xyz": [3.2014080000000007, 4.268544, -2.134272]}, {"species": [{"element": "Ce", "occu": 1}], "abc": [0.75, 0.375, 0.625], "properties": {"magmom": 1.067}, "label": "Ce", "xyz": [1.0671359999999999, 4.268544, 2.134272]}, {"species": [{"element": "Ce", "occu": 1}], "abc": [0.625, 0.75, 0.375], "properties": {"magmom": 1.094}, "label": "Ce", "xyz": [2.134272, 1.0671359999999999, 4.268544]}, {"species": [{"element": "S", "occu": 1}], "abc": [0.5, 0.0, 0.651052], "properties": {"magmom": -0.036000000000000004}, "label": "S", "xyz": [0.644772108288, 4.913316108288001, -0.644772108288]}, {"species": [{"element": "S", "occu": 1}], "abc": [0.151052, 0.5, 0.0], "properties": {"magmom": -0.036000000000000004}, "label": "S", "xyz": [1.4894998917120001, -1.4894998917120001, 2.779044108288]}, {"species": [{"element": "S", "occu": 1}], "abc": [0.348948, 0.348948, 0.348948], "properties": {"magmom": -0.035}, "label": "S", "xyz": [1.489499891712, 1.489499891712, 1.489499891712]}, {"species": [{"element": "S", "occu": 1}], "abc": [0.0, 0.151052, 0.5], "properties": {"magmom": -0.036000000000000004}, "label": "S", "xyz": [2.779044108288, 1.4894998917120001, -1.4894998917120001]}, {"species": [{"element": "S", "occu": 1}], "abc": [0.848947999999999, 0.848947999999999, 0.848947999999999], "properties": {"magmom": -0.035}, "label": "S", "xyz": [3.6237718917119963, 3.6237718917119963, 3.6237718917119963]}, {"species": [{"element": "S", "occu": 1}], "abc": [0.0, 0.651052, 0.5], "properties": {"magmom": -0.036000000000000004}, "label": "S", "xyz": [4.913316108288001, -0.644772108288, 0.644772108288]}, {"species": [{"element": "S", "occu": 1}], "abc": [0.5, 0.0, 0.151052], "properties": {"magmom": -0.036000000000000004}, "label": "S", "xyz": [-1.4894998917120001, 2.779044108288, 1.4894998917120001]}, {"species": [{"element": "S", "occu": 1}], "abc": [0.651052, 0.5, 0.0], "properties": {"magmom": -0.036000000000000004}, "label": "S", "xyz": [-0.644772108288, 0.644772108288, 4.913316108288001]}]}, "task_ids": null, "uncorrected_energy_per_atom": null, "energy_per_atom": -20.16143107, "formation_energy_per_atom": -2.352590697321428, "energy_above_hull": 0.008399302142859, "is_stable": false, "equilibrium_reaction_energy_per_atom": null, "decomposes_to": null, "xas": null, "grain_boundaries": null, "band_gap": 0.0, "cbm": null, "vbm": null, "efermi": 8.57794236, "is_gap_direct": null, "is_metal": null, "es_source_calc_id": null, "bandstructure": null, "dos": null, "dos_energy_up": null, "dos_energy_down": null, "is_magnetic": null, "ordering": null, "total_magnetization": 7.9358465, "total_magnetization_normalized_vol": null, "total_magnetization_normalized_formula_units": null, "num_magnetic_sites": null, "num_unique_magnetic_sites": null, "types_of_magnetic_species": null, "bulk_modulus": null, "shear_modulus": null, "universal_anisotropy": null, "homogeneous_poisson": null, "e_total": null, "e_ionic": null, "e_electronic": null, "n": null, "e_ij_max": null, "weighted_surface_energy_EV_PER_ANG2": null, "weighted_surface_energy": null, "weighted_work_function": null, "surface_anisotropy": null, "shape_factor": null, "has_reconstructed": null, "possible_species": null, "has_props": null, "theoretical": null, "database_IDs": null, "fields_not_requested": ["builder_meta", "nsites", "elements", "nelements", "composition", "composition_reduced", "chemsys", "symmetry", "property_name", "deprecated", "deprecation_reasons", "last_updated", "origins", "warnings", "task_ids", "uncorrected_energy_per_atom", "equilibrium_reaction_energy_per_atom", "decomposes_to", "xas", "grain_boundaries", "cbm", "vbm", "is_gap_direct", "is_metal", "es_source_calc_id", "bandstructure", "dos", "dos_energy_up", "dos_energy_down", "is_magnetic", "ordering", "total_magnetization_normalized_vol", "total_magnetization_normalized_formula_units", "num_magnetic_sites", "num_unique_magnetic_sites", "types_of_magnetic_species", "bulk_modulus", "shear_modulus", "universal_anisotropy", "homogeneous_poisson", "e_total", "e_ionic", "e_electronic", "n", "e_ij_max", "weighted_surface_energy_EV_PER_ANG2", "weighted_surface_energy", "weighted_work_function", "surface_anisotropy", "shape_factor", "has_reconstructed", "possible_species", "has_props", "theoretical", "database_IDs"]}