{
  "builder_meta": null,
  "nsites": null,
  "elements": null,
  "nelements": null,
  "composition": null,
  "composition_reduced": null,
  "formula_pretty": "Ce3Tm",
  "formula_anonymous": "AB3",
  "chemsys": null,
  "volume": 239.975250720358,
  "density": 8.155225407787213,
  "density_atomic": 29.99690634004475,
  "symmetry": null,
  "property_name": null,
  "material_id": "mp-1183769",
  "deprecated": null,
  "deprecation_reasons": null,
  "last_updated": null,
  "origins": null,
  "warnings": null,
  "structure": {
    "@module": "pymatgen.core.structure",
    "@class": "Structure",
    "charge": 0,
    "lattice": {
      "matrix": [
        [3.484087, -6.034616, 0.0],
        [3.484087, 6.034616, 0.0],
        [0.0, 0.0, 5.706868]
      ],
      "pbc": [true, true, true],
      "a": 6.968174258084035,
      "b": 6.968174258084035,
      "c": 5.706868,
      "alpha": 90.0,
      "beta": 90.0,
      "gamma": 120.00000245038395,
      "volume": 239.975250720358
    },
    "properties": {},
    "sites": [
      {
        "species": [{ "element": "Ce", "occu": 1 }],
        "abc": [0.167034, 0.334068, 0.25],
        "properties": { "magmom": -0.6990000000000001 },
        "label": "Ce",
        "xyz": [1.745882963874, 1.0079860489439998, 1.426717]
      },
      {
        "species": [{ "element": "Ce", "occu": 1 }],
        "abc": [0.665932, 0.832966, 0.25],
        "properties": { "magmom": -0.685 },
        "label": "Ce",
        "xyz": [5.222291036126, 1.0079860489440007, 1.426717]
      },
      {
        "species": [{ "element": "Ce", "occu": 1 }],
        "abc": [0.167034, 0.832966, 0.25],
        "properties": { "magmom": -0.707 },
        "label": "Ce",
        "xyz": [3.484087, 4.018643902112, 1.426717]
      },
      {
        "species": [{ "element": "Ce", "occu": 1 }],
        "abc": [0.832966, 0.665932, 0.75],
        "properties": { "magmom": -0.6990000000000001 },
        "label": "Ce",
        "xyz": [5.222291036126, -1.0079860489440007, 4.280151]
      },
      {
        "species": [{ "element": "Ce", "occu": 1 }],
        "abc": [0.334068, 0.167034, 0.75],
        "properties": { "magmom": -0.685 },
        "label": "Ce",
        "xyz": [1.745882963874, -1.0079860489439998, 4.280151]
      },
      {
        "species": [{ "element": "Ce", "occu": 1 }],
        "abc": [0.832966, 0.167034, 0.75],
        "properties": { "magmom": -0.707 },
        "label": "Ce",
        "xyz": [3.484087, -4.018643902112, 4.280151]
      },
      {
        "species": [{ "element": "Tm", "occu": 1 }],
        "abc": [0.333333, 0.666667, 0.75],
        "properties": { "magmom": -0.068 },
        "label": "Tm",
        "xyz": [3.484087, 2.0115426897439996, 4.280151]
      },
      {
        "species": [{ "element": "Tm", "occu": 1 }],
        "abc": [0.666667, 0.333333, 0.25],
        "properties": { "magmom": -0.068 },
        "label": "Tm",
        "xyz": [3.484087, -2.0115426897439996, 1.426717]
      }
    ]
  },
  "task_ids": null,
  "uncorrected_energy_per_atom": null,
  "energy_per_atom": -31.771586801666665,
  "formation_energy_per_atom": 0.139146840833333,
  "energy_above_hull": 0.139146840833333,
  "is_stable": false,
  "equilibrium_reaction_energy_per_atom": null,
  "decomposes_to": null,
  "xas": null,
  "grain_boundaries": null,
  "band_gap": 0.0,
  "cbm": null,
  "vbm": null,
  "efermi": 6.80328279,
  "is_gap_direct": null,
  "is_metal": null,
  "es_source_calc_id": null,
  "bandstructure": null,
  "dos": null,
  "dos_energy_up": null,
  "dos_energy_down": null,
  "is_magnetic": null,
  "ordering": null,
  "total_magnetization": 5.3221165,
  "total_magnetization_normalized_vol": null,
  "total_magnetization_normalized_formula_units": null,
  "num_magnetic_sites": null,
  "num_unique_magnetic_sites": null,
  "types_of_magnetic_species": null,
  "bulk_modulus": null,
  "shear_modulus": null,
  "universal_anisotropy": null,
  "homogeneous_poisson": null,
  "e_total": null,
  "e_ionic": null,
  "e_electronic": null,
  "n": null,
  "e_ij_max": null,
  "weighted_surface_energy_EV_PER_ANG2": null,
  "weighted_surface_energy": null,
  "weighted_work_function": null,
  "surface_anisotropy": null,
  "shape_factor": null,
  "has_reconstructed": null,
  "possible_species": null,
  "has_props": null,
  "theoretical": null,
  "database_IDs": null,
  "fields_not_requested": [
    "builder_meta",
    "nsites",
    "elements",
    "nelements",
    "composition",
    "composition_reduced",
    "chemsys",
    "symmetry",
    "property_name",
    "deprecated",
    "deprecation_reasons",
    "last_updated",
    "origins",
    "warnings",
    "task_ids",
    "uncorrected_energy_per_atom",
    "equilibrium_reaction_energy_per_atom",
    "decomposes_to",
    "xas",
    "grain_boundaries",
    "cbm",
    "vbm",
    "is_gap_direct",
    "is_metal",
    "es_source_calc_id",
    "bandstructure",
    "dos",
    "dos_energy_up",
    "dos_energy_down",
    "is_magnetic",
    "ordering",
    "total_magnetization_normalized_vol",
    "total_magnetization_normalized_formula_units",
    "num_magnetic_sites",
    "num_unique_magnetic_sites",
    "types_of_magnetic_species",
    "bulk_modulus",
    "shear_modulus",
    "universal_anisotropy",
    "homogeneous_poisson",
    "e_total",
    "e_ionic",
    "e_electronic",
    "n",
    "e_ij_max",
    "weighted_surface_energy_EV_PER_ANG2",
    "weighted_surface_energy",
    "weighted_work_function",
    "surface_anisotropy",
    "shape_factor",
    "has_reconstructed",
    "possible_species",
    "has_props",
    "theoretical",
    "database_IDs"
  ]
}
