{
  "builder_meta": null,
  "nsites": null,
  "elements": null,
  "nelements": null,
  "composition": null,
  "composition_reduced": null,
  "formula_pretty": "Ce4As3",
  "formula_anonymous": "A3B4",
  "chemsys": null,
  "volume": 378.32482318644554,
  "density": 6.8930348669024575,
  "density_atomic": 27.02320165617468,
  "symmetry": null,
  "property_name": null,
  "material_id": "mp-21011",
  "deprecated": null,
  "deprecation_reasons": null,
  "last_updated": null,
  "origins": null,
  "warnings": null,
  "structure": {
    "@module": "pymatgen.core.structure",
    "@class": "Structure",
    "charge": 0,
    "lattice": {
      "matrix": [
        [7.44038099, 0.0001374, -2.63065207],
        [-3.72005693, 6.44304198, -2.63085406],
        [-1.4990000000000002e-5, -9.222000000000002e-5, 7.89182546]
      ],
      "pbc": [true, true, true],
      "a": 7.891742495078475,
      "b": 7.891324768598859,
      "c": 7.891825460553055,
      "alpha": 109.47492252097524,
      "beta": 109.47187805544556,
      "gamma": 109.46939216358916,
      "volume": 378.3248231864456
    },
    "properties": {},
    "sites": [
      {
        "species": [{ "element": "Ce", "occu": 1 }],
        "abc": [0.13611575, 0.13611042, 0.13611145],
        "properties": { "magmom": 1.311 },
        "label": "Ce",
        "xyz": [0.5064124872627465, 0.8769713000815628, 0.35800797594510914]
      },
      {
        "species": [{ "element": "Ce", "occu": 1 }],
        "abc": [0.8638969200000001, 0.49999148, 1.36e-5],
        "properties": { "magmom": 1.312 },
        "label": "Ce",
        "xyz": [4.567725450568732, 3.2215847934649466, -3.5879095071617773]
      },
      {
        "species": [{ "element": "Ce", "occu": 1 }],
        "abc": [-1.795e-5, 0.86385583, 0.49998481],
        "properties": { "magmom": 1.312 },
        "label": "Ce",
        "xyz": [-3.2137339165234744, 5.565813266292236, 1.6731614557657495]
      },
      {
        "species": [{ "element": "Ce", "occu": 1 }],
        "abc": [0.5000086, 1.375e-5, 0.8638527500000001],
        "properties": { "magmom": 1.312 },
        "label": "Ce",
        "xyz": [3.7201903823410043, 7.762850825999999e-5, 5.501990293289888]
      },
      {
        "species": [{ "element": "Ce", "occu": 1 }],
        "abc": [1.038e-5, 0.36390844, 0.50002517],
        "properties": { "magmom": 1.311 },
        "label": "Ce",
        "xyz": [-1.3536903783301115, 2.344631244901346, 2.9886940642360753]
      },
      {
        "species": [{ "element": "Ce", "occu": 1 }],
        "abc": [0.49998217, -2.8380000000000003e-5, 0.36385045],
        "properties": { "magmom": 1.312 },
        "label": "Ce",
        "xyz": [3.7201579541043763, -0.0001477102697334, 1.5562397781070876]
      },
      {
        "species": [{ "element": "Ce", "occu": 1 }],
        "abc": [0.36390826, 0.50002037, 2.8150000000000003e-5],
        "properties": { "magmom": 1.311 },
        "label": "Ce",
        "xyz": [0.8475118568263447, 3.2217022331640637, -2.2725744830696013]
      },
      {
        "species": [{ "element": "Ce", "occu": 1 }],
        "abc": [0.636107099999999, 0.63611882, 0.63614612],
        "properties": { "magmom": 1.311 },
        "label": "Ce",
        "xyz": [2.3664714139692613, 4.098568997248417, 1.6734419065001118]
      },
      {
        "species": [{ "element": "As", "occu": 1 }],
        "abc": [0.25002149, 0.62501756, 0.37501245],
        "properties": { "magmom": -0.044 },
        "label": "As",
        "xyz": [-0.464851385598841, 4.027014146621756, 0.6574832652166993]
      },
      {
        "species": [{ "element": "As", "occu": 1 }],
        "abc": [0.3750061, 0.250009, 0.62500647],
        "properties": { "magmom": -0.044 },
        "label": "As",
        "xyz": [1.8601311757146837, 1.6108123701192965, 3.2881942066965593]
      },
      {
        "species": [{ "element": "As", "occu": 1 }],
        "abc": [0.12497014000000001, 0.74998277, 0.87498239],
        "properties": { "magmom": -0.044 },
        "label": "As",
        "xyz": [-1.8601662629314837, 4.832106951407915, 4.6033601295899125]
      },
      {
        "species": [{ "element": "As", "occu": 1 }],
        "abc": [0.87501107, 0.12500529999999901, 0.7500033500000001],
        "properties": { "magmom": -0.044 },
        "label": "As",
        "xyz": [6.045377656165618, 0.8054654568345687, 3.2881751490203612]
      },
      {
        "species": [{ "element": "As", "occu": 1 }],
        "abc": [0.62500191, 0.37499799, 0.25000557],
        "properties": { "magmom": -0.044 },
        "label": "As",
        "xyz": [3.2552347108586264, 2.4161906117343888, -0.6577272303109809]
      },
      {
        "species": [{ "element": "As", "occu": 1 }],
        "abc": [0.7499780500000001, 0.87499766, 0.12497926000000001],
        "properties": { "magmom": -0.044 },
        "label": "As",
        "xyz": [2.3250794438813793, 5.63773817717848, -3.288607949948604]
      }
    ]
  },
  "task_ids": null,
  "uncorrected_energy_per_atom": null,
  "energy_per_atom": -25.412138948571428,
  "formation_energy_per_atom": -1.485694948214286,
  "energy_above_hull": 0.023445114285717,
  "is_stable": false,
  "equilibrium_reaction_energy_per_atom": null,
  "decomposes_to": null,
  "xas": null,
  "grain_boundaries": null,
  "band_gap": 0.0,
  "cbm": null,
  "vbm": null,
  "efermi": 7.63089469,
  "is_gap_direct": null,
  "is_metal": null,
  "es_source_calc_id": null,
  "bandstructure": null,
  "dos": null,
  "dos_energy_up": null,
  "dos_energy_down": null,
  "is_magnetic": null,
  "ordering": null,
  "total_magnetization": 13.684406,
  "total_magnetization_normalized_vol": null,
  "total_magnetization_normalized_formula_units": null,
  "num_magnetic_sites": null,
  "num_unique_magnetic_sites": null,
  "types_of_magnetic_species": null,
  "bulk_modulus": null,
  "shear_modulus": null,
  "universal_anisotropy": null,
  "homogeneous_poisson": null,
  "e_total": null,
  "e_ionic": null,
  "e_electronic": null,
  "n": null,
  "e_ij_max": null,
  "weighted_surface_energy_EV_PER_ANG2": null,
  "weighted_surface_energy": null,
  "weighted_work_function": null,
  "surface_anisotropy": null,
  "shape_factor": null,
  "has_reconstructed": null,
  "possible_species": null,
  "has_props": null,
  "theoretical": null,
  "database_IDs": null,
  "fields_not_requested": [
    "builder_meta",
    "nsites",
    "elements",
    "nelements",
    "composition",
    "composition_reduced",
    "chemsys",
    "symmetry",
    "property_name",
    "deprecated",
    "deprecation_reasons",
    "last_updated",
    "origins",
    "warnings",
    "task_ids",
    "uncorrected_energy_per_atom",
    "equilibrium_reaction_energy_per_atom",
    "decomposes_to",
    "xas",
    "grain_boundaries",
    "cbm",
    "vbm",
    "is_gap_direct",
    "is_metal",
    "es_source_calc_id",
    "bandstructure",
    "dos",
    "dos_energy_up",
    "dos_energy_down",
    "is_magnetic",
    "ordering",
    "total_magnetization_normalized_vol",
    "total_magnetization_normalized_formula_units",
    "num_magnetic_sites",
    "num_unique_magnetic_sites",
    "types_of_magnetic_species",
    "bulk_modulus",
    "shear_modulus",
    "universal_anisotropy",
    "homogeneous_poisson",
    "e_total",
    "e_ionic",
    "e_electronic",
    "n",
    "e_ij_max",
    "weighted_surface_energy_EV_PER_ANG2",
    "weighted_surface_energy",
    "weighted_work_function",
    "surface_anisotropy",
    "shape_factor",
    "has_reconstructed",
    "possible_species",
    "has_props",
    "theoretical",
    "database_IDs"
  ]
}
