{
  "builder_meta": null,
  "nsites": null,
  "elements": null,
  "nelements": null,
  "composition": null,
  "composition_reduced": null,
  "formula_pretty": "Ce4Bi3",
  "formula_anonymous": "A3B4",
  "chemsys": null,
  "volume": 470.6900342212716,
  "density": 8.378051707621555,
  "density_atomic": 33.62071673009083,
  "symmetry": null,
  "property_name": null,
  "material_id": "mp-23252",
  "deprecated": null,
  "deprecation_reasons": null,
  "last_updated": null,
  "origins": null,
  "warnings": null,
  "structure": {
    "@module": "pymatgen.core.structure",
    "@class": "Structure",
    "charge": 0,
    "lattice": {
      "matrix": [
        [-4.90033328, 4.90030977, 4.9003152],
        [4.90032397, -4.90033057, 4.90033057],
        [4.90034259, 4.900336, -4.900336]
      ],
      "pbc": [true, true, true],
      "a": 8.487602203000801,
      "b": 8.487617710612891,
      "c": 8.487634730898822,
      "alpha": 109.47122068968125,
      "beta": 109.47131855124213,
      "gamma": 109.47123730755533,
      "volume": 470.6900342212716
    },
    "properties": {},
    "sites": [
      {
        "species": [{ "element": "Ce", "occu": 1 }],
        "abc": [0.64478385, 0.64472229, 0.64477342],
        "properties": { "magmom": 1.332 },
        "label": "Ce",
        "xyz": [3.1593029840447215, 3.1598946547149294, 3.159390045847805]
      },
      {
        "species": [{ "element": "Ce", "occu": 1 }],
        "abc": [0.85525904, 0.5000479, -3.519999999999999e-6],
        "properties": { "magmom": 1.332 },
        "label": "Ce",
        "xyz": [-1.7406748754206045, 1.7406169695757976, 6.641456133666431]
      },
      {
        "species": [{ "element": "Ce", "occu": 1 }],
        "abc": [0.5000463900000001, 3.2880000000000004e-5, 0.85526853],
        "properties": { "magmom": 1.332 },
        "label": "Ce",
        "xyz": [1.7408759596369672, 6.641324254727169, -1.7405571187348108]
      },
      {
        "species": [{ "element": "Ce", "occu": 1 }],
        "abc": [0.49995361, -1.3500000000000001e-5, 0.35522315],
        "properties": { "magmom": 1.332 },
        "label": "Ce",
        "xyz": [-0.7092903370137771, 4.190706504070865, 0.7091513299367767]
      },
      {
        "species": [{ "element": "Ce", "occu": 1 }],
        "abc": [0.35521615, 0.49993843, -1.043e-5],
        "properties": { "magmom": 1.332 },
        "label": "Ce",
        "xyz": [0.7091316400414811, -0.7092455118444998, 4.190585781281765]
      },
      {
        "species": [{ "element": "Ce", "occu": 1 }],
        "abc": [7.598e-5, 0.35527912, 0.50003925],
        "properties": { "magmom": 1.333 },
        "label": "Ce",
        "xyz": [4.190974093900549, 0.7097475311056263, -0.7090028796204058]
      },
      {
        "species": [{ "element": "Ce", "occu": 1 }],
        "abc": [0.14474096, 0.14478886, 0.14473644],
        "properties": { "magmom": 1.332 },
        "label": "Ce",
        "xyz": [0.7094915192368049, 0.709019450997569, 0.7095324157602021]
      },
      {
        "species": [{ "element": "Ce", "occu": 1 }],
        "abc": [-7.598e-5, 0.85520214, 0.49996227],
        "properties": { "magmom": 1.333 },
        "label": "Ce",
        "xyz": [6.6411262782339895, -1.7411624053850248, 1.7404177538998042]
      },
      {
        "species": [{ "element": "Bi", "occu": 1 }],
        "abc": [0.75002205, 0.8749624300000001, 0.12497656],
        "properties": { "magmom": -0.083 },
        "label": "Bi",
        "xyz": [1.2246693159493136, 0.00016237212410286084, 7.350522459156485]
      },
      {
        "species": [{ "element": "Bi", "occu": 1 }],
        "abc": [0.37500153, 0.25005216, 0.62501123],
        "properties": { "magmom": -0.083 },
        "label": "Bi",
        "xyz": [2.450473265485643, 3.675050448254697, 0.0001989104515072171]
      },
      {
        "species": [{ "element": "Bi", "occu": 1 }],
        "abc": [0.24997795, 0.62494039, 0.37495452],
        "properties": { "magmom": -0.083 },
        "label": "Bi",
        "xyz": [3.674840708955979, -4.197415643103497e-5, 2.4499821128758428]
      },
      {
        "species": [{ "element": "Bi", "occu": 1 }],
        "abc": [0.87504767, 0.12502147, 0.75005378],
        "properties": { "magmom": -0.083 },
        "label": "Bi",
        "xyz": [0.00014097024266845892, 7.350873655239479, 1.225140389302842]
      },
      {
        "species": [{ "element": "Bi", "occu": 1 }],
        "abc": [0.62499847, 0.37505164, 0.25000971],
        "properties": { "magmom": -0.083 },
        "label": "Bi",
        "xyz": [0.00030696881627823025, 2.4499406742179763, 3.675434937075819]
      },
      {
        "species": [{ "element": "Bi", "occu": 1 }],
        "abc": [0.12495233, 0.74997379, 0.8750061100000001],
        "properties": { "magmom": -0.083 },
        "label": "Bi",
        "xyz": [7.350636186239429, 1.2250095747004641, -0.0003986492427836552]
      }
    ]
  },
  "task_ids": null,
  "uncorrected_energy_per_atom": null,
  "energy_per_atom": -43.71730896928572,
  "formation_energy_per_atom": -1.021689501428568,
  "energy_above_hull": 0.0,
  "is_stable": true,
  "equilibrium_reaction_energy_per_atom": null,
  "decomposes_to": null,
  "xas": null,
  "grain_boundaries": null,
  "band_gap": 0.0,
  "cbm": null,
  "vbm": null,
  "efermi": 7.12845386,
  "is_gap_direct": null,
  "is_metal": null,
  "es_source_calc_id": null,
  "bandstructure": null,
  "dos": null,
  "dos_energy_up": null,
  "dos_energy_down": null,
  "is_magnetic": null,
  "ordering": null,
  "total_magnetization": 13.9991536,
  "total_magnetization_normalized_vol": null,
  "total_magnetization_normalized_formula_units": null,
  "num_magnetic_sites": null,
  "num_unique_magnetic_sites": null,
  "types_of_magnetic_species": null,
  "bulk_modulus": null,
  "shear_modulus": null,
  "universal_anisotropy": null,
  "homogeneous_poisson": null,
  "e_total": null,
  "e_ionic": null,
  "e_electronic": null,
  "n": null,
  "e_ij_max": null,
  "weighted_surface_energy_EV_PER_ANG2": null,
  "weighted_surface_energy": null,
  "weighted_work_function": null,
  "surface_anisotropy": null,
  "shape_factor": null,
  "has_reconstructed": null,
  "possible_species": null,
  "has_props": null,
  "theoretical": null,
  "database_IDs": null,
  "fields_not_requested": [
    "builder_meta",
    "nsites",
    "elements",
    "nelements",
    "composition",
    "composition_reduced",
    "chemsys",
    "symmetry",
    "property_name",
    "deprecated",
    "deprecation_reasons",
    "last_updated",
    "origins",
    "warnings",
    "task_ids",
    "uncorrected_energy_per_atom",
    "equilibrium_reaction_energy_per_atom",
    "decomposes_to",
    "xas",
    "grain_boundaries",
    "cbm",
    "vbm",
    "is_gap_direct",
    "is_metal",
    "es_source_calc_id",
    "bandstructure",
    "dos",
    "dos_energy_up",
    "dos_energy_down",
    "is_magnetic",
    "ordering",
    "total_magnetization_normalized_vol",
    "total_magnetization_normalized_formula_units",
    "num_magnetic_sites",
    "num_unique_magnetic_sites",
    "types_of_magnetic_species",
    "bulk_modulus",
    "shear_modulus",
    "universal_anisotropy",
    "homogeneous_poisson",
    "e_total",
    "e_ionic",
    "e_electronic",
    "n",
    "e_ij_max",
    "weighted_surface_energy_EV_PER_ANG2",
    "weighted_surface_energy",
    "weighted_work_function",
    "surface_anisotropy",
    "shape_factor",
    "has_reconstructed",
    "possible_species",
    "has_props",
    "theoretical",
    "database_IDs"
  ]
}
