{"builder_meta": null, "nsites": null, "elements": null, "nelements": null, "composition": null, "composition_reduced": null, "formula_pretty": "Ce4Ge7", "formula_anonymous": "A4B7", "chemsys": null, "volume": 514.5615763221545, "density": 6.899167577550995, "density_atomic": 23.38916256009793, "symmetry": null, "property_name": null, "material_id": "mp-1213848", "deprecated": null, "deprecation_reasons": null, "last_updated": null, "origins": null, "warnings": null, "structure": {"@module": "pymatgen.core.structure", "@class": "Structure", "charge": 0, "lattice": {"matrix": [[3.01986829, -7.0440294, 0.0], [3.01986829, 7.0440294, 0.0], [-0.0, -0.0, 12.0947862]], "pbc": [true, true, true], "a": 7.6640690678654435, "b": 7.6640690678654435, "c": 12.0947862, "alpha": 90.0, "beta": 90.0, "gamma": 133.58909607468837, "volume": 514.5615763221545}, "properties": {}, "sites": [{"species": [{"element": "Ce", "occu": 1}], "abc": [0.9969224, 0.48583367, 0.38076497], "properties": {"magmom": 0.91}, "label": "Ce", "xyz": [4.47772803759802, -3.6001240401286623, 4.605270904599414]}, {"species": [{"element": "Ce", "occu": 1}], "abc": [0.003077599999999, 0.51416633, 0.88076497], "properties": {"magmom": 0.91}, "label": "Ce", "xyz": [1.5620085424019765, 3.6001240401286694, 10.652664004599414]}, {"species": [{"element": "Ce", "occu": 1}], "abc": [0.51416633, 0.003077599999999, 0.11923503], "properties": {"magmom": 0.91}, "label": "Ce", "xyz": [1.5620085424019765, -3.6001240401286694, 1.442122195400586]}, {"species": [{"element": "Ce", "occu": 1}], "abc": [0.48583367, 0.9969224, 0.61923503], "properties": {"magmom": 0.91}, "label": "Ce", "xyz": [4.47772803759802, 3.6001240401286623, 7.489515295400586]}, {"species": [{"element": "Ce", "occu": 1}], "abc": [0.49584897, 0.50415103, 0.25], "properties": {"magmom": 0.9540000000000001}, "label": "Ce", "xyz": [3.01986829, 0.05847995472056455, 3.02369655]}, {"species": [{"element": "Ce", "occu": 1}], "abc": [0.50415103, 0.49584897, 0.75], "properties": {"magmom": 0.9540000000000001}, "label": "Ce", "xyz": [3.01986829, -0.05847995472056455, 9.07108965]}, {"species": [{"element": "Ce", "occu": 1}], "abc": [0.0037854200000000003, 0.0037854200000000003, 0.0], "properties": {"magmom": 0.933}, "label": "Ce", "xyz": [0.0228629396446636, 0.0, 0.0]}, {"species": [{"element": "Ce", "occu": 1}], "abc": [0.9962145800000001, 0.9962145800000001, 0.5], "properties": {"magmom": 0.933}, "label": "Ce", "xyz": [6.016873640355336, 0.0, 6.0473931]}, {"species": [{"element": "Ge", "occu": 1}], "abc": [0.9336346600000001, 0.06636534, 0.25], "properties": {"magmom": -0.01}, "label": "Ge", "xyz": [3.01986829, -6.1090705877980085, 3.02369655]}, {"species": [{"element": "Ge", "occu": 1}], "abc": [0.06636534, 0.9336346600000001, 0.75], "properties": {"magmom": -0.01}, "label": "Ge", "xyz": [3.01986829, 6.1090705877980085, 9.07108965]}, {"species": [{"element": "Ge", "occu": 1}], "abc": [0.07109914, 0.41574688, 0.12752793], "properties": {"magmom": -0.01}, "label": "Ge", "xyz": [1.4702108579107058, 2.427708813203556, 1.542423047878566]}, {"species": [{"element": "Ge", "occu": 1}], "abc": [0.92890086, 0.58425312, 0.6275279300000001], "properties": {"magmom": -0.01}, "label": "Ge", "xyz": [4.569525722089294, -2.427708813203557, 7.589816147878567]}, {"species": [{"element": "Ge", "occu": 1}], "abc": [0.58425312, 0.92890086, 0.37247207], "properties": {"magmom": -0.01}, "label": "Ge", "xyz": [4.569525722089294, 2.427708813203557, 4.5049700521214335]}, {"species": [{"element": "Ge", "occu": 1}], "abc": [0.41574688, 0.07109914, 0.87247207], "properties": {"magmom": -0.01}, "label": "Ge", "xyz": [1.4702108579107058, -2.427708813203556, 10.552363152121435]}, {"species": [{"element": "Ge", "occu": 1}], "abc": [0.97147189, 0.6690996, 0.16092692], "properties": {"magmom": -0.011}, "label": "Ge", "xyz": [4.954309820129052, -2.1299193005053265, 1.946376691224504]}, {"species": [{"element": "Ge", "occu": 1}], "abc": [0.02852811, 0.3309004, 0.66092692], "properties": {"magmom": -0.011}, "label": "Ge", "xyz": [1.0854267598709477, 2.1299193005053256, 7.993769791224503]}, {"species": [{"element": "Ge", "occu": 1}], "abc": [0.3309004, 0.02852811, 0.33907308], "properties": {"magmom": -0.011}, "label": "Ge", "xyz": [1.0854267598709477, -2.1299193005053256, 4.101016408775497]}, {"species": [{"element": "Ge", "occu": 1}], "abc": [0.6690996, 0.97147189, 0.83907308], "properties": {"magmom": -0.011}, "label": "Ge", "xyz": [4.954309820129052, 2.1299193005053265, 10.148409508775496]}, {"species": [{"element": "Ge", "occu": 1}], "abc": [0.59837289, 0.42350727, 0.01102641], "properties": {"magmom": -0.009000000000000001}, "label": "Ge", "xyz": [3.0859434913641266, -1.2317585683292287, 0.133362071503542]}, {"species": [{"element": "Ge", "occu": 1}], "abc": [0.40162711, 0.57649273, 0.51102641], "properties": {"magmom": -0.009000000000000001}, "label": "Ge", "xyz": [2.9537930886358734, 1.2317585683292278, 6.1807551715035425]}, {"species": [{"element": "Ge", "occu": 1}], "abc": [0.57649273, 0.40162711, 0.48897359], "properties": {"magmom": -0.009000000000000001}, "label": "Ge", "xyz": [2.9537930886358734, -1.2317585683292278, 5.914031028496458]}, {"species": [{"element": "Ge", "occu": 1}], "abc": [0.42350727, 0.59837289, 0.9889735900000001], "properties": {"magmom": -0.009000000000000001}, "label": "Ge", "xyz": [3.0859434913641266, 1.2317585683292287, 11.961424128496459]}]}, "task_ids": null, "uncorrected_energy_per_atom": null, "energy_per_atom": -5.766985901363636, "formation_energy_per_atom": -0.666168222727271, "energy_above_hull": 0.0, "is_stable": true, "equilibrium_reaction_energy_per_atom": null, "decomposes_to": null, "xas": null, "grain_boundaries": null, "band_gap": 0.0, "cbm": null, "vbm": null, "efermi": 7.21626396, "is_gap_direct": null, "is_metal": null, "es_source_calc_id": null, "bandstructure": null, "dos": null, "dos_energy_up": null, "dos_energy_down": null, "is_magnetic": null, "ordering": null, "total_magnetization": 8.1297483, "total_magnetization_normalized_vol": null, "total_magnetization_normalized_formula_units": null, "num_magnetic_sites": null, "num_unique_magnetic_sites": null, "types_of_magnetic_species": null, "bulk_modulus": null, "shear_modulus": null, "universal_anisotropy": null, "homogeneous_poisson": null, "e_total": null, "e_ionic": null, "e_electronic": null, "n": null, "e_ij_max": null, "weighted_surface_energy_EV_PER_ANG2": null, "weighted_surface_energy": null, "weighted_work_function": null, "surface_anisotropy": null, "shape_factor": null, "has_reconstructed": null, "possible_species": null, "has_props": null, "theoretical": null, "database_IDs": null, "fields_not_requested": ["builder_meta", "nsites", "elements", "nelements", "composition", "composition_reduced", "chemsys", "symmetry", "property_name", "deprecated", "deprecation_reasons", "last_updated", "origins", "warnings", "task_ids", "uncorrected_energy_per_atom", "equilibrium_reaction_energy_per_atom", "decomposes_to", "xas", "grain_boundaries", "cbm", "vbm", "is_gap_direct", "is_metal", "es_source_calc_id", "bandstructure", "dos", "dos_energy_up", "dos_energy_down", "is_magnetic", "ordering", "total_magnetization_normalized_vol", "total_magnetization_normalized_formula_units", "num_magnetic_sites", "num_unique_magnetic_sites", "types_of_magnetic_species", "bulk_modulus", "shear_modulus", "universal_anisotropy", "homogeneous_poisson", "e_total", "e_ionic", "e_electronic", "n", "e_ij_max", "weighted_surface_energy_EV_PER_ANG2", "weighted_surface_energy", "weighted_work_function", "surface_anisotropy", "shape_factor", "has_reconstructed", "possible_species", "has_props", "theoretical", "database_IDs"]}