{
  "builder_meta": null,
  "nsites": null,
  "elements": null,
  "nelements": null,
  "composition": null,
  "composition_reduced": null,
  "formula_pretty": "Ce4Ge3",
  "formula_anonymous": "A3B4",
  "chemsys": null,
  "volume": 390.11831362923266,
  "density": 6.626384846135667,
  "density_atomic": 27.865593830659474,
  "symmetry": null,
  "property_name": null,
  "material_id": "mp-1213824",
  "deprecated": null,
  "deprecation_reasons": null,
  "last_updated": null,
  "origins": null,
  "warnings": null,
  "structure": {
    "@module": "pymatgen.core.structure",
    "@class": "Structure",
    "charge": 0,
    "lattice": {
      "matrix": [
        [-4.60304742, 4.60304742, 4.60304742],
        [4.60304742, -4.60304742, 4.60304742],
        [4.60304742, 4.60304742, -4.60304742]
      ],
      "pbc": [true, true, true],
      "a": 7.972712001088838,
      "b": 7.972712001088838,
      "c": 7.972712001088838,
      "alpha": 109.47122063449069,
      "beta": 109.47122063449069,
      "gamma": 109.47122063449069,
      "volume": 390.11831362923266
    },
    "properties": {},
    "sites": [
      {
        "species": [{ "element": "Ce", "occu": 1 }],
        "abc": [0.36312118, 0.36312118, 0.36312118],
        "properties": { "magmom": 0.962 },
        "label": "Ce",
        "xyz": [1.6714640107463556, 1.6714640107463556, 1.6714640107463556]
      },
      {
        "species": [{ "element": "Ce", "occu": 1 }],
        "abc": [0.13687882, 0.5, 0.0],
        "properties": { "magmom": 0.962 },
        "label": "Ce",
        "xyz": [1.6714640107463556, -1.6714640107463556, 2.9315834092536446]
      },
      {
        "species": [{ "element": "Ce", "occu": 1 }],
        "abc": [0.0, 0.13687882, 0.5],
        "properties": { "magmom": 0.962 },
        "label": "Ce",
        "xyz": [2.9315834092536446, 1.6714640107463556, -1.6714640107463556]
      },
      {
        "species": [{ "element": "Ce", "occu": 1 }],
        "abc": [0.86312118, 0.86312118, 0.86312118],
        "properties": { "magmom": 0.962 },
        "label": "Ce",
        "xyz": [3.972987720746356, 3.972987720746356, 3.972987720746356]
      },
      {
        "species": [{ "element": "Ce", "occu": 1 }],
        "abc": [0.5, -0.0, 0.13687882],
        "properties": { "magmom": 0.962 },
        "label": "Ce",
        "xyz": [-1.6714640107463556, 2.9315834092536446, 1.6714640107463556]
      },
      {
        "species": [{ "element": "Ce", "occu": 1 }],
        "abc": [0.6368788200000001, 0.5, 0.0],
        "properties": { "magmom": 0.962 },
        "label": "Ce",
        "xyz": [-0.6300596992536449, 0.6300596992536449, 5.233107119253646]
      },
      {
        "species": [{ "element": "Ce", "occu": 1 }],
        "abc": [0.5, 0.0, 0.6368788200000001],
        "properties": { "magmom": 0.962 },
        "label": "Ce",
        "xyz": [0.6300596992536449, 5.233107119253646, -0.6300596992536449]
      },
      {
        "species": [{ "element": "Ce", "occu": 1 }],
        "abc": [0.0, 0.6368788200000001, 0.5],
        "properties": { "magmom": 0.962 },
        "label": "Ce",
        "xyz": [5.233107119253646, -0.6300596992536449, 0.6300596992536449]
      },
      {
        "species": [{ "element": "Ge", "occu": 1 }],
        "abc": [0.125, 0.875, 0.25],
        "properties": { "magmom": -0.037 },
        "label": "Ge",
        "xyz": [4.60304742, -2.3015237099999997, 3.4522855650000004]
      },
      {
        "species": [{ "element": "Ge", "occu": 1 }],
        "abc": [0.375, 0.625, 0.75],
        "properties": { "magmom": -0.037 },
        "label": "Ge",
        "xyz": [4.60304742, 2.3015237100000006, 1.1507618549999998]
      },
      {
        "species": [{ "element": "Ge", "occu": 1 }],
        "abc": [0.875, 0.25, 0.125],
        "properties": { "magmom": -0.037 },
        "label": "Ge",
        "xyz": [-2.30152371, 3.452285565, 4.603047419999999]
      },
      {
        "species": [{ "element": "Ge", "occu": 1 }],
        "abc": [0.625, 0.75, 0.375],
        "properties": { "magmom": -0.037 },
        "label": "Ge",
        "xyz": [2.3015237100000006, 1.1507618549999998, 4.60304742]
      },
      {
        "species": [{ "element": "Ge", "occu": 1 }],
        "abc": [0.25, 0.125, 0.875],
        "properties": { "magmom": -0.037 },
        "label": "Ge",
        "xyz": [3.452285565, 4.60304742, -2.3015237099999997]
      },
      {
        "species": [{ "element": "Ge", "occu": 1 }],
        "abc": [0.75, 0.375, 0.625],
        "properties": { "magmom": -0.037 },
        "label": "Ge",
        "xyz": [1.1507618549999998, 4.60304742, 2.3015237100000006]
      }
    ]
  },
  "task_ids": null,
  "uncorrected_energy_per_atom": null,
  "energy_per_atom": -6.068637166428573,
  "formation_energy_per_atom": -0.694796731428571,
  "energy_above_hull": 0.0,
  "is_stable": true,
  "equilibrium_reaction_energy_per_atom": null,
  "decomposes_to": null,
  "xas": null,
  "grain_boundaries": null,
  "band_gap": 0.0,
  "cbm": null,
  "vbm": null,
  "efermi": 6.37083165,
  "is_gap_direct": null,
  "is_metal": null,
  "es_source_calc_id": null,
  "bandstructure": null,
  "dos": null,
  "dos_energy_up": null,
  "dos_energy_down": null,
  "is_magnetic": null,
  "ordering": null,
  "total_magnetization": 8.0478848,
  "total_magnetization_normalized_vol": null,
  "total_magnetization_normalized_formula_units": null,
  "num_magnetic_sites": null,
  "num_unique_magnetic_sites": null,
  "types_of_magnetic_species": null,
  "bulk_modulus": null,
  "shear_modulus": null,
  "universal_anisotropy": null,
  "homogeneous_poisson": null,
  "e_total": null,
  "e_ionic": null,
  "e_electronic": null,
  "n": null,
  "e_ij_max": null,
  "weighted_surface_energy_EV_PER_ANG2": null,
  "weighted_surface_energy": null,
  "weighted_work_function": null,
  "surface_anisotropy": null,
  "shape_factor": null,
  "has_reconstructed": null,
  "possible_species": null,
  "has_props": null,
  "theoretical": null,
  "database_IDs": null,
  "fields_not_requested": [
    "builder_meta",
    "nsites",
    "elements",
    "nelements",
    "composition",
    "composition_reduced",
    "chemsys",
    "symmetry",
    "property_name",
    "deprecated",
    "deprecation_reasons",
    "last_updated",
    "origins",
    "warnings",
    "task_ids",
    "uncorrected_energy_per_atom",
    "equilibrium_reaction_energy_per_atom",
    "decomposes_to",
    "xas",
    "grain_boundaries",
    "cbm",
    "vbm",
    "is_gap_direct",
    "is_metal",
    "es_source_calc_id",
    "bandstructure",
    "dos",
    "dos_energy_up",
    "dos_energy_down",
    "is_magnetic",
    "ordering",
    "total_magnetization_normalized_vol",
    "total_magnetization_normalized_formula_units",
    "num_magnetic_sites",
    "num_unique_magnetic_sites",
    "types_of_magnetic_species",
    "bulk_modulus",
    "shear_modulus",
    "universal_anisotropy",
    "homogeneous_poisson",
    "e_total",
    "e_ionic",
    "e_electronic",
    "n",
    "e_ij_max",
    "weighted_surface_energy_EV_PER_ANG2",
    "weighted_surface_energy",
    "weighted_work_function",
    "surface_anisotropy",
    "shape_factor",
    "has_reconstructed",
    "possible_species",
    "has_props",
    "theoretical",
    "database_IDs"
  ]
}
