{
  "builder_meta": null,
  "nsites": null,
  "elements": null,
  "nelements": null,
  "composition": null,
  "composition_reduced": null,
  "formula_pretty": "Ce4Ni",
  "formula_anonymous": "AB4",
  "chemsys": null,
  "volume": 268.436242432768,
  "density": 7.660180620595503,
  "density_atomic": 26.8436242432768,
  "symmetry": null,
  "property_name": null,
  "material_id": "mp-1214244",
  "deprecated": null,
  "deprecation_reasons": null,
  "last_updated": null,
  "origins": null,
  "warnings": null,
  "structure": {
    "@module": "pymatgen.core.structure",
    "@class": "Structure",
    "charge": 0,
    "lattice": {
      "matrix": [
        [0.0, 5.120005, 5.120005],
        [5.120005, 0.0, 5.120005],
        [5.120005, 5.120005, 0.0]
      ],
      "pbc": [true, true, true],
      "a": 7.240780510418058,
      "b": 7.240780510418058,
      "c": 7.240780510418058,
      "alpha": 59.99999999999999,
      "beta": 59.99999999999999,
      "gamma": 59.99999999999999,
      "volume": 268.436242432768
    },
    "properties": {},
    "sites": [
      {
        "species": [{ "element": "Ce", "occu": 1 }],
        "abc": [0.392067, 0.392067, 0.392067],
        "properties": { "magmom": -0.035 },
        "label": "Ce",
        "xyz": [4.01477000067, 4.01477000067, 4.01477000067]
      },
      {
        "species": [{ "element": "Ce", "occu": 1 }],
        "abc": [0.392067, 0.392067, 0.823799],
        "properties": { "magmom": -0.037 },
        "label": "Ce",
        "xyz": [6.225239999329999, 6.225239999329999, 4.01477000067]
      },
      {
        "species": [{ "element": "Ce", "occu": 1 }],
        "abc": [0.392067, 0.823799, 0.392067],
        "properties": { "magmom": -0.035 },
        "label": "Ce",
        "xyz": [6.225239999329999, 4.01477000067, 6.225239999329999]
      },
      {
        "species": [{ "element": "Ce", "occu": 1 }],
        "abc": [0.857933, 0.857933, 0.426201],
        "properties": { "magmom": -0.037 },
        "label": "Ce",
        "xyz": [6.57477250067, 6.57477250067, 8.78524249933]
      },
      {
        "species": [{ "element": "Ce", "occu": 1 }],
        "abc": [0.857933, 0.857933, 0.857933],
        "properties": { "magmom": -0.035 },
        "label": "Ce",
        "xyz": [8.78524249933, 8.78524249933, 8.78524249933]
      },
      {
        "species": [{ "element": "Ce", "occu": 1 }],
        "abc": [0.823799, 0.392067, 0.392067],
        "properties": { "magmom": -0.026000000000000002 },
        "label": "Ce",
        "xyz": [4.01477000067, 6.225239999329999, 6.225239999329999]
      },
      {
        "species": [{ "element": "Ce", "occu": 1 }],
        "abc": [0.857933, 0.426201, 0.857933],
        "properties": { "magmom": -0.035 },
        "label": "Ce",
        "xyz": [6.57477250067, 8.78524249933, 6.57477250067]
      },
      {
        "species": [{ "element": "Ce", "occu": 1 }],
        "abc": [0.426201, 0.857933, 0.857933],
        "properties": { "magmom": -0.026000000000000002 },
        "label": "Ce",
        "xyz": [8.78524249933, 6.57477250067, 6.57477250067]
      },
      {
        "species": [{ "element": "Ni", "occu": 1 }],
        "abc": [0.0, 0.0, 0.0],
        "properties": { "magmom": 0.008 },
        "label": "Ni",
        "xyz": [0.0, 0.0, 0.0]
      },
      {
        "species": [{ "element": "Ni", "occu": 1 }],
        "abc": [0.25, 0.25, 0.25],
        "properties": { "magmom": 0.008 },
        "label": "Ni",
        "xyz": [2.5600025, 2.5600025, 2.5600025]
      }
    ]
  },
  "task_ids": null,
  "uncorrected_energy_per_atom": null,
  "energy_per_atom": -5.617836804,
  "formation_energy_per_atom": 0.287750428000002,
  "energy_above_hull": 0.41272455500000105,
  "is_stable": false,
  "equilibrium_reaction_energy_per_atom": null,
  "decomposes_to": null,
  "xas": null,
  "grain_boundaries": null,
  "band_gap": 0.0,
  "cbm": null,
  "vbm": null,
  "efermi": 7.83480012,
  "is_gap_direct": null,
  "is_metal": null,
  "es_source_calc_id": null,
  "bandstructure": null,
  "dos": null,
  "dos_energy_up": null,
  "dos_energy_down": null,
  "is_magnetic": null,
  "ordering": null,
  "total_magnetization": 0.3421546,
  "total_magnetization_normalized_vol": null,
  "total_magnetization_normalized_formula_units": null,
  "num_magnetic_sites": null,
  "num_unique_magnetic_sites": null,
  "types_of_magnetic_species": null,
  "bulk_modulus": null,
  "shear_modulus": null,
  "universal_anisotropy": null,
  "homogeneous_poisson": null,
  "e_total": null,
  "e_ionic": null,
  "e_electronic": null,
  "n": null,
  "e_ij_max": null,
  "weighted_surface_energy_EV_PER_ANG2": null,
  "weighted_surface_energy": null,
  "weighted_work_function": null,
  "surface_anisotropy": null,
  "shape_factor": null,
  "has_reconstructed": null,
  "possible_species": null,
  "has_props": null,
  "theoretical": null,
  "database_IDs": null,
  "fields_not_requested": [
    "builder_meta",
    "nsites",
    "elements",
    "nelements",
    "composition",
    "composition_reduced",
    "chemsys",
    "symmetry",
    "property_name",
    "deprecated",
    "deprecation_reasons",
    "last_updated",
    "origins",
    "warnings",
    "task_ids",
    "uncorrected_energy_per_atom",
    "equilibrium_reaction_energy_per_atom",
    "decomposes_to",
    "xas",
    "grain_boundaries",
    "cbm",
    "vbm",
    "is_gap_direct",
    "is_metal",
    "es_source_calc_id",
    "bandstructure",
    "dos",
    "dos_energy_up",
    "dos_energy_down",
    "is_magnetic",
    "ordering",
    "total_magnetization_normalized_vol",
    "total_magnetization_normalized_formula_units",
    "num_magnetic_sites",
    "num_unique_magnetic_sites",
    "types_of_magnetic_species",
    "bulk_modulus",
    "shear_modulus",
    "universal_anisotropy",
    "homogeneous_poisson",
    "e_total",
    "e_ionic",
    "e_electronic",
    "n",
    "e_ij_max",
    "weighted_surface_energy_EV_PER_ANG2",
    "weighted_surface_energy",
    "weighted_work_function",
    "surface_anisotropy",
    "shape_factor",
    "has_reconstructed",
    "possible_species",
    "has_props",
    "theoretical",
    "database_IDs"
  ]
}
