{"builder_meta": null, "nsites": null, "elements": null, "nelements": null, "composition": null, "composition_reduced": null, "formula_pretty": "Ce4Pt", "formula_anonymous": "AB4", "chemsys": null, "volume": 333.0597350543185, "density": 7.533885598551155, "density_atomic": 33.30597350543185, "symmetry": null, "property_name": null, "material_id": "mp-1213934", "deprecated": null, "deprecation_reasons": null, "last_updated": null, "origins": null, "warnings": null, "structure": {"@module": "pymatgen.core.structure", "@class": "Structure", "charge": 0, "lattice": {"matrix": [[-5.501706, -5.501706, 0.0], [-5.501706, 0.0, -5.501706], [0.0, -5.501706, -5.501706]], "pbc": [true, true, true], "a": 7.780587241389432, "b": 7.780587241389432, "c": 7.780587241389432, "alpha": 59.99999999999999, "beta": 59.99999999999999, "gamma": 59.99999999999999, "volume": 333.0597350543185}, "properties": {}, "sites": [{"species": [{"element": "Ce", "occu": 1}], "abc": [0.608538999999999, 0.608538999999999, 0.608538999999999], "properties": {"magmom": 0.896}, "label": "Ce", "xyz": [-6.69600533506799, -6.69600533506799, -6.69600533506799]}, {"species": [{"element": "Ce", "occu": 1}], "abc": [0.174383999999999, 0.608538999999999, 0.608538999999999], "properties": {"magmom": 0.896}, "label": "Ce", "xyz": [-4.30741216663799, -4.30741216663799, -6.69600533506799]}, {"species": [{"element": "Ce", "occu": 1}], "abc": [0.608538999999999, 0.174383999999999, 0.608538999999999], "properties": {"magmom": 0.898}, "label": "Ce", "xyz": [-4.30741216663799, -6.69600533506799, -4.30741216663799]}, {"species": [{"element": "Ce", "occu": 1}], "abc": [0.575616, 0.141461, 0.141461], "properties": {"magmom": 0.894}, "label": "Ce", "xyz": [-3.9451468333620006, -3.9451468333620006, -1.5565536649320002]}, {"species": [{"element": "Ce", "occu": 1}], "abc": [0.141461, 0.141461, 0.141461], "properties": {"magmom": 0.894}, "label": "Ce", "xyz": [-1.5565536649320002, -1.5565536649320002, -1.5565536649320002]}, {"species": [{"element": "Ce", "occu": 1}], "abc": [0.608538999999999, 0.608538999999999, 0.174383999999999], "properties": {"magmom": 0.898}, "label": "Ce", "xyz": [-6.69600533506799, -4.30741216663799, -4.30741216663799]}, {"species": [{"element": "Ce", "occu": 1}], "abc": [0.141461, 0.575616, 0.141461], "properties": {"magmom": 0.897}, "label": "Ce", "xyz": [-3.9451468333620006, -1.5565536649320002, -3.9451468333620006]}, {"species": [{"element": "Ce", "occu": 1}], "abc": [0.141461, 0.141461, 0.575616], "properties": {"magmom": 0.897}, "label": "Ce", "xyz": [-1.5565536649320002, -3.9451468333620006, -3.9451468333620006]}, {"species": [{"element": "Pt", "occu": 1}], "abc": [0.0, 0.0, 0.0], "properties": {"magmom": -0.015}, "label": "Pt", "xyz": [0.0, 0.0, 0.0]}, {"species": [{"element": "Pt", "occu": 1}], "abc": [0.75, 0.75, 0.75], "properties": {"magmom": -0.015}, "label": "Pt", "xyz": [-8.252559000000002, -8.252559000000002, -8.252559000000002]}]}, "task_ids": null, "uncorrected_energy_per_atom": null, "energy_per_atom": -34.942154199, "formation_energy_per_atom": 0.027892188999999002, "energy_above_hull": 0.5213280920000041, "is_stable": false, "equilibrium_reaction_energy_per_atom": null, "decomposes_to": null, "xas": null, "grain_boundaries": null, "band_gap": 0.0, "cbm": null, "vbm": null, "efermi": 6.22664332, "is_gap_direct": null, "is_metal": null, "es_source_calc_id": null, "bandstructure": null, "dos": null, "dos_energy_up": null, "dos_energy_down": null, "is_magnetic": null, "ordering": null, "total_magnetization": 9.0933579, "total_magnetization_normalized_vol": null, "total_magnetization_normalized_formula_units": null, "num_magnetic_sites": null, "num_unique_magnetic_sites": null, "types_of_magnetic_species": null, "bulk_modulus": null, "shear_modulus": null, "universal_anisotropy": null, "homogeneous_poisson": null, "e_total": null, "e_ionic": null, "e_electronic": null, "n": null, "e_ij_max": null, "weighted_surface_energy_EV_PER_ANG2": null, "weighted_surface_energy": null, "weighted_work_function": null, "surface_anisotropy": null, "shape_factor": null, "has_reconstructed": null, "possible_species": null, "has_props": null, "theoretical": null, "database_IDs": null, "fields_not_requested": ["builder_meta", "nsites", "elements", "nelements", "composition", "composition_reduced", "chemsys", "symmetry", "property_name", "deprecated", "deprecation_reasons", "last_updated", "origins", "warnings", "task_ids", "uncorrected_energy_per_atom", "equilibrium_reaction_energy_per_atom", "decomposes_to", "xas", "grain_boundaries", "cbm", "vbm", "is_gap_direct", "is_metal", "es_source_calc_id", "bandstructure", "dos", "dos_energy_up", "dos_energy_down", "is_magnetic", "ordering", "total_magnetization_normalized_vol", "total_magnetization_normalized_formula_units", "num_magnetic_sites", "num_unique_magnetic_sites", "types_of_magnetic_species", "bulk_modulus", "shear_modulus", "universal_anisotropy", "homogeneous_poisson", "e_total", "e_ionic", "e_electronic", "n", "e_ij_max", "weighted_surface_energy_EV_PER_ANG2", "weighted_surface_energy", "weighted_work_function", "surface_anisotropy", "shape_factor", "has_reconstructed", "possible_species", "has_props", "theoretical", "database_IDs"]}