{
  "builder_meta": null,
  "nsites": null,
  "elements": null,
  "nelements": null,
  "composition": null,
  "composition_reduced": null,
  "formula_pretty": "Ce4Pu",
  "formula_anonymous": "AB4",
  "chemsys": null,
  "volume": 118.12460763105418,
  "density": 11.3087689894863,
  "density_atomic": 23.624921526210834,
  "symmetry": null,
  "property_name": null,
  "material_id": "mp-1226997",
  "deprecated": null,
  "deprecation_reasons": null,
  "last_updated": null,
  "origins": null,
  "warnings": null,
  "structure": {
    "@module": "pymatgen.core.structure",
    "@class": "Structure",
    "charge": 0,
    "lattice": {
      "matrix": [
        [13.277243, -1.604541, 0.0],
        [13.277243, 1.604541, 0.0],
        [13.083336, 0.0, 2.772373]
      ],
      "pbc": [true, true, true],
      "a": 13.373845127775706,
      "b": 13.373845127775706,
      "c": 13.373845106775574,
      "alpha": 13.781437421137422,
      "beta": 13.781437421137422,
      "gamma": 13.781439754301255,
      "volume": 118.12460763105418
    },
    "properties": {},
    "sites": [
      {
        "species": [{ "element": "Ce", "occu": 1 }],
        "abc": [0.602923, 0.602923, 0.602923],
        "properties": { "magmom": 0.186 },
        "label": "Ce",
        "xyz": [23.898554553706, 0.0, 1.671527446279]
      },
      {
        "species": [{ "element": "Ce", "occu": 1 }],
        "abc": [0.200821, 0.200821, 0.200821],
        "properties": { "magmom": 0.003 },
        "label": "Ce",
        "xyz": [7.960107051862, 0.0, 0.556750718233]
      },
      {
        "species": [{ "element": "Ce", "occu": 1 }],
        "abc": [0.799179, 0.799179, 0.799179],
        "properties": { "magmom": 0.002 },
        "label": "Ce",
        "xyz": [31.677714948137996, 0.0, 2.2156222817669997]
      },
      {
        "species": [{ "element": "Ce", "occu": 1 }],
        "abc": [0.397076999999999, 0.397076999999999, 0.397076999999999],
        "properties": { "magmom": 0.186 },
        "label": "Ce",
        "xyz": [15.739267446293962, 0.0, 1.1008455537209973]
      },
      {
        "species": [{ "element": "Pu", "occu": 1 }],
        "abc": [0.0, 0.0, 0.0],
        "properties": { "magmom": -4.651 },
        "label": "Pu",
        "xyz": [0.0, 0.0, 0.0]
      }
    ]
  },
  "task_ids": null,
  "uncorrected_energy_per_atom": null,
  "energy_per_atom": -41.82768065825,
  "formation_energy_per_atom": 0.11609197999999801,
  "energy_above_hull": 0.11609198000000001,
  "is_stable": false,
  "equilibrium_reaction_energy_per_atom": null,
  "decomposes_to": null,
  "xas": null,
  "grain_boundaries": null,
  "band_gap": 0.0,
  "cbm": null,
  "vbm": null,
  "efermi": 11.25674364,
  "is_gap_direct": null,
  "is_metal": null,
  "es_source_calc_id": null,
  "bandstructure": null,
  "dos": null,
  "dos_energy_up": null,
  "dos_energy_down": null,
  "is_magnetic": null,
  "ordering": null,
  "total_magnetization": 4.2384068,
  "total_magnetization_normalized_vol": null,
  "total_magnetization_normalized_formula_units": null,
  "num_magnetic_sites": null,
  "num_unique_magnetic_sites": null,
  "types_of_magnetic_species": null,
  "bulk_modulus": null,
  "shear_modulus": null,
  "universal_anisotropy": null,
  "homogeneous_poisson": null,
  "e_total": null,
  "e_ionic": null,
  "e_electronic": null,
  "n": null,
  "e_ij_max": null,
  "weighted_surface_energy_EV_PER_ANG2": null,
  "weighted_surface_energy": null,
  "weighted_work_function": null,
  "surface_anisotropy": null,
  "shape_factor": null,
  "has_reconstructed": null,
  "possible_species": null,
  "has_props": null,
  "theoretical": null,
  "database_IDs": null,
  "fields_not_requested": [
    "builder_meta",
    "nsites",
    "elements",
    "nelements",
    "composition",
    "composition_reduced",
    "chemsys",
    "symmetry",
    "property_name",
    "deprecated",
    "deprecation_reasons",
    "last_updated",
    "origins",
    "warnings",
    "task_ids",
    "uncorrected_energy_per_atom",
    "equilibrium_reaction_energy_per_atom",
    "decomposes_to",
    "xas",
    "grain_boundaries",
    "cbm",
    "vbm",
    "is_gap_direct",
    "is_metal",
    "es_source_calc_id",
    "bandstructure",
    "dos",
    "dos_energy_up",
    "dos_energy_down",
    "is_magnetic",
    "ordering",
    "total_magnetization_normalized_vol",
    "total_magnetization_normalized_formula_units",
    "num_magnetic_sites",
    "num_unique_magnetic_sites",
    "types_of_magnetic_species",
    "bulk_modulus",
    "shear_modulus",
    "universal_anisotropy",
    "homogeneous_poisson",
    "e_total",
    "e_ionic",
    "e_electronic",
    "n",
    "e_ij_max",
    "weighted_surface_energy_EV_PER_ANG2",
    "weighted_surface_energy",
    "weighted_work_function",
    "surface_anisotropy",
    "shape_factor",
    "has_reconstructed",
    "possible_species",
    "has_props",
    "theoretical",
    "database_IDs"
  ]
}
