{
  "builder_meta": null,
  "nsites": null,
  "elements": null,
  "nelements": null,
  "composition": null,
  "composition_reduced": null,
  "formula_pretty": "Ce4Ru3",
  "formula_anonymous": "A3B4",
  "chemsys": null,
  "volume": 306.45974849316025,
  "density": 9.359561409668759,
  "density_atomic": 21.88998203522573,
  "symmetry": null,
  "property_name": null,
  "material_id": "mp-570629",
  "deprecated": null,
  "deprecation_reasons": null,
  "last_updated": null,
  "origins": null,
  "warnings": null,
  "structure": {
    "@module": "pymatgen.core.structure",
    "@class": "Structure",
    "charge": 0,
    "lattice": {
      "matrix": [
        [6.63183788, 4.29954855, -0.12736654],
        [-6.63183788, 4.29954855, -0.12736654],
        [0.0, 2.65787652, 5.29512929]
      ],
      "pbc": [true, true, true],
      "a": 7.904657717821915,
      "b": 7.904657717821915,
      "c": 5.924753310761826,
      "alpha": 76.72602891805236,
      "beta": 76.72602891805236,
      "gamma": 114.06481698642635,
      "volume": 306.45974849316025
    },
    "properties": {},
    "sites": [
      {
        "species": [{ "element": "Ce", "occu": 1 }],
        "abc": [0.88512458, 0.61515109, 0.15809983],
        "properties": { "magmom": 0.0 },
        "label": "Ce",
        "xyz": [1.790420417577801, 6.87071790752177, 0.6460741194429389]
      },
      {
        "species": [{ "element": "Ce", "occu": 1 }],
        "abc": [0.35259739, 0.35259739, 0.27111786],
        "properties": { "magmom": -0.0 },
        "label": "Ce",
        "xyz": [0.0, 3.7526169880632163, 1.3457859023734582]
      },
      {
        "species": [{ "element": "Ce", "occu": 1 }],
        "abc": [0.11487542, 0.38484891, 0.8419001700000001],
        "properties": { "magmom": 0.0 },
        "label": "Ce",
        "xyz": [-1.790420417577801, 4.3862557124782295, 4.394322090557061]
      },
      {
        "species": [{ "element": "Ce", "occu": 1 }],
        "abc": [0.38484891, 0.11487542, 0.8419001700000001],
        "properties": { "magmom": 0.0 },
        "label": "Ce",
        "xyz": [1.790420417577801, 4.3862557124782295, 4.394322090557061]
      },
      {
        "species": [{ "element": "Ce", "occu": 1 }],
        "abc": [0.16386564, 0.83613436, 0.5],
        "properties": { "magmom": 0.0 },
        "label": "Ce",
        "xyz": [-4.458377162835114, 5.62848681, 2.520198105]
      },
      {
        "species": [{ "element": "Ce", "occu": 1 }],
        "abc": [0.64740261, 0.64740261, 0.7288821400000001],
        "properties": { "magmom": -0.0 },
        "label": "Ce",
        "xyz": [0.0, 7.504356631936783, 3.694610307626542]
      },
      {
        "species": [{ "element": "Ce", "occu": 1 }],
        "abc": [0.83613436, 0.16386564, 0.5],
        "properties": { "magmom": 0.0 },
        "label": "Ce",
        "xyz": [4.458377162835114, 5.62848681, 2.520198105]
      },
      {
        "species": [{ "element": "Ce", "occu": 1 }],
        "abc": [0.61515109, 0.88512458, 0.15809983],
        "properties": { "magmom": 0.0 },
        "label": "Ce",
        "xyz": [-1.790420417577801, 6.87071790752177, 0.6460741194429389]
      },
      {
        "species": [{ "element": "Ru", "occu": 1 }],
        "abc": [0.82984545, 0.42616021, 0.74834592],
        "properties": { "magmom": -0.0 },
        "label": "Ru",
        "xyz": [2.6771750662288913, 7.389268363850591, 3.8026153049093803]
      },
      {
        "species": [{ "element": "Ru", "occu": 1 }],
        "abc": [0.98783266, 0.98783266, 0.25805027],
        "properties": { "magmom": -0.0 },
        "label": "Ru",
        "xyz": [0.0, 9.180334715503946, 1.1147758869630158]
      },
      {
        "species": [{ "element": "Ru", "occu": 1 }],
        "abc": [0.42616021, 0.82984545, 0.74834592],
        "properties": { "magmom": -0.0 },
        "label": "Ru",
        "xyz": [-2.6771750662288913, 7.389268363850591, 3.8026153049093803]
      },
      {
        "species": [{ "element": "Ru", "occu": 1 }],
        "abc": [0.57383979, 0.17015455000000002, 0.25165408],
        "properties": { "magmom": -0.0 },
        "label": "Ru",
        "xyz": [2.677175066228891, 3.8677052561494083, 1.2377809050906197]
      },
      {
        "species": [{ "element": "Ru", "occu": 1 }],
        "abc": [0.01216734, 0.01216734, 0.74194973],
        "properties": { "magmom": -0.0 },
        "label": "Ru",
        "xyz": [0.0, 2.0766389044960536, 3.9256203230369846]
      },
      {
        "species": [{ "element": "Ru", "occu": 1 }],
        "abc": [0.17015455000000002, 0.57383979, 0.25165408],
        "properties": { "magmom": -0.0 },
        "label": "Ru",
        "xyz": [-2.677175066228891, 3.8677052561494083, 1.2377809050906197]
      }
    ]
  },
  "task_ids": null,
  "uncorrected_energy_per_atom": null,
  "energy_per_atom": -7.738610407857144,
  "formation_energy_per_atom": -0.371323679285712,
  "energy_above_hull": 0.0,
  "is_stable": true,
  "equilibrium_reaction_energy_per_atom": null,
  "decomposes_to": null,
  "xas": null,
  "grain_boundaries": null,
  "band_gap": 0.0,
  "cbm": null,
  "vbm": null,
  "efermi": 8.42496325,
  "is_gap_direct": null,
  "is_metal": null,
  "es_source_calc_id": null,
  "bandstructure": null,
  "dos": null,
  "dos_energy_up": null,
  "dos_energy_down": null,
  "is_magnetic": null,
  "ordering": null,
  "total_magnetization": 0.0001357,
  "total_magnetization_normalized_vol": null,
  "total_magnetization_normalized_formula_units": null,
  "num_magnetic_sites": null,
  "num_unique_magnetic_sites": null,
  "types_of_magnetic_species": null,
  "bulk_modulus": null,
  "shear_modulus": null,
  "universal_anisotropy": null,
  "homogeneous_poisson": null,
  "e_total": null,
  "e_ionic": null,
  "e_electronic": null,
  "n": null,
  "e_ij_max": null,
  "weighted_surface_energy_EV_PER_ANG2": null,
  "weighted_surface_energy": null,
  "weighted_work_function": null,
  "surface_anisotropy": null,
  "shape_factor": null,
  "has_reconstructed": null,
  "possible_species": null,
  "has_props": null,
  "theoretical": null,
  "database_IDs": null,
  "fields_not_requested": [
    "builder_meta",
    "nsites",
    "elements",
    "nelements",
    "composition",
    "composition_reduced",
    "chemsys",
    "symmetry",
    "property_name",
    "deprecated",
    "deprecation_reasons",
    "last_updated",
    "origins",
    "warnings",
    "task_ids",
    "uncorrected_energy_per_atom",
    "equilibrium_reaction_energy_per_atom",
    "decomposes_to",
    "xas",
    "grain_boundaries",
    "cbm",
    "vbm",
    "is_gap_direct",
    "is_metal",
    "es_source_calc_id",
    "bandstructure",
    "dos",
    "dos_energy_up",
    "dos_energy_down",
    "is_magnetic",
    "ordering",
    "total_magnetization_normalized_vol",
    "total_magnetization_normalized_formula_units",
    "num_magnetic_sites",
    "num_unique_magnetic_sites",
    "types_of_magnetic_species",
    "bulk_modulus",
    "shear_modulus",
    "universal_anisotropy",
    "homogeneous_poisson",
    "e_total",
    "e_ionic",
    "e_electronic",
    "n",
    "e_ij_max",
    "weighted_surface_energy_EV_PER_ANG2",
    "weighted_surface_energy",
    "weighted_work_function",
    "surface_anisotropy",
    "shape_factor",
    "has_reconstructed",
    "possible_species",
    "has_props",
    "theoretical",
    "database_IDs"
  ]
}
