{
  "builder_meta": null,
  "nsites": null,
  "elements": null,
  "nelements": null,
  "composition": null,
  "composition_reduced": null,
  "formula_pretty": "Ce4Sm",
  "formula_anonymous": "AB4",
  "chemsys": null,
  "volume": 138.3427305019788,
  "density": 8.532078391065118,
  "density_atomic": 27.66854610039576,
  "symmetry": null,
  "property_name": null,
  "material_id": "mp-1226765",
  "deprecated": null,
  "deprecation_reasons": null,
  "last_updated": null,
  "origins": null,
  "warnings": null,
  "structure": {
    "@module": "pymatgen.core.structure",
    "@class": "Structure",
    "charge": 0,
    "lattice": {
      "matrix": [
        [13.927756, -1.69543, 0.0],
        [13.927756, 1.69543, 0.0],
        [13.721371, 0.0, 2.92931]
      ],
      "pbc": [true, true, true],
      "a": 14.030569128885542,
      "b": 14.030569128885542,
      "c": 14.03056945372286,
      "alpha": 13.880972193501329,
      "beta": 13.880972193501329,
      "gamma": 13.880970420155997,
      "volume": 138.3427305019788
    },
    "properties": {},
    "sites": [
      {
        "species": [{ "element": "Ce", "occu": 1 }],
        "abc": [0.596904, 0.596904, 0.596904],
        "properties": { "magmom": 0.221 },
        "label": "Ce",
        "xyz": [24.817407770232002, 0.0, 1.74851685624]
      },
      {
        "species": [{ "element": "Ce", "occu": 1 }],
        "abc": [0.199324, 0.199324, 0.199324],
        "properties": { "magmom": -0.033 },
        "label": "Ce",
        "xyz": [8.287270627092, 0.0, 0.58388178644]
      },
      {
        "species": [{ "element": "Ce", "occu": 1 }],
        "abc": [0.800675999999999, 0.800675999999999, 0.800675999999999],
        "properties": { "magmom": -0.033 },
        "label": "Ce",
        "xyz": [33.28961237290796, 0.0, 2.3454282135599973]
      },
      {
        "species": [{ "element": "Ce", "occu": 1 }],
        "abc": [0.403095999999999, 0.403095999999999, 0.403095999999999],
        "properties": { "magmom": 0.221 },
        "label": "Ce",
        "xyz": [16.759475229767958, 0.0, 1.1807931437599972]
      },
      {
        "species": [{ "element": "Sm", "occu": 1 }],
        "abc": [0.0, 0.0, 0.0],
        "properties": { "magmom": -0.0 },
        "label": "Sm",
        "xyz": [0.0, 0.0, 0.0]
      }
    ]
  },
  "task_ids": null,
  "uncorrected_energy_per_atom": null,
  "energy_per_atom": -30.549975871000004,
  "formation_energy_per_atom": 0.06911200099999601,
  "energy_above_hull": 0.06911200099999701,
  "is_stable": false,
  "equilibrium_reaction_energy_per_atom": null,
  "decomposes_to": null,
  "xas": null,
  "grain_boundaries": null,
  "band_gap": 0.0,
  "cbm": null,
  "vbm": null,
  "efermi": 7.938823,
  "is_gap_direct": null,
  "is_metal": null,
  "es_source_calc_id": null,
  "bandstructure": null,
  "dos": null,
  "dos_energy_up": null,
  "dos_energy_down": null,
  "is_magnetic": null,
  "ordering": null,
  "total_magnetization": 0.4771138,
  "total_magnetization_normalized_vol": null,
  "total_magnetization_normalized_formula_units": null,
  "num_magnetic_sites": null,
  "num_unique_magnetic_sites": null,
  "types_of_magnetic_species": null,
  "bulk_modulus": null,
  "shear_modulus": null,
  "universal_anisotropy": null,
  "homogeneous_poisson": null,
  "e_total": null,
  "e_ionic": null,
  "e_electronic": null,
  "n": null,
  "e_ij_max": null,
  "weighted_surface_energy_EV_PER_ANG2": null,
  "weighted_surface_energy": null,
  "weighted_work_function": null,
  "surface_anisotropy": null,
  "shape_factor": null,
  "has_reconstructed": null,
  "possible_species": null,
  "has_props": null,
  "theoretical": null,
  "database_IDs": null,
  "fields_not_requested": [
    "builder_meta",
    "nsites",
    "elements",
    "nelements",
    "composition",
    "composition_reduced",
    "chemsys",
    "symmetry",
    "property_name",
    "deprecated",
    "deprecation_reasons",
    "last_updated",
    "origins",
    "warnings",
    "task_ids",
    "uncorrected_energy_per_atom",
    "equilibrium_reaction_energy_per_atom",
    "decomposes_to",
    "xas",
    "grain_boundaries",
    "cbm",
    "vbm",
    "is_gap_direct",
    "is_metal",
    "es_source_calc_id",
    "bandstructure",
    "dos",
    "dos_energy_up",
    "dos_energy_down",
    "is_magnetic",
    "ordering",
    "total_magnetization_normalized_vol",
    "total_magnetization_normalized_formula_units",
    "num_magnetic_sites",
    "num_unique_magnetic_sites",
    "types_of_magnetic_species",
    "bulk_modulus",
    "shear_modulus",
    "universal_anisotropy",
    "homogeneous_poisson",
    "e_total",
    "e_ionic",
    "e_electronic",
    "n",
    "e_ij_max",
    "weighted_surface_energy_EV_PER_ANG2",
    "weighted_surface_energy",
    "weighted_work_function",
    "surface_anisotropy",
    "shape_factor",
    "has_reconstructed",
    "possible_species",
    "has_props",
    "theoretical",
    "database_IDs"
  ]
}
