{"builder_meta": null, "nsites": null, "elements": null, "nelements": null, "composition": null, "composition_reduced": null, "formula_pretty": "Ce4Sb3", "formula_anonymous": "A3B4", "chemsys": null, "volume": 435.920697322023, "density": 7.052815280917787, "density_atomic": 31.137192665858784, "symmetry": null, "property_name": null, "material_id": "mp-20680", "deprecated": null, "deprecation_reasons": null, "last_updated": null, "origins": null, "warnings": null, "structure": {"@module": "pymatgen.core.structure", "@class": "Structure", "charge": 0, "lattice": {"matrix": [[7.80081446, -0.00104947, -2.75618671], [-3.89898778, 6.75324419, -2.76137531], [-0.00232747, 0.00403227, 8.27374772]], "pbc": [true, true, true], "a": 8.273407551977177, "b": 8.272460722241943, "c": 8.273749029945442, "alpha": 109.46754689219127, "beta": 109.47547144598025, "gamma": 109.46916832182659, "volume": 435.92069732202293}, "properties": {}, "sites": [{"species": [{"element": "Ce", "occu": 1}], "abc": [0.14501542, 0.144952499999999, 0.14487465], "properties": {"magmom": 1.337}, "label": "Ce", "xyz": [0.5657331676768915, 0.9793316128230964, 0.39869847715145745]}, {"species": [{"element": "Ce", "occu": 1}], "abc": [0.85498458, 0.49993609, -0.00014077], "properties": {"magmom": 1.337}, "label": "Ce", "xyz": [4.720331696687999, 3.3752926468739965, -3.7381730076214144]}, {"species": [{"element": "Ce", "occu": 1}], "abc": [0.00015732, 0.85502904, 0.49996603], "properties": {"magmom": 1.338}, "label": "Ce", "xyz": [-3.333684210310128, 5.776235729582446, 1.7751031171077312]}, {"species": [{"element": "Ce", "occu": 1}], "abc": [0.49994559, 3.5090000000000005e-05, 0.85495388], "properties": {"magmom": 1.337}, "label": "Ce", "xyz": [3.8978560926969474, 0.0031596983219974004, 5.695632427814417]}, {"species": [{"element": "Ce", "occu": 1}], "abc": [-0.00015732, 0.35487271, 0.49980971], "properties": {"magmom": 1.338}, "label": "Ce", "xyz": [-1.3860348759820647, 2.398557599799017, 3.1557963122527877]}, {"species": [{"element": "Ce", "occu": 1}], "abc": [0.5000544100000001, 8.95e-05, 0.3550083], "properties": {"magmom": 1.337}, "label": "Ce", "xyz": [3.899656441740458, 0.0015111125711832999, 1.558758650496939]}, {"species": [{"element": "Ce", "occu": 1}], "abc": [0.35500445, 0.50002917, 2.171e-05], "properties": {"magmom": 1.337}, "label": "Ce", "xyz": [0.8197161729214307, 3.3764466081534628, -2.359047128335651]}, {"species": [{"element": "Ce", "occu": 1}], "abc": [0.64499555, 0.6450247100000001, 0.64501725], "properties": {"magmom": 1.337}, "label": "Ce", "xyz": [2.5150458926887507, 4.357933355440735, 1.777826530095119]}, {"species": [{"element": "Sb", "occu": 1}], "abc": [0.24996009, 0.625057299999999, 0.37509974], "properties": {"magmom": -0.1}, "label": "Sb", "xyz": [-0.4880715233967469, 4.222414757455039, 0.6885261449539279]}, {"species": [{"element": "Sb", "occu": 1}], "abc": [0.37505645, 0.25002796, 0.62511499], "properties": {"magmom": -0.099}, "label": "Sb", "xyz": [1.9494348813921627, 1.6906268901356982, 3.447897084706876]}, {"species": [{"element": "Sb", "occu": 1}], "abc": [0.12507922, 0.7499777200000001, 0.87507778], "properties": {"magmom": -0.1}, "label": "Sb", "xyz": [-1.9504708948113576, 5.068179963210394, 4.824461144178402]}, {"species": [{"element": "Sb", "occu": 1}], "abc": [0.8749207800000001, 0.12489849, 0.74999856], "properties": {"magmom": -0.1}, "label": "Sb", "xyz": [6.336371386579583, 0.8455759955148178, 3.4489622431221663]}, {"species": [{"element": "Sb", "occu": 1}], "abc": [0.62494355, 0.37497151, 0.25005754], "properties": {"magmom": -0.099}, "label": "Sb", "xyz": [3.4124773447629617, 2.5326266113324243, -0.6889851752338298]}, {"species": [{"element": "Sb", "occu": 1}], "abc": [0.75003991, 0.8750972100000001, 0.12513965], "properties": {"magmom": -0.1}, "label": "Sb", "xyz": [2.4386375886218192, 5.909462601589868, -3.4483479675863844]}]}, "task_ids": null, "uncorrected_energy_per_atom": null, "energy_per_atom": -29.86454351357143, "formation_energy_per_atom": -1.224334623571431, "energy_above_hull": 0.001158389285716, "is_stable": false, "equilibrium_reaction_energy_per_atom": null, "decomposes_to": null, "xas": null, "grain_boundaries": null, "band_gap": 0.0, "cbm": null, "vbm": null, "efermi": 7.87688377, "is_gap_direct": null, "is_metal": null, "es_source_calc_id": null, "bandstructure": null, "dos": null, "dos_energy_up": null, "dos_energy_down": null, "is_magnetic": null, "ordering": null, "total_magnetization": 9.356633800000001, "total_magnetization_normalized_vol": null, "total_magnetization_normalized_formula_units": null, "num_magnetic_sites": null, "num_unique_magnetic_sites": null, "types_of_magnetic_species": null, "bulk_modulus": null, "shear_modulus": null, "universal_anisotropy": null, "homogeneous_poisson": null, "e_total": null, "e_ionic": null, "e_electronic": null, "n": null, "e_ij_max": null, "weighted_surface_energy_EV_PER_ANG2": null, "weighted_surface_energy": null, "weighted_work_function": null, "surface_anisotropy": null, "shape_factor": null, "has_reconstructed": null, "possible_species": null, "has_props": null, "theoretical": null, "database_IDs": null, "fields_not_requested": ["builder_meta", "nsites", "elements", "nelements", "composition", "composition_reduced", "chemsys", "symmetry", "property_name", "deprecated", "deprecation_reasons", "last_updated", "origins", "warnings", "task_ids", "uncorrected_energy_per_atom", "equilibrium_reaction_energy_per_atom", "decomposes_to", "xas", "grain_boundaries", "cbm", "vbm", "is_gap_direct", "is_metal", "es_source_calc_id", "bandstructure", "dos", "dos_energy_up", "dos_energy_down", "is_magnetic", "ordering", "total_magnetization_normalized_vol", "total_magnetization_normalized_formula_units", "num_magnetic_sites", "num_unique_magnetic_sites", "types_of_magnetic_species", "bulk_modulus", "shear_modulus", "universal_anisotropy", "homogeneous_poisson", "e_total", "e_ionic", "e_electronic", "n", "e_ij_max", "weighted_surface_energy_EV_PER_ANG2", "weighted_surface_energy", "weighted_work_function", "surface_anisotropy", "shape_factor", "has_reconstructed", "possible_species", "has_props", "theoretical", "database_IDs"]}