{
  "builder_meta": null,
  "nsites": null,
  "elements": null,
  "nelements": null,
  "composition": null,
  "composition_reduced": null,
  "formula_pretty": "Ce5Bi3",
  "formula_anonymous": "A3B5",
  "chemsys": null,
  "volume": 509.9897829583213,
  "density": 8.644882262356482,
  "density_atomic": 31.874361434895082,
  "symmetry": null,
  "property_name": null,
  "material_id": "mp-1188996",
  "deprecated": null,
  "deprecation_reasons": null,
  "last_updated": null,
  "origins": null,
  "warnings": null,
  "structure": {
    "@module": "pymatgen.core.structure",
    "@class": "Structure",
    "charge": 0,
    "lattice": {
      "matrix": [
        [9.527423, 0.0, 0.0],
        [-4.763712, 8.250990999999999, 0.0],
        [0.0, 0.0, 6.487538]
      ],
      "pbc": [true, true, true],
      "a": 9.527423,
      "b": 9.52742381239677,
      "c": 6.487538,
      "alpha": 90.0,
      "beta": 90.0,
      "gamma": 120.00000065136864,
      "volume": 509.98978295832126
    },
    "properties": {},
    "sites": [
      {
        "species": [{ "element": "Ce", "occu": 1 }],
        "abc": [0.666667, 0.333333, 0.0],
        "properties": { "magmom": 1.082 },
        "label": "Ce",
        "xyz": [4.763716097045001, 2.7503275830029996, 0.0]
      },
      {
        "species": [{ "element": "Ce", "occu": 1 }],
        "abc": [0.333333, 0.666667, 0.0],
        "properties": { "magmom": 1.082 },
        "label": "Ce",
        "xyz": [-5.097044999846645e-6, 5.500663416997, 0.0]
      },
      {
        "species": [{ "element": "Ce", "occu": 1 }],
        "abc": [0.333333, 0.666667, 0.5],
        "properties": { "magmom": 1.082 },
        "label": "Ce",
        "xyz": [-5.097044999846645e-6, 5.500663416997, 3.243769]
      },
      {
        "species": [{ "element": "Ce", "occu": 1 }],
        "abc": [0.666667, 0.333333, 0.5],
        "properties": { "magmom": 1.082 },
        "label": "Ce",
        "xyz": [4.763716097045001, 2.7503275830029996, 3.243769]
      },
      {
        "species": [{ "element": "Ce", "occu": 1 }],
        "abc": [0.747827, 0.747827, 0.75],
        "properties": { "magmom": 1.011 },
        "label": "Ce",
        "xyz": [3.5624317059970005, 6.170313846557, 4.8656535]
      },
      {
        "species": [{ "element": "Ce", "occu": 1 }],
        "abc": [0.252173, 0.0, 0.75],
        "properties": { "magmom": 1.011 },
        "label": "Ce",
        "xyz": [2.402558840179, 0.0, 4.8656535]
      },
      {
        "species": [{ "element": "Ce", "occu": 1 }],
        "abc": [0.0, 0.252173, 0.75],
        "properties": { "magmom": 1.011 },
        "label": "Ce",
        "xyz": [-1.201279546176, 2.0806771534429997, 4.8656535]
      },
      {
        "species": [{ "element": "Ce", "occu": 1 }],
        "abc": [0.252173, 0.252173, 0.25],
        "properties": { "magmom": 1.011 },
        "label": "Ce",
        "xyz": [1.2012792940030002, 2.0806771534429997, 1.6218845]
      },
      {
        "species": [{ "element": "Ce", "occu": 1 }],
        "abc": [0.747827, 0.0, 0.25],
        "properties": { "magmom": 1.011 },
        "label": "Ce",
        "xyz": [7.1248641598210005, 0.0, 1.6218845]
      },
      {
        "species": [{ "element": "Ce", "occu": 1 }],
        "abc": [0.0, 0.747827, 0.25],
        "properties": { "magmom": 1.011 },
        "label": "Ce",
        "xyz": [-3.562432453824, 6.170313846557, 1.6218845]
      },
      {
        "species": [{ "element": "Bi", "occu": 1 }],
        "abc": [0.386042, 0.386042, 0.75],
        "properties": { "magmom": -0.05 },
        "label": "Bi",
        "xyz": [1.8389925218620002, 3.1852290676219996, 4.8656535]
      },
      {
        "species": [{ "element": "Bi", "occu": 1 }],
        "abc": [0.613958, 0.0, 0.75],
        "properties": { "magmom": -0.05 },
        "label": "Bi",
        "xyz": [5.8494375702340005, 0.0, 4.8656535]
      },
      {
        "species": [{ "element": "Bi", "occu": 1 }],
        "abc": [0.0, 0.613958, 0.75],
        "properties": { "magmom": -0.05 },
        "label": "Bi",
        "xyz": [-2.924719092096, 5.065761932378, 4.8656535]
      },
      {
        "species": [{ "element": "Bi", "occu": 1 }],
        "abc": [0.613958, 0.613958, 0.25],
        "properties": { "magmom": -0.05 },
        "label": "Bi",
        "xyz": [2.9247184781380007, 5.065761932378, 1.6218845]
      },
      {
        "species": [{ "element": "Bi", "occu": 1 }],
        "abc": [0.386042, 0.0, 0.25],
        "properties": { "magmom": -0.05 },
        "label": "Bi",
        "xyz": [3.677985429766, 0.0, 1.6218845]
      },
      {
        "species": [{ "element": "Bi", "occu": 1 }],
        "abc": [0.0, 0.386042, 0.25],
        "properties": { "magmom": -0.05 },
        "label": "Bi",
        "xyz": [-1.838992907904, 3.1852290676219996, 1.6218845]
      }
    ]
  },
  "task_ids": null,
  "uncorrected_energy_per_atom": null,
  "energy_per_atom": -42.0805967778125,
  "formation_energy_per_atom": -0.8668511484375041,
  "energy_above_hull": 0.031540315312497,
  "is_stable": false,
  "equilibrium_reaction_energy_per_atom": null,
  "decomposes_to": null,
  "xas": null,
  "grain_boundaries": null,
  "band_gap": 0.0,
  "cbm": null,
  "vbm": null,
  "efermi": 7.28899066,
  "is_gap_direct": null,
  "is_metal": null,
  "es_source_calc_id": null,
  "bandstructure": null,
  "dos": null,
  "dos_energy_up": null,
  "dos_energy_down": null,
  "is_magnetic": null,
  "ordering": null,
  "total_magnetization": 13.7387673,
  "total_magnetization_normalized_vol": null,
  "total_magnetization_normalized_formula_units": null,
  "num_magnetic_sites": null,
  "num_unique_magnetic_sites": null,
  "types_of_magnetic_species": null,
  "bulk_modulus": null,
  "shear_modulus": null,
  "universal_anisotropy": null,
  "homogeneous_poisson": null,
  "e_total": null,
  "e_ionic": null,
  "e_electronic": null,
  "n": null,
  "e_ij_max": null,
  "weighted_surface_energy_EV_PER_ANG2": null,
  "weighted_surface_energy": null,
  "weighted_work_function": null,
  "surface_anisotropy": null,
  "shape_factor": null,
  "has_reconstructed": null,
  "possible_species": null,
  "has_props": null,
  "theoretical": null,
  "database_IDs": null,
  "fields_not_requested": [
    "builder_meta",
    "nsites",
    "elements",
    "nelements",
    "composition",
    "composition_reduced",
    "chemsys",
    "symmetry",
    "property_name",
    "deprecated",
    "deprecation_reasons",
    "last_updated",
    "origins",
    "warnings",
    "task_ids",
    "uncorrected_energy_per_atom",
    "equilibrium_reaction_energy_per_atom",
    "decomposes_to",
    "xas",
    "grain_boundaries",
    "cbm",
    "vbm",
    "is_gap_direct",
    "is_metal",
    "es_source_calc_id",
    "bandstructure",
    "dos",
    "dos_energy_up",
    "dos_energy_down",
    "is_magnetic",
    "ordering",
    "total_magnetization_normalized_vol",
    "total_magnetization_normalized_formula_units",
    "num_magnetic_sites",
    "num_unique_magnetic_sites",
    "types_of_magnetic_species",
    "bulk_modulus",
    "shear_modulus",
    "universal_anisotropy",
    "homogeneous_poisson",
    "e_total",
    "e_ionic",
    "e_electronic",
    "n",
    "e_ij_max",
    "weighted_surface_energy_EV_PER_ANG2",
    "weighted_surface_energy",
    "weighted_work_function",
    "surface_anisotropy",
    "shape_factor",
    "has_reconstructed",
    "possible_species",
    "has_props",
    "theoretical",
    "database_IDs"
  ]
}
