{
  "builder_meta": null,
  "nsites": null,
  "elements": null,
  "nelements": null,
  "composition": null,
  "composition_reduced": null,
  "formula_pretty": "Ce5Ge3",
  "formula_anonymous": "A3B5",
  "chemsys": null,
  "volume": 426.78821324511637,
  "density": 7.147362955856197,
  "density_atomic": 26.674263327819773,
  "symmetry": null,
  "property_name": null,
  "material_id": "mp-510493",
  "deprecated": null,
  "deprecation_reasons": null,
  "last_updated": null,
  "origins": null,
  "warnings": null,
  "structure": {
    "@module": "pymatgen.core.structure",
    "@class": "Structure",
    "charge": 0,
    "lattice": {
      "matrix": [
        [4.451607, -7.71041, 0.0],
        [4.451607, 7.71041, 0.0],
        [0.0, 0.0, 6.217104]
      ],
      "pbc": [true, true, true],
      "a": 8.903214433593577,
      "b": 8.903214433593577,
      "c": 6.217104,
      "alpha": 90.0,
      "beta": 90.0,
      "gamma": 120.00000322201831,
      "volume": 426.78821324511637
    },
    "properties": {},
    "sites": [
      {
        "species": [{ "element": "Ce", "occu": 1 }],
        "abc": [0.333333, 0.666667, 0.0],
        "properties": { "magmom": 0.975 },
        "label": "Ce",
        "xyz": [4.451607, 2.57014180694, 0.0]
      },
      {
        "species": [{ "element": "Ce", "occu": 1 }],
        "abc": [0.666667, 0.333333, 0.5],
        "properties": { "magmom": 0.976 },
        "label": "Ce",
        "xyz": [4.451607, -2.57014180694, 3.108552]
      },
      {
        "species": [{ "element": "Ce", "occu": 1 }],
        "abc": [0.666667, 0.333333, 0.0],
        "properties": { "magmom": 0.976 },
        "label": "Ce",
        "xyz": [4.451607, -2.57014180694, 0.0]
      },
      {
        "species": [{ "element": "Ce", "occu": 1 }],
        "abc": [0.333333, 0.666667, 0.5],
        "properties": { "magmom": 0.975 },
        "label": "Ce",
        "xyz": [4.451607, 2.57014180694, 3.108552]
      },
      {
        "species": [{ "element": "Ce", "occu": 1 }],
        "abc": [0.266108, 0.0, 0.25],
        "properties": { "magmom": 0.867 },
        "label": "Ce",
        "xyz": [1.1846082355560001, -2.0518017842800003, 1.554276]
      },
      {
        "species": [{ "element": "Ce", "occu": 1 }],
        "abc": [0.266108, 0.266108, 0.75],
        "properties": { "magmom": 0.869 },
        "label": "Ce",
        "xyz": [2.3692164711120003, 0.0, 4.662828]
      },
      {
        "species": [{ "element": "Ce", "occu": 1 }],
        "abc": [0.0, 0.733892, 0.75],
        "properties": { "magmom": 0.869 },
        "label": "Ce",
        "xyz": [3.266998764444, 5.65860821572, 4.662828]
      },
      {
        "species": [{ "element": "Ce", "occu": 1 }],
        "abc": [0.0, 0.266108, 0.25],
        "properties": { "magmom": 0.867 },
        "label": "Ce",
        "xyz": [1.1846082355560001, 2.0518017842800003, 1.554276]
      },
      {
        "species": [{ "element": "Ce", "occu": 1 }],
        "abc": [0.733892, 0.733892, 0.25],
        "properties": { "magmom": 0.867 },
        "label": "Ce",
        "xyz": [6.533997528888, 0.0, 1.554276]
      },
      {
        "species": [{ "element": "Ce", "occu": 1 }],
        "abc": [0.733892, 0.0, 0.75],
        "properties": { "magmom": 0.868 },
        "label": "Ce",
        "xyz": [3.266998764444, -5.65860821572, 4.662828]
      },
      {
        "species": [{ "element": "Ge", "occu": 1 }],
        "abc": [0.620498, 0.0, 0.25],
        "properties": { "magmom": -0.049 },
        "label": "Ge",
        "xyz": [2.762213240286, -4.7842939841800005, 1.554276]
      },
      {
        "species": [{ "element": "Ge", "occu": 1 }],
        "abc": [0.620498, 0.620498, 0.75],
        "properties": { "magmom": -0.049 },
        "label": "Ge",
        "xyz": [5.524426480572, 0.0, 4.662828]
      },
      {
        "species": [{ "element": "Ge", "occu": 1 }],
        "abc": [0.0, 0.379502, 0.75],
        "properties": { "magmom": -0.049 },
        "label": "Ge",
        "xyz": [1.689393759714, 2.9261160158200004, 4.662828]
      },
      {
        "species": [{ "element": "Ge", "occu": 1 }],
        "abc": [0.0, 0.620498, 0.25],
        "properties": { "magmom": -0.049 },
        "label": "Ge",
        "xyz": [2.762213240286, 4.7842939841800005, 1.554276]
      },
      {
        "species": [{ "element": "Ge", "occu": 1 }],
        "abc": [0.379502, 0.379502, 0.25],
        "properties": { "magmom": -0.049 },
        "label": "Ge",
        "xyz": [3.378787519428, 0.0, 1.554276]
      },
      {
        "species": [{ "element": "Ge", "occu": 1 }],
        "abc": [0.379502, 0.0, 0.75],
        "properties": { "magmom": -0.049 },
        "label": "Ge",
        "xyz": [1.689393759714, -2.9261160158200004, 4.662828]
      }
    ]
  },
  "task_ids": null,
  "uncorrected_energy_per_atom": null,
  "energy_per_atom": -6.040234754375,
  "formation_energy_per_atom": -0.596005639999997,
  "energy_above_hull": 0.011941500000002,
  "is_stable": false,
  "equilibrium_reaction_energy_per_atom": null,
  "decomposes_to": null,
  "xas": null,
  "grain_boundaries": null,
  "band_gap": 0.0,
  "cbm": null,
  "vbm": null,
  "efermi": 7.2814785,
  "is_gap_direct": null,
  "is_metal": null,
  "es_source_calc_id": null,
  "bandstructure": null,
  "dos": null,
  "dos_energy_up": null,
  "dos_energy_down": null,
  "is_magnetic": null,
  "ordering": null,
  "total_magnetization": 12.2068791,
  "total_magnetization_normalized_vol": null,
  "total_magnetization_normalized_formula_units": null,
  "num_magnetic_sites": null,
  "num_unique_magnetic_sites": null,
  "types_of_magnetic_species": null,
  "bulk_modulus": null,
  "shear_modulus": null,
  "universal_anisotropy": null,
  "homogeneous_poisson": null,
  "e_total": null,
  "e_ionic": null,
  "e_electronic": null,
  "n": null,
  "e_ij_max": null,
  "weighted_surface_energy_EV_PER_ANG2": null,
  "weighted_surface_energy": null,
  "weighted_work_function": null,
  "surface_anisotropy": null,
  "shape_factor": null,
  "has_reconstructed": null,
  "possible_species": null,
  "has_props": null,
  "theoretical": null,
  "database_IDs": null,
  "fields_not_requested": [
    "builder_meta",
    "nsites",
    "elements",
    "nelements",
    "composition",
    "composition_reduced",
    "chemsys",
    "symmetry",
    "property_name",
    "deprecated",
    "deprecation_reasons",
    "last_updated",
    "origins",
    "warnings",
    "task_ids",
    "uncorrected_energy_per_atom",
    "equilibrium_reaction_energy_per_atom",
    "decomposes_to",
    "xas",
    "grain_boundaries",
    "cbm",
    "vbm",
    "is_gap_direct",
    "is_metal",
    "es_source_calc_id",
    "bandstructure",
    "dos",
    "dos_energy_up",
    "dos_energy_down",
    "is_magnetic",
    "ordering",
    "total_magnetization_normalized_vol",
    "total_magnetization_normalized_formula_units",
    "num_magnetic_sites",
    "num_unique_magnetic_sites",
    "types_of_magnetic_species",
    "bulk_modulus",
    "shear_modulus",
    "universal_anisotropy",
    "homogeneous_poisson",
    "e_total",
    "e_ionic",
    "e_electronic",
    "n",
    "e_ij_max",
    "weighted_surface_energy_EV_PER_ANG2",
    "weighted_surface_energy",
    "weighted_work_function",
    "surface_anisotropy",
    "shape_factor",
    "has_reconstructed",
    "possible_species",
    "has_props",
    "theoretical",
    "database_IDs"
  ]
}
