{
  "builder_meta": null,
  "nsites": null,
  "elements": null,
  "nelements": null,
  "composition": null,
  "composition_reduced": null,
  "formula_pretty": "Ce5Ga3",
  "formula_anonymous": "A3B5",
  "chemsys": null,
  "volume": 398.6345612745837,
  "density": 7.579241250282437,
  "density_atomic": 24.91466007966148,
  "symmetry": null,
  "property_name": null,
  "material_id": "mp-542328",
  "deprecated": null,
  "deprecation_reasons": null,
  "last_updated": null,
  "origins": null,
  "warnings": null,
  "structure": {
    "@module": "pymatgen.core.structure",
    "@class": "Structure",
    "charge": 0,
    "lattice": {
      "matrix": [
        [5.44009828, 1e-8, 1.72267904],
        [2.72035306, 8.35770955, 0.86037774],
        [0.19670009, -0.00097399, 8.82989187]
      ],
      "pbc": [true, true, true],
      "a": 5.706337912436862,
      "b": 8.8313011243361,
      "c": 8.832082557922261,
      "alpha": 84.02149109804806,
      "beta": 71.15277592861287,
      "gamma": 71.15103897364004,
      "volume": 398.6345612745837
    },
    "properties": {},
    "sites": [
      {
        "species": [{ "element": "Ce", "occu": 1 }],
        "abc": [0.24998625, 0.5, 0.5],
        "properties": { "magmom": 1.143 },
        "label": "Ce",
        "xyz": [2.81847634364865, 4.178367782499862, 5.2757808781632]
      },
      {
        "species": [{ "element": "Ce", "occu": 1 }],
        "abc": [0.75001375, 0.5, 0.5],
        "properties": { "magmom": 1.143 },
        "label": "Ce",
        "xyz": [5.5386750863513505, 4.178367787500137, 6.1371677718368005]
      },
      {
        "species": [{ "element": "Ce", "occu": 1 }],
        "abc": [0.09160225, 0.13635991, 0.68043758],
        "properties": { "magmom": 0.925 },
        "label": "Ce",
        "xyz": [1.0031144743243368, 1.1389937835616188, 6.283312562968718]
      },
      {
        "species": [{ "element": "Ce", "occu": 1 }],
        "abc": [0.77186036, 0.31984607, 0.13643322],
        "properties": { "magmom": 0.923 },
        "label": "Ce",
        "xyz": [5.095926878742645, 2.6730476768956235, 2.809546682909258]
      },
      {
        "species": [{ "element": "Ce", "occu": 1 }],
        "abc": [0.22813964, 0.68015393, 0.86356678],
        "properties": { "magmom": 0.923 },
        "label": "Ce",
        "xyz": [3.261224551257355, 5.683687893104375, 8.603401967090743]
      },
      {
        "species": [{ "element": "Ce", "occu": 1 }],
        "abc": [0.90839775, 0.86364009, 0.31956242],
        "properties": { "magmom": 0.925 },
        "label": "Ce",
        "xyz": [7.354036955675664, 7.2177417864383795, 5.129636087031283]
      },
      {
        "species": [{ "element": "Ce", "occu": 1 }],
        "abc": [0.27198718, 0.13636966, 0.31965698],
        "properties": { "magmom": 0.925 },
        "label": "Ce",
        "xyz": [1.913487168707338, 1.1394266697301747, 3.408412602900828]
      },
      {
        "species": [{ "element": "Ce", "occu": 1 }],
        "abc": [0.72801282, 0.86363034, 0.68034302],
        "properties": { "magmom": 0.925 },
        "label": "Ce",
        "xyz": [6.443664261292662, 7.217308900269825, 8.004536047099172]
      },
      {
        "species": [{ "element": "Ce", "occu": 1 }],
        "abc": [0.40833279, 0.31975705, 0.86357637],
        "properties": { "magmom": 0.923 },
        "label": "Ce",
        "xyz": [3.2610881276715475, 2.671595439799539, 8.603824155292902]
      },
      {
        "species": [{ "element": "Ce", "occu": 1 }],
        "abc": [0.59166721, 0.68024295, 0.13642363],
        "properties": { "magmom": 0.923 },
        "label": "Ce",
        "xyz": [5.096063302328452, 5.685140130200461, 2.8091244947071]
      },
      {
        "species": [{ "element": "Ga", "occu": 1 }],
        "abc": [0.25001323000000003, 0.0, 0.0],
        "properties": { "magmom": -0.029 },
        "label": "Ga",
        "xyz": [1.3600965425002445, 2.5001323000000005e-9, 0.43069255104369925]
      },
      {
        "species": [{ "element": "Ga", "occu": 1 }],
        "abc": [0.74998677, -0.0, -0.0],
        "properties": { "magmom": -0.029 },
        "label": "Ga",
        "xyz": [4.080001737499756, 7.4998677e-9, 1.2919864889563009]
      },
      {
        "species": [{ "element": "Ga", "occu": 1 }],
        "abc": [0.15986283, 0.50005622, 0.18021712],
        "properties": { "magmom": -0.028 },
        "label": "Ga",
        "xyz": [2.2654476984915064, 4.17914911735682, 2.296927269675441]
      },
      {
        "species": [{ "element": "Ga", "occu": 1 }],
        "abc": [0.34018574, 0.81969746, 0.49993205],
        "properties": { "magmom": -0.028 },
        "label": "Ga",
        "xyz": [4.178847031868639, 6.85030636413722, 5.705626235970864]
      },
      {
        "species": [{ "element": "Ga", "occu": 1 }],
        "abc": [0.65981426, 0.18030254, 0.50006795],
        "properties": { "magmom": -0.028 },
        "label": "Ga",
        "xyz": [4.178304398131361, 1.5064292058627793, 5.707322414029137]
      },
      {
        "species": [{ "element": "Ga", "occu": 1 }],
        "abc": [0.84013717, 0.49994378, 0.81978288],
        "properties": { "magmom": -0.028 },
        "label": "Ga",
        "xyz": [6.091703731508493, 4.17758645264318, 9.116021380324561]
      }
    ]
  },
  "task_ids": null,
  "uncorrected_energy_per_atom": null,
  "energy_per_atom": -24.043538319375003,
  "formation_energy_per_atom": -0.47710436312500004,
  "energy_above_hull": 0.004210211874998,
  "is_stable": false,
  "equilibrium_reaction_energy_per_atom": null,
  "decomposes_to": null,
  "xas": null,
  "grain_boundaries": null,
  "band_gap": 0.0,
  "cbm": null,
  "vbm": null,
  "efermi": 6.8568076,
  "is_gap_direct": null,
  "is_metal": null,
  "es_source_calc_id": null,
  "bandstructure": null,
  "dos": null,
  "dos_energy_up": null,
  "dos_energy_down": null,
  "is_magnetic": null,
  "ordering": null,
  "total_magnetization": 8.470208,
  "total_magnetization_normalized_vol": null,
  "total_magnetization_normalized_formula_units": null,
  "num_magnetic_sites": null,
  "num_unique_magnetic_sites": null,
  "types_of_magnetic_species": null,
  "bulk_modulus": null,
  "shear_modulus": null,
  "universal_anisotropy": null,
  "homogeneous_poisson": null,
  "e_total": null,
  "e_ionic": null,
  "e_electronic": null,
  "n": null,
  "e_ij_max": null,
  "weighted_surface_energy_EV_PER_ANG2": null,
  "weighted_surface_energy": null,
  "weighted_work_function": null,
  "surface_anisotropy": null,
  "shape_factor": null,
  "has_reconstructed": null,
  "possible_species": null,
  "has_props": null,
  "theoretical": null,
  "database_IDs": null,
  "fields_not_requested": [
    "builder_meta",
    "nsites",
    "elements",
    "nelements",
    "composition",
    "composition_reduced",
    "chemsys",
    "symmetry",
    "property_name",
    "deprecated",
    "deprecation_reasons",
    "last_updated",
    "origins",
    "warnings",
    "task_ids",
    "uncorrected_energy_per_atom",
    "equilibrium_reaction_energy_per_atom",
    "decomposes_to",
    "xas",
    "grain_boundaries",
    "cbm",
    "vbm",
    "is_gap_direct",
    "is_metal",
    "es_source_calc_id",
    "bandstructure",
    "dos",
    "dos_energy_up",
    "dos_energy_down",
    "is_magnetic",
    "ordering",
    "total_magnetization_normalized_vol",
    "total_magnetization_normalized_formula_units",
    "num_magnetic_sites",
    "num_unique_magnetic_sites",
    "types_of_magnetic_species",
    "bulk_modulus",
    "shear_modulus",
    "universal_anisotropy",
    "homogeneous_poisson",
    "e_total",
    "e_ionic",
    "e_electronic",
    "n",
    "e_ij_max",
    "weighted_surface_energy_EV_PER_ANG2",
    "weighted_surface_energy",
    "weighted_work_function",
    "surface_anisotropy",
    "shape_factor",
    "has_reconstructed",
    "possible_species",
    "has_props",
    "theoretical",
    "database_IDs"
  ]
}
