{
  "builder_meta": null,
  "nsites": null,
  "elements": null,
  "nelements": null,
  "composition": null,
  "composition_reduced": null,
  "formula_pretty": "Ce5Ge4",
  "formula_anonymous": "A4B5",
  "chemsys": null,
  "volume": 927.0295360648007,
  "density": 7.10150702406478,
  "density_atomic": 25.750820446244465,
  "symmetry": null,
  "property_name": null,
  "material_id": "mp-1200696",
  "deprecated": null,
  "deprecation_reasons": null,
  "last_updated": null,
  "origins": null,
  "warnings": null,
  "structure": {
    "@module": "pymatgen.core.structure",
    "@class": "Structure",
    "charge": 0,
    "lattice": {
      "matrix": [
        [7.832854, 0.0, 0.0],
        [0.0, 7.925722, 0.0],
        [0.0, 0.0, 14.932575]
      ],
      "pbc": [true, true, true],
      "a": 7.832854,
      "b": 7.925722,
      "c": 14.932575,
      "alpha": 90.0,
      "beta": 90.0,
      "gamma": 90.0,
      "volume": 927.0295360648007
    },
    "properties": {},
    "sites": [
      {
        "species": [{ "element": "Ce", "occu": 1 }],
        "abc": [0.613009, 0.163608, 0.618228],
        "properties": { "magmom": 0.609 },
        "label": "Ce",
        "xyz": [4.8016099976860005, 1.2967115249760002, 9.2317359771]
      },
      {
        "species": [{ "element": "Ce", "occu": 1 }],
        "abc": [0.113009, 0.336391999999999, 0.881772],
        "properties": { "magmom": 0.609 },
        "label": "Ce",
        "xyz": [0.8851829976860001, 2.6661494750239925, 13.1671265229]
      },
      {
        "species": [{ "element": "Ce", "occu": 1 }],
        "abc": [0.386991, 0.836391999999999, 0.118228],
        "properties": { "magmom": 0.609 },
        "label": "Ce",
        "xyz": [3.0312440023139997, 6.629010475023993, 1.7654484771]
      },
      {
        "species": [{ "element": "Ce", "occu": 1 }],
        "abc": [0.886991, 0.663608, 0.381772],
        "properties": { "magmom": 0.609 },
        "label": "Ce",
        "xyz": [6.947671002314, 5.259572524976, 5.7008390229]
      },
      {
        "species": [{ "element": "Ce", "occu": 1 }],
        "abc": [0.386991, 0.836391999999999, 0.381772],
        "properties": { "magmom": 0.609 },
        "label": "Ce",
        "xyz": [3.0312440023139997, 6.629010475023993, 5.7008390229]
      },
      {
        "species": [{ "element": "Ce", "occu": 1 }],
        "abc": [0.886991, 0.663608, 0.118228],
        "properties": { "magmom": 0.609 },
        "label": "Ce",
        "xyz": [6.947671002314, 5.259572524976, 1.7654484771]
      },
      {
        "species": [{ "element": "Ce", "occu": 1 }],
        "abc": [0.613009, 0.163608, 0.881772],
        "properties": { "magmom": 0.609 },
        "label": "Ce",
        "xyz": [4.8016099976860005, 1.2967115249760002, 13.1671265229]
      },
      {
        "species": [{ "element": "Ce", "occu": 1 }],
        "abc": [0.113009, 0.336391999999999, 0.618228],
        "properties": { "magmom": 0.609 },
        "label": "Ce",
        "xyz": [0.8851829976860001, 2.6661494750239925, 9.2317359771]
      },
      {
        "species": [{ "element": "Ce", "occu": 1 }],
        "abc": [0.476197, 0.685658, 0.601541],
        "properties": { "magmom": 0.763 },
        "label": "Ce",
        "xyz": [3.729981576238, 5.434334695076, 8.982556098075]
      },
      {
        "species": [{ "element": "Ce", "occu": 1 }],
        "abc": [0.976197, 0.814342, 0.898459],
        "properties": { "magmom": 0.763 },
        "label": "Ce",
        "xyz": [7.646408576238, 6.4542483049240005, 13.416306401925]
      },
      {
        "species": [{ "element": "Ce", "occu": 1 }],
        "abc": [0.523803, 0.314342, 0.10154099999999901],
        "properties": { "magmom": 0.763 },
        "label": "Ce",
        "xyz": [4.102872423762, 2.4913873049240003, 1.5162685980749853]
      },
      {
        "species": [{ "element": "Ce", "occu": 1 }],
        "abc": [0.023802999999999002, 0.185658, 0.398459],
        "properties": { "magmom": 0.763 },
        "label": "Ce",
        "xyz": [0.1864454237619922, 1.471473695076, 5.9500189019250005]
      },
      {
        "species": [{ "element": "Ce", "occu": 1 }],
        "abc": [0.523803, 0.314342, 0.398459],
        "properties": { "magmom": 0.763 },
        "label": "Ce",
        "xyz": [4.102872423762, 2.4913873049240003, 5.9500189019250005]
      },
      {
        "species": [{ "element": "Ce", "occu": 1 }],
        "abc": [0.023802999999999002, 0.185658, 0.10154099999999901],
        "properties": { "magmom": 0.763 },
        "label": "Ce",
        "xyz": [0.1864454237619922, 1.471473695076, 1.5162685980749853]
      },
      {
        "species": [{ "element": "Ce", "occu": 1 }],
        "abc": [0.476197, 0.685658, 0.898459],
        "properties": { "magmom": 0.763 },
        "label": "Ce",
        "xyz": [3.729981576238, 5.434334695076, 13.416306401925]
      },
      {
        "species": [{ "element": "Ce", "occu": 1 }],
        "abc": [0.976197, 0.814342, 0.601541],
        "properties": { "magmom": 0.763 },
        "label": "Ce",
        "xyz": [7.646408576238, 6.4542483049240005, 8.982556098075]
      },
      {
        "species": [{ "element": "Ce", "occu": 1 }],
        "abc": [0.798172999999999, 0.494913, 0.75],
        "properties": { "magmom": 0.746 },
        "label": "Ce",
        "xyz": [6.251972575741992, 3.922542852186, 11.19943125]
      },
      {
        "species": [{ "element": "Ce", "occu": 1 }],
        "abc": [0.298172999999999, 0.005086999999999, 0.75],
        "properties": { "magmom": 0.746 },
        "label": "Ce",
        "xyz": [2.3355455757419925, 0.04031814781399208, 11.19943125]
      },
      {
        "species": [{ "element": "Ce", "occu": 1 }],
        "abc": [0.201826999999999, 0.505087, 0.25],
        "properties": { "magmom": 0.746 },
        "label": "Ce",
        "xyz": [1.5808814242579923, 4.0031791478139995, 3.73314375]
      },
      {
        "species": [{ "element": "Ce", "occu": 1 }],
        "abc": [0.701827, 0.994912999999999, 0.25],
        "properties": { "magmom": 0.746 },
        "label": "Ce",
        "xyz": [5.497308424258, 7.885403852185993, 3.73314375]
      },
      {
        "species": [{ "element": "Ge", "occu": 1 }],
        "abc": [0.722932, 0.968330999999999, 0.457497],
        "properties": { "magmom": -0.037 },
        "label": "Ge",
        "xyz": [5.6626208079280005, 7.674722309981993, 6.831608264774999]
      },
      {
        "species": [{ "element": "Ge", "occu": 1 }],
        "abc": [0.222932, 0.531669, 0.042503],
        "properties": { "magmom": -0.037 },
        "label": "Ge",
        "xyz": [1.746193807928, 4.213860690018, 0.634679235225]
      },
      {
        "species": [{ "element": "Ge", "occu": 1 }],
        "abc": [0.277068, 0.031668999999999004, 0.957496999999999],
        "properties": { "magmom": -0.037 },
        "label": "Ge",
        "xyz": [2.1702331920719997, 0.2509996900179921, 14.297895764774985]
      },
      {
        "species": [{ "element": "Ge", "occu": 1 }],
        "abc": [0.777068, 0.468331, 0.542503],
        "properties": { "magmom": -0.037 },
        "label": "Ge",
        "xyz": [6.086660192072, 3.7118613099820004, 8.100966735224999]
      },
      {
        "species": [{ "element": "Ge", "occu": 1 }],
        "abc": [0.277068, 0.031668999999999004, 0.542503],
        "properties": { "magmom": -0.037 },
        "label": "Ge",
        "xyz": [2.1702331920719997, 0.2509996900179921, 8.100966735224999]
      },
      {
        "species": [{ "element": "Ge", "occu": 1 }],
        "abc": [0.777068, 0.468331, 0.957496999999999],
        "properties": { "magmom": -0.037 },
        "label": "Ge",
        "xyz": [6.086660192072, 3.7118613099820004, 14.297895764774985]
      },
      {
        "species": [{ "element": "Ge", "occu": 1 }],
        "abc": [0.722932, 0.968330999999999, 0.042503],
        "properties": { "magmom": -0.037 },
        "label": "Ge",
        "xyz": [5.6626208079280005, 7.674722309981993, 0.634679235225]
      },
      {
        "species": [{ "element": "Ge", "occu": 1 }],
        "abc": [0.222932, 0.531669, 0.457497],
        "properties": { "magmom": -0.037 },
        "label": "Ge",
        "xyz": [1.746193807928, 4.213860690018, 6.831608264774999]
      },
      {
        "species": [{ "element": "Ge", "occu": 1 }],
        "abc": [0.41716000000000003, 0.391603, 0.75],
        "properties": { "magmom": -0.033 },
        "label": "Ge",
        "xyz": [3.2675533746400003, 3.103736512366, 11.19943125]
      },
      {
        "species": [{ "element": "Ge", "occu": 1 }],
        "abc": [0.9171600000000001, 0.108397, 0.75],
        "properties": { "magmom": -0.033 },
        "label": "Ge",
        "xyz": [7.183980374640001, 0.859124487634, 11.19943125]
      },
      {
        "species": [{ "element": "Ge", "occu": 1 }],
        "abc": [0.58284, 0.608397, 0.25],
        "properties": { "magmom": -0.033 },
        "label": "Ge",
        "xyz": [4.56530062536, 4.821985487634, 3.73314375]
      },
      {
        "species": [{ "element": "Ge", "occu": 1 }],
        "abc": [0.08284000000000001, 0.891602999999999, 0.25],
        "properties": { "magmom": -0.033 },
        "label": "Ge",
        "xyz": [0.6488736253600002, 7.066597512365993, 3.73314375]
      },
      {
        "species": [{ "element": "Ge", "occu": 1 }],
        "abc": [0.678878, 0.864482, 0.75],
        "properties": { "magmom": -0.037 },
        "label": "Ge",
        "xyz": [5.317552257812, 6.851644006004, 11.19943125]
      },
      {
        "species": [{ "element": "Ge", "occu": 1 }],
        "abc": [0.178877999999999, 0.635517999999999, 0.75],
        "properties": { "magmom": -0.037 },
        "label": "Ge",
        "xyz": [1.4011252578119924, 5.036938993995992, 11.19943125]
      },
      {
        "species": [{ "element": "Ge", "occu": 1 }],
        "abc": [0.321121999999999, 0.135518, 0.25],
        "properties": { "magmom": -0.037 },
        "label": "Ge",
        "xyz": [2.5153017421879924, 1.0740779939960001, 3.73314375]
      },
      {
        "species": [{ "element": "Ge", "occu": 1 }],
        "abc": [0.821121999999999, 0.364482, 0.25],
        "properties": { "magmom": -0.037 },
        "label": "Ge",
        "xyz": [6.4317287421879925, 2.888783006004, 3.73314375]
      }
    ]
  },
  "task_ids": null,
  "uncorrected_energy_per_atom": null,
  "energy_per_atom": -6.059347035555556,
  "formation_energy_per_atom": -0.706362505555553,
  "energy_above_hull": 0.0,
  "is_stable": true,
  "equilibrium_reaction_energy_per_atom": null,
  "decomposes_to": null,
  "xas": null,
  "grain_boundaries": null,
  "band_gap": 0.0,
  "cbm": null,
  "vbm": null,
  "efermi": 6.32410389,
  "is_gap_direct": null,
  "is_metal": null,
  "es_source_calc_id": null,
  "bandstructure": null,
  "dos": null,
  "dos_energy_up": null,
  "dos_energy_down": null,
  "is_magnetic": null,
  "ordering": null,
  "total_magnetization": 17.049076,
  "total_magnetization_normalized_vol": null,
  "total_magnetization_normalized_formula_units": null,
  "num_magnetic_sites": null,
  "num_unique_magnetic_sites": null,
  "types_of_magnetic_species": null,
  "bulk_modulus": null,
  "shear_modulus": null,
  "universal_anisotropy": null,
  "homogeneous_poisson": null,
  "e_total": null,
  "e_ionic": null,
  "e_electronic": null,
  "n": null,
  "e_ij_max": null,
  "weighted_surface_energy_EV_PER_ANG2": null,
  "weighted_surface_energy": null,
  "weighted_work_function": null,
  "surface_anisotropy": null,
  "shape_factor": null,
  "has_reconstructed": null,
  "possible_species": null,
  "has_props": null,
  "theoretical": null,
  "database_IDs": null,
  "fields_not_requested": [
    "builder_meta",
    "nsites",
    "elements",
    "nelements",
    "composition",
    "composition_reduced",
    "chemsys",
    "symmetry",
    "property_name",
    "deprecated",
    "deprecation_reasons",
    "last_updated",
    "origins",
    "warnings",
    "task_ids",
    "uncorrected_energy_per_atom",
    "equilibrium_reaction_energy_per_atom",
    "decomposes_to",
    "xas",
    "grain_boundaries",
    "cbm",
    "vbm",
    "is_gap_direct",
    "is_metal",
    "es_source_calc_id",
    "bandstructure",
    "dos",
    "dos_energy_up",
    "dos_energy_down",
    "is_magnetic",
    "ordering",
    "total_magnetization_normalized_vol",
    "total_magnetization_normalized_formula_units",
    "num_magnetic_sites",
    "num_unique_magnetic_sites",
    "types_of_magnetic_species",
    "bulk_modulus",
    "shear_modulus",
    "universal_anisotropy",
    "homogeneous_poisson",
    "e_total",
    "e_ionic",
    "e_electronic",
    "n",
    "e_ij_max",
    "weighted_surface_energy_EV_PER_ANG2",
    "weighted_surface_energy",
    "weighted_work_function",
    "surface_anisotropy",
    "shape_factor",
    "has_reconstructed",
    "possible_species",
    "has_props",
    "theoretical",
    "database_IDs"
  ]
}
