{
  "builder_meta": null,
  "nsites": null,
  "elements": null,
  "nelements": null,
  "composition": null,
  "composition_reduced": null,
  "formula_pretty": "Ce5Ir4",
  "formula_anonymous": "A4B5",
  "chemsys": null,
  "volume": 833.2473322151294,
  "density": 11.713572746043925,
  "density_atomic": 23.145759228198038,
  "symmetry": null,
  "property_name": null,
  "material_id": "mp-680536",
  "deprecated": null,
  "deprecation_reasons": null,
  "last_updated": null,
  "origins": null,
  "warnings": null,
  "structure": {
    "@module": "pymatgen.core.structure",
    "@class": "Structure",
    "charge": 0,
    "lattice": {
      "matrix": [
        [7.384472, 0.0, 0.0],
        [0.0, 7.593066, 0.0],
        [0.0, 0.0, 14.860633]
      ],
      "pbc": [true, true, true],
      "a": 7.384472,
      "b": 7.593066,
      "c": 14.860633,
      "alpha": 90.0,
      "beta": 90.0,
      "gamma": 90.0,
      "volume": 833.2473322151294
    },
    "properties": {},
    "sites": [
      {
        "species": [{ "element": "Ce", "occu": 1 }],
        "abc": [0.510701, 0.321117999999999, 0.907443999999999],
        "properties": { "magmom": 0.5690000000000001 },
        "label": "Ce",
        "xyz": [3.7712572348719995, 2.4382701677879925, 13.485192252051986]
      },
      {
        "species": [{ "element": "Ce", "occu": 1 }],
        "abc": [0.320611, 0.021419, 0.75],
        "properties": { "magmom": 0.437 },
        "label": "Ce",
        "xyz": [2.3675429523919997, 0.162635880654, 11.14547475]
      },
      {
        "species": [{ "element": "Ce", "occu": 1 }],
        "abc": [0.340850999999999, 0.166017, 0.378941],
        "properties": { "magmom": 0.251 },
        "label": "Ce",
        "xyz": [2.5170046656719927, 1.260578038122, 5.631303129652999]
      },
      {
        "species": [{ "element": "Ce", "occu": 1 }],
        "abc": [0.659149, 0.833982999999999, 0.878941],
        "properties": { "magmom": 0.251 },
        "label": "Ce",
        "xyz": [4.8674673343279995, 6.332487961877993, 13.061619629653]
      },
      {
        "species": [{ "element": "Ce", "occu": 1 }],
        "abc": [0.010700999999999001, 0.17888199999999901, 0.907443999999999],
        "properties": { "magmom": 0.549 },
        "label": "Ce",
        "xyz": [0.07902123487199263, 1.3582628322119925, 13.485192252051986]
      },
      {
        "species": [{ "element": "Ce", "occu": 1 }],
        "abc": [0.159148999999999, 0.666017, 0.878941],
        "properties": { "magmom": 0.272 },
        "label": "Ce",
        "xyz": [1.1752313343279928, 5.057111038122, 13.061619629653]
      },
      {
        "species": [{ "element": "Ce", "occu": 1 }],
        "abc": [0.989298999999999, 0.821118, 0.407444],
        "properties": { "magmom": 0.549 },
        "label": "Ce",
        "xyz": [7.3054507651279925, 6.234803167788001, 6.054875752051999]
      },
      {
        "species": [{ "element": "Ce", "occu": 1 }],
        "abc": [0.820611, 0.478581, 0.75],
        "properties": { "magmom": 0.437 },
        "label": "Ce",
        "xyz": [6.059778952392, 3.633897119346, 11.14547475]
      },
      {
        "species": [{ "element": "Ce", "occu": 1 }],
        "abc": [0.840851, 0.333983, 0.378941],
        "properties": { "magmom": 0.272 },
        "label": "Ce",
        "xyz": [6.209240665672, 2.5359549618779997, 5.631303129652999]
      },
      {
        "species": [{ "element": "Ce", "occu": 1 }],
        "abc": [0.489299, 0.678882, 0.092556],
        "properties": { "magmom": 0.5690000000000001 },
        "label": "Ce",
        "xyz": [3.6132147651279998, 5.154795832212, 1.375440747948]
      },
      {
        "species": [{ "element": "Ce", "occu": 1 }],
        "abc": [0.489299, 0.678882, 0.407444],
        "properties": { "magmom": 0.5690000000000001 },
        "label": "Ce",
        "xyz": [3.6132147651279998, 5.154795832212, 6.054875752051999]
      },
      {
        "species": [{ "element": "Ce", "occu": 1 }],
        "abc": [0.659149, 0.833982999999999, 0.621058999999999],
        "properties": { "magmom": 0.251 },
        "label": "Ce",
        "xyz": [4.8674673343279995, 6.332487961877993, 9.229329870346985]
      },
      {
        "species": [{ "element": "Ce", "occu": 1 }],
        "abc": [0.840851, 0.333983, 0.121059],
        "properties": { "magmom": 0.272 },
        "label": "Ce",
        "xyz": [6.209240665672, 2.5359549618779997, 1.799013370347]
      },
      {
        "species": [{ "element": "Ce", "occu": 1 }],
        "abc": [0.510701, 0.321117999999999, 0.592556],
        "properties": { "magmom": 0.5690000000000001 },
        "label": "Ce",
        "xyz": [3.7712572348719995, 2.4382701677879925, 8.805757247948]
      },
      {
        "species": [{ "element": "Ce", "occu": 1 }],
        "abc": [0.010700999999999001, 0.17888199999999901, 0.592556],
        "properties": { "magmom": 0.549 },
        "label": "Ce",
        "xyz": [0.07902123487199263, 1.3582628322119925, 8.805757247948]
      },
      {
        "species": [{ "element": "Ce", "occu": 1 }],
        "abc": [0.679389, 0.978580999999999, 0.25],
        "properties": { "magmom": 0.437 },
        "label": "Ce",
        "xyz": [5.0169290476079995, 7.430430119345993, 3.71515825]
      },
      {
        "species": [{ "element": "Ce", "occu": 1 }],
        "abc": [0.989298999999999, 0.821118, 0.092556],
        "properties": { "magmom": 0.549 },
        "label": "Ce",
        "xyz": [7.3054507651279925, 6.234803167788001, 1.375440747948]
      },
      {
        "species": [{ "element": "Ce", "occu": 1 }],
        "abc": [0.340850999999999, 0.166017, 0.121059],
        "properties": { "magmom": 0.251 },
        "label": "Ce",
        "xyz": [2.5170046656719927, 1.260578038122, 1.799013370347]
      },
      {
        "species": [{ "element": "Ce", "occu": 1 }],
        "abc": [0.179389, 0.521419, 0.25],
        "properties": { "magmom": 0.437 },
        "label": "Ce",
        "xyz": [1.3246930476079999, 3.959168880654, 3.71515825]
      },
      {
        "species": [{ "element": "Ce", "occu": 1 }],
        "abc": [0.159148999999999, 0.666017, 0.621058999999999],
        "properties": { "magmom": 0.272 },
        "label": "Ce",
        "xyz": [1.1752313343279928, 5.057111038122, 9.229329870346985]
      },
      {
        "species": [{ "element": "Ir", "occu": 1 }],
        "abc": [0.692095, 0.13991, 0.75],
        "properties": { "magmom": -0.028 },
        "label": "Ir",
        "xyz": [5.11075614884, 1.06234586406, 11.14547475]
      },
      {
        "species": [{ "element": "Ir", "occu": 1 }],
        "abc": [0.314073999999999, 0.962750999999999, 0.961525],
        "properties": { "magmom": -0.034 },
        "label": "Ir",
        "xyz": [2.3192706589279926, 7.310231884565993, 14.288870145325]
      },
      {
        "species": [{ "element": "Ir", "occu": 1 }],
        "abc": [0.685925999999999, 0.037249, 0.038474999999999],
        "properties": { "magmom": -0.034 },
        "label": "Ir",
        "xyz": [5.065201341071993, 0.282834115434, 0.5717628546749852]
      },
      {
        "species": [{ "element": "Ir", "occu": 1 }],
        "abc": [0.814074, 0.537249, 0.538474999999999],
        "properties": { "magmom": -0.033 },
        "label": "Ir",
        "xyz": [6.011506658927999, 4.079367115434, 8.002079354674986]
      },
      {
        "species": [{ "element": "Ir", "occu": 1 }],
        "abc": [0.307905, 0.86009, 0.25],
        "properties": { "magmom": -0.028 },
        "label": "Ir",
        "xyz": [2.27371585116, 6.53072013594, 3.71515825]
      },
      {
        "species": [{ "element": "Ir", "occu": 1 }],
        "abc": [0.185925999999999, 0.462750999999999, 0.038474999999999],
        "properties": { "magmom": -0.033 },
        "label": "Ir",
        "xyz": [1.3729653410719926, 3.5136988845659927, 0.5717628546749852]
      },
      {
        "species": [{ "element": "Ir", "occu": 1 }],
        "abc": [0.460399, 0.620653999999999, 0.75],
        "properties": { "magmom": -0.019 },
        "label": "Ir",
        "xyz": [3.399803524328, 4.712666785163993, 11.14547475]
      },
      {
        "species": [{ "element": "Ir", "occu": 1 }],
        "abc": [0.039601, 0.120654, 0.25],
        "properties": { "magmom": -0.024 },
        "label": "Ir",
        "xyz": [0.292432475672, 0.916133785164, 3.71515825]
      },
      {
        "species": [{ "element": "Ir", "occu": 1 }],
        "abc": [0.960399, 0.879346, 0.75],
        "properties": { "magmom": -0.024 },
        "label": "Ir",
        "xyz": [7.0920395243279994, 6.676932214836, 11.14547475]
      },
      {
        "species": [{ "element": "Ir", "occu": 1 }],
        "abc": [0.314073999999999, 0.962750999999999, 0.538474999999999],
        "properties": { "magmom": -0.034 },
        "label": "Ir",
        "xyz": [2.3192706589279926, 7.310231884565993, 8.002079354674986]
      },
      {
        "species": [{ "element": "Ir", "occu": 1 }],
        "abc": [0.539601, 0.379345999999999, 0.25],
        "properties": { "magmom": -0.019 },
        "label": "Ir",
        "xyz": [3.9846684756719997, 2.8803992148359927, 3.71515825]
      },
      {
        "species": [{ "element": "Ir", "occu": 1 }],
        "abc": [0.807905, 0.6399100000000001, 0.25],
        "properties": { "magmom": -0.024 },
        "label": "Ir",
        "xyz": [5.96595185116, 4.858878864060001, 3.71515825]
      },
      {
        "species": [{ "element": "Ir", "occu": 1 }],
        "abc": [0.685925999999999, 0.037249, 0.461524999999999],
        "properties": { "magmom": -0.034 },
        "label": "Ir",
        "xyz": [5.065201341071993, 0.282834115434, 6.858553645324985]
      },
      {
        "species": [{ "element": "Ir", "occu": 1 }],
        "abc": [0.192095, 0.36009, 0.75],
        "properties": { "magmom": -0.024 },
        "label": "Ir",
        "xyz": [1.4185201488399999, 2.73418713594, 11.14547475]
      },
      {
        "species": [{ "element": "Ir", "occu": 1 }],
        "abc": [0.814074, 0.537249, 0.961525],
        "properties": { "magmom": -0.033 },
        "label": "Ir",
        "xyz": [6.011506658927999, 4.079367115434, 14.288870145325]
      },
      {
        "species": [{ "element": "Ir", "occu": 1 }],
        "abc": [0.185925999999999, 0.462750999999999, 0.461524999999999],
        "properties": { "magmom": -0.033 },
        "label": "Ir",
        "xyz": [1.3729653410719926, 3.5136988845659927, 6.858553645324985]
      }
    ]
  },
  "task_ids": null,
  "uncorrected_energy_per_atom": null,
  "energy_per_atom": -7.950962118055555,
  "formation_energy_per_atom": -0.7244636658333311,
  "energy_above_hull": 0.0,
  "is_stable": true,
  "equilibrium_reaction_energy_per_atom": null,
  "decomposes_to": null,
  "xas": null,
  "grain_boundaries": null,
  "band_gap": 0.0,
  "cbm": null,
  "vbm": null,
  "efermi": 8.35454637,
  "is_gap_direct": null,
  "is_metal": null,
  "es_source_calc_id": null,
  "bandstructure": null,
  "dos": null,
  "dos_energy_up": null,
  "dos_energy_down": null,
  "is_magnetic": null,
  "ordering": null,
  "total_magnetization": 9.9307219,
  "total_magnetization_normalized_vol": null,
  "total_magnetization_normalized_formula_units": null,
  "num_magnetic_sites": null,
  "num_unique_magnetic_sites": null,
  "types_of_magnetic_species": null,
  "bulk_modulus": null,
  "shear_modulus": null,
  "universal_anisotropy": null,
  "homogeneous_poisson": null,
  "e_total": null,
  "e_ionic": null,
  "e_electronic": null,
  "n": null,
  "e_ij_max": null,
  "weighted_surface_energy_EV_PER_ANG2": null,
  "weighted_surface_energy": null,
  "weighted_work_function": null,
  "surface_anisotropy": null,
  "shape_factor": null,
  "has_reconstructed": null,
  "possible_species": null,
  "has_props": null,
  "theoretical": null,
  "database_IDs": null,
  "fields_not_requested": [
    "builder_meta",
    "nsites",
    "elements",
    "nelements",
    "composition",
    "composition_reduced",
    "chemsys",
    "symmetry",
    "property_name",
    "deprecated",
    "deprecation_reasons",
    "last_updated",
    "origins",
    "warnings",
    "task_ids",
    "uncorrected_energy_per_atom",
    "equilibrium_reaction_energy_per_atom",
    "decomposes_to",
    "xas",
    "grain_boundaries",
    "cbm",
    "vbm",
    "is_gap_direct",
    "is_metal",
    "es_source_calc_id",
    "bandstructure",
    "dos",
    "dos_energy_up",
    "dos_energy_down",
    "is_magnetic",
    "ordering",
    "total_magnetization_normalized_vol",
    "total_magnetization_normalized_formula_units",
    "num_magnetic_sites",
    "num_unique_magnetic_sites",
    "types_of_magnetic_species",
    "bulk_modulus",
    "shear_modulus",
    "universal_anisotropy",
    "homogeneous_poisson",
    "e_total",
    "e_ionic",
    "e_electronic",
    "n",
    "e_ij_max",
    "weighted_surface_energy_EV_PER_ANG2",
    "weighted_surface_energy",
    "weighted_work_function",
    "surface_anisotropy",
    "shape_factor",
    "has_reconstructed",
    "possible_species",
    "has_props",
    "theoretical",
    "database_IDs"
  ]
}
