{"builder_meta": null, "nsites": null, "elements": null, "nelements": null, "composition": null, "composition_reduced": null, "formula_pretty": "Ce5Pb3", "formula_anonymous": "A3B5", "chemsys": null, "volume": 507.3320604113373, "density": 8.655205197546882, "density_atomic": 31.70825377570858, "symmetry": null, "property_name": null, "material_id": "mp-1190312", "deprecated": null, "deprecation_reasons": null, "last_updated": null, "origins": null, "warnings": null, "structure": {"@module": "pymatgen.core.structure", "@class": "Structure", "charge": 0, "lattice": {"matrix": [[9.49462, 0.0, 0.0], [-4.74731, 8.222582, 0.0], [0.0, 0.0, 6.498401]], "pbc": [true, true, true], "a": 9.49462, "b": 9.494619896700657, "c": 6.498401, "alpha": 90.0, "beta": 90.0, "gamma": 120.0000003599001, "volume": 507.3320604113373}, "properties": {}, "sites": [{"species": [{"element": "Ce", "occu": 1}], "abc": [0.666667, 0.333333, 0.0], "properties": {"magmom": 1.07}, "label": "Ce", "xyz": [4.74731474731, 2.7408579258059995, 0.0]}, {"species": [{"element": "Ce", "occu": 1}], "abc": [0.333333, 0.666667, 0.0], "properties": {"magmom": 1.07}, "label": "Ce", "xyz": [-4.747310000219329e-06, 5.481724074193999, 0.0]}, {"species": [{"element": "Ce", "occu": 1}], "abc": [0.333333, 0.666667, 0.5], "properties": {"magmom": 1.07}, "label": "Ce", "xyz": [-4.747310000219329e-06, 5.481724074193999, 3.2492005]}, {"species": [{"element": "Ce", "occu": 1}], "abc": [0.666667, 0.333333, 0.5], "properties": {"magmom": 1.07}, "label": "Ce", "xyz": [4.74731474731, 2.7408579258059995, 3.2492005]}, {"species": [{"element": "Ce", "occu": 1}], "abc": [0.746119, 0.746119, 0.75], "properties": {"magmom": 1.024}, "label": "Ce", "xyz": [3.5420581898899997, 6.135024659257999, 4.87380075]}, {"species": [{"element": "Ce", "occu": 1}], "abc": [0.253880999999999, 0.0, 0.75], "properties": {"magmom": 1.024}, "label": "Ce", "xyz": [2.4105036202199908, 0.0, 4.87380075]}, {"species": [{"element": "Ce", "occu": 1}], "abc": [0.0, 0.253880999999999, 0.75], "properties": {"magmom": 1.024}, "label": "Ce", "xyz": [-1.2052518101099954, 2.087557340741992, 4.87380075]}, {"species": [{"element": "Ce", "occu": 1}], "abc": [0.253880999999999, 0.253880999999999, 0.25], "properties": {"magmom": 1.024}, "label": "Ce", "xyz": [1.2052518101099954, 2.087557340741992, 1.62460025]}, {"species": [{"element": "Ce", "occu": 1}], "abc": [0.746119, 0.0, 0.25], "properties": {"magmom": 1.024}, "label": "Ce", "xyz": [7.084116379779999, 0.0, 1.62460025]}, {"species": [{"element": "Ce", "occu": 1}], "abc": [0.0, 0.746119, 0.25], "properties": {"magmom": 1.024}, "label": "Ce", "xyz": [-3.5420581898899997, 6.135024659257999, 1.62460025]}, {"species": [{"element": "Pb", "occu": 1}], "abc": [0.387469, 0.387469, 0.75], "properties": {"magmom": -0.05}, "label": "Pb", "xyz": [1.8394354583899999, 3.1859956249579997, 4.87380075]}, {"species": [{"element": "Pb", "occu": 1}], "abc": [0.612530999999999, 0.0, 0.75], "properties": {"magmom": -0.05}, "label": "Pb", "xyz": [5.81574908321999, 0.0, 4.87380075]}, {"species": [{"element": "Pb", "occu": 1}], "abc": [0.0, 0.612530999999999, 0.75], "properties": {"magmom": -0.05}, "label": "Pb", "xyz": [-2.907874541609995, 5.036586375041992, 4.87380075]}, {"species": [{"element": "Pb", "occu": 1}], "abc": [0.612530999999999, 0.612530999999999, 0.25], "properties": {"magmom": -0.05}, "label": "Pb", "xyz": [2.907874541609995, 5.036586375041992, 1.62460025]}, {"species": [{"element": "Pb", "occu": 1}], "abc": [0.387469, 0.0, 0.25], "properties": {"magmom": -0.05}, "label": "Pb", "xyz": [3.6788709167799998, 0.0, 1.62460025]}, {"species": [{"element": "Pb", "occu": 1}], "abc": [0.0, 0.387469, 0.25], "properties": {"magmom": -0.05}, "label": "Pb", "xyz": [-1.8394354583899999, 3.1859956249579997, 1.62460025]}]}, "task_ids": null, "uncorrected_energy_per_atom": null, "energy_per_atom": -5.43235077875, "formation_energy_per_atom": -0.329514458749996, "energy_above_hull": 0.0, "is_stable": true, "equilibrium_reaction_energy_per_atom": null, "decomposes_to": null, "xas": null, "grain_boundaries": null, "band_gap": 0.0, "cbm": null, "vbm": null, "efermi": 7.28510134, "is_gap_direct": null, "is_metal": null, "es_source_calc_id": null, "bandstructure": null, "dos": null, "dos_energy_up": null, "dos_energy_down": null, "is_magnetic": null, "ordering": null, "total_magnetization": 14.4050757, "total_magnetization_normalized_vol": null, "total_magnetization_normalized_formula_units": null, "num_magnetic_sites": null, "num_unique_magnetic_sites": null, "types_of_magnetic_species": null, "bulk_modulus": null, "shear_modulus": null, "universal_anisotropy": null, "homogeneous_poisson": null, "e_total": null, "e_ionic": null, "e_electronic": null, "n": null, "e_ij_max": null, "weighted_surface_energy_EV_PER_ANG2": null, "weighted_surface_energy": null, "weighted_work_function": null, "surface_anisotropy": null, "shape_factor": null, "has_reconstructed": null, "possible_species": null, "has_props": null, "theoretical": null, "database_IDs": null, "fields_not_requested": ["builder_meta", "nsites", "elements", "nelements", "composition", "composition_reduced", "chemsys", "symmetry", "property_name", "deprecated", "deprecation_reasons", "last_updated", "origins", "warnings", "task_ids", "uncorrected_energy_per_atom", "equilibrium_reaction_energy_per_atom", "decomposes_to", "xas", "grain_boundaries", "cbm", "vbm", "is_gap_direct", "is_metal", "es_source_calc_id", "bandstructure", "dos", "dos_energy_up", "dos_energy_down", "is_magnetic", "ordering", "total_magnetization_normalized_vol", "total_magnetization_normalized_formula_units", "num_magnetic_sites", "num_unique_magnetic_sites", "types_of_magnetic_species", "bulk_modulus", "shear_modulus", "universal_anisotropy", "homogeneous_poisson", "e_total", "e_ionic", "e_electronic", "n", "e_ij_max", "weighted_surface_energy_EV_PER_ANG2", "weighted_surface_energy", "weighted_work_function", "surface_anisotropy", "shape_factor", "has_reconstructed", "possible_species", "has_props", "theoretical", "database_IDs"]}