{
  "builder_meta": null,
  "nsites": null,
  "elements": null,
  "nelements": null,
  "composition": null,
  "composition_reduced": null,
  "formula_pretty": "Ce5Rh4",
  "formula_anonymous": "A4B5",
  "chemsys": null,
  "volume": 833.519209442372,
  "density": 8.862926493013674,
  "density_atomic": 23.153311373399223,
  "symmetry": null,
  "property_name": null,
  "material_id": "mp-680602",
  "deprecated": null,
  "deprecation_reasons": null,
  "last_updated": null,
  "origins": null,
  "warnings": null,
  "structure": {
    "@module": "pymatgen.core.structure",
    "@class": "Structure",
    "charge": 0,
    "lattice": {
      "matrix": [
        [7.356157, 0.0, 0.0],
        [0.0, 7.515946, 0.0],
        [0.0, 0.0, 15.075821]
      ],
      "pbc": [true, true, true],
      "a": 7.356157,
      "b": 7.515946,
      "c": 15.075821,
      "alpha": 90.0,
      "beta": 90.0,
      "gamma": 90.0,
      "volume": 833.519209442372
    },
    "properties": {},
    "sites": [
      {
        "species": [{ "element": "Ce", "occu": 1 }],
        "abc": [0.011540000000000002, 0.67852, 0.09088399999999901],
        "properties": { "magmom": 0.657 },
        "label": "Ce",
        "xyz": [0.08489005178, 5.09971967992, 1.370150915763985]
      },
      {
        "species": [{ "element": "Ce", "occu": 1 }],
        "abc": [0.83457, 0.834573999999999, 0.621707999999999],
        "properties": { "magmom": 0.431 },
        "label": "Ce",
        "xyz": [6.13922794749, 6.272613117003992, 9.372758522267985]
      },
      {
        "species": [{ "element": "Ce", "occu": 1 }],
        "abc": [0.9884600000000001, 0.32148000000000004, 0.590884],
        "properties": { "magmom": 0.657 },
        "label": "Ce",
        "xyz": [7.27126694822, 2.4162263200800003, 8.908061415764]
      },
      {
        "species": [{ "element": "Ce", "occu": 1 }],
        "abc": [0.178055, 0.026473999999999002, 0.75],
        "properties": { "magmom": 0.441 },
        "label": "Ce",
        "xyz": [1.309800534635, 0.1989771544039925, 11.30686575]
      },
      {
        "species": [{ "element": "Ce", "occu": 1 }],
        "abc": [0.51154, 0.8214800000000001, 0.409116],
        "properties": { "magmom": 0.677 },
        "label": "Ce",
        "xyz": [3.76296855178, 6.1741993200800005, 6.167759584235999]
      },
      {
        "species": [{ "element": "Ce", "occu": 1 }],
        "abc": [0.48846000000000006, 0.17852, 0.590884],
        "properties": { "magmom": 0.677 },
        "label": "Ce",
        "xyz": [3.5931884482200003, 1.34174667992, 8.908061415764]
      },
      {
        "species": [{ "element": "Ce", "occu": 1 }],
        "abc": [0.16543000000000002, 0.165426, 0.378291999999999],
        "properties": { "magmom": 0.431 },
        "label": "Ce",
        "xyz": [1.21692905251, 1.2433328829959998, 5.703062477731985]
      },
      {
        "species": [{ "element": "Ce", "occu": 1 }],
        "abc": [0.33457000000000003, 0.665426, 0.878292],
        "properties": { "magmom": 0.405 },
        "label": "Ce",
        "xyz": [2.46114944749, 5.001305882995999, 13.240972977732]
      },
      {
        "species": [{ "element": "Ce", "occu": 1 }],
        "abc": [0.678055, 0.473526, 0.75],
        "properties": { "magmom": 0.441 },
        "label": "Ce",
        "xyz": [4.987879034634999, 3.558995845596, 11.30686575]
      },
      {
        "species": [{ "element": "Ce", "occu": 1 }],
        "abc": [0.33457000000000003, 0.665426, 0.621707999999999],
        "properties": { "magmom": 0.405 },
        "label": "Ce",
        "xyz": [2.46114944749, 5.001305882995999, 9.372758522267985]
      },
      {
        "species": [{ "element": "Ce", "occu": 1 }],
        "abc": [0.011540000000000002, 0.67852, 0.409116],
        "properties": { "magmom": 0.657 },
        "label": "Ce",
        "xyz": [0.08489005178, 5.09971967992, 6.167759584235999]
      },
      {
        "species": [{ "element": "Ce", "occu": 1 }],
        "abc": [0.48846000000000006, 0.17852, 0.909115999999999],
        "properties": { "magmom": 0.677 },
        "label": "Ce",
        "xyz": [3.5931884482200003, 1.34174667992, 13.705670084235985]
      },
      {
        "species": [{ "element": "Ce", "occu": 1 }],
        "abc": [0.821944999999999, 0.973526, 0.25],
        "properties": { "magmom": 0.441 },
        "label": "Ce",
        "xyz": [6.046356465364992, 7.316968845596, 3.76895525]
      },
      {
        "species": [{ "element": "Ce", "occu": 1 }],
        "abc": [0.51154, 0.8214800000000001, 0.09088399999999901],
        "properties": { "magmom": 0.677 },
        "label": "Ce",
        "xyz": [3.76296855178, 6.1741993200800005, 1.370150915763985]
      },
      {
        "species": [{ "element": "Ce", "occu": 1 }],
        "abc": [0.9884600000000001, 0.32148000000000004, 0.909115999999999],
        "properties": { "magmom": 0.657 },
        "label": "Ce",
        "xyz": [7.27126694822, 2.4162263200800003, 13.705670084235985]
      },
      {
        "species": [{ "element": "Ce", "occu": 1 }],
        "abc": [0.83457, 0.834573999999999, 0.878292],
        "properties": { "magmom": 0.431 },
        "label": "Ce",
        "xyz": [6.13922794749, 6.272613117003992, 13.240972977732]
      },
      {
        "species": [{ "element": "Ce", "occu": 1 }],
        "abc": [0.6654300000000001, 0.334574, 0.121708],
        "properties": { "magmom": 0.405 },
        "label": "Ce",
        "xyz": [4.89500755251, 2.514640117004, 1.834848022268]
      },
      {
        "species": [{ "element": "Ce", "occu": 1 }],
        "abc": [0.16543000000000002, 0.165426, 0.121708],
        "properties": { "magmom": 0.431 },
        "label": "Ce",
        "xyz": [1.21692905251, 1.2433328829959998, 1.834848022268]
      },
      {
        "species": [{ "element": "Ce", "occu": 1 }],
        "abc": [0.6654300000000001, 0.334574, 0.378291999999999],
        "properties": { "magmom": 0.405 },
        "label": "Ce",
        "xyz": [4.89500755251, 2.514640117004, 5.703062477731985]
      },
      {
        "species": [{ "element": "Ce", "occu": 1 }],
        "abc": [0.321945, 0.526474, 0.25],
        "properties": { "magmom": 0.441 },
        "label": "Ce",
        "xyz": [2.368277965365, 3.9569501544039998, 3.76895525]
      },
      {
        "species": [{ "element": "Rh", "occu": 1 }],
        "abc": [0.027902, 0.621964, 0.75],
        "properties": { "magmom": -0.041 },
        "label": "Rh",
        "xyz": [0.205251492614, 4.674647837944, 11.30686575]
      },
      {
        "species": [{ "element": "Rh", "occu": 1 }],
        "abc": [0.812910999999999, 0.033831, 0.460582999999999],
        "properties": { "magmom": -0.057 },
        "label": "Rh",
        "xyz": [5.979900943026992, 0.254271969126, 6.943666863642985]
      },
      {
        "species": [{ "element": "Rh", "occu": 1 }],
        "abc": [0.472097999999999, 0.121963999999999, 0.25],
        "properties": { "magmom": -0.04 },
        "label": "Rh",
        "xyz": [3.472827007385993, 0.9166748379439925, 3.76895525]
      },
      {
        "species": [{ "element": "Rh", "occu": 1 }],
        "abc": [0.187089, 0.966169, 0.960583],
        "properties": { "magmom": -0.057 },
        "label": "Rh",
        "xyz": [1.376256056973, 7.2616740308739995, 14.481577363642998]
      },
      {
        "species": [{ "element": "Rh", "occu": 1 }],
        "abc": [0.693023, 0.64087, 0.25],
        "properties": { "magmom": -0.051000000000000004 },
        "label": "Rh",
        "xyz": [5.097985992610999, 4.81674431302, 3.76895525]
      },
      {
        "species": [{ "element": "Rh", "occu": 1 }],
        "abc": [0.306977, 0.35913, 0.75],
        "properties": { "magmom": -0.051000000000000004 },
        "label": "Rh",
        "xyz": [2.258171007389, 2.69920168698, 11.30686575]
      },
      {
        "species": [{ "element": "Rh", "occu": 1 }],
        "abc": [0.9720979999999991, 0.378036, 0.25],
        "properties": { "magmom": -0.041 },
        "label": "Rh",
        "xyz": [7.1509055073859935, 2.841298162056, 3.76895525]
      },
      {
        "species": [{ "element": "Rh", "occu": 1 }],
        "abc": [0.687089, 0.5338309999999991, 0.539416999999999],
        "properties": { "magmom": -0.054 },
        "label": "Rh",
        "xyz": [5.054334556972999, 4.012244969125993, 8.132154136356986]
      },
      {
        "species": [{ "element": "Rh", "occu": 1 }],
        "abc": [0.312911, 0.466169, 0.039417],
        "properties": { "magmom": -0.054 },
        "label": "Rh",
        "xyz": [2.301822443027, 3.5037010308739998, 0.594243636357]
      },
      {
        "species": [{ "element": "Rh", "occu": 1 }],
        "abc": [0.312911, 0.466169, 0.460582999999999],
        "properties": { "magmom": -0.054 },
        "label": "Rh",
        "xyz": [2.301822443027, 3.5037010308739998, 6.943666863642985]
      },
      {
        "species": [{ "element": "Rh", "occu": 1 }],
        "abc": [0.527902, 0.878035999999999, 0.75],
        "properties": { "magmom": -0.04 },
        "label": "Rh",
        "xyz": [3.8833299926139997, 6.5992711620559925, 11.30686575]
      },
      {
        "species": [{ "element": "Rh", "occu": 1 }],
        "abc": [0.687089, 0.5338309999999991, 0.960583],
        "properties": { "magmom": -0.054 },
        "label": "Rh",
        "xyz": [5.054334556972999, 4.012244969125993, 14.481577363642998]
      },
      {
        "species": [{ "element": "Rh", "occu": 1 }],
        "abc": [0.812910999999999, 0.033831, 0.039417],
        "properties": { "magmom": -0.057 },
        "label": "Rh",
        "xyz": [5.979900943026992, 0.254271969126, 0.594243636357]
      },
      {
        "species": [{ "element": "Rh", "occu": 1 }],
        "abc": [0.8069769999999991, 0.14087000000000002, 0.75],
        "properties": { "magmom": -0.05 },
        "label": "Rh",
        "xyz": [5.936249507388993, 1.05877131302, 11.30686575]
      },
      {
        "species": [{ "element": "Rh", "occu": 1 }],
        "abc": [0.187089, 0.966169, 0.539416999999999],
        "properties": { "magmom": -0.057 },
        "label": "Rh",
        "xyz": [1.376256056973, 7.2616740308739995, 8.132154136356986]
      },
      {
        "species": [{ "element": "Rh", "occu": 1 }],
        "abc": [0.193023, 0.8591300000000001, 0.25],
        "properties": { "magmom": -0.05 },
        "label": "Rh",
        "xyz": [1.419907492611, 6.45717468698, 3.76895525]
      }
    ]
  },
  "task_ids": null,
  "uncorrected_energy_per_atom": null,
  "energy_per_atom": -28.551305480000003,
  "formation_energy_per_atom": -0.6904101111111091,
  "energy_above_hull": 0.024868928888885002,
  "is_stable": false,
  "equilibrium_reaction_energy_per_atom": null,
  "decomposes_to": null,
  "xas": null,
  "grain_boundaries": null,
  "band_gap": 0.0,
  "cbm": null,
  "vbm": null,
  "efermi": 7.73292501,
  "is_gap_direct": null,
  "is_metal": null,
  "es_source_calc_id": null,
  "bandstructure": null,
  "dos": null,
  "dos_energy_up": null,
  "dos_energy_down": null,
  "is_magnetic": null,
  "ordering": null,
  "total_magnetization": 12.3262419,
  "total_magnetization_normalized_vol": null,
  "total_magnetization_normalized_formula_units": null,
  "num_magnetic_sites": null,
  "num_unique_magnetic_sites": null,
  "types_of_magnetic_species": null,
  "bulk_modulus": null,
  "shear_modulus": null,
  "universal_anisotropy": null,
  "homogeneous_poisson": null,
  "e_total": null,
  "e_ionic": null,
  "e_electronic": null,
  "n": null,
  "e_ij_max": null,
  "weighted_surface_energy_EV_PER_ANG2": null,
  "weighted_surface_energy": null,
  "weighted_work_function": null,
  "surface_anisotropy": null,
  "shape_factor": null,
  "has_reconstructed": null,
  "possible_species": null,
  "has_props": null,
  "theoretical": null,
  "database_IDs": null,
  "fields_not_requested": [
    "builder_meta",
    "nsites",
    "elements",
    "nelements",
    "composition",
    "composition_reduced",
    "chemsys",
    "symmetry",
    "property_name",
    "deprecated",
    "deprecation_reasons",
    "last_updated",
    "origins",
    "warnings",
    "task_ids",
    "uncorrected_energy_per_atom",
    "equilibrium_reaction_energy_per_atom",
    "decomposes_to",
    "xas",
    "grain_boundaries",
    "cbm",
    "vbm",
    "is_gap_direct",
    "is_metal",
    "es_source_calc_id",
    "bandstructure",
    "dos",
    "dos_energy_up",
    "dos_energy_down",
    "is_magnetic",
    "ordering",
    "total_magnetization_normalized_vol",
    "total_magnetization_normalized_formula_units",
    "num_magnetic_sites",
    "num_unique_magnetic_sites",
    "types_of_magnetic_species",
    "bulk_modulus",
    "shear_modulus",
    "universal_anisotropy",
    "homogeneous_poisson",
    "e_total",
    "e_ionic",
    "e_electronic",
    "n",
    "e_ij_max",
    "weighted_surface_energy_EV_PER_ANG2",
    "weighted_surface_energy",
    "weighted_work_function",
    "surface_anisotropy",
    "shape_factor",
    "has_reconstructed",
    "possible_species",
    "has_props",
    "theoretical",
    "database_IDs"
  ]
}
