{"builder_meta": null, "nsites": null, "elements": null, "nelements": null, "composition": null, "composition_reduced": null, "formula_pretty": "Ce5Si3", "formula_anonymous": "A3B5", "chemsys": null, "volume": 401.14254593638077, "density": 6.497698548038333, "density_atomic": 25.071409121023798, "symmetry": null, "property_name": null, "material_id": "mp-570175", "deprecated": null, "deprecation_reasons": null, "last_updated": null, "origins": null, "warnings": null, "structure": {"@module": "pymatgen.core.structure", "@class": "Structure", "charge": 0, "lattice": {"matrix": [[-3.92537299, 3.92482972, 6.5029686], [3.924809439999999, -3.92535552, 6.5029463], [3.92924476, 3.92922689, -6.5032806]], "pbc": [true, true, true], "a": 8.549938131600882, "b": 8.549903840359333, "c": 8.553972580001815, "alpha": 125.32935082704013, "beta": 125.32945130932315, "gamma": 80.96807891717133, "volume": 401.14254593638077}, "properties": {}, "sites": [{"species": [{"element": "Ce", "occu": 1}], "abc": [0.5292506, 0.6654086100000001, 0.50000544], "properties": {"magmom": 1.07}, "label": "Ce", "xyz": [2.4987397388954786, 1.4298879438830858, 4.51714081387234]}, {"species": [{"element": "Ce", "occu": 1}], "abc": [0.83461336, 0.97076692, 0.50002986], "properties": {"magmom": 1.07}, "label": "Ce", "xyz": [2.498646138467111, 1.4298408036965962, 8.488475135838176]}, {"species": [{"element": "Ce", "occu": 1}], "abc": [0.33427373, 0.83428705, 0.86391261], "properties": {"magmom": 1.065}, "label": "Ce", "xyz": [5.356792714441623, 1.431602850959322, 1.9808293382219269]}, {"species": [{"element": "Ce", "occu": 1}], "abc": [0.47077596, 0.334600599999999, 0.50000978], "properties": {"magmom": 1.07}, "label": "Ce", "xyz": [1.429933163798092, 2.498941039903207, 1.9856271171783622]}, {"species": [{"element": "Ce", "occu": 1}], "abc": [0.16540086, 0.02922756, 0.49999562000000003], "properties": {"magmom": 1.069}, "label": "Ce", "xyz": [1.4300577049373464, 2.49903788204565, -1.985949963477948]}, {"species": [{"element": "Ce", "occu": 1}], "abc": [0.499985099999999, 0.50000837, -1.04e-06], "properties": {"magmom": 1.201}, "label": "Ce", "xyz": [-0.00019452270198338234, -0.0003583215844997688, 6.502921748840209]}, {"species": [{"element": "Ce", "occu": 1}], "abc": [0.97047039, 0.47047351, 0.13619051000000001], "properties": {"magmom": 1.064}, "label": "Ce", "xyz": [-1.4278135354036046, 2.4972786536145297, 8.484717342915161]}, {"species": [{"element": "Ce", "occu": 1}], "abc": [0.66570361, 0.1656997, 0.13608145], "properties": {"magmom": 1.065}, "label": "Ce", "xyz": [-1.4280978989286246, 2.4970379737521355, 4.5216100699578865]}, {"species": [{"element": "Ce", "occu": 1}], "abc": [1.565e-05, 0.9999538800000001, -2.6970000000000004e-05], "properties": {"magmom": 1.201}, "label": "Ce", "xyz": [3.9244610239701556, -3.925219030267523, 6.502923549053016]}, {"species": [{"element": "Ce", "occu": 1}], "abc": [0.02953731, 0.5295525600000001, 0.8638047400000001], "properties": {"magmom": 1.064}, "label": "Ce", "xyz": [5.356548175901072, 1.43133165972818, -1.9818325476640504]}, {"species": [{"element": "Si", "occu": 1}], "abc": [0.8881231700000001, 0.61185225, 0.49997344], "properties": {"magmom": -0.045}, "label": "Si", "xyz": [0.8797068026332353, 3.048503690408494, 6.502811839859373]}, {"species": [{"element": "Si", "occu": 1}], "abc": [0.38820392000000004, 0.888176499999999, 0.27644087], "properties": {"magmom": -0.045}, "label": "Si", "xyz": [3.0482821693033757, -0.8765753444737794, 6.502469439660734]}, {"species": [{"element": "Si", "occu": 1}], "abc": [0.61187229, 0.11181984, 0.72364287], "properties": {"magmom": -0.045}, "label": "Si", "xyz": [0.8804145581747038, 4.805918946007716, 9.206607536338396e-05]}, {"species": [{"element": "Si", "occu": 1}], "abc": [0.11179454, 0.38814705, 0.49994589], "properties": {"magmom": -0.045}, "label": "Si", "xyz": [3.0489777067687136, 0.8795602023694948, -0.00019260156187472788]}, {"species": [{"element": "Si", "occu": 1}], "abc": [0.24995045000000002, 0.25002755, 0.9999939800000001], "properties": {"magmom": -0.082}, "label": "Si", "xyz": [3.929382849178271, 3.9287691671969203, -3.251905791174354]}, {"species": [{"element": "Si", "occu": 1}], "abc": [0.75002906, 0.74999605, 1.95e-06], "properties": {"magmom": -0.082}, "label": "Si", "xyz": [-0.0005445748090959506, -0.00025712730159734113, 9.754586783232462]}]}, "task_ids": null, "uncorrected_energy_per_atom": null, "energy_per_atom": -23.203134074375, "formation_energy_per_atom": -0.637579376249998, "energy_above_hull": 0.0, "is_stable": true, "equilibrium_reaction_energy_per_atom": null, "decomposes_to": null, "xas": null, "grain_boundaries": null, "band_gap": 0.0, "cbm": null, "vbm": null, "efermi": 8.28701619, "is_gap_direct": null, "is_metal": null, "es_source_calc_id": null, "bandstructure": null, "dos": null, "dos_energy_up": null, "dos_energy_down": null, "is_magnetic": null, "ordering": null, "total_magnetization": 14.0584866, "total_magnetization_normalized_vol": null, "total_magnetization_normalized_formula_units": null, "num_magnetic_sites": null, "num_unique_magnetic_sites": null, "types_of_magnetic_species": null, "bulk_modulus": null, "shear_modulus": null, "universal_anisotropy": null, "homogeneous_poisson": null, "e_total": null, "e_ionic": null, "e_electronic": null, "n": null, "e_ij_max": null, "weighted_surface_energy_EV_PER_ANG2": null, "weighted_surface_energy": null, "weighted_work_function": null, "surface_anisotropy": null, "shape_factor": null, "has_reconstructed": null, "possible_species": null, "has_props": null, "theoretical": null, "database_IDs": null, "fields_not_requested": ["builder_meta", "nsites", "elements", "nelements", "composition", "composition_reduced", "chemsys", "symmetry", "property_name", "deprecated", "deprecation_reasons", "last_updated", "origins", "warnings", "task_ids", "uncorrected_energy_per_atom", "equilibrium_reaction_energy_per_atom", "decomposes_to", "xas", "grain_boundaries", "cbm", "vbm", "is_gap_direct", "is_metal", "es_source_calc_id", "bandstructure", "dos", "dos_energy_up", "dos_energy_down", "is_magnetic", "ordering", "total_magnetization_normalized_vol", "total_magnetization_normalized_formula_units", "num_magnetic_sites", "num_unique_magnetic_sites", "types_of_magnetic_species", "bulk_modulus", "shear_modulus", "universal_anisotropy", "homogeneous_poisson", "e_total", "e_ionic", "e_electronic", "n", "e_ij_max", "weighted_surface_energy_EV_PER_ANG2", "weighted_surface_energy", "weighted_work_function", "surface_anisotropy", "shape_factor", "has_reconstructed", "possible_species", "has_props", "theoretical", "database_IDs"]}