{
  "builder_meta": null,
  "nsites": null,
  "elements": null,
  "nelements": null,
  "composition": null,
  "composition_reduced": null,
  "formula_pretty": "Ce5S8",
  "formula_anonymous": "A5B8",
  "chemsys": null,
  "volume": 411.021846653012,
  "density": 3.86670916299143,
  "density_atomic": 31.61706512715477,
  "symmetry": null,
  "property_name": null,
  "material_id": "mp-1226916",
  "deprecated": null,
  "deprecation_reasons": null,
  "last_updated": null,
  "origins": null,
  "warnings": null,
  "structure": {
    "@module": "pymatgen.core.structure",
    "@class": "Structure",
    "charge": 0,
    "lattice": {
      "matrix": [
        [0.0, 5.901263, 5.901263],
        [5.901263, 0.0, 5.901263],
        [5.901263, 5.901263, 0.0]
      ],
      "pbc": [true, true, true],
      "a": 8.345646169730538,
      "b": 8.345646169730538,
      "c": 8.345646169730538,
      "alpha": 59.99999999999999,
      "beta": 59.99999999999999,
      "gamma": 59.99999999999999,
      "volume": 411.021846653012
    },
    "properties": {},
    "sites": [
      {
        "species": [{ "element": "Ce", "occu": 1 }],
        "abc": [0.112679, 0.629107, 0.629107],
        "properties": { "magmom": 0.839 },
        "label": "Ce",
        "xyz": [7.4250517242819996, 4.377474275718, 4.377474275718]
      },
      {
        "species": [{ "element": "Ce", "occu": 1 }],
        "abc": [0.629107, 0.112679, 0.629107],
        "properties": { "magmom": 0.916 },
        "label": "Ce",
        "xyz": [4.377474275718, 7.4250517242819996, 4.377474275718]
      },
      {
        "species": [{ "element": "Ce", "occu": 1 }],
        "abc": [0.629107, 0.629107, 0.112679],
        "properties": { "magmom": 0.978 },
        "label": "Ce",
        "xyz": [4.377474275718, 4.377474275718, 7.4250517242819996]
      },
      {
        "species": [{ "element": "Ce", "occu": 1 }],
        "abc": [0.629107, 0.629107, 0.629107],
        "properties": { "magmom": 0.979 },
        "label": "Ce",
        "xyz": [7.4250517242819996, 7.4250517242819996, 7.4250517242819996]
      },
      {
        "species": [{ "element": "Ce", "occu": 1 }],
        "abc": [0.25, 0.25, 0.25],
        "properties": { "magmom": 0.20800000000000002 },
        "label": "Ce",
        "xyz": [2.9506315, 2.9506315, 2.9506315]
      },
      {
        "species": [{ "element": "S", "occu": 1 }],
        "abc": [0.845587, 0.384804, 0.384804],
        "properties": { "magmom": -0.023 },
        "label": "S",
        "xyz": [4.541659214904, 7.260860883833, 7.260860883833]
      },
      {
        "species": [{ "element": "S", "occu": 1 }],
        "abc": [0.384804, 0.845587, 0.384804],
        "properties": { "magmom": -0.022 },
        "label": "S",
        "xyz": [7.260860883833, 4.541659214904, 7.260860883833]
      },
      {
        "species": [{ "element": "S", "occu": 1 }],
        "abc": [0.384804, 0.384804, 0.845587],
        "properties": { "magmom": -0.021 },
        "label": "S",
        "xyz": [7.260860883833, 7.260860883833, 4.541659214904]
      },
      {
        "species": [{ "element": "S", "occu": 1 }],
        "abc": [0.384804, 0.384804, 0.384804],
        "properties": { "magmom": -0.021 },
        "label": "S",
        "xyz": [4.541659214904, 4.541659214904, 4.541659214904]
      },
      {
        "species": [{ "element": "S", "occu": 1 }],
        "abc": [0.417612, 0.860796, 0.860796],
        "properties": { "magmom": -0.026000000000000002 },
        "label": "S",
        "xyz": [10.159567170696, 7.544221829304, 7.544221829304]
      },
      {
        "species": [{ "element": "S", "occu": 1 }],
        "abc": [0.860796, 0.417612, 0.860796],
        "properties": { "magmom": -0.025 },
        "label": "S",
        "xyz": [7.544221829304, 10.159567170696, 7.544221829304]
      },
      {
        "species": [{ "element": "S", "occu": 1 }],
        "abc": [0.860796, 0.860796, 0.417612],
        "properties": { "magmom": -0.024 },
        "label": "S",
        "xyz": [7.544221829304, 7.544221829304, 10.159567170696]
      },
      {
        "species": [{ "element": "S", "occu": 1 }],
        "abc": [0.860796, 0.860796, 0.860796],
        "properties": { "magmom": -0.024 },
        "label": "S",
        "xyz": [10.159567170696, 10.159567170696, 10.159567170696]
      }
    ]
  },
  "task_ids": null,
  "uncorrected_energy_per_atom": null,
  "energy_per_atom": -19.017158658846153,
  "formation_energy_per_atom": -2.210763546730767,
  "energy_above_hull": 0.11501440903846201,
  "is_stable": false,
  "equilibrium_reaction_energy_per_atom": null,
  "decomposes_to": null,
  "xas": null,
  "grain_boundaries": null,
  "band_gap": 0.0,
  "cbm": null,
  "vbm": null,
  "efermi": 4.03655028,
  "is_gap_direct": null,
  "is_metal": null,
  "es_source_calc_id": null,
  "bandstructure": null,
  "dos": null,
  "dos_energy_up": null,
  "dos_energy_down": null,
  "is_magnetic": null,
  "ordering": null,
  "total_magnetization": 4.0124988,
  "total_magnetization_normalized_vol": null,
  "total_magnetization_normalized_formula_units": null,
  "num_magnetic_sites": null,
  "num_unique_magnetic_sites": null,
  "types_of_magnetic_species": null,
  "bulk_modulus": null,
  "shear_modulus": null,
  "universal_anisotropy": null,
  "homogeneous_poisson": null,
  "e_total": null,
  "e_ionic": null,
  "e_electronic": null,
  "n": null,
  "e_ij_max": null,
  "weighted_surface_energy_EV_PER_ANG2": null,
  "weighted_surface_energy": null,
  "weighted_work_function": null,
  "surface_anisotropy": null,
  "shape_factor": null,
  "has_reconstructed": null,
  "possible_species": null,
  "has_props": null,
  "theoretical": null,
  "database_IDs": null,
  "fields_not_requested": [
    "builder_meta",
    "nsites",
    "elements",
    "nelements",
    "composition",
    "composition_reduced",
    "chemsys",
    "symmetry",
    "property_name",
    "deprecated",
    "deprecation_reasons",
    "last_updated",
    "origins",
    "warnings",
    "task_ids",
    "uncorrected_energy_per_atom",
    "equilibrium_reaction_energy_per_atom",
    "decomposes_to",
    "xas",
    "grain_boundaries",
    "cbm",
    "vbm",
    "is_gap_direct",
    "is_metal",
    "es_source_calc_id",
    "bandstructure",
    "dos",
    "dos_energy_up",
    "dos_energy_down",
    "is_magnetic",
    "ordering",
    "total_magnetization_normalized_vol",
    "total_magnetization_normalized_formula_units",
    "num_magnetic_sites",
    "num_unique_magnetic_sites",
    "types_of_magnetic_species",
    "bulk_modulus",
    "shear_modulus",
    "universal_anisotropy",
    "homogeneous_poisson",
    "e_total",
    "e_ionic",
    "e_electronic",
    "n",
    "e_ij_max",
    "weighted_surface_energy_EV_PER_ANG2",
    "weighted_surface_energy",
    "weighted_work_function",
    "surface_anisotropy",
    "shape_factor",
    "has_reconstructed",
    "possible_species",
    "has_props",
    "theoretical",
    "database_IDs"
  ]
}
