{"builder_meta": null, "nsites": null, "elements": null, "nelements": null, "composition": null, "composition_reduced": null, "formula_pretty": "Ce5Sn3", "formula_anonymous": "A3B5", "chemsys": null, "volume": 500.46364374058567, "density": 7.012330501979223, "density_atomic": 31.278977733786604, "symmetry": null, "property_name": null, "material_id": "mp-637308", "deprecated": null, "deprecation_reasons": null, "last_updated": null, "origins": null, "warnings": null, "structure": {"@module": "pymatgen.core.structure", "@class": "Structure", "charge": 0, "lattice": {"matrix": [[-6.31933629, 6.31933629, 3.13306646], [6.31933629, -6.31933629, 3.13306646], [6.31933629, 6.31933629, -3.13306646]], "pbc": [true, true, true], "a": 9.470170417421159, "b": 9.470170417421159, "c": 9.470170417421159, "alpha": 96.2837256479007, "beta": 96.2837256479007, "gamma": 141.3610374392193, "volume": 500.46364374058567}, "properties": {}, "sites": [{"species": [{"element": "Ce", "occu": 1}], "abc": [0.41632428, 0.28060303000000003, 0.69692731], "properties": {"magmom": 1.299}, "label": "Ce", "xyz": [3.5464498211259174, 5.261786262024242, 0.0]}, {"species": [{"element": "Ce", "occu": 1}], "abc": [0.08367572, 0.78060303, 0.86427875], "properties": {"magmom": 1.299}, "label": "Ce", "xyz": [9.865786111125917, 1.0575500279757577, 0.0]}, {"species": [{"element": "Ce", "occu": 1}], "abc": [0.78060303, 0.91632428, 0.69692731], "properties": {"magmom": 1.299}, "label": "Ce", "xyz": [5.261786262024242, 3.5464498211259174, 3.133066460000001]}, {"species": [{"element": "Ce", "occu": 1}], "abc": [0.21939697, 0.08367572, 0.30307269000000003], "properties": {"magmom": 1.299}, "label": "Ce", "xyz": [1.0575500279757577, 2.772886468874083, -1.1102230246251565e-16]}, {"species": [{"element": "Ce", "occu": 1}], "abc": [0.91632428, 0.21939697, 0.13572125000000002], "properties": {"magmom": 1.299}, "label": "Ce", "xyz": [-3.5464498211259174, 5.261786262024242, 3.13306646]}, {"species": [{"element": "Ce", "occu": 1}], "abc": [0.25, 0.75, 0.5], "properties": {"magmom": 1.397}, "label": "Ce", "xyz": [6.319336290000001, -4.440892098500626e-16, 1.56653323]}, {"species": [{"element": "Ce", "occu": 1}], "abc": [0.28060303000000003, 0.58367572, 0.86427875], "properties": {"magmom": 1.299}, "label": "Ce", "xyz": [7.376886317975758, 3.5464498211259174, 4.440892098500626e-16]}, {"species": [{"element": "Ce", "occu": 1}], "abc": [0.71939697, 0.41632428, 0.13572125000000002], "properties": {"magmom": 1.299}, "label": "Ce", "xyz": [-1.057550027975758, 2.7728864688740833, 3.1330664599999998]}, {"species": [{"element": "Ce", "occu": 1}], "abc": [0.58367572, 0.71939697, 0.30307269000000003], "properties": {"magmom": 1.299}, "label": "Ce", "xyz": [2.7728864688740833, 1.0575500279757575, 3.13306646]}, {"species": [{"element": "Ce", "occu": 1}], "abc": [0.75, 0.25, 0.5], "properties": {"magmom": 1.397}, "label": "Ce", "xyz": [-4.440892098500626e-16, 6.319336290000001, 1.56653323]}, {"species": [{"element": "Sn", "occu": 1}], "abc": [0.6598481900000001, 0.15984819, 0.81969639], "properties": {"magmom": -0.106}, "label": "Sn", "xyz": [2.020268999108993, 8.339605289108993, -3.133066472926771e-08]}, {"species": [{"element": "Sn", "occu": 1}], "abc": [0.84015181, 0.6598481900000001, 0.5], "properties": {"magmom": -0.106}, "label": "Sn", "xyz": [2.0202689359156296, 4.29906735408437, 3.13306646]}, {"species": [{"element": "Sn", "occu": 1}], "abc": [0.75, 0.75, 0.0], "properties": {"magmom": -0.083}, "label": "Sn", "xyz": [0.0, 0.0, 4.69959969]}, {"species": [{"element": "Sn", "occu": 1}], "abc": [0.15984819, 0.34015181, 0.5], "properties": {"magmom": -0.106}, "label": "Sn", "xyz": [4.29906735408437, 2.02026893591563, 0.0]}, {"species": [{"element": "Sn", "occu": 1}], "abc": [0.34015181, 0.84015181, 0.18030361], "properties": {"magmom": -0.106}, "label": "Sn", "xyz": [4.299067290891007, -2.0202689991089935, 3.1330664913306645]}, {"species": [{"element": "Sn", "occu": 1}], "abc": [0.25, 0.25, 0.0], "properties": {"magmom": -0.083}, "label": "Sn", "xyz": [0.0, 0.0, 1.56653323]}]}, "task_ids": null, "uncorrected_energy_per_atom": null, "energy_per_atom": -5.744050111249997, "formation_energy_per_atom": -0.529866996874995, "energy_above_hull": 0.0, "is_stable": true, "equilibrium_reaction_energy_per_atom": null, "decomposes_to": null, "xas": null, "grain_boundaries": null, "band_gap": 0.0, "cbm": null, "vbm": null, "efermi": 7.95627166, "is_gap_direct": null, "is_metal": null, "es_source_calc_id": null, "bandstructure": null, "dos": null, "dos_energy_up": null, "dos_energy_down": null, "is_magnetic": null, "ordering": null, "total_magnetization": 17.5145784, "total_magnetization_normalized_vol": null, "total_magnetization_normalized_formula_units": null, "num_magnetic_sites": null, "num_unique_magnetic_sites": null, "types_of_magnetic_species": null, "bulk_modulus": null, "shear_modulus": null, "universal_anisotropy": null, "homogeneous_poisson": null, "e_total": null, "e_ionic": null, "e_electronic": null, "n": null, "e_ij_max": null, "weighted_surface_energy_EV_PER_ANG2": null, "weighted_surface_energy": null, "weighted_work_function": null, "surface_anisotropy": null, "shape_factor": null, "has_reconstructed": null, "possible_species": null, "has_props": null, "theoretical": null, "database_IDs": null, "fields_not_requested": ["builder_meta", "nsites", "elements", "nelements", "composition", "composition_reduced", "chemsys", "symmetry", "property_name", "deprecated", "deprecation_reasons", "last_updated", "origins", "warnings", "task_ids", "uncorrected_energy_per_atom", "equilibrium_reaction_energy_per_atom", "decomposes_to", "xas", "grain_boundaries", "cbm", "vbm", "is_gap_direct", "is_metal", "es_source_calc_id", "bandstructure", "dos", "dos_energy_up", "dos_energy_down", "is_magnetic", "ordering", "total_magnetization_normalized_vol", "total_magnetization_normalized_formula_units", "num_magnetic_sites", "num_unique_magnetic_sites", "types_of_magnetic_species", "bulk_modulus", "shear_modulus", "universal_anisotropy", "homogeneous_poisson", "e_total", "e_ionic", "e_electronic", "n", "e_ij_max", "weighted_surface_energy_EV_PER_ANG2", "weighted_surface_energy", "weighted_work_function", "surface_anisotropy", "shape_factor", "has_reconstructed", "possible_species", "has_props", "theoretical", "database_IDs"]}