{
  "builder_meta": null,
  "nsites": null,
  "elements": null,
  "nelements": null,
  "composition": null,
  "composition_reduced": null,
  "formula_pretty": "Ce5Sn4",
  "formula_anonymous": "A4B5",
  "chemsys": null,
  "volume": 1127.2439108688866,
  "density": 6.9260283807024114,
  "density_atomic": 31.31233085746907,
  "symmetry": null,
  "property_name": null,
  "material_id": "mp-21693",
  "deprecated": null,
  "deprecation_reasons": null,
  "last_updated": null,
  "origins": null,
  "warnings": null,
  "structure": {
    "@module": "pymatgen.core.structure",
    "@class": "Structure",
    "charge": 0,
    "lattice": {
      "matrix": [
        [8.347293, 0.0, 0.0],
        [0.0, 8.459252, 0.0],
        [0.0, 0.0, 15.963947]
      ],
      "pbc": [true, true, true],
      "a": 8.347293,
      "b": 8.459252,
      "c": 15.963947,
      "alpha": 90.0,
      "beta": 90.0,
      "gamma": 90.0,
      "volume": 1127.2439108688866
    },
    "properties": {},
    "sites": [
      {
        "species": [{ "element": "Ce", "occu": 1 }],
        "abc": [0.123533999999999, 0.337086, 0.877691],
        "properties": { "magmom": 0.844 },
        "label": "Ce",
        "xyz": [1.0311744934619917, 2.8514954196719997, 14.011412606377]
      },
      {
        "species": [{ "element": "Ce", "occu": 1 }],
        "abc": [0.623533999999999, 0.162914, 0.622309],
        "properties": { "magmom": 0.852 },
        "label": "Ce",
        "xyz": [5.2048209934619925, 1.378130580328, 9.934507893623]
      },
      {
        "species": [{ "element": "Ce", "occu": 1 }],
        "abc": [0.376465999999999, 0.837086, 0.122309],
        "properties": { "magmom": 0.852 },
        "label": "Ce",
        "xyz": [3.142472006537992, 7.081121419672, 1.952534393623]
      },
      {
        "species": [{ "element": "Ce", "occu": 1 }],
        "abc": [0.876466, 0.662914, 0.377691],
        "properties": { "magmom": 0.844 },
        "label": "Ce",
        "xyz": [7.316118506538, 5.607756580327999, 6.029439106377]
      },
      {
        "species": [{ "element": "Ce", "occu": 1 }],
        "abc": [0.123533999999999, 0.337086, 0.622309],
        "properties": { "magmom": 0.843 },
        "label": "Ce",
        "xyz": [1.0311744934619917, 2.8514954196719997, 9.934507893623]
      },
      {
        "species": [{ "element": "Ce", "occu": 1 }],
        "abc": [0.623533999999999, 0.162914, 0.877691],
        "properties": { "magmom": 0.852 },
        "label": "Ce",
        "xyz": [5.2048209934619925, 1.378130580328, 14.011412606377]
      },
      {
        "species": [{ "element": "Ce", "occu": 1 }],
        "abc": [0.376465999999999, 0.837086, 0.377691],
        "properties": { "magmom": 0.851 },
        "label": "Ce",
        "xyz": [3.142472006537992, 7.081121419672, 6.029439106377]
      },
      {
        "species": [{ "element": "Ce", "occu": 1 }],
        "abc": [0.876466, 0.662914, 0.122309],
        "properties": { "magmom": 0.842 },
        "label": "Ce",
        "xyz": [7.316118506538, 5.607756580327999, 1.952534393623]
      },
      {
        "species": [{ "element": "Ce", "occu": 1 }],
        "abc": [0.015057, 0.200131, 0.405437],
        "properties": { "magmom": 0.9 },
        "label": "Ce",
        "xyz": [0.125685190701, 1.6929585620119998, 6.472374779839]
      },
      {
        "species": [{ "element": "Ce", "occu": 1 }],
        "abc": [0.515057, 0.299869, 0.094563],
        "properties": { "magmom": 0.891 },
        "label": "Ce",
        "xyz": [4.299331690701, 2.5366674379879997, 1.509598720161]
      },
      {
        "species": [{ "element": "Ce", "occu": 1 }],
        "abc": [0.484942999999999, 0.700131, 0.594563],
        "properties": { "magmom": 0.892 },
        "label": "Ce",
        "xyz": [4.047961309298992, 5.922584562011999, 9.491572220160998]
      },
      {
        "species": [{ "element": "Ce", "occu": 1 }],
        "abc": [0.9849429999999991, 0.799868999999999, 0.905436999999999],
        "properties": { "magmom": 0.9 },
        "label": "Ce",
        "xyz": [8.221607809298993, 6.766293437987992, 14.454348279838984]
      },
      {
        "species": [{ "element": "Ce", "occu": 1 }],
        "abc": [0.9849429999999991, 0.799868999999999, 0.594563],
        "properties": { "magmom": 0.902 },
        "label": "Ce",
        "xyz": [8.221607809298993, 6.766293437987992, 9.491572220160998]
      },
      {
        "species": [{ "element": "Ce", "occu": 1 }],
        "abc": [0.484942999999999, 0.700131, 0.905436999999999],
        "properties": { "magmom": 0.889 },
        "label": "Ce",
        "xyz": [4.047961309298992, 5.922584562011999, 14.454348279838984]
      },
      {
        "species": [{ "element": "Ce", "occu": 1 }],
        "abc": [0.515057, 0.299869, 0.405437],
        "properties": { "magmom": 0.89 },
        "label": "Ce",
        "xyz": [4.299331690701, 2.5366674379879997, 6.472374779839]
      },
      {
        "species": [{ "element": "Ce", "occu": 1 }],
        "abc": [0.015057, 0.200131, 0.094563],
        "properties": { "magmom": 0.901 },
        "label": "Ce",
        "xyz": [0.125685190701, 1.6929585620119998, 1.509598720161]
      },
      {
        "species": [{ "element": "Ce", "occu": 1 }],
        "abc": [0.306612, 0.011634, 0.75],
        "properties": { "magmom": 0.9510000000000001 },
        "label": "Ce",
        "xyz": [2.5593802013160003, 0.09841493776799999, 11.97296025]
      },
      {
        "species": [{ "element": "Ce", "occu": 1 }],
        "abc": [0.806612, 0.488365999999999, 0.75],
        "properties": { "magmom": 0.937 },
        "label": "Ce",
        "xyz": [6.733026701316001, 4.1312110622319915, 11.97296025]
      },
      {
        "species": [{ "element": "Ce", "occu": 1 }],
        "abc": [0.193388, 0.511633999999999, 0.25],
        "properties": { "magmom": 0.937 },
        "label": "Ce",
        "xyz": [1.6142662986840002, 4.328040937767992, 3.99098675]
      },
      {
        "species": [{ "element": "Ce", "occu": 1 }],
        "abc": [0.693388, 0.988366, 0.25],
        "properties": { "magmom": 0.9520000000000001 },
        "label": "Ce",
        "xyz": [5.787912798684, 8.360837062232, 3.99098675]
      },
      {
        "species": [{ "element": "Sn", "occu": 1 }],
        "abc": [0.781956, 0.467827999999999, 0.541308999999999],
        "properties": { "magmom": -0.052000000000000005 },
        "label": "Sn",
        "xyz": [6.5272158451080005, 3.9574749446559916, 8.641428186622985]
      },
      {
        "species": [{ "element": "Sn", "occu": 1 }],
        "abc": [0.281956, 0.032172, 0.958691],
        "properties": { "magmom": -0.051000000000000004 },
        "label": "Sn",
        "xyz": [2.353569345108, 0.27215105534399997, 15.304492313376999]
      },
      {
        "species": [{ "element": "Sn", "occu": 1 }],
        "abc": [0.718044, 0.967827999999999, 0.458690999999999],
        "properties": { "magmom": -0.051000000000000004 },
        "label": "Sn",
        "xyz": [5.993723654892, 8.187100944655992, 7.322518813376984]
      },
      {
        "species": [{ "element": "Sn", "occu": 1 }],
        "abc": [0.218044, 0.532172, 0.041309],
        "properties": { "magmom": -0.052000000000000005 },
        "label": "Sn",
        "xyz": [1.820077154892, 4.501777055343999, 0.659454686623]
      },
      {
        "species": [{ "element": "Sn", "occu": 1 }],
        "abc": [0.218044, 0.532172, 0.458690999999999],
        "properties": { "magmom": -0.052000000000000005 },
        "label": "Sn",
        "xyz": [1.820077154892, 4.501777055343999, 7.322518813376984]
      },
      {
        "species": [{ "element": "Sn", "occu": 1 }],
        "abc": [0.718044, 0.967827999999999, 0.041309],
        "properties": { "magmom": -0.051000000000000004 },
        "label": "Sn",
        "xyz": [5.993723654892, 8.187100944655992, 0.659454686623]
      },
      {
        "species": [{ "element": "Sn", "occu": 1 }],
        "abc": [0.281956, 0.032172, 0.541308999999999],
        "properties": { "magmom": -0.051000000000000004 },
        "label": "Sn",
        "xyz": [2.353569345108, 0.27215105534399997, 8.641428186622985]
      },
      {
        "species": [{ "element": "Sn", "occu": 1 }],
        "abc": [0.781956, 0.467827999999999, 0.958691],
        "properties": { "magmom": -0.052000000000000005 },
        "label": "Sn",
        "xyz": [6.5272158451080005, 3.9574749446559916, 15.304492313376999]
      },
      {
        "species": [{ "element": "Sn", "occu": 1 }],
        "abc": [0.931636999999999, 0.095016999999999, 0.75],
        "properties": { "magmom": -0.023 },
        "label": "Sn",
        "xyz": [7.7766470086409925, 0.8037727472839915, 11.97296025]
      },
      {
        "species": [{ "element": "Sn", "occu": 1 }],
        "abc": [0.431637, 0.404983, 0.75],
        "properties": { "magmom": -0.027 },
        "label": "Sn",
        "xyz": [3.603000508641, 3.4258532527159997, 11.97296025]
      },
      {
        "species": [{ "element": "Sn", "occu": 1 }],
        "abc": [0.568363, 0.595017, 0.25],
        "properties": { "magmom": -0.027 },
        "label": "Sn",
        "xyz": [4.744292491359, 5.033398747284, 3.99098675]
      },
      {
        "species": [{ "element": "Sn", "occu": 1 }],
        "abc": [0.068363, 0.904983, 0.25],
        "properties": { "magmom": -0.023 },
        "label": "Sn",
        "xyz": [0.570645991359, 7.655479252715999, 3.99098675]
      },
      {
        "species": [{ "element": "Sn", "occu": 1 }],
        "abc": [0.177033, 0.648643, 0.75],
        "properties": { "magmom": -0.033 },
        "label": "Sn",
        "xyz": [1.477746321669, 5.4870345950359996, 11.97296025]
      },
      {
        "species": [{ "element": "Sn", "occu": 1 }],
        "abc": [0.677033, 0.851356999999999, 0.75],
        "properties": { "magmom": -0.031 },
        "label": "Sn",
        "xyz": [5.651392821669, 7.2018434049639914, 11.97296025]
      },
      {
        "species": [{ "element": "Sn", "occu": 1 }],
        "abc": [0.322967, 0.148643, 0.25],
        "properties": { "magmom": -0.031 },
        "label": "Sn",
        "xyz": [2.695900178331, 1.2574085950359999, 3.99098675]
      },
      {
        "species": [{ "element": "Sn", "occu": 1 }],
        "abc": [0.822967, 0.351357, 0.25],
        "properties": { "magmom": -0.033 },
        "label": "Sn",
        "xyz": [6.869546678331001, 2.9722174049639993, 3.99098675]
      }
    ]
  },
  "task_ids": null,
  "uncorrected_energy_per_atom": null,
  "energy_per_atom": -5.654868544444444,
  "formation_energy_per_atom": -0.5745311255555521,
  "energy_above_hull": 0.0,
  "is_stable": true,
  "equilibrium_reaction_energy_per_atom": null,
  "decomposes_to": null,
  "xas": null,
  "grain_boundaries": null,
  "band_gap": 0.0,
  "cbm": null,
  "vbm": null,
  "efermi": 7.11755908,
  "is_gap_direct": null,
  "is_metal": null,
  "es_source_calc_id": null,
  "bandstructure": null,
  "dos": null,
  "dos_energy_up": null,
  "dos_energy_down": null,
  "is_magnetic": null,
  "ordering": null,
  "total_magnetization": 21.868474,
  "total_magnetization_normalized_vol": null,
  "total_magnetization_normalized_formula_units": null,
  "num_magnetic_sites": null,
  "num_unique_magnetic_sites": null,
  "types_of_magnetic_species": null,
  "bulk_modulus": null,
  "shear_modulus": null,
  "universal_anisotropy": null,
  "homogeneous_poisson": null,
  "e_total": null,
  "e_ionic": null,
  "e_electronic": null,
  "n": null,
  "e_ij_max": null,
  "weighted_surface_energy_EV_PER_ANG2": null,
  "weighted_surface_energy": null,
  "weighted_work_function": null,
  "surface_anisotropy": null,
  "shape_factor": null,
  "has_reconstructed": null,
  "possible_species": null,
  "has_props": null,
  "theoretical": null,
  "database_IDs": null,
  "fields_not_requested": [
    "builder_meta",
    "nsites",
    "elements",
    "nelements",
    "composition",
    "composition_reduced",
    "chemsys",
    "symmetry",
    "property_name",
    "deprecated",
    "deprecation_reasons",
    "last_updated",
    "origins",
    "warnings",
    "task_ids",
    "uncorrected_energy_per_atom",
    "equilibrium_reaction_energy_per_atom",
    "decomposes_to",
    "xas",
    "grain_boundaries",
    "cbm",
    "vbm",
    "is_gap_direct",
    "is_metal",
    "es_source_calc_id",
    "bandstructure",
    "dos",
    "dos_energy_up",
    "dos_energy_down",
    "is_magnetic",
    "ordering",
    "total_magnetization_normalized_vol",
    "total_magnetization_normalized_formula_units",
    "num_magnetic_sites",
    "num_unique_magnetic_sites",
    "types_of_magnetic_species",
    "bulk_modulus",
    "shear_modulus",
    "universal_anisotropy",
    "homogeneous_poisson",
    "e_total",
    "e_ionic",
    "e_electronic",
    "n",
    "e_ij_max",
    "weighted_surface_energy_EV_PER_ANG2",
    "weighted_surface_energy",
    "weighted_work_function",
    "surface_anisotropy",
    "shape_factor",
    "has_reconstructed",
    "possible_species",
    "has_props",
    "theoretical",
    "database_IDs"
  ]
}
