{
  "builder_meta": null,
  "nsites": null,
  "elements": null,
  "nelements": null,
  "composition": null,
  "composition_reduced": null,
  "formula_pretty": "Ce5Sb3",
  "formula_anonymous": "A3B5",
  "chemsys": null,
  "volume": 474.33221605754096,
  "density": 7.46271119527572,
  "density_atomic": 29.64576350359631,
  "symmetry": null,
  "property_name": null,
  "material_id": "mp-1188999",
  "deprecated": null,
  "deprecation_reasons": null,
  "last_updated": null,
  "origins": null,
  "warnings": null,
  "structure": {
    "@module": "pymatgen.core.structure",
    "@class": "Structure",
    "charge": 0,
    "lattice": {
      "matrix": [
        [9.288818, 0.0, 0.0],
        [-4.644409, 8.044352, 0.0],
        [0.0, 0.0, 6.347915]
      ],
      "pbc": [true, true, true],
      "a": 9.288818,
      "b": 9.288817688984157,
      "c": 6.347915,
      "alpha": 90.0,
      "beta": 90.0,
      "gamma": 120.0000011076029,
      "volume": 474.33221605754096
    },
    "properties": {},
    "sites": [
      {
        "species": [{ "element": "Ce", "occu": 1 }],
        "abc": [0.666667, 0.333333, 0.0],
        "properties": { "magmom": 0.973 },
        "label": "Ce",
        "xyz": [4.644413644408999, 2.681447985216, 0.0]
      },
      {
        "species": [{ "element": "Ce", "occu": 1 }],
        "abc": [0.333333, 0.666667, 0.0],
        "properties": { "magmom": 0.973 },
        "label": "Ce",
        "xyz": [-4.644409000054139e-6, 5.362904014784, 0.0]
      },
      {
        "species": [{ "element": "Ce", "occu": 1 }],
        "abc": [0.333333, 0.666667, 0.5],
        "properties": { "magmom": 0.973 },
        "label": "Ce",
        "xyz": [-4.644409000054139e-6, 5.362904014784, 3.1739575]
      },
      {
        "species": [{ "element": "Ce", "occu": 1 }],
        "abc": [0.666667, 0.333333, 0.5],
        "properties": { "magmom": 0.973 },
        "label": "Ce",
        "xyz": [4.644413644408999, 2.681447985216, 3.1739575]
      },
      {
        "species": [{ "element": "Ce", "occu": 1 }],
        "abc": [0.7449600000000001, 0.7449600000000001, 0.75],
        "properties": { "magmom": 0.833 },
        "label": "Ce",
        "xyz": [3.45989892864, 5.992720465920001, 4.76093625]
      },
      {
        "species": [{ "element": "Ce", "occu": 1 }],
        "abc": [0.25504000000000004, 0.0, 0.75],
        "properties": { "magmom": 0.833 },
        "label": "Ce",
        "xyz": [2.36902014272, 0.0, 4.76093625]
      },
      {
        "species": [{ "element": "Ce", "occu": 1 }],
        "abc": [0.0, 0.25504000000000004, 0.75],
        "properties": { "magmom": 0.833 },
        "label": "Ce",
        "xyz": [-1.18451007136, 2.05163153408, 4.76093625]
      },
      {
        "species": [{ "element": "Ce", "occu": 1 }],
        "abc": [0.25504000000000004, 0.25504000000000004, 0.25],
        "properties": { "magmom": 0.833 },
        "label": "Ce",
        "xyz": [1.18451007136, 2.05163153408, 1.58697875]
      },
      {
        "species": [{ "element": "Ce", "occu": 1 }],
        "abc": [0.7449600000000001, 0.0, 0.25],
        "properties": { "magmom": 0.833 },
        "label": "Ce",
        "xyz": [6.91979785728, 0.0, 1.58697875]
      },
      {
        "species": [{ "element": "Ce", "occu": 1 }],
        "abc": [0.0, 0.7449600000000001, 0.25],
        "properties": { "magmom": 0.833 },
        "label": "Ce",
        "xyz": [-3.45989892864, 5.992720465920001, 1.58697875]
      },
      {
        "species": [{ "element": "Sb", "occu": 1 }],
        "abc": [0.385055, 0.385055, 0.75],
        "properties": { "magmom": -0.031 },
        "label": "Sb",
        "xyz": [1.7883529074949998, 3.0975179593599997, 4.76093625]
      },
      {
        "species": [{ "element": "Sb", "occu": 1 }],
        "abc": [0.614945, 0.0, 0.75],
        "properties": { "magmom": -0.031 },
        "label": "Sb",
        "xyz": [5.712112185009999, 0.0, 4.76093625]
      },
      {
        "species": [{ "element": "Sb", "occu": 1 }],
        "abc": [0.0, 0.614945, 0.75],
        "properties": { "magmom": -0.031 },
        "label": "Sb",
        "xyz": [-2.8560560925049994, 4.94683404064, 4.76093625]
      },
      {
        "species": [{ "element": "Sb", "occu": 1 }],
        "abc": [0.614945, 0.614945, 0.25],
        "properties": { "magmom": -0.031 },
        "label": "Sb",
        "xyz": [2.8560560925049994, 4.94683404064, 1.58697875]
      },
      {
        "species": [{ "element": "Sb", "occu": 1 }],
        "abc": [0.385055, 0.0, 0.25],
        "properties": { "magmom": -0.031 },
        "label": "Sb",
        "xyz": [3.5767058149899995, 0.0, 1.58697875]
      },
      {
        "species": [{ "element": "Sb", "occu": 1 }],
        "abc": [0.0, 0.385055, 0.25],
        "properties": { "magmom": -0.031 },
        "label": "Sb",
        "xyz": [-1.7883529074949998, 3.0975179593599997, 1.58697875]
      }
    ]
  },
  "task_ids": null,
  "uncorrected_energy_per_atom": null,
  "energy_per_atom": -29.986349043125,
  "formation_energy_per_atom": -1.071087669374996,
  "energy_above_hull": 0.018125744375002,
  "is_stable": false,
  "equilibrium_reaction_energy_per_atom": null,
  "decomposes_to": null,
  "xas": null,
  "grain_boundaries": null,
  "band_gap": 0.0,
  "cbm": null,
  "vbm": null,
  "efermi": 7.96692924,
  "is_gap_direct": null,
  "is_metal": null,
  "es_source_calc_id": null,
  "bandstructure": null,
  "dos": null,
  "dos_energy_up": null,
  "dos_energy_down": null,
  "is_magnetic": null,
  "ordering": null,
  "total_magnetization": 10.8941015,
  "total_magnetization_normalized_vol": null,
  "total_magnetization_normalized_formula_units": null,
  "num_magnetic_sites": null,
  "num_unique_magnetic_sites": null,
  "types_of_magnetic_species": null,
  "bulk_modulus": null,
  "shear_modulus": null,
  "universal_anisotropy": null,
  "homogeneous_poisson": null,
  "e_total": null,
  "e_ionic": null,
  "e_electronic": null,
  "n": null,
  "e_ij_max": null,
  "weighted_surface_energy_EV_PER_ANG2": null,
  "weighted_surface_energy": null,
  "weighted_work_function": null,
  "surface_anisotropy": null,
  "shape_factor": null,
  "has_reconstructed": null,
  "possible_species": null,
  "has_props": null,
  "theoretical": null,
  "database_IDs": null,
  "fields_not_requested": [
    "builder_meta",
    "nsites",
    "elements",
    "nelements",
    "composition",
    "composition_reduced",
    "chemsys",
    "symmetry",
    "property_name",
    "deprecated",
    "deprecation_reasons",
    "last_updated",
    "origins",
    "warnings",
    "task_ids",
    "uncorrected_energy_per_atom",
    "equilibrium_reaction_energy_per_atom",
    "decomposes_to",
    "xas",
    "grain_boundaries",
    "cbm",
    "vbm",
    "is_gap_direct",
    "is_metal",
    "es_source_calc_id",
    "bandstructure",
    "dos",
    "dos_energy_up",
    "dos_energy_down",
    "is_magnetic",
    "ordering",
    "total_magnetization_normalized_vol",
    "total_magnetization_normalized_formula_units",
    "num_magnetic_sites",
    "num_unique_magnetic_sites",
    "types_of_magnetic_species",
    "bulk_modulus",
    "shear_modulus",
    "universal_anisotropy",
    "homogeneous_poisson",
    "e_total",
    "e_ionic",
    "e_electronic",
    "n",
    "e_ij_max",
    "weighted_surface_energy_EV_PER_ANG2",
    "weighted_surface_energy",
    "weighted_work_function",
    "surface_anisotropy",
    "shape_factor",
    "has_reconstructed",
    "possible_species",
    "has_props",
    "theoretical",
    "database_IDs"
  ]
}
