{
  "builder_meta": null,
  "nsites": null,
  "elements": null,
  "nelements": null,
  "composition": null,
  "composition_reduced": null,
  "formula_pretty": "Ce5Si4",
  "formula_anonymous": "A4B5",
  "chemsys": null,
  "volume": 893.8598460509698,
  "density": 6.0407176586457,
  "density_atomic": 24.829440168082495,
  "symmetry": null,
  "property_name": null,
  "material_id": "mp-1196829",
  "deprecated": null,
  "deprecation_reasons": null,
  "last_updated": null,
  "origins": null,
  "warnings": null,
  "structure": {
    "@module": "pymatgen.core.structure",
    "@class": "Structure",
    "charge": 0,
    "lattice": {
      "matrix": [
        [7.817201, 0.0, 0.0],
        [0.0, 7.817201, 0.0],
        [0.0, 0.0, 14.627391]
      ],
      "pbc": [true, true, true],
      "a": 7.817201,
      "b": 7.817201,
      "c": 14.627391,
      "alpha": 90.0,
      "beta": 90.0,
      "gamma": 90.0,
      "volume": 893.8598460509698
    },
    "properties": {},
    "sites": [
      {
        "species": [{ "element": "Ce", "occu": 1 }],
        "abc": [0.178601999999999, 0.821398, 0.75],
        "properties": { "magmom": 0.747 },
        "label": "Ce",
        "xyz": [1.3961677330019922, 6.421033266997999, 10.970543249999999]
      },
      {
        "species": [{ "element": "Ce", "occu": 1 }],
        "abc": [0.821398, 0.178601999999999, 0.25],
        "properties": { "magmom": 0.747 },
        "label": "Ce",
        "xyz": [6.421033266997999, 1.3961677330019922, 3.65684775]
      },
      {
        "species": [{ "element": "Ce", "occu": 1 }],
        "abc": [0.321397999999999, 0.321397999999999, 0.5],
        "properties": { "magmom": 0.747 },
        "label": "Ce",
        "xyz": [2.5124327669979922, 2.5124327669979922, 7.3136955]
      },
      {
        "species": [{ "element": "Ce", "occu": 1 }],
        "abc": [0.678601999999999, 0.678601999999999, 0.0],
        "properties": { "magmom": 0.747 },
        "label": "Ce",
        "xyz": [5.304768233001992, 5.304768233001992, 0.0]
      },
      {
        "species": [{ "element": "Ce", "occu": 1 }],
        "abc": [0.13985, 0.503759, 0.292742],
        "properties": { "magmom": 0.843 },
        "label": "Ce",
        "xyz": [1.09323555985, 3.9379853585589997, 4.282051696122]
      },
      {
        "species": [{ "element": "Ce", "occu": 1 }],
        "abc": [0.8601500000000001, 0.496241, 0.792742],
        "properties": { "magmom": 0.843 },
        "label": "Ce",
        "xyz": [6.723965440150001, 3.8792156414409997, 11.595747196121998]
      },
      {
        "species": [{ "element": "Ce", "occu": 1 }],
        "abc": [0.003758999999999, 0.36015, 0.042741999999999],
        "properties": { "magmom": 0.843 },
        "label": "Ce",
        "xyz": [0.029384858558992182, 2.8153649401500003, 0.6252039461219854]
      },
      {
        "species": [{ "element": "Ce", "occu": 1 }],
        "abc": [0.996240999999999, 0.63985, 0.542742],
        "properties": { "magmom": 0.843 },
        "label": "Ce",
        "xyz": [7.7878161414409925, 5.0018360598500005, 7.938899446121999]
      },
      {
        "species": [{ "element": "Ce", "occu": 1 }],
        "abc": [0.496241, 0.8601500000000001, 0.207258],
        "properties": { "magmom": 0.843 },
        "label": "Ce",
        "xyz": [3.8792156414409997, 6.723965440150001, 3.031643803878]
      },
      {
        "species": [{ "element": "Ce", "occu": 1 }],
        "abc": [0.503759, 0.13985, 0.707257999999999],
        "properties": { "magmom": 0.843 },
        "label": "Ce",
        "xyz": [3.9379853585589997, 1.09323555985, 10.345339303877985]
      },
      {
        "species": [{ "element": "Ce", "occu": 1 }],
        "abc": [0.36015, 0.003758999999999, 0.957257999999999],
        "properties": { "magmom": 0.843 },
        "label": "Ce",
        "xyz": [2.8153649401500003, 0.029384858558992182, 14.002187053877986]
      },
      {
        "species": [{ "element": "Ce", "occu": 1 }],
        "abc": [0.63985, 0.996240999999999, 0.457258],
        "properties": { "magmom": 0.843 },
        "label": "Ce",
        "xyz": [5.0018360598500005, 7.7878161414409925, 6.688491553877999]
      },
      {
        "species": [{ "element": "Ce", "occu": 1 }],
        "abc": [0.132823, 0.995922, 0.374733999999999],
        "properties": { "magmom": 0.67 },
        "label": "Ce",
        "xyz": [1.038304088423, 7.785322454321999, 5.481380738993986]
      },
      {
        "species": [{ "element": "Ce", "occu": 1 }],
        "abc": [0.867177, 0.004078, 0.874734],
        "properties": { "magmom": 0.67 },
        "label": "Ce",
        "xyz": [6.778896911576999, 0.031878545678, 12.795076238994]
      },
      {
        "species": [{ "element": "Ce", "occu": 1 }],
        "abc": [0.495922, 0.367177, 0.124734],
        "properties": { "magmom": 0.67 },
        "label": "Ce",
        "xyz": [3.8767219543219995, 2.8702964115769998, 1.8245329889939998]
      },
      {
        "species": [{ "element": "Ce", "occu": 1 }],
        "abc": [0.504078, 0.632823, 0.624734],
        "properties": { "magmom": 0.67 },
        "label": "Ce",
        "xyz": [3.9404790456780003, 4.946904588423, 9.138228488994]
      },
      {
        "species": [{ "element": "Ce", "occu": 1 }],
        "abc": [0.004078, 0.867177, 0.125266],
        "properties": { "magmom": 0.67 },
        "label": "Ce",
        "xyz": [0.031878545678, 6.778896911576999, 1.8323147610059998]
      },
      {
        "species": [{ "element": "Ce", "occu": 1 }],
        "abc": [0.995922, 0.132823, 0.625266],
        "properties": { "magmom": 0.67 },
        "label": "Ce",
        "xyz": [7.785322454321999, 1.038304088423, 9.146010261006]
      },
      {
        "species": [{ "element": "Ce", "occu": 1 }],
        "abc": [0.367177, 0.495922, 0.875266],
        "properties": { "magmom": 0.67 },
        "label": "Ce",
        "xyz": [2.8702964115769998, 3.8767219543219995, 12.802858011005998]
      },
      {
        "species": [{ "element": "Ce", "occu": 1 }],
        "abc": [0.632823, 0.504078, 0.375266],
        "properties": { "magmom": 0.67 },
        "label": "Ce",
        "xyz": [4.946904588423, 3.9404790456780003, 5.489162511006]
      },
      {
        "species": [{ "element": "Si", "occu": 1 }],
        "abc": [0.343605, 0.708114, 0.43954000000000004],
        "properties": { "magmom": -0.024 },
        "label": "Si",
        "xyz": [2.686029349605, 5.535469468914, 6.42932344014]
      },
      {
        "species": [{ "element": "Si", "occu": 1 }],
        "abc": [0.656395, 0.291886, 0.93954],
        "properties": { "magmom": -0.024 },
        "label": "Si",
        "xyz": [5.131171650394999, 2.281731531086, 13.74301894014]
      },
      {
        "species": [{ "element": "Si", "occu": 1 }],
        "abc": [0.208114, 0.156395, 0.18954000000000001],
        "properties": { "magmom": -0.024 },
        "label": "Si",
        "xyz": [1.626868968914, 1.222571150395, 2.7724756901400003]
      },
      {
        "species": [{ "element": "Si", "occu": 1 }],
        "abc": [0.791886, 0.843604999999999, 0.68954],
        "properties": { "magmom": -0.024 },
        "label": "Si",
        "xyz": [6.190332031085999, 6.594629849604993, 10.08617119014]
      },
      {
        "species": [{ "element": "Si", "occu": 1 }],
        "abc": [0.291886, 0.656395, 0.06046000000000001],
        "properties": { "magmom": -0.024 },
        "label": "Si",
        "xyz": [2.281731531086, 5.131171650394999, 0.8843720598600001]
      },
      {
        "species": [{ "element": "Si", "occu": 1 }],
        "abc": [0.708114, 0.343605, 0.5604600000000001],
        "properties": { "magmom": -0.024 },
        "label": "Si",
        "xyz": [5.535469468914, 2.686029349605, 8.19806755986]
      },
      {
        "species": [{ "element": "Si", "occu": 1 }],
        "abc": [0.156395, 0.208114, 0.8104600000000001],
        "properties": { "magmom": -0.024 },
        "label": "Si",
        "xyz": [1.222571150395, 1.626868968914, 11.85491530986]
      },
      {
        "species": [{ "element": "Si", "occu": 1 }],
        "abc": [0.843604999999999, 0.791886, 0.31046],
        "properties": { "magmom": -0.024 },
        "label": "Si",
        "xyz": [6.594629849604993, 6.190332031085999, 4.54121980986]
      },
      {
        "species": [{ "element": "Si", "occu": 1 }],
        "abc": [0.298269, 0.9352600000000001, 0.558981],
        "properties": { "magmom": -0.027 },
        "label": "Si",
        "xyz": [2.331628725069, 7.311115407260001, 8.176433648570999]
      },
      {
        "species": [{ "element": "Si", "occu": 1 }],
        "abc": [0.701731, 0.06474, 0.058981],
        "properties": { "magmom": -0.027 },
        "label": "Si",
        "xyz": [5.485572274931, 0.5060855927400001, 0.862738148571]
      },
      {
        "species": [{ "element": "Si", "occu": 1 }],
        "abc": [0.43526000000000004, 0.201731, 0.308981],
        "properties": { "magmom": -0.027 },
        "label": "Si",
        "xyz": [3.40251490726, 1.576971774931, 4.519585898571]
      },
      {
        "species": [{ "element": "Si", "occu": 1 }],
        "abc": [0.56474, 0.798269, 0.808981],
        "properties": { "magmom": -0.027 },
        "label": "Si",
        "xyz": [4.41468609274, 6.240229225069, 11.833281398570998]
      },
      {
        "species": [{ "element": "Si", "occu": 1 }],
        "abc": [0.06474, 0.701731, 0.941018999999999],
        "properties": { "magmom": -0.027 },
        "label": "Si",
        "xyz": [0.5060855927400001, 5.485572274931, 13.764652851428986]
      },
      {
        "species": [{ "element": "Si", "occu": 1 }],
        "abc": [0.9352600000000001, 0.298269, 0.441019],
        "properties": { "magmom": -0.027 },
        "label": "Si",
        "xyz": [7.311115407260001, 2.331628725069, 6.4509573514289995]
      },
      {
        "species": [{ "element": "Si", "occu": 1 }],
        "abc": [0.201731, 0.43526000000000004, 0.691018999999999],
        "properties": { "magmom": -0.027 },
        "label": "Si",
        "xyz": [1.576971774931, 3.40251490726, 10.107805101428985]
      },
      {
        "species": [{ "element": "Si", "occu": 1 }],
        "abc": [0.798269, 0.56474, 0.191019],
        "properties": { "magmom": -0.027 },
        "label": "Si",
        "xyz": [6.240229225069, 4.41468609274, 2.7941096014289997]
      }
    ]
  },
  "task_ids": null,
  "uncorrected_energy_per_atom": null,
  "energy_per_atom": -21.726345368749996,
  "formation_energy_per_atom": -0.693211793194437,
  "energy_above_hull": 0.006339800416668001,
  "is_stable": false,
  "equilibrium_reaction_energy_per_atom": null,
  "decomposes_to": null,
  "xas": null,
  "grain_boundaries": null,
  "band_gap": 0.0,
  "cbm": null,
  "vbm": null,
  "efermi": 7.57871951,
  "is_gap_direct": null,
  "is_metal": null,
  "es_source_calc_id": null,
  "bandstructure": null,
  "dos": null,
  "dos_energy_up": null,
  "dos_energy_down": null,
  "is_magnetic": null,
  "ordering": null,
  "total_magnetization": 19.9942799,
  "total_magnetization_normalized_vol": null,
  "total_magnetization_normalized_formula_units": null,
  "num_magnetic_sites": null,
  "num_unique_magnetic_sites": null,
  "types_of_magnetic_species": null,
  "bulk_modulus": null,
  "shear_modulus": null,
  "universal_anisotropy": null,
  "homogeneous_poisson": null,
  "e_total": null,
  "e_ionic": null,
  "e_electronic": null,
  "n": null,
  "e_ij_max": null,
  "weighted_surface_energy_EV_PER_ANG2": null,
  "weighted_surface_energy": null,
  "weighted_work_function": null,
  "surface_anisotropy": null,
  "shape_factor": null,
  "has_reconstructed": null,
  "possible_species": null,
  "has_props": null,
  "theoretical": null,
  "database_IDs": null,
  "fields_not_requested": [
    "builder_meta",
    "nsites",
    "elements",
    "nelements",
    "composition",
    "composition_reduced",
    "chemsys",
    "symmetry",
    "property_name",
    "deprecated",
    "deprecation_reasons",
    "last_updated",
    "origins",
    "warnings",
    "task_ids",
    "uncorrected_energy_per_atom",
    "equilibrium_reaction_energy_per_atom",
    "decomposes_to",
    "xas",
    "grain_boundaries",
    "cbm",
    "vbm",
    "is_gap_direct",
    "is_metal",
    "es_source_calc_id",
    "bandstructure",
    "dos",
    "dos_energy_up",
    "dos_energy_down",
    "is_magnetic",
    "ordering",
    "total_magnetization_normalized_vol",
    "total_magnetization_normalized_formula_units",
    "num_magnetic_sites",
    "num_unique_magnetic_sites",
    "types_of_magnetic_species",
    "bulk_modulus",
    "shear_modulus",
    "universal_anisotropy",
    "homogeneous_poisson",
    "e_total",
    "e_ionic",
    "e_electronic",
    "n",
    "e_ij_max",
    "weighted_surface_energy_EV_PER_ANG2",
    "weighted_surface_energy",
    "weighted_work_function",
    "surface_anisotropy",
    "shape_factor",
    "has_reconstructed",
    "possible_species",
    "has_props",
    "theoretical",
    "database_IDs"
  ]
}
