{
  "builder_meta": null,
  "nsites": null,
  "elements": null,
  "nelements": null,
  "composition": null,
  "composition_reduced": null,
  "formula_pretty": "Ce7Ir3",
  "formula_anonymous": "A3B7",
  "chemsys": null,
  "volume": 518.8797663592469,
  "density": 9.968506478602823,
  "density_atomic": 25.943988317962344,
  "symmetry": null,
  "property_name": null,
  "material_id": "mp-1106112",
  "deprecated": null,
  "deprecation_reasons": null,
  "last_updated": null,
  "origins": null,
  "warnings": null,
  "structure": {
    "@module": "pymatgen.core.structure",
    "@class": "Structure",
    "charge": 0,
    "lattice": {
      "matrix": [
        [0.0, 0.0, -6.137287],
        [-4.940041, -8.557162, 0.0],
        [-4.940041, 8.557162, 0.0]
      ],
      "pbc": [true, true, true],
      "a": 6.137287,
      "b": 9.880740183605932,
      "c": 9.880740183605932,
      "alpha": 120.00440701735118,
      "beta": 90.0,
      "gamma": 90.0,
      "volume": 518.8797663592469
    },
    "properties": {},
    "sites": [
      {
        "species": [{ "element": "Ce", "occu": 1 }],
        "abc": [0.453422999999999, 0.333408, 0.666592],
        "properties": { "magmom": 0.539 },
        "label": "Ce",
        "xyz": [-4.940041, 2.8511094638079997, -2.782787083400994]
      },
      {
        "species": [{ "element": "Ce", "occu": 1 }],
        "abc": [0.953422999999999, 0.666592, 0.333408],
        "properties": { "magmom": 0.539 },
        "label": "Ce",
        "xyz": [-4.940041, -2.8511094638079997, -5.851430583400994]
      },
      {
        "species": [{ "element": "Ce", "occu": 1 }],
        "abc": [0.24751599999999901, 0.128448, 0.871552],
        "properties": { "magmom": 0.369 },
        "label": "Ce",
        "xyz": [-4.940041, 6.358861310847999, -1.519076729091994]
      },
      {
        "species": [{ "element": "Ce", "occu": 1 }],
        "abc": [0.247471, 0.742923, 0.871455],
        "properties": { "magmom": 0.373 },
        "label": "Ce",
        "xyz": [-7.9750935094979996, 1.099869146184, -1.518800551177]
      },
      {
        "species": [{ "element": "Ce", "occu": 1 }],
        "abc": [0.247471, 0.128545, 0.257077],
        "properties": { "magmom": 0.373 },
        "label": "Ce",
        "xyz": [-1.9049884905019998, 1.0998691461840002, -1.518800551177]
      },
      {
        "species": [{ "element": "Ce", "occu": 1 }],
        "abc": [0.747516, 0.871552, 0.128448],
        "properties": { "magmom": 0.369 },
        "label": "Ce",
        "xyz": [-4.940041, -6.358861310847999, -4.587720229092]
      },
      {
        "species": [{ "element": "Ce", "occu": 1 }],
        "abc": [0.747471, 0.257077, 0.128545],
        "properties": { "magmom": 0.373 },
        "label": "Ce",
        "xyz": [-1.9049884905019998, -1.0998691461840002, -4.587444051177]
      },
      {
        "species": [{ "element": "Ce", "occu": 1 }],
        "abc": [0.747471, 0.871455, 0.742923],
        "properties": { "magmom": 0.373 },
        "label": "Ce",
        "xyz": [-7.9750935094979996, -1.099869146184, -4.587444051177]
      },
      {
        "species": [{ "element": "Ce", "occu": 1 }],
        "abc": [0.456026, 0.537573, 0.462427],
        "properties": { "magmom": 0.622 },
        "label": "Ce",
        "xyz": [-4.940040999999999, -0.6430364956520003, -2.798762441462]
      },
      {
        "species": [{ "element": "Ce", "occu": 1 }],
        "abc": [0.455918999999999, 0.924769, 0.462443999999999],
        "properties": { "magmom": 0.628 },
        "label": "Ce",
        "xyz": [-6.852889095732995, -3.9561899216500076, -2.7981057517529937]
      },
      {
        "species": [{ "element": "Ce", "occu": 1 }],
        "abc": [0.455918999999999, 0.537555999999999, 0.07523099999999901],
        "properties": { "magmom": 0.628 },
        "label": "Ce",
        "xyz": [-3.02719290426699, -3.95618992165, -2.7981057517529937]
      },
      {
        "species": [{ "element": "Ce", "occu": 1 }],
        "abc": [0.956025999999999, 0.462427, 0.537573],
        "properties": { "magmom": 0.622 },
        "label": "Ce",
        "xyz": [-4.940040999999999, 0.6430364956520003, -5.8674059414619935]
      },
      {
        "species": [{ "element": "Ce", "occu": 1 }],
        "abc": [0.955919, 0.07523099999999901, 0.537555999999999],
        "properties": { "magmom": 0.628 },
        "label": "Ce",
        "xyz": [-3.02719290426699, 3.95618992165, -5.866749251752999]
      },
      {
        "species": [{ "element": "Ce", "occu": 1 }],
        "abc": [0.955919, 0.462443999999999, 0.924769],
        "properties": { "magmom": 0.628 },
        "label": "Ce",
        "xyz": [-6.852889095732995, 3.9561899216500076, -5.866749251752999]
      },
      {
        "species": [{ "element": "Ir", "occu": 1 }],
        "abc": [0.198345, 0.813217, 0.186783],
        "properties": { "magmom": -0.027 },
        "label": "Ir",
        "xyz": [-4.940041, -5.360497220308, -1.217300190015]
      },
      {
        "species": [{ "element": "Ir", "occu": 1 }],
        "abc": [0.198454, 0.37359000000000003, 0.18691000000000002],
        "properties": { "magmom": -0.027 },
        "label": "Ir",
        "xyz": [-2.7688929805, -1.5974510021600001, -1.2179691542979998]
      },
      {
        "species": [{ "element": "Ir", "occu": 1 }],
        "abc": [0.198454, 0.8130900000000001, 0.62641],
        "properties": { "magmom": -0.027 },
        "label": "Ir",
        "xyz": [-7.111189019499999, -1.5974510021600006, -1.2179691542979998]
      },
      {
        "species": [{ "element": "Ir", "occu": 1 }],
        "abc": [0.698345, 0.186783, 0.813217],
        "properties": { "magmom": -0.027 },
        "label": "Ir",
        "xyz": [-4.940041, 5.360497220308, -4.285943690014999]
      },
      {
        "species": [{ "element": "Ir", "occu": 1 }],
        "abc": [0.698454, 0.62641, 0.8130900000000001],
        "properties": { "magmom": -0.027 },
        "label": "Ir",
        "xyz": [-7.111189019499999, 1.5974510021600006, -4.286612654298]
      },
      {
        "species": [{ "element": "Ir", "occu": 1 }],
        "abc": [0.698454, 0.18691000000000002, 0.37359000000000003],
        "properties": { "magmom": -0.027 },
        "label": "Ir",
        "xyz": [-2.7688929805, 1.5974510021600001, -4.286612654298]
      }
    ]
  },
  "task_ids": null,
  "uncorrected_energy_per_atom": null,
  "energy_per_atom": -7.334419927499999,
  "formation_energy_per_atom": -0.527024764499998,
  "energy_above_hull": 0.0,
  "is_stable": true,
  "equilibrium_reaction_energy_per_atom": null,
  "decomposes_to": null,
  "xas": null,
  "grain_boundaries": null,
  "band_gap": 0.0,
  "cbm": null,
  "vbm": null,
  "efermi": 8.08005843,
  "is_gap_direct": null,
  "is_metal": null,
  "es_source_calc_id": null,
  "bandstructure": null,
  "dos": null,
  "dos_energy_up": null,
  "dos_energy_down": null,
  "is_magnetic": null,
  "ordering": null,
  "total_magnetization": 8.5690697,
  "total_magnetization_normalized_vol": null,
  "total_magnetization_normalized_formula_units": null,
  "num_magnetic_sites": null,
  "num_unique_magnetic_sites": null,
  "types_of_magnetic_species": null,
  "bulk_modulus": null,
  "shear_modulus": null,
  "universal_anisotropy": null,
  "homogeneous_poisson": null,
  "e_total": null,
  "e_ionic": null,
  "e_electronic": null,
  "n": null,
  "e_ij_max": null,
  "weighted_surface_energy_EV_PER_ANG2": null,
  "weighted_surface_energy": null,
  "weighted_work_function": null,
  "surface_anisotropy": null,
  "shape_factor": null,
  "has_reconstructed": null,
  "possible_species": null,
  "has_props": null,
  "theoretical": null,
  "database_IDs": null,
  "fields_not_requested": [
    "builder_meta",
    "nsites",
    "elements",
    "nelements",
    "composition",
    "composition_reduced",
    "chemsys",
    "symmetry",
    "property_name",
    "deprecated",
    "deprecation_reasons",
    "last_updated",
    "origins",
    "warnings",
    "task_ids",
    "uncorrected_energy_per_atom",
    "equilibrium_reaction_energy_per_atom",
    "decomposes_to",
    "xas",
    "grain_boundaries",
    "cbm",
    "vbm",
    "is_gap_direct",
    "is_metal",
    "es_source_calc_id",
    "bandstructure",
    "dos",
    "dos_energy_up",
    "dos_energy_down",
    "is_magnetic",
    "ordering",
    "total_magnetization_normalized_vol",
    "total_magnetization_normalized_formula_units",
    "num_magnetic_sites",
    "num_unique_magnetic_sites",
    "types_of_magnetic_species",
    "bulk_modulus",
    "shear_modulus",
    "universal_anisotropy",
    "homogeneous_poisson",
    "e_total",
    "e_ionic",
    "e_electronic",
    "n",
    "e_ij_max",
    "weighted_surface_energy_EV_PER_ANG2",
    "weighted_surface_energy",
    "weighted_work_function",
    "surface_anisotropy",
    "shape_factor",
    "has_reconstructed",
    "possible_species",
    "has_props",
    "theoretical",
    "database_IDs"
  ]
}
