{
  "builder_meta": null,
  "nsites": null,
  "elements": null,
  "nelements": null,
  "composition": null,
  "composition_reduced": null,
  "formula_pretty": "Ce7Ni3",
  "formula_anonymous": "A3B7",
  "chemsys": null,
  "volume": 464.94198450769017,
  "density": 8.263674858182423,
  "density_atomic": 23.24709922538451,
  "symmetry": null,
  "property_name": null,
  "material_id": "mp-1106354",
  "deprecated": null,
  "deprecation_reasons": null,
  "last_updated": null,
  "origins": null,
  "warnings": null,
  "structure": {
    "@module": "pymatgen.core.structure",
    "@class": "Structure",
    "charge": 0,
    "lattice": {
      "matrix": [
        [0.0, 0.0, -5.988055],
        [-4.740462, -8.189593, 0.0],
        [-4.740462, 8.189593, 0.0]
      ],
      "pbc": [true, true, true],
      "a": 5.988055,
      "b": 9.462632481455305,
      "c": 9.462632481455305,
      "alpha": 119.87207074682821,
      "beta": 90.0,
      "gamma": 90.0,
      "volume": 464.94198450769017
    },
    "properties": {},
    "sites": [
      {
        "species": [{ "element": "Ce", "occu": 1 }],
        "abc": [0.416311999999999, 0.333271999999999, 0.666728],
        "properties": { "magmom": 0.04 },
        "label": "Ce",
        "xyz": [-4.7404619999999955, 2.730868923408008, -2.492899153159994]
      },
      {
        "species": [{ "element": "Ce", "occu": 1 }],
        "abc": [0.916311999999999, 0.666728, 0.333271999999999],
        "properties": { "magmom": 0.04 },
        "label": "Ce",
        "xyz": [-4.7404619999999955, -2.730868923408008, -5.486926653159994]
      },
      {
        "species": [{ "element": "Ce", "occu": 1 }],
        "abc": [0.243017999999999, 0.129078, 0.870922],
        "properties": { "magmom": 0.148 },
        "label": "Ce",
        "xyz": [-4.740462, 6.075400429491999, -1.455205149989994]
      },
      {
        "species": [{ "element": "Ce", "occu": 1 }],
        "abc": [0.24402000000000001, 0.7415, 0.870406999999999],
        "properties": { "magmom": 0.14100000000000001 },
        "label": "Ce",
        "xyz": [-7.641183881033996, 1.0556958648509918, -1.4612051811000002]
      },
      {
        "species": [{ "element": "Ce", "occu": 1 }],
        "abc": [0.24402000000000001, 0.12959299999999901, 0.2585],
        "properties": { "magmom": 0.14100000000000001 },
        "label": "Ce",
        "xyz": [-1.8397401189659952, 1.055695864851008, -1.4612051811000002]
      },
      {
        "species": [{ "element": "Ce", "occu": 1 }],
        "abc": [0.743018, 0.870922, 0.129078],
        "properties": { "magmom": 0.148 },
        "label": "Ce",
        "xyz": [-4.740462, -6.075400429491999, -4.44923264999]
      },
      {
        "species": [{ "element": "Ce", "occu": 1 }],
        "abc": [0.74402, 0.2585, 0.12959299999999901],
        "properties": { "magmom": 0.14100000000000001 },
        "label": "Ce",
        "xyz": [-1.8397401189659952, -1.055695864851008, -4.4552326811]
      },
      {
        "species": [{ "element": "Ce", "occu": 1 }],
        "abc": [0.74402, 0.870406999999999, 0.7415],
        "properties": { "magmom": 0.14100000000000001 },
        "label": "Ce",
        "xyz": [-7.641183881033996, -1.0556958648509918, -4.4552326811]
      },
      {
        "species": [{ "element": "Ce", "occu": 1 }],
        "abc": [0.471574999999999, 0.540957, 0.459043],
        "properties": { "magmom": 0.168 },
        "label": "Ce",
        "xyz": [-4.740462, -0.6708423210020005, -2.823817036624994]
      },
      {
        "species": [{ "element": "Ce", "occu": 1 }],
        "abc": [0.471761, 0.917871, 0.45878599999999903],
        "properties": { "magmom": 0.17500000000000002 },
        "label": "Ce",
        "xyz": [-6.5259901955339945, -3.759719302405008, -2.824930814855]
      },
      {
        "species": [{ "element": "Ce", "occu": 1 }],
        "abc": [0.471761, 0.541214, 0.082129],
        "properties": { "magmom": 0.17500000000000002 },
        "label": "Ce",
        "xyz": [-2.9549338044659996, -3.759719302405, -2.824930814855]
      },
      {
        "species": [{ "element": "Ce", "occu": 1 }],
        "abc": [0.971575, 0.459043, 0.540957],
        "properties": { "magmom": 0.168 },
        "label": "Ce",
        "xyz": [-4.740462, 0.6708423210020005, -5.817844536625]
      },
      {
        "species": [{ "element": "Ce", "occu": 1 }],
        "abc": [0.971761, 0.082129, 0.541214],
        "properties": { "magmom": 0.17500000000000002 },
        "label": "Ce",
        "xyz": [-2.9549338044659996, 3.759719302405, -5.818958314855]
      },
      {
        "species": [{ "element": "Ce", "occu": 1 }],
        "abc": [0.971761, 0.45878599999999903, 0.917871],
        "properties": { "magmom": 0.17500000000000002 },
        "label": "Ce",
        "xyz": [-6.5259901955339945, 3.759719302405008, -5.818958314855]
      },
      {
        "species": [{ "element": "Ni", "occu": 1 }],
        "abc": [0.198902, 0.812412999999999, 0.187587],
        "properties": { "magmom": -0.011 },
        "label": "Ni",
        "xyz": [-4.7404619999999955, -5.117070635817992, -1.19103611561]
      },
      {
        "species": [{ "element": "Ni", "occu": 1 }],
        "abc": [0.198815, 0.375164999999999, 0.187392],
        "properties": { "magmom": -0.01 },
        "label": "Ni",
        "xyz": [-2.6667800813339957, -1.5377844463889923, -1.190515154825]
      },
      {
        "species": [{ "element": "Ni", "occu": 1 }],
        "abc": [0.198815, 0.812608, 0.624834999999999],
        "properties": { "magmom": -0.01 },
        "label": "Ni",
        "xyz": [-6.814143918665995, -1.5377844463890078, -1.190515154825]
      },
      {
        "species": [{ "element": "Ni", "occu": 1 }],
        "abc": [0.698902, 0.187587, 0.812412999999999],
        "properties": { "magmom": -0.011 },
        "label": "Ni",
        "xyz": [-4.7404619999999955, 5.117070635817992, -4.18506361561]
      },
      {
        "species": [{ "element": "Ni", "occu": 1 }],
        "abc": [0.698815, 0.624834999999999, 0.812608],
        "properties": { "magmom": -0.01 },
        "label": "Ni",
        "xyz": [-6.814143918665995, 1.5377844463890078, -4.184542654825]
      },
      {
        "species": [{ "element": "Ni", "occu": 1 }],
        "abc": [0.698815, 0.187392, 0.375164999999999],
        "properties": { "magmom": -0.01 },
        "label": "Ni",
        "xyz": [-2.6667800813339957, 1.5377844463889923, -4.184542654825]
      }
    ]
  },
  "task_ids": null,
  "uncorrected_energy_per_atom": null,
  "energy_per_atom": -6.057917449,
  "formation_energy_per_atom": -0.16801153599999802,
  "energy_above_hull": 0.0194496545,
  "is_stable": false,
  "equilibrium_reaction_energy_per_atom": null,
  "decomposes_to": null,
  "xas": null,
  "grain_boundaries": null,
  "band_gap": 0.0,
  "cbm": null,
  "vbm": null,
  "efermi": 8.48866075,
  "is_gap_direct": null,
  "is_metal": null,
  "es_source_calc_id": null,
  "bandstructure": null,
  "dos": null,
  "dos_energy_up": null,
  "dos_energy_down": null,
  "is_magnetic": null,
  "ordering": null,
  "total_magnetization": 2.3493889,
  "total_magnetization_normalized_vol": null,
  "total_magnetization_normalized_formula_units": null,
  "num_magnetic_sites": null,
  "num_unique_magnetic_sites": null,
  "types_of_magnetic_species": null,
  "bulk_modulus": null,
  "shear_modulus": null,
  "universal_anisotropy": null,
  "homogeneous_poisson": null,
  "e_total": null,
  "e_ionic": null,
  "e_electronic": null,
  "n": null,
  "e_ij_max": null,
  "weighted_surface_energy_EV_PER_ANG2": null,
  "weighted_surface_energy": null,
  "weighted_work_function": null,
  "surface_anisotropy": null,
  "shape_factor": null,
  "has_reconstructed": null,
  "possible_species": null,
  "has_props": null,
  "theoretical": null,
  "database_IDs": null,
  "fields_not_requested": [
    "builder_meta",
    "nsites",
    "elements",
    "nelements",
    "composition",
    "composition_reduced",
    "chemsys",
    "symmetry",
    "property_name",
    "deprecated",
    "deprecation_reasons",
    "last_updated",
    "origins",
    "warnings",
    "task_ids",
    "uncorrected_energy_per_atom",
    "equilibrium_reaction_energy_per_atom",
    "decomposes_to",
    "xas",
    "grain_boundaries",
    "cbm",
    "vbm",
    "is_gap_direct",
    "is_metal",
    "es_source_calc_id",
    "bandstructure",
    "dos",
    "dos_energy_up",
    "dos_energy_down",
    "is_magnetic",
    "ordering",
    "total_magnetization_normalized_vol",
    "total_magnetization_normalized_formula_units",
    "num_magnetic_sites",
    "num_unique_magnetic_sites",
    "types_of_magnetic_species",
    "bulk_modulus",
    "shear_modulus",
    "universal_anisotropy",
    "homogeneous_poisson",
    "e_total",
    "e_ionic",
    "e_electronic",
    "n",
    "e_ij_max",
    "weighted_surface_energy_EV_PER_ANG2",
    "weighted_surface_energy",
    "weighted_work_function",
    "surface_anisotropy",
    "shape_factor",
    "has_reconstructed",
    "possible_species",
    "has_props",
    "theoretical",
    "database_IDs"
  ]
}
