{"builder_meta": null, "nsites": null, "elements": null, "nelements": null, "composition": null, "composition_reduced": null, "formula_pretty": "Ce7Pd3", "formula_anonymous": "A3B7", "chemsys": null, "volume": 526.7868830757681, "density": 8.196181092391743, "density_atomic": 26.339344153788403, "symmetry": null, "property_name": null, "material_id": "mp-1188284", "deprecated": null, "deprecation_reasons": null, "last_updated": null, "origins": null, "warnings": null, "structure": {"@module": "pymatgen.core.structure", "@class": "Structure", "charge": 0, "lattice": {"matrix": [[0.0, 0.0, -6.238539], [-4.939677, -8.547193, 0.0], [-4.939677, 8.547193, 0.0]], "pbc": [true, true, true], "a": 6.238539, "b": 9.871925700874069, "c": 9.871925700874069, "alpha": 119.95021093212459, "beta": 90.0, "gamma": 90.0, "volume": 526.7868830757681}, "properties": {}, "sites": [{"species": [{"element": "Ce", "occu": 1}], "abc": [0.396738, 0.333785, 0.666215], "properties": {"magmom": 0.146}, "label": "Ce", "xyz": [-4.939677, 2.8413433689899996, -2.475065485782]}, {"species": [{"element": "Ce", "occu": 1}], "abc": [0.896737999999999, 0.666215, 0.333785], "properties": {"magmom": 0.146}, "label": "Ce", "xyz": [-4.939677, -2.8413433689899996, -5.594334985781995]}, {"species": [{"element": "Ce", "occu": 1}], "abc": [0.24414799999999903, 0.131347, 0.868653], "properties": {"magmom": 0.444}, "label": "Ce", "xyz": [-4.939677, 6.3018966820580005, -1.523126819771994]}, {"species": [{"element": "Ce", "occu": 1}], "abc": [0.243767999999999, 0.736725, 0.867904999999999], "properties": {"magmom": 0.428}, "label": "Ce", "xyz": [-7.926353904509995, 1.1212207777399925, -1.520756174951994]}, {"species": [{"element": "Ce", "occu": 1}], "abc": [0.243767999999999, 0.132095, 0.263275], "properties": {"magmom": 0.428}, "label": "Ce", "xyz": [-1.9530000954899998, 1.1212207777399998, -1.520756174951994]}, {"species": [{"element": "Ce", "occu": 1}], "abc": [0.744147999999999, 0.868653, 0.131347], "properties": {"magmom": 0.444}, "label": "Ce", "xyz": [-4.939677, -6.3018966820580005, -4.642396319771994]}, {"species": [{"element": "Ce", "occu": 1}], "abc": [0.743768, 0.263275, 0.132095], "properties": {"magmom": 0.428}, "label": "Ce", "xyz": [-1.9530000954899998, -1.1212207777399998, -4.640025674952]}, {"species": [{"element": "Ce", "occu": 1}], "abc": [0.743768, 0.867904999999999, 0.736725], "properties": {"magmom": 0.428}, "label": "Ce", "xyz": [-7.926353904509995, -1.1212207777399925, -4.640025674952]}, {"species": [{"element": "Ce", "occu": 1}], "abc": [0.478850999999999, 0.538006, 0.461993999999999], "properties": {"magmom": 0.424}, "label": "Ce", "xyz": [-4.939676999999994, -0.6496892343160083, -2.987330638688994]}, {"species": [{"element": "Ce", "occu": 1}], "abc": [0.47921, 0.923396999999999, 0.461806999999999], "properties": {"magmom": 0.442}, "label": "Ce", "xyz": [-6.84246033910799, -3.94529881687, -2.98957027419]}, {"species": [{"element": "Ce", "occu": 1}], "abc": [0.47921, 0.538192999999999, 0.076602999999999], "properties": {"magmom": 0.442}, "label": "Ce", "xyz": [-3.03689366089199, -3.9452988168700003, -2.98957027419]}, {"species": [{"element": "Ce", "occu": 1}], "abc": [0.978850999999999, 0.461993999999999, 0.538006], "properties": {"magmom": 0.424}, "label": "Ce", "xyz": [-4.939676999999994, 0.6496892343160083, -6.106600138688994]}, {"species": [{"element": "Ce", "occu": 1}], "abc": [0.97921, 0.076602999999999, 0.538192999999999], "properties": {"magmom": 0.442}, "label": "Ce", "xyz": [-3.03689366089199, 3.9452988168700003, -6.108839774190001]}, {"species": [{"element": "Ce", "occu": 1}], "abc": [0.97921, 0.461806999999999, 0.923396999999999], "properties": {"magmom": 0.442}, "label": "Ce", "xyz": [-6.84246033910799, 3.94529881687, -6.108839774190001]}, {"species": [{"element": "Pd", "occu": 1}], "abc": [0.197830999999999, 0.809588, 0.190412], "properties": {"magmom": -0.01}, "label": "Pd", "xyz": [-4.939677, -5.292216772968, -1.234176408908994]}, {"species": [{"element": "Pd", "occu": 1}], "abc": [0.197738, 0.380903, 0.190774], "properties": {"magmom": -0.011}, "label": "Pd", "xyz": [-2.8238997283289997, -1.625069257897, -1.233596224782]}, {"species": [{"element": "Pd", "occu": 1}], "abc": [0.197738, 0.809226, 0.619097], "properties": {"magmom": -0.011}, "label": "Pd", "xyz": [-7.055454271671, -1.6250692578969996, -1.233596224782]}, {"species": [{"element": "Pd", "occu": 1}], "abc": [0.697831, 0.190412, 0.809588], "properties": {"magmom": -0.01}, "label": "Pd", "xyz": [-4.939677, 5.292216772968, -4.353445908909]}, {"species": [{"element": "Pd", "occu": 1}], "abc": [0.697738, 0.619097, 0.809226], "properties": {"magmom": -0.011}, "label": "Pd", "xyz": [-7.055454271671, 1.6250692578969996, -4.352865724782]}, {"species": [{"element": "Pd", "occu": 1}], "abc": [0.697738, 0.190774, 0.380903], "properties": {"magmom": -0.011}, "label": "Pd", "xyz": [-2.8238997283289997, 1.625069257897, -4.352865724782]}]}, "task_ids": null, "uncorrected_energy_per_atom": null, "energy_per_atom": -28.88969782, "formation_energy_per_atom": -0.413121604999997, "energy_above_hull": 0.051781871500001006, "is_stable": false, "equilibrium_reaction_energy_per_atom": null, "decomposes_to": null, "xas": null, "grain_boundaries": null, "band_gap": 0.0, "cbm": null, "vbm": null, "efermi": 7.41888579, "is_gap_direct": null, "is_metal": null, "es_source_calc_id": null, "bandstructure": null, "dos": null, "dos_energy_up": null, "dos_energy_down": null, "is_magnetic": null, "ordering": null, "total_magnetization": 6.3542834, "total_magnetization_normalized_vol": null, "total_magnetization_normalized_formula_units": null, "num_magnetic_sites": null, "num_unique_magnetic_sites": null, "types_of_magnetic_species": null, "bulk_modulus": null, "shear_modulus": null, "universal_anisotropy": null, "homogeneous_poisson": null, "e_total": null, "e_ionic": null, "e_electronic": null, "n": null, "e_ij_max": null, "weighted_surface_energy_EV_PER_ANG2": null, "weighted_surface_energy": null, "weighted_work_function": null, "surface_anisotropy": null, "shape_factor": null, "has_reconstructed": null, "possible_species": null, "has_props": null, "theoretical": null, "database_IDs": null, "fields_not_requested": ["builder_meta", "nsites", "elements", "nelements", "composition", "composition_reduced", "chemsys", "symmetry", "property_name", "deprecated", "deprecation_reasons", "last_updated", "origins", "warnings", "task_ids", "uncorrected_energy_per_atom", "equilibrium_reaction_energy_per_atom", "decomposes_to", "xas", "grain_boundaries", "cbm", "vbm", "is_gap_direct", "is_metal", "es_source_calc_id", "bandstructure", "dos", "dos_energy_up", "dos_energy_down", "is_magnetic", "ordering", "total_magnetization_normalized_vol", "total_magnetization_normalized_formula_units", "num_magnetic_sites", "num_unique_magnetic_sites", "types_of_magnetic_species", "bulk_modulus", "shear_modulus", "universal_anisotropy", "homogeneous_poisson", "e_total", "e_ionic", "e_electronic", "n", "e_ij_max", "weighted_surface_energy_EV_PER_ANG2", "weighted_surface_energy", "weighted_work_function", "surface_anisotropy", "shape_factor", "has_reconstructed", "possible_species", "has_props", "theoretical", "database_IDs"]}