{"builder_meta": null, "nsites": null, "elements": null, "nelements": null, "composition": null, "composition_reduced": null, "formula_pretty": "Ce7Pt3", "formula_anonymous": "A3B7", "chemsys": null, "volume": 532.4416464906635, "density": 9.768245853553692, "density_atomic": 26.622082324533174, "symmetry": null, "property_name": null, "material_id": "mp-1182329", "deprecated": null, "deprecation_reasons": null, "last_updated": null, "origins": null, "warnings": null, "structure": {"@module": "pymatgen.core.structure", "@class": "Structure", "charge": 0, "lattice": {"matrix": [[4.988496, -8.640328, 0.0], [4.988496, 8.640328, 0.0], [0.0, 0.0, 6.176496]], "pbc": [true, true, true], "a": 9.976991545029994, "b": 9.976991545029994, "c": 6.176496, "alpha": 90.0, "beta": 90.0, "gamma": 119.99999698300103, "volume": 532.4416464906635}, "properties": {}, "sites": [{"species": [{"element": "Ce", "occu": 1}], "abc": [0.666667, 0.333333, 0.568068], "properties": {"magmom": 0.47900000000000004}, "label": "Ce", "xyz": [4.988496, -2.880115093552, 3.508669729728]}, {"species": [{"element": "Ce", "occu": 1}], "abc": [0.333333, 0.666667, 0.068068], "properties": {"magmom": 0.487}, "label": "Ce", "xyz": [4.988496, 2.880115093552, 0.420421729728]}, {"species": [{"element": "Ce", "occu": 1}], "abc": [0.870583, 0.741165, 0.753841], "properties": {"magmom": 0.381}, "label": "Ce", "xyz": [8.040198451008, -1.1182139691040005, 4.656095921136]}, {"species": [{"element": "Ce", "occu": 1}], "abc": [0.258835, 0.129417, 0.753841], "properties": {"magmom": 0.369}, "label": "Ce", "xyz": [1.9367935489919996, -1.1182139691039998, 4.656095921136]}, {"species": [{"element": "Ce", "occu": 1}], "abc": [0.870583, 0.129417, 0.753841], "properties": {"magmom": 0.376}, "label": "Ce", "xyz": [4.988496, -6.4039173424480005, 4.656095921136]}, {"species": [{"element": "Ce", "occu": 1}], "abc": [0.129417, 0.258835, 0.253841], "properties": {"magmom": 0.375}, "label": "Ce", "xyz": [1.9367935489919996, 1.1182139691039998, 1.567847921136]}, {"species": [{"element": "Ce", "occu": 1}], "abc": [0.741165, 0.870583, 0.253841], "properties": {"magmom": 0.395}, "label": "Ce", "xyz": [8.040198451008, 1.1182139691040005, 1.567847921136]}, {"species": [{"element": "Ce", "occu": 1}], "abc": [0.129417, 0.870583, 0.253841], "properties": {"magmom": 0.396}, "label": "Ce", "xyz": [4.988496, 6.4039173424480005, 1.567847921136]}, {"species": [{"element": "Ce", "occu": 1}], "abc": [0.46309000000000006, 0.926179, 0.535752], "properties": {"magmom": 0.594}, "label": "Ce", "xyz": [6.930362849424, 4.001240853191999, 3.3090700849920003]}, {"species": [{"element": "Ce", "occu": 1}], "abc": [0.073821, 0.53691, 0.535752], "properties": {"magmom": 0.594}, "label": "Ce", "xyz": [3.046629150576, 4.001240853192, 3.3090700849920003]}, {"species": [{"element": "Ce", "occu": 1}], "abc": [0.46309000000000006, 0.53691, 0.535752], "properties": {"magmom": 0.595}, "label": "Ce", "xyz": [4.988496, 0.6378290129599993, 3.3090700849920003]}, {"species": [{"element": "Ce", "occu": 1}], "abc": [0.53691, 0.073821, 0.035752], "properties": {"magmom": 0.597}, "label": "Ce", "xyz": [3.046629150576, -4.001240853192, 0.220822084992]}, {"species": [{"element": "Ce", "occu": 1}], "abc": [0.926179, 0.46309000000000006, 0.035752], "properties": {"magmom": 0.595}, "label": "Ce", "xyz": [6.930362849424, -4.001240853191999, 0.220822084992]}, {"species": [{"element": "Ce", "occu": 1}], "abc": [0.53691, 0.46309000000000006, 0.035752], "properties": {"magmom": 0.595}, "label": "Ce", "xyz": [4.988496, -0.6378290129599993, 0.220822084992]}, {"species": [{"element": "Pt", "occu": 1}], "abc": [0.188285999999999, 0.376571999999999, 0.801956], "properties": {"magmom": -0.015}, "label": "Pt", "xyz": [2.81779187356799, 1.6268527978080003, 4.953278026176]}, {"species": [{"element": "Pt", "occu": 1}], "abc": [0.623428, 0.811713999999999, 0.801956], "properties": {"magmom": -0.015}, "label": "Pt", "xyz": [7.159200126431994, 1.6268527978079916, 4.953278026176]}, {"species": [{"element": "Pt", "occu": 1}], "abc": [0.188285999999999, 0.811713999999999, 0.801956], "properties": {"magmom": -0.015}, "label": "Pt", "xyz": [4.98849599999999, 5.386622404384, 4.953278026176]}, {"species": [{"element": "Pt", "occu": 1}], "abc": [0.811713999999999, 0.623428, 0.301956], "properties": {"magmom": -0.015}, "label": "Pt", "xyz": [7.159200126431994, -1.6268527978079916, 1.865030026176]}, {"species": [{"element": "Pt", "occu": 1}], "abc": [0.376571999999999, 0.188285999999999, 0.301956], "properties": {"magmom": -0.015}, "label": "Pt", "xyz": [2.81779187356799, -1.6268527978080003, 1.865030026176]}, {"species": [{"element": "Pt", "occu": 1}], "abc": [0.811713999999999, 0.188285999999999, 0.301956], "properties": {"magmom": -0.015}, "label": "Pt", "xyz": [4.98849599999999, -5.386622404384, 1.865030026176]}]}, "task_ids": null, "uncorrected_energy_per_atom": null, "energy_per_atom": -37.7604799125, "formation_energy_per_atom": -0.7257247105000031, "energy_above_hull": 0.014429143999997, "is_stable": false, "equilibrium_reaction_energy_per_atom": null, "decomposes_to": null, "xas": null, "grain_boundaries": null, "band_gap": 0.0, "cbm": null, "vbm": null, "efermi": 7.76059907, "is_gap_direct": null, "is_metal": null, "es_source_calc_id": null, "bandstructure": null, "dos": null, "dos_energy_up": null, "dos_energy_down": null, "is_magnetic": null, "ordering": null, "total_magnetization": 8.1625208, "total_magnetization_normalized_vol": null, "total_magnetization_normalized_formula_units": null, "num_magnetic_sites": null, "num_unique_magnetic_sites": null, "types_of_magnetic_species": null, "bulk_modulus": null, "shear_modulus": null, "universal_anisotropy": null, "homogeneous_poisson": null, "e_total": null, "e_ionic": null, "e_electronic": null, "n": null, "e_ij_max": null, "weighted_surface_energy_EV_PER_ANG2": null, "weighted_surface_energy": null, "weighted_work_function": null, "surface_anisotropy": null, "shape_factor": null, "has_reconstructed": null, "possible_species": null, "has_props": null, "theoretical": null, "database_IDs": null, "fields_not_requested": ["builder_meta", "nsites", "elements", "nelements", "composition", "composition_reduced", "chemsys", "symmetry", "property_name", "deprecated", "deprecation_reasons", "last_updated", "origins", "warnings", "task_ids", "uncorrected_energy_per_atom", "equilibrium_reaction_energy_per_atom", "decomposes_to", "xas", "grain_boundaries", "cbm", "vbm", "is_gap_direct", "is_metal", "es_source_calc_id", "bandstructure", "dos", "dos_energy_up", "dos_energy_down", "is_magnetic", "ordering", "total_magnetization_normalized_vol", "total_magnetization_normalized_formula_units", "num_magnetic_sites", "num_unique_magnetic_sites", "types_of_magnetic_species", "bulk_modulus", "shear_modulus", "universal_anisotropy", "homogeneous_poisson", "e_total", "e_ionic", "e_electronic", "n", "e_ij_max", "weighted_surface_energy_EV_PER_ANG2", "weighted_surface_energy", "weighted_work_function", "surface_anisotropy", "shape_factor", "has_reconstructed", "possible_species", "has_props", "theoretical", "database_IDs"]}