{
  "builder_meta": null,
  "nsites": null,
  "elements": null,
  "nelements": null,
  "composition": null,
  "composition_reduced": null,
  "formula_pretty": "Ce7Ru3",
  "formula_anonymous": "A3B7",
  "chemsys": null,
  "volume": 495.5458366190813,
  "density": 8.605333899769322,
  "density_atomic": 24.777291830954063,
  "symmetry": null,
  "property_name": null,
  "material_id": "mp-31164",
  "deprecated": null,
  "deprecation_reasons": null,
  "last_updated": null,
  "origins": null,
  "warnings": null,
  "structure": {
    "@module": "pymatgen.core.structure",
    "@class": "Structure",
    "charge": 0,
    "lattice": {
      "matrix": [
        [4.8133479999999995, -8.336963, 0.0],
        [4.8133479999999995, 8.336963, 0.0],
        [0.0, 0.0, 6.174456]
      ],
      "pbc": [true, true, true],
      "a": 9.626695748410926,
      "b": 9.626695748410926,
      "c": 6.174456,
      "alpha": 90.0,
      "beta": 90.0,
      "gamma": 119.9999982709541,
      "volume": 495.54583661908123
    },
    "properties": {},
    "sites": [
      {
        "species": [{ "element": "Ce", "occu": 1 }],
        "abc": [0.925796, 0.462898, 0.035885],
        "properties": { "magmom": 0.455 },
        "label": "Ce",
        "xyz": [6.684267487511999, -3.859163498774, 0.22157035356000002]
      },
      {
        "species": [{ "element": "Ce", "occu": 1 }],
        "abc": [0.462898, 0.537102, 0.535885],
        "properties": { "magmom": 0.449 },
        "label": "Ce",
        "xyz": [4.8133479999999995, 0.6186360024520003, 3.30879835356]
      },
      {
        "species": [{ "element": "Ce", "occu": 1 }],
        "abc": [0.125864, 0.874135999999999, 0.257142],
        "properties": { "magmom": 0.182 },
        "label": "Ce",
        "xyz": [4.813347999999994, 6.238315977935993, 1.587711964752]
      },
      {
        "species": [{ "element": "Ce", "occu": 1 }],
        "abc": [0.251729, 0.125864, 0.757142],
        "properties": { "magmom": 0.177 },
        "label": "Ce",
        "xyz": [1.8174865113639997, -1.049331847995, 4.674939964752]
      },
      {
        "species": [{ "element": "Ce", "occu": 1 }],
        "abc": [0.874135999999999, 0.748271, 0.757142],
        "properties": { "magmom": 0.177 },
        "label": "Ce",
        "xyz": [7.809209488635995, -1.049331847994992, 4.674939964752]
      },
      {
        "species": [{ "element": "Ce", "occu": 1 }],
        "abc": [0.125864, 0.251729, 0.257142],
        "properties": { "magmom": 0.179 },
        "label": "Ce",
        "xyz": [1.8174865113639997, 1.049331847995, 1.587711964752]
      },
      {
        "species": [{ "element": "Ce", "occu": 1 }],
        "abc": [0.748271, 0.874135999999999, 0.257142],
        "properties": { "magmom": 0.176 },
        "label": "Ce",
        "xyz": [7.809209488635995, 1.049331847994992, 1.587711964752]
      },
      {
        "species": [{ "element": "Ce", "occu": 1 }],
        "abc": [0.874135999999999, 0.125864, 0.757142],
        "properties": { "magmom": 0.181 },
        "label": "Ce",
        "xyz": [4.813347999999994, -6.238315977935993, 4.674939964752]
      },
      {
        "species": [{ "element": "Ce", "occu": 1 }],
        "abc": [0.537102, 0.074203999999999, 0.035885],
        "properties": { "magmom": 0.453 },
        "label": "Ce",
        "xyz": [2.9424285124879948, -3.8591634987740084, 0.22157035356000002]
      },
      {
        "species": [{ "element": "Ce", "occu": 1 }],
        "abc": [0.462898, 0.925796, 0.535885],
        "properties": { "magmom": 0.455 },
        "label": "Ce",
        "xyz": [6.684267487511999, 3.859163498774, 3.30879835356]
      },
      {
        "species": [{ "element": "Ce", "occu": 1 }],
        "abc": [0.074203999999999, 0.537102, 0.535885],
        "properties": { "magmom": 0.457 },
        "label": "Ce",
        "xyz": [2.9424285124879948, 3.8591634987740084, 3.30879835356]
      },
      {
        "species": [{ "element": "Ce", "occu": 1 }],
        "abc": [0.537102, 0.462898, 0.035885],
        "properties": { "magmom": 0.451 },
        "label": "Ce",
        "xyz": [4.8133479999999995, -0.6186360024520003, 0.22157035356000002]
      },
      {
        "species": [{ "element": "Ce", "occu": 1 }],
        "abc": [0.666667, 0.333333, 0.538432],
        "properties": { "magmom": 0.5 },
        "label": "Ce",
        "xyz": [4.8133479999999995, -2.778993224642001, 3.324524692992]
      },
      {
        "species": [{ "element": "Ce", "occu": 1 }],
        "abc": [0.333333, 0.666667, 0.038432],
        "properties": { "magmom": 0.498 },
        "label": "Ce",
        "xyz": [4.8133479999999995, 2.778993224642001, 0.237296692992]
      },
      {
        "species": [{ "element": "Ru", "occu": 1 }],
        "abc": [0.18179599999999901, 0.818203999999999, 0.787163],
        "properties": { "magmom": -0.038 },
        "label": "Ru",
        "xyz": [4.81334799999999, 5.305709948904001, 4.860303308328]
      },
      {
        "species": [{ "element": "Ru", "occu": 1 }],
        "abc": [0.363591, 0.18179599999999901, 0.287163],
        "properties": { "magmom": -0.039 },
        "label": "Ru",
        "xyz": [2.625137425675995, -1.5156181885850084, 1.773075308328]
      },
      {
        "species": [{ "element": "Ru", "occu": 1 }],
        "abc": [0.818203999999999, 0.636409, 0.287163],
        "properties": { "magmom": -0.038 },
        "label": "Ru",
        "xyz": [7.001558574323995, -1.515618188584992, 1.773075308328]
      },
      {
        "species": [{ "element": "Ru", "occu": 1 }],
        "abc": [0.18179599999999901, 0.363591, 0.787163],
        "properties": { "magmom": -0.038 },
        "label": "Ru",
        "xyz": [2.625137425675995, 1.5156181885850084, 4.860303308328]
      },
      {
        "species": [{ "element": "Ru", "occu": 1 }],
        "abc": [0.636409, 0.818203999999999, 0.787163],
        "properties": { "magmom": -0.038 },
        "label": "Ru",
        "xyz": [7.001558574323995, 1.515618188584992, 4.860303308328]
      },
      {
        "species": [{ "element": "Ru", "occu": 1 }],
        "abc": [0.818203999999999, 0.18179599999999901, 0.287163],
        "properties": { "magmom": -0.038 },
        "label": "Ru",
        "xyz": [4.81334799999999, -5.305709948904001, 1.773075308328]
      }
    ]
  },
  "task_ids": null,
  "uncorrected_energy_per_atom": null,
  "energy_per_atom": -7.208806914,
  "formation_energy_per_atom": -0.270621242999997,
  "energy_above_hull": 0.0011276728333330002,
  "is_stable": false,
  "equilibrium_reaction_energy_per_atom": null,
  "decomposes_to": null,
  "xas": null,
  "grain_boundaries": null,
  "band_gap": 0.0,
  "cbm": null,
  "vbm": null,
  "efermi": 8.20086578,
  "is_gap_direct": null,
  "is_metal": null,
  "es_source_calc_id": null,
  "bandstructure": null,
  "dos": null,
  "dos_energy_up": null,
  "dos_energy_down": null,
  "is_magnetic": null,
  "ordering": null,
  "total_magnetization": 5.6876184,
  "total_magnetization_normalized_vol": null,
  "total_magnetization_normalized_formula_units": null,
  "num_magnetic_sites": null,
  "num_unique_magnetic_sites": null,
  "types_of_magnetic_species": null,
  "bulk_modulus": null,
  "shear_modulus": null,
  "universal_anisotropy": null,
  "homogeneous_poisson": null,
  "e_total": null,
  "e_ionic": null,
  "e_electronic": null,
  "n": null,
  "e_ij_max": null,
  "weighted_surface_energy_EV_PER_ANG2": null,
  "weighted_surface_energy": null,
  "weighted_work_function": null,
  "surface_anisotropy": null,
  "shape_factor": null,
  "has_reconstructed": null,
  "possible_species": null,
  "has_props": null,
  "theoretical": null,
  "database_IDs": null,
  "fields_not_requested": [
    "builder_meta",
    "nsites",
    "elements",
    "nelements",
    "composition",
    "composition_reduced",
    "chemsys",
    "symmetry",
    "property_name",
    "deprecated",
    "deprecation_reasons",
    "last_updated",
    "origins",
    "warnings",
    "task_ids",
    "uncorrected_energy_per_atom",
    "equilibrium_reaction_energy_per_atom",
    "decomposes_to",
    "xas",
    "grain_boundaries",
    "cbm",
    "vbm",
    "is_gap_direct",
    "is_metal",
    "es_source_calc_id",
    "bandstructure",
    "dos",
    "dos_energy_up",
    "dos_energy_down",
    "is_magnetic",
    "ordering",
    "total_magnetization_normalized_vol",
    "total_magnetization_normalized_formula_units",
    "num_magnetic_sites",
    "num_unique_magnetic_sites",
    "types_of_magnetic_species",
    "bulk_modulus",
    "shear_modulus",
    "universal_anisotropy",
    "homogeneous_poisson",
    "e_total",
    "e_ionic",
    "e_electronic",
    "n",
    "e_ij_max",
    "weighted_surface_energy_EV_PER_ANG2",
    "weighted_surface_energy",
    "weighted_work_function",
    "surface_anisotropy",
    "shape_factor",
    "has_reconstructed",
    "possible_species",
    "has_props",
    "theoretical",
    "database_IDs"
  ]
}
