{"builder_meta": null, "nsites": null, "elements": null, "nelements": null, "composition": null, "composition_reduced": null, "formula_pretty": "Ce7Rh3", "formula_anonymous": "A3B7", "chemsys": null, "volume": 511.9421221572597, "density": 8.3654474170669, "density_atomic": 25.597106107862984, "symmetry": null, "property_name": null, "material_id": "mp-1106144", "deprecated": null, "deprecation_reasons": null, "last_updated": null, "origins": null, "warnings": null, "structure": {"@module": "pymatgen.core.structure", "@class": "Structure", "charge": 0, "lattice": {"matrix": [[0.0, 0.0, -6.137048], [-4.906683, -8.500478, 0.0], [-4.906683, 8.500478, 0.0]], "pbc": [true, true, true], "a": 6.137048, "b": 9.814971436075247, "c": 9.814971436075247, "alpha": 120.01082141717653, "beta": 90.0, "gamma": 90.0, "volume": 511.9421221572597}, "properties": {}, "sites": [{"species": [{"element": "Ce", "occu": 1}], "abc": [0.441552, 0.333246, 0.666754], "properties": {"magmom": 0.608}, "label": "Ce", "xyz": [-4.906683, 2.8349774168239996, -2.7098258184960002]}, {"species": [{"element": "Ce", "occu": 1}], "abc": [0.941552, 0.666754, 0.333246], "properties": {"magmom": 0.608}, "label": "Ce", "xyz": [-4.906683, -2.8349774168239996, -5.778349818495999]}, {"species": [{"element": "Ce", "occu": 1}], "abc": [0.245677999999999, 0.128445, 0.871555], "properties": {"magmom": 0.441}, "label": "Ce", "xyz": [-4.906682999999999, 6.316790206579999, -1.507737678543994]}, {"species": [{"element": "Ce", "occu": 1}], "abc": [0.245557, 0.743153, 0.871632], "properties": {"magmom": 0.448}, "label": "Ce", "xyz": [-7.923238108154999, 1.0921329129620005, -1.506995095736]}, {"species": [{"element": "Ce", "occu": 1}], "abc": [0.245557, 0.128367999999999, 0.256847], "properties": {"magmom": 0.448}, "label": "Ce", "xyz": [-1.8901278918449953, 1.092132912962008, -1.506995095736]}, {"species": [{"element": "Ce", "occu": 1}], "abc": [0.745678, 0.871555, 0.128445], "properties": {"magmom": 0.441}, "label": "Ce", "xyz": [-4.906682999999999, -6.316790206579999, -4.576261678543999]}, {"species": [{"element": "Ce", "occu": 1}], "abc": [0.745556999999999, 0.256847, 0.128367999999999], "properties": {"magmom": 0.448}, "label": "Ce", "xyz": [-1.8901278918449953, -1.092132912962008, -4.575519095735994]}, {"species": [{"element": "Ce", "occu": 1}], "abc": [0.745556999999999, 0.871632, 0.743153], "properties": {"magmom": 0.448}, "label": "Ce", "xyz": [-7.923238108154999, -1.0921329129620005, -4.575519095735994]}, {"species": [{"element": "Ce", "occu": 1}], "abc": [0.457887999999999, 0.53859, 0.46141000000000004], "properties": {"magmom": 0.647}, "label": "Ce", "xyz": [-4.906683, -0.6560668920399997, -2.810080634623994]}, {"species": [{"element": "Ce", "occu": 1}], "abc": [0.45819000000000004, 0.922983, 0.461516], "properties": {"magmom": 0.643}, "label": "Ce", "xyz": [-6.793297706817, -3.922690081226, -2.81193402312]}, {"species": [{"element": "Ce", "occu": 1}], "abc": [0.45819000000000004, 0.538484, 0.077017], "properties": {"magmom": 0.643}, "label": "Ce", "xyz": [-3.020068293183, -3.9226900812259995, -2.81193402312]}, {"species": [{"element": "Ce", "occu": 1}], "abc": [0.957888, 0.46141000000000004, 0.53859], "properties": {"magmom": 0.647}, "label": "Ce", "xyz": [-4.906683, 0.6560668920399997, -5.878604634624]}, {"species": [{"element": "Ce", "occu": 1}], "abc": [0.9581900000000001, 0.077017, 0.538484], "properties": {"magmom": 0.643}, "label": "Ce", "xyz": [-3.020068293183, 3.9226900812259995, -5.880458023120001]}, {"species": [{"element": "Ce", "occu": 1}], "abc": [0.9581900000000001, 0.461516, 0.922983], "properties": {"magmom": 0.643}, "label": "Ce", "xyz": [-6.793297706817, 3.922690081226, -5.880458023120001]}, {"species": [{"element": "Rh", "occu": 1}], "abc": [0.202018, 0.814087, 0.185913], "properties": {"magmom": -0.036000000000000004}, "label": "Rh", "xyz": [-4.906683, -5.339779267172, -1.2397941628640001]}, {"species": [{"element": "Rh", "occu": 1}], "abc": [0.202185, 0.371899, 0.186010999999999], "properties": {"magmom": -0.036000000000000004}, "label": "Rh", "xyz": [-2.737487512529995, -1.580136854464008, -1.24081904988]}, {"species": [{"element": "Rh", "occu": 1}], "abc": [0.202185, 0.813989, 0.628101], "properties": {"magmom": -0.036000000000000004}, "label": "Rh", "xyz": [-7.07587848747, -1.5801368544639995, -1.24081904988]}, {"species": [{"element": "Rh", "occu": 1}], "abc": [0.702017999999999, 0.185913, 0.814087], "properties": {"magmom": -0.036000000000000004}, "label": "Rh", "xyz": [-4.906683, 5.339779267172, -4.308318162863994]}, {"species": [{"element": "Rh", "occu": 1}], "abc": [0.702185, 0.628101, 0.813989], "properties": {"magmom": -0.036000000000000004}, "label": "Rh", "xyz": [-7.07587848747, 1.5801368544639995, -4.30934304988]}, {"species": [{"element": "Rh", "occu": 1}], "abc": [0.702185, 0.186010999999999, 0.371899], "properties": {"magmom": -0.036000000000000004}, "label": "Rh", "xyz": [-2.737487512529995, 1.580136854464008, -4.30934304988]}]}, "task_ids": null, "uncorrected_energy_per_atom": null, "energy_per_atom": -29.302020409499995, "formation_energy_per_atom": -0.472711688499993, "energy_above_hull": 0.010101663500002, "is_stable": false, "equilibrium_reaction_energy_per_atom": null, "decomposes_to": null, "xas": null, "grain_boundaries": null, "band_gap": 0.0, "cbm": null, "vbm": null, "efermi": 7.80856912, "is_gap_direct": null, "is_metal": null, "es_source_calc_id": null, "bandstructure": null, "dos": null, "dos_energy_up": null, "dos_energy_down": null, "is_magnetic": null, "ordering": null, "total_magnetization": 9.4322927, "total_magnetization_normalized_vol": null, "total_magnetization_normalized_formula_units": null, "num_magnetic_sites": null, "num_unique_magnetic_sites": null, "types_of_magnetic_species": null, "bulk_modulus": null, "shear_modulus": null, "universal_anisotropy": null, "homogeneous_poisson": null, "e_total": null, "e_ionic": null, "e_electronic": null, "n": null, "e_ij_max": null, "weighted_surface_energy_EV_PER_ANG2": null, "weighted_surface_energy": null, "weighted_work_function": null, "surface_anisotropy": null, "shape_factor": null, "has_reconstructed": null, "possible_species": null, "has_props": null, "theoretical": null, "database_IDs": null, "fields_not_requested": ["builder_meta", "nsites", "elements", "nelements", "composition", "composition_reduced", "chemsys", "symmetry", "property_name", "deprecated", "deprecation_reasons", "last_updated", "origins", "warnings", "task_ids", "uncorrected_energy_per_atom", "equilibrium_reaction_energy_per_atom", "decomposes_to", "xas", "grain_boundaries", "cbm", "vbm", "is_gap_direct", "is_metal", "es_source_calc_id", "bandstructure", "dos", "dos_energy_up", "dos_energy_down", "is_magnetic", "ordering", "total_magnetization_normalized_vol", "total_magnetization_normalized_formula_units", "num_magnetic_sites", "num_unique_magnetic_sites", "types_of_magnetic_species", "bulk_modulus", "shear_modulus", "universal_anisotropy", "homogeneous_poisson", "e_total", "e_ionic", "e_electronic", "n", "e_ij_max", "weighted_surface_energy_EV_PER_ANG2", "weighted_surface_energy", "weighted_work_function", "surface_anisotropy", "shape_factor", "has_reconstructed", "possible_species", "has_props", "theoretical", "database_IDs"]}