{
  "builder_meta": null,
  "nsites": null,
  "elements": null,
  "nelements": null,
  "composition": null,
  "composition_reduced": null,
  "formula_pretty": "CeAg3",
  "formula_anonymous": "AB3",
  "chemsys": null,
  "volume": 181.29569833280993,
  "density": 8.49469876415525,
  "density_atomic": 22.66196229160124,
  "symmetry": null,
  "property_name": null,
  "material_id": "mp-862709",
  "deprecated": null,
  "deprecation_reasons": null,
  "last_updated": null,
  "origins": null,
  "warnings": null,
  "structure": {
    "@module": "pymatgen.core.structure",
    "@class": "Structure",
    "charge": 0,
    "lattice": {
      "matrix": [
        [6.59352202, -0.00305188, 0.0],
        [-3.29936066, 5.71708319, 0.0],
        [0.0, 0.0, 4.81073629]
      ],
      "pbc": [true, true, true],
      "a": 6.593522726297105,
      "b": 6.600819719257315,
      "c": 4.81073629,
      "alpha": 90.0,
      "beta": 90.0,
      "gamma": 120.01600445982558,
      "volume": 181.29569833280993
    },
    "properties": {},
    "sites": [
      {
        "species": [{ "element": "Ce", "occu": 1 }],
        "abc": [0.33347989, 0.6667517, 0.750000999999999],
        "properties": { "magmom": 1.027 },
        "label": "Ce",
        "xyz": [-0.0010473310259442314, 3.8108571953672294, 3.6080570282362854]
      },
      {
        "species": [{ "element": "Ce", "occu": 1 }],
        "abc": [0.66656051, 0.33348019, 0.250001],
        "properties": { "magmom": 1.027 },
        "label": "Ce",
        "xyz": [3.294709980572105, 1.9044997257577474, 1.2026888832362899]
      },
      {
        "species": [{ "element": "Ag", "occu": 1 }],
        "abc": [0.14580962, 0.29146605000000003, 0.250001],
        "properties": { "magmom": 0.005 },
        "label": "Ag",
        "xyz": [-0.0002526788977607053, 1.665890661447614, 1.2026888832362899]
      },
      {
        "species": [{ "element": "Ag", "occu": 1 }],
        "abc": [0.7080173200000001, 0.85421214, 0.250001],
        "properties": { "magmom": 0.004 },
        "label": "Ag",
        "xyz": [1.8499738599509743, 4.881441082389365, 1.2026888832362899]
      },
      {
        "species": [{ "element": "Ag", "occu": 1 }],
        "abc": [0.14627602, 0.85437263, 0.250001],
        "properties": { "magmom": 0.004 },
        "label": "Ag",
        "xyz": [-1.8544092855347751, 4.884072984109173, 1.2026888832362899]
      },
      {
        "species": [{ "element": "Ag", "occu": 1 }],
        "abc": [0.85378303, 0.70810362, 0.750000999999999],
        "properties": { "magmom": 0.004 },
        "label": "Ag",
        "xyz": [3.2931479815757316, 4.0456816593265525, 3.6080570282362854]
      },
      {
        "species": [{ "element": "Ag", "occu": 1 }],
        "abc": [0.29197226, 0.14603593, 0.750000999999999],
        "properties": { "magmom": 0.004 },
        "label": "Ag",
        "xyz": [1.4433003231506512, 0.834008496238168, 3.6080570282362854]
      },
      {
        "species": [{ "element": "Ag", "occu": 1 }],
        "abc": [0.8541003500000001, 0.14557274, 0.750000999999999],
        "properties": { "magmom": 0.005 },
        "label": "Ag",
        "xyz": [5.151232493490299, 0.8296448530000827, 3.6080570282362854]
      }
    ]
  },
  "task_ids": null,
  "uncorrected_energy_per_atom": null,
  "energy_per_atom": -3.6857534775,
  "formation_energy_per_atom": -0.069312751249998,
  "energy_above_hull": 0.06330195333333301,
  "is_stable": false,
  "equilibrium_reaction_energy_per_atom": null,
  "decomposes_to": null,
  "xas": null,
  "grain_boundaries": null,
  "band_gap": 0.0,
  "cbm": null,
  "vbm": null,
  "efermi": 4.42267137,
  "is_gap_direct": null,
  "is_metal": null,
  "es_source_calc_id": null,
  "bandstructure": null,
  "dos": null,
  "dos_energy_up": null,
  "dos_energy_down": null,
  "is_magnetic": null,
  "ordering": null,
  "total_magnetization": 2.3152458,
  "total_magnetization_normalized_vol": null,
  "total_magnetization_normalized_formula_units": null,
  "num_magnetic_sites": null,
  "num_unique_magnetic_sites": null,
  "types_of_magnetic_species": null,
  "bulk_modulus": null,
  "shear_modulus": null,
  "universal_anisotropy": null,
  "homogeneous_poisson": null,
  "e_total": null,
  "e_ionic": null,
  "e_electronic": null,
  "n": null,
  "e_ij_max": null,
  "weighted_surface_energy_EV_PER_ANG2": null,
  "weighted_surface_energy": null,
  "weighted_work_function": null,
  "surface_anisotropy": null,
  "shape_factor": null,
  "has_reconstructed": null,
  "possible_species": null,
  "has_props": null,
  "theoretical": null,
  "database_IDs": null,
  "fields_not_requested": [
    "builder_meta",
    "nsites",
    "elements",
    "nelements",
    "composition",
    "composition_reduced",
    "chemsys",
    "symmetry",
    "property_name",
    "deprecated",
    "deprecation_reasons",
    "last_updated",
    "origins",
    "warnings",
    "task_ids",
    "uncorrected_energy_per_atom",
    "equilibrium_reaction_energy_per_atom",
    "decomposes_to",
    "xas",
    "grain_boundaries",
    "cbm",
    "vbm",
    "is_gap_direct",
    "is_metal",
    "es_source_calc_id",
    "bandstructure",
    "dos",
    "dos_energy_up",
    "dos_energy_down",
    "is_magnetic",
    "ordering",
    "total_magnetization_normalized_vol",
    "total_magnetization_normalized_formula_units",
    "num_magnetic_sites",
    "num_unique_magnetic_sites",
    "types_of_magnetic_species",
    "bulk_modulus",
    "shear_modulus",
    "universal_anisotropy",
    "homogeneous_poisson",
    "e_total",
    "e_ionic",
    "e_electronic",
    "n",
    "e_ij_max",
    "weighted_surface_energy_EV_PER_ANG2",
    "weighted_surface_energy",
    "weighted_work_function",
    "surface_anisotropy",
    "shape_factor",
    "has_reconstructed",
    "possible_species",
    "has_props",
    "theoretical",
    "database_IDs"
  ]
}
