{
  "builder_meta": null,
  "nsites": null,
  "elements": null,
  "nelements": null,
  "composition": null,
  "composition_reduced": null,
  "formula_pretty": "CeAg2",
  "formula_anonymous": "AB2",
  "chemsys": null,
  "volume": 131.56185258873532,
  "density": 8.982950612447741,
  "density_atomic": 21.926975431455887,
  "symmetry": null,
  "property_name": null,
  "material_id": "mp-1206322",
  "deprecated": null,
  "deprecation_reasons": null,
  "last_updated": null,
  "origins": null,
  "warnings": null,
  "structure": {
    "@module": "pymatgen.core.structure",
    "@class": "Structure",
    "charge": 0,
    "lattice": {
      "matrix": [
        [-4.902156, 0.0, -0.0],
        [-2.451078, -3.15827617, 4.2487643],
        [-2.451078, 3.15827712, 4.24876526]
      ],
      "pbc": [true, true, true],
      "a": 4.902156,
      "b": 5.833908621587105,
      "c": 5.833909835040508,
      "alpha": 65.55327297219992,
      "beta": 65.15636646027107,
      "gamma": 65.1563609425834,
      "volume": 131.5618525887353
    },
    "properties": {},
    "sites": [
      {
        "species": [{ "element": "Ce", "occu": 1 }],
        "abc": [0.49677576, 0.25322524, 0.75322424],
        "properties": { "magmom": 1.24 },
        "label": "Ce",
        "xyz": [-4.902158451078, 1.5791356422868583, 4.276167343472834]
      },
      {
        "species": [{ "element": "Ce", "occu": 1 }],
        "abc": [0.50322424, 0.74677476, 0.24677576],
        "properties": { "magmom": 1.24 },
        "label": "Ce",
        "xyz": [-4.902153548922, -1.579134692286858, 4.221362216527166]
      },
      {
        "species": [{ "element": "Ag", "occu": 1 }],
        "abc": [0.83338118, 0.16129186, 0.17194579000000002],
        "properties": { "magmom": 0.034 },
        "label": "Ag",
        "xyz": [-4.90215602451078, 0.03364821658434858, 1.4158483958038537]
      },
      {
        "species": [{ "element": "Ag", "occu": 1 }],
        "abc": [0.16661882, 0.83870814, 0.82805421],
        "properties": { "magmom": 0.034 },
        "label": "Ag",
        "xyz": [-4.90215597548922, -0.03364726658434902, 7.081681164196147]
      },
      {
        "species": [{ "element": "Ag", "occu": 1 }],
        "abc": [0.83338018, 0.67194579, 0.6612918600000001],
        "properties": { "magmom": 0.034 },
        "label": "Ag",
        "xyz": [-7.35322912235478, -0.03364742500858098, 5.664613165576081]
      },
      {
        "species": [{ "element": "Ag", "occu": 1 }],
        "abc": [0.16661982, 0.32805421, 0.33870814],
        "properties": { "magmom": 0.034 },
        "label": "Ag",
        "xyz": [-2.45108287764522, 0.03364837500858098, 2.8329163944239193]
      }
    ]
  },
  "task_ids": null,
  "uncorrected_energy_per_atom": null,
  "energy_per_atom": -4.051094681666666,
  "formation_energy_per_atom": -0.176819606111108,
  "energy_above_hull": 0.0,
  "is_stable": true,
  "equilibrium_reaction_energy_per_atom": null,
  "decomposes_to": null,
  "xas": null,
  "grain_boundaries": null,
  "band_gap": 0.0,
  "cbm": null,
  "vbm": null,
  "efermi": 5.31406675,
  "is_gap_direct": null,
  "is_metal": null,
  "es_source_calc_id": null,
  "bandstructure": null,
  "dos": null,
  "dos_energy_up": null,
  "dos_energy_down": null,
  "is_magnetic": null,
  "ordering": null,
  "total_magnetization": 2.7894513,
  "total_magnetization_normalized_vol": null,
  "total_magnetization_normalized_formula_units": null,
  "num_magnetic_sites": null,
  "num_unique_magnetic_sites": null,
  "types_of_magnetic_species": null,
  "bulk_modulus": null,
  "shear_modulus": null,
  "universal_anisotropy": null,
  "homogeneous_poisson": null,
  "e_total": null,
  "e_ionic": null,
  "e_electronic": null,
  "n": null,
  "e_ij_max": null,
  "weighted_surface_energy_EV_PER_ANG2": null,
  "weighted_surface_energy": null,
  "weighted_work_function": null,
  "surface_anisotropy": null,
  "shape_factor": null,
  "has_reconstructed": null,
  "possible_species": null,
  "has_props": null,
  "theoretical": null,
  "database_IDs": null,
  "fields_not_requested": [
    "builder_meta",
    "nsites",
    "elements",
    "nelements",
    "composition",
    "composition_reduced",
    "chemsys",
    "symmetry",
    "property_name",
    "deprecated",
    "deprecation_reasons",
    "last_updated",
    "origins",
    "warnings",
    "task_ids",
    "uncorrected_energy_per_atom",
    "equilibrium_reaction_energy_per_atom",
    "decomposes_to",
    "xas",
    "grain_boundaries",
    "cbm",
    "vbm",
    "is_gap_direct",
    "is_metal",
    "es_source_calc_id",
    "bandstructure",
    "dos",
    "dos_energy_up",
    "dos_energy_down",
    "is_magnetic",
    "ordering",
    "total_magnetization_normalized_vol",
    "total_magnetization_normalized_formula_units",
    "num_magnetic_sites",
    "num_unique_magnetic_sites",
    "types_of_magnetic_species",
    "bulk_modulus",
    "shear_modulus",
    "universal_anisotropy",
    "homogeneous_poisson",
    "e_total",
    "e_ionic",
    "e_electronic",
    "n",
    "e_ij_max",
    "weighted_surface_energy_EV_PER_ANG2",
    "weighted_surface_energy",
    "weighted_work_function",
    "surface_anisotropy",
    "shape_factor",
    "has_reconstructed",
    "possible_species",
    "has_props",
    "theoretical",
    "database_IDs"
  ]
}
