{
  "builder_meta": null,
  "nsites": null,
  "elements": null,
  "nelements": null,
  "composition": null,
  "composition_reduced": null,
  "formula_pretty": "CeAl3",
  "formula_anonymous": "AB3",
  "chemsys": null,
  "volume": 169.39428044727188,
  "density": 4.334028134283032,
  "density_atomic": 21.174285055908985,
  "symmetry": null,
  "property_name": null,
  "material_id": "mp-567305",
  "deprecated": null,
  "deprecation_reasons": null,
  "last_updated": null,
  "origins": null,
  "warnings": null,
  "structure": {
    "@module": "pymatgen.core.structure",
    "@class": "Structure",
    "charge": 0,
    "lattice": {
      "matrix": [
        [6.53712978, 8.02e-6, 0.00015828],
        [-3.26867188, 5.62477524, -5.8860000000000016e-5],
        [-0.00011944000000000001, 6.3e-6, 4.60687207]
      ],
      "pbc": [true, true, true],
      "a": 6.537129781921093,
      "b": 6.505560111403498,
      "c": 4.606872071552637,
      "alpha": 89.99970427902419,
      "beta": 90.00009820624842,
      "gamma": 120.16167651463924,
      "volume": 169.39428044727185
    },
    "properties": {},
    "sites": [
      {
        "species": [{ "element": "Ce", "occu": 1 }],
        "abc": [0.66578757, 0.33154896, 0.74998909],
        "properties": { "magmom": 0.838 },
        "label": "Ce",
        "xyz": [3.2685254099086802, 1.8648984456033286, 3.4551896574105103]
      },
      {
        "species": [{ "element": "Ce", "occu": 1 }],
        "abc": [0.33423644, 0.66845166, 0.2499824],
        "properties": { "magmom": 0.839 },
        "label": "Ce",
        "xyz": [-3.201659399339983e-5, 3.7598946017702675, 1.1516504944305836]
      },
      {
        "species": [{ "element": "Al", "occu": 1 }],
        "abc": [0.71980025, 0.85917434, 0.74995583],
        "properties": { "magmom": -0.001 },
        "label": "Al",
        "xyz": [1.8969790700265508, 4.8326730519950765, 3.4550139259425854]
      },
      {
        "species": [{ "element": "Al", "occu": 1 }],
        "abc": [0.13938633, 0.85923704, 0.75005815],
        "properties": { "magmom": -0.001 },
        "label": "Al",
        "xyz": [-1.8974670090799635, 4.833021071127602, 3.455393429487008]
      },
      {
        "species": [{ "element": "Al", "occu": 1 }],
        "abc": [0.86063893, 0.14082612, 0.24996966],
        "properties": { "magmom": -0.001 },
        "label": "Al",
        "xyz": [5.16576414434064, 0.7921237500543454, 1.1517061779058133]
      },
      {
        "species": [{ "element": "Al", "occu": 1 }],
        "abc": [0.86031382, 0.72064433, 0.2500077],
        "properties": { "magmom": -0.0 },
        "label": "Al",
        "xyz": [3.2684033749954313, 4.053470858995736, 1.1518472437611047]
      },
      {
        "species": [{ "element": "Al", "occu": 1 }],
        "abc": [0.13967738, 0.27935559, 0.75000342],
        "properties": { "magmom": -0.0 },
        "label": "Al",
        "xyz": [-0.00012218157191753277, 1.5713182510217252, 3.4551754732681577]
      },
      {
        "species": [{ "element": "Al", "occu": 1 }],
        "abc": [0.28015828, 0.14076196, 0.25003374],
        "properties": { "magmom": -0.001 },
        "label": "Al",
        "xyz": [1.371296510845988, 0.791758209423838, 1.1519095115672344]
      }
    ]
  },
  "task_ids": null,
  "uncorrected_energy_per_atom": null,
  "energy_per_atom": -13.21787240875,
  "formation_energy_per_atom": -0.45864147125000004,
  "energy_above_hull": 0.0,
  "is_stable": true,
  "equilibrium_reaction_energy_per_atom": null,
  "decomposes_to": null,
  "xas": null,
  "grain_boundaries": null,
  "band_gap": 0.0,
  "cbm": null,
  "vbm": null,
  "efermi": 7.18588475,
  "is_gap_direct": null,
  "is_metal": null,
  "es_source_calc_id": null,
  "bandstructure": null,
  "dos": null,
  "dos_energy_up": null,
  "dos_energy_down": null,
  "is_magnetic": null,
  "ordering": null,
  "total_magnetization": 1.8392457,
  "total_magnetization_normalized_vol": null,
  "total_magnetization_normalized_formula_units": null,
  "num_magnetic_sites": null,
  "num_unique_magnetic_sites": null,
  "types_of_magnetic_species": null,
  "bulk_modulus": null,
  "shear_modulus": null,
  "universal_anisotropy": null,
  "homogeneous_poisson": null,
  "e_total": null,
  "e_ionic": null,
  "e_electronic": null,
  "n": null,
  "e_ij_max": null,
  "weighted_surface_energy_EV_PER_ANG2": null,
  "weighted_surface_energy": null,
  "weighted_work_function": null,
  "surface_anisotropy": null,
  "shape_factor": null,
  "has_reconstructed": null,
  "possible_species": null,
  "has_props": null,
  "theoretical": null,
  "database_IDs": null,
  "fields_not_requested": [
    "builder_meta",
    "nsites",
    "elements",
    "nelements",
    "composition",
    "composition_reduced",
    "chemsys",
    "symmetry",
    "property_name",
    "deprecated",
    "deprecation_reasons",
    "last_updated",
    "origins",
    "warnings",
    "task_ids",
    "uncorrected_energy_per_atom",
    "equilibrium_reaction_energy_per_atom",
    "decomposes_to",
    "xas",
    "grain_boundaries",
    "cbm",
    "vbm",
    "is_gap_direct",
    "is_metal",
    "es_source_calc_id",
    "bandstructure",
    "dos",
    "dos_energy_up",
    "dos_energy_down",
    "is_magnetic",
    "ordering",
    "total_magnetization_normalized_vol",
    "total_magnetization_normalized_formula_units",
    "num_magnetic_sites",
    "num_unique_magnetic_sites",
    "types_of_magnetic_species",
    "bulk_modulus",
    "shear_modulus",
    "universal_anisotropy",
    "homogeneous_poisson",
    "e_total",
    "e_ionic",
    "e_electronic",
    "n",
    "e_ij_max",
    "weighted_surface_energy_EV_PER_ANG2",
    "weighted_surface_energy",
    "weighted_work_function",
    "surface_anisotropy",
    "shape_factor",
    "has_reconstructed",
    "possible_species",
    "has_props",
    "theoretical",
    "database_IDs"
  ]
}
