{"builder_meta": null, "nsites": null, "elements": null, "nelements": null, "composition": null, "composition_reduced": null, "formula_pretty": "CeAl", "formula_anonymous": "AB", "chemsys": null, "volume": 191.04891199022248, "density": 5.809444040010066, "density_atomic": 23.88111399877781, "symmetry": null, "property_name": null, "material_id": "mp-20439", "deprecated": null, "deprecation_reasons": null, "last_updated": null, "origins": null, "warnings": null, "structure": {"@module": "pymatgen.core.structure", "@class": "Structure", "charge": 0, "lattice": {"matrix": [[5.38485701, 0.0, 0.0], [0.0, 5.90512878, -1.21923907], [0.0, -0.10116072, 6.02904028]], "pbc": [true, true, true], "a": 5.38485701, "b": 6.029684056250273, "c": 6.029888903548174, "alpha": 102.62726764609967, "beta": 90.0, "gamma": 90.0, "volume": 191.04891199022248}, "properties": {}, "sites": [{"species": [{"element": "Ce", "occu": 1}], "abc": [0.25, 0.36980734, 0.98866708], "properties": {"magmom": 0.909}, "label": "Ce", "xyz": [1.3462142525, 2.0837456928361475, 5.509830091529209]}, {"species": [{"element": "Ce", "occu": 1}], "abc": [0.75, 0.63019266, 0.01133292], "properties": {"magmom": 0.909}, "label": "Ce", "xyz": [4.0386427575, 3.7202223671638524, -0.7000288815292085]}, {"species": [{"element": "Ce", "occu": 1}], "abc": [0.25, 0.9886347, 0.36977509000000003], "properties": {"magmom": 0.909}, "label": "Ce", "xyz": [1.3462142525, 5.800608505534201, 1.0240068599528964]}, {"species": [{"element": "Ce", "occu": 1}], "abc": [0.75, 0.0113653, 0.63022491], "properties": {"magmom": 0.909}, "label": "Ce", "xyz": [4.0386427575, 0.003359554465798803, 3.7857943500471043]}, {"species": [{"element": "Al", "occu": 1}], "abc": [0.25, 0.82286529, 0.82294836], "properties": {"magmom": -0.029}, "label": "Al", "xyz": [1.3462142525, 4.775875457421627, 3.9583192998850607]}, {"species": [{"element": "Al", "occu": 1}], "abc": [0.75, 0.17713471, 0.17705164], "properties": {"magmom": -0.029}, "label": "Al", "xyz": [4.0386427575, 1.028092602578373, 0.8514819101149397]}, {"species": [{"element": "Al", "occu": 1}], "abc": [0.0, 0.5, 0.5], "properties": {"magmom": -0.014}, "label": "Al", "xyz": [0.0, 2.90198403, 2.404900605]}, {"species": [{"element": "Al", "occu": 1}], "abc": [0.5, 0.5, 0.5], "properties": {"magmom": -0.014}, "label": "Al", "xyz": [2.692428505, 2.90198403, 2.404900605]}]}, "task_ids": null, "uncorrected_energy_per_atom": null, "energy_per_atom": -19.1775683175, "formation_energy_per_atom": -0.3912047725, "energy_above_hull": 0.004312696499997, "is_stable": false, "equilibrium_reaction_energy_per_atom": null, "decomposes_to": null, "xas": null, "grain_boundaries": null, "band_gap": 0.0, "cbm": null, "vbm": null, "efermi": 7.72974329, "is_gap_direct": null, "is_metal": null, "es_source_calc_id": null, "bandstructure": null, "dos": null, "dos_energy_up": null, "dos_energy_down": null, "is_magnetic": null, "ordering": null, "total_magnetization": 4.0856118, "total_magnetization_normalized_vol": null, "total_magnetization_normalized_formula_units": null, "num_magnetic_sites": null, "num_unique_magnetic_sites": null, "types_of_magnetic_species": null, "bulk_modulus": null, "shear_modulus": null, "universal_anisotropy": null, "homogeneous_poisson": null, "e_total": null, "e_ionic": null, "e_electronic": null, "n": null, "e_ij_max": null, "weighted_surface_energy_EV_PER_ANG2": null, "weighted_surface_energy": null, "weighted_work_function": null, "surface_anisotropy": null, "shape_factor": null, "has_reconstructed": null, "possible_species": null, "has_props": null, "theoretical": null, "database_IDs": null, "fields_not_requested": ["builder_meta", "nsites", "elements", "nelements", "composition", "composition_reduced", "chemsys", "symmetry", "property_name", "deprecated", "deprecation_reasons", "last_updated", "origins", "warnings", "task_ids", "uncorrected_energy_per_atom", "equilibrium_reaction_energy_per_atom", "decomposes_to", "xas", "grain_boundaries", "cbm", "vbm", "is_gap_direct", "is_metal", "es_source_calc_id", "bandstructure", "dos", "dos_energy_up", "dos_energy_down", "is_magnetic", "ordering", "total_magnetization_normalized_vol", "total_magnetization_normalized_formula_units", "num_magnetic_sites", "num_unique_magnetic_sites", "types_of_magnetic_species", "bulk_modulus", "shear_modulus", "universal_anisotropy", "homogeneous_poisson", "e_total", "e_ionic", "e_electronic", "n", "e_ij_max", "weighted_surface_energy_EV_PER_ANG2", "weighted_surface_energy", "weighted_work_function", "surface_anisotropy", "shape_factor", "has_reconstructed", "possible_species", "has_props", "theoretical", "database_IDs"]}