{
  "builder_meta": null,
  "nsites": null,
  "elements": null,
  "nelements": null,
  "composition": null,
  "composition_reduced": null,
  "formula_pretty": "CeAs2",
  "formula_anonymous": "AB2",
  "chemsys": null,
  "volume": 274.8132330988941,
  "density": 7.008229900585822,
  "density_atomic": 22.901102758241176,
  "symmetry": null,
  "property_name": null,
  "material_id": "mp-1101892",
  "deprecated": null,
  "deprecation_reasons": null,
  "last_updated": null,
  "origins": null,
  "warnings": null,
  "structure": {
    "@module": "pymatgen.core.structure",
    "@class": "Structure",
    "charge": 0,
    "lattice": {
      "matrix": [
        [-3.72232738, 0.0, 1.34658613],
        [0.0, -7.13366702, 0.0],
        [3.30947986, 0.0, 9.15204773]
      ],
      "pbc": [true, true, true],
      "a": 3.958410707519628,
      "b": 7.13366702,
      "c": 9.732041645818402,
      "alpha": 90.0,
      "beta": 89.99248462983952,
      "gamma": 90.0,
      "volume": 274.8132330988941
    },
    "properties": {},
    "sites": [
      {
        "species": [{ "element": "Ce", "occu": 1 }],
        "abc": [0.7499880600000001, 0.8023079, 0.64814751],
        "properties": { "magmom": -0.0 },
        "label": "Ce",
        "xyz": [-0.6466699597569341, -5.723397406115458, 6.94180046686226]
      },
      {
        "species": [{ "element": "Ce", "occu": 1 }],
        "abc": [0.75001194, 0.302307899999999, 0.8518524900000001],
        "properties": { "magmom": -0.0 },
        "label": "Ce",
        "xyz": [0.027398679756934552, -2.156563896115451, 8.806150323137741]
      },
      {
        "species": [{ "element": "Ce", "occu": 1 }],
        "abc": [0.25001194, 0.197692099999999, 0.35185249],
        "properties": { "magmom": -0.0 },
        "label": "Ce",
        "xyz": [0.23382243975693429, -1.410269613884535, 3.55683339313774]
      },
      {
        "species": [{ "element": "Ce", "occu": 1 }],
        "abc": [0.24998806, 0.697692099999999, 0.14814751],
        "properties": { "magmom": -0.0 },
        "label": "Ce",
        "xyz": [-0.44024619975693413, -4.977103123884535, 1.6924835368622602]
      },
      {
        "species": [{ "element": "As", "occu": 1 }],
        "abc": [0.74999028, 0.89739811, 0.9536454],
        "properties": { "magmom": -0.0 },
        "label": "As",
        "xyz": [0.3643608909037779, -6.401739301117332, 9.737734726977758]
      },
      {
        "species": [{ "element": "As", "occu": 1 }],
        "abc": [0.75000972, 0.39739811, 0.5463546],
        "properties": { "magmom": -0.0 },
        "label": "As",
        "xyz": [-0.9836321709037772, -2.8349057911173325, 6.010216063022241]
      },
      {
        "species": [{ "element": "As", "occu": 1 }],
        "abc": [0.25000972, 0.10260189, 0.046354599999999004],
        "properties": { "magmom": -0.0 },
        "label": "As",
        "xyz": [-0.7772084109037808, -0.7319277188826678, 0.7608991330222324]
      },
      {
        "species": [{ "element": "As", "occu": 1 }],
        "abc": [0.24999028, 0.60260189, 0.4536454],
        "properties": { "magmom": -0.0 },
        "label": "As",
        "xyz": [0.5707846509037775, -4.298761228882667, 4.488417796977759]
      },
      {
        "species": [{ "element": "As", "occu": 1 }],
        "abc": [0.24995005, 0.11334296, 0.66572377],
        "properties": { "magmom": 0.0 },
        "label": "As",
        "xyz": [1.2728034943909035, -0.8085509357011792, 6.429314988558349]
      },
      {
        "species": [{ "element": "As", "occu": 1 }],
        "abc": [0.25004995, 0.61334296, 0.8342762300000001],
        "properties": { "magmom": 0.0 },
        "label": "As",
        "xyz": [1.8302526056090973, -4.3753844457011795, 7.972049671441652]
      },
      {
        "species": [{ "element": "As", "occu": 1 }],
        "abc": [0.75004995, 0.88665704, 0.33427623],
        "properties": { "magmom": 0.0 },
        "label": "As",
        "xyz": [-1.6856510143909027, -6.325116084298821, 4.069318871441651]
      },
      {
        "species": [{ "element": "As", "occu": 1 }],
        "abc": [0.74995005, 0.38665704, 0.16572377],
        "properties": { "magmom": 0.0 },
        "label": "As",
        "xyz": [-2.2431001256090966, -2.758282574298821, 2.526584188558348]
      }
    ]
  },
  "task_ids": null,
  "uncorrected_energy_per_atom": null,
  "energy_per_atom": -21.207496549166667,
  "formation_energy_per_atom": -1.122266304166665,
  "energy_above_hull": 0.051509300000002006,
  "is_stable": false,
  "equilibrium_reaction_energy_per_atom": null,
  "decomposes_to": null,
  "xas": null,
  "grain_boundaries": null,
  "band_gap": 0.0693,
  "cbm": null,
  "vbm": null,
  "efermi": 6.44954364,
  "is_gap_direct": null,
  "is_metal": null,
  "es_source_calc_id": null,
  "bandstructure": null,
  "dos": null,
  "dos_energy_up": null,
  "dos_energy_down": null,
  "is_magnetic": null,
  "ordering": null,
  "total_magnetization": 0.0,
  "total_magnetization_normalized_vol": null,
  "total_magnetization_normalized_formula_units": null,
  "num_magnetic_sites": null,
  "num_unique_magnetic_sites": null,
  "types_of_magnetic_species": null,
  "bulk_modulus": null,
  "shear_modulus": null,
  "universal_anisotropy": null,
  "homogeneous_poisson": null,
  "e_total": null,
  "e_ionic": null,
  "e_electronic": null,
  "n": null,
  "e_ij_max": null,
  "weighted_surface_energy_EV_PER_ANG2": null,
  "weighted_surface_energy": null,
  "weighted_work_function": null,
  "surface_anisotropy": null,
  "shape_factor": null,
  "has_reconstructed": null,
  "possible_species": null,
  "has_props": null,
  "theoretical": null,
  "database_IDs": null,
  "fields_not_requested": [
    "builder_meta",
    "nsites",
    "elements",
    "nelements",
    "composition",
    "composition_reduced",
    "chemsys",
    "symmetry",
    "property_name",
    "deprecated",
    "deprecation_reasons",
    "last_updated",
    "origins",
    "warnings",
    "task_ids",
    "uncorrected_energy_per_atom",
    "equilibrium_reaction_energy_per_atom",
    "decomposes_to",
    "xas",
    "grain_boundaries",
    "cbm",
    "vbm",
    "is_gap_direct",
    "is_metal",
    "es_source_calc_id",
    "bandstructure",
    "dos",
    "dos_energy_up",
    "dos_energy_down",
    "is_magnetic",
    "ordering",
    "total_magnetization_normalized_vol",
    "total_magnetization_normalized_formula_units",
    "num_magnetic_sites",
    "num_unique_magnetic_sites",
    "types_of_magnetic_species",
    "bulk_modulus",
    "shear_modulus",
    "universal_anisotropy",
    "homogeneous_poisson",
    "e_total",
    "e_ionic",
    "e_electronic",
    "n",
    "e_ij_max",
    "weighted_surface_energy_EV_PER_ANG2",
    "weighted_surface_energy",
    "weighted_work_function",
    "surface_anisotropy",
    "shape_factor",
    "has_reconstructed",
    "possible_species",
    "has_props",
    "theoretical",
    "database_IDs"
  ]
}
