{"builder_meta": null, "nsites": null, "elements": null, "nelements": null, "composition": null, "composition_reduced": null, "formula_pretty": "CeAu3", "formula_anonymous": "AB3", "chemsys": null, "volume": 175.96520093039953, "density": 13.796820432147282, "density_atomic": 21.99565011629994, "symmetry": null, "property_name": null, "material_id": "mp-865572", "deprecated": null, "deprecation_reasons": null, "last_updated": null, "origins": null, "warnings": null, "structure": {"@module": "pymatgen.core.structure", "@class": "Structure", "charge": 0, "lattice": {"matrix": [[6.57454195, -0.02666247, 0.0], [-3.31248625, 5.67512838, 0.0], [0.0, 0.0, 4.72731811]], "pbc": [true, true, true], "a": 6.574596013415297, "b": 6.5711222242414955, "c": 4.72731811, "alpha": 90.0, "beta": 90.0, "gamma": 120.50381701724173, "volume": 175.96520093039953}, "properties": {}, "sites": [{"species": [{"element": "Ce", "occu": 1}], "abc": [0.33348291, 0.6670085, 0.749999], "properties": {"magmom": 0.935}, "label": "Ce", "xyz": [-0.016959103480050253, 3.7764673899678423, 3.5454838551818897]}, {"species": [{"element": "Ce", "occu": 1}], "abc": [0.66645911, 0.33291626, 0.25], "properties": {"magmom": 0.934}, "label": "Ce", "xyz": [3.27888284300324, 1.8715730692628572, 1.1818295275]}, {"species": [{"element": "Au", "occu": 1}], "abc": [0.15402000000000002, 0.30549694, 0.25], "properties": {"magmom": -0.012}, "label": "Au", "xyz": [0.0006565379719252196, 1.7296278005677572, 1.1818295275]}, {"species": [{"element": "Au", "occu": 1}], "abc": [0.69499603, 0.84610601, 0.25], "properties": {"magmom": -0.012}, "label": "Au", "xyz": [1.7665660301510964, 4.78322991903957, 1.1818295275]}, {"species": [{"element": "Au", "occu": 1}], "abc": [0.15283693, 0.84678734, 0.25], "properties": {"magmom": -0.011}, "label": "Au", "xyz": [-1.8001386126298615, 4.801551854997692, 1.1818295275]}, {"species": [{"element": "Au", "occu": 1}], "abc": [0.84592711, 0.69442577, 0.749999], "properties": {"magmom": -0.012}, "label": "Au", "xyz": [3.261307456566602, 3.9184008889377915, 3.5454838551818897]}, {"species": [{"element": "Au", "occu": 1}], "abc": [0.30531343, 0.15403595, 0.749999], "properties": {"magmom": -0.012}, "label": "Au", "xyz": [1.497053987052701, 0.866033381217289, 3.5454838551818897]}, {"species": [{"element": "Au", "occu": 1}], "abc": [0.84696548, 0.15322923, 0.749999], "properties": {"magmom": -0.011}, "label": "Au", "xyz": [5.0608403609887995, 0.8470133601170118, 3.5454838551818897]}]}, "task_ids": null, "uncorrected_energy_per_atom": null, "energy_per_atom": -4.522714793749998, "formation_energy_per_atom": -0.583065826249996, "energy_above_hull": 0.0, "is_stable": true, "equilibrium_reaction_energy_per_atom": null, "decomposes_to": null, "xas": null, "grain_boundaries": null, "band_gap": 0.0, "cbm": null, "vbm": null, "efermi": 5.88576609, "is_gap_direct": null, "is_metal": null, "es_source_calc_id": null, "bandstructure": null, "dos": null, "dos_energy_up": null, "dos_energy_down": null, "is_magnetic": null, "ordering": null, "total_magnetization": 1.907384899999999, "total_magnetization_normalized_vol": null, "total_magnetization_normalized_formula_units": null, "num_magnetic_sites": null, "num_unique_magnetic_sites": null, "types_of_magnetic_species": null, "bulk_modulus": null, "shear_modulus": null, "universal_anisotropy": null, "homogeneous_poisson": null, "e_total": null, "e_ionic": null, "e_electronic": null, "n": null, "e_ij_max": null, "weighted_surface_energy_EV_PER_ANG2": null, "weighted_surface_energy": null, "weighted_work_function": null, "surface_anisotropy": null, "shape_factor": null, "has_reconstructed": null, "possible_species": null, "has_props": null, "theoretical": null, "database_IDs": null, "fields_not_requested": ["builder_meta", "nsites", "elements", "nelements", "composition", "composition_reduced", "chemsys", "symmetry", "property_name", "deprecated", "deprecation_reasons", "last_updated", "origins", "warnings", "task_ids", "uncorrected_energy_per_atom", "equilibrium_reaction_energy_per_atom", "decomposes_to", "xas", "grain_boundaries", "cbm", "vbm", "is_gap_direct", "is_metal", "es_source_calc_id", "bandstructure", "dos", "dos_energy_up", "dos_energy_down", "is_magnetic", "ordering", "total_magnetization_normalized_vol", "total_magnetization_normalized_formula_units", "num_magnetic_sites", "num_unique_magnetic_sites", "types_of_magnetic_species", "bulk_modulus", "shear_modulus", "universal_anisotropy", "homogeneous_poisson", "e_total", "e_ionic", "e_electronic", "n", "e_ij_max", "weighted_surface_energy_EV_PER_ANG2", "weighted_surface_energy", "weighted_work_function", "surface_anisotropy", "shape_factor", "has_reconstructed", "possible_species", "has_props", "theoretical", "database_IDs"]}