{"builder_meta": null, "nsites": null, "elements": null, "nelements": null, "composition": null, "composition_reduced": null, "formula_pretty": "CeAu", "formula_anonymous": "AB", "chemsys": null, "volume": 212.94940147296592, "density": 10.514023906574808, "density_atomic": 26.61867518412074, "symmetry": null, "property_name": null, "material_id": "mp-1025468", "deprecated": null, "deprecation_reasons": null, "last_updated": null, "origins": null, "warnings": null, "structure": {"@module": "pymatgen.core.structure", "@class": "Structure", "charge": 0, "lattice": {"matrix": [[0.0, -4.83494534, 0.0], [-7.486254, 0.0, -0.05154223], [-0.02763842, 0.0, -5.88348084]], "pbc": [true, true, true], "a": 4.83494534, "b": 7.486431429859581, "c": 5.883545757186495, "alpha": 89.33637717244025, "beta": 90.0, "gamma": 90.0, "volume": 212.94940147296595}, "properties": {}, "sites": [{"species": [{"element": "Ce", "occu": 1}], "abc": [0.75, 0.81226827, 0.35160394], "properties": {"magmom": 1.043}, "label": "Ce", "xyz": [-6.090564362727955, -3.6262090049999998, -2.1105211622525517]}, {"species": [{"element": "Ce", "occu": 1}], "abc": [0.25, 0.18773173, 0.64839606], "properties": {"magmom": 1.043}, "label": "Ce", "xyz": [-1.4233280572720453, -1.208736335, -3.8245019077474485]}, {"species": [{"element": "Ce", "occu": 1}], "abc": [0.25, 0.68709757, 0.84935081], "properties": {"magmom": 1.055}, "label": "Ce", "xyz": [-5.1672616462169, -1.208736335, -5.032553758058862]}, {"species": [{"element": "Ce", "occu": 1}], "abc": [0.75, 0.31290243, 0.15064919000000002], "properties": {"magmom": 1.055}, "label": "Ce", "xyz": [-2.3466307737830996, -3.6262090049999998, -0.9024693119411386]}, {"species": [{"element": "Au", "occu": 1}], "abc": [0.75, 0.96225668, 0.84533506], "properties": {"magmom": 0.008}, "label": "Au", "xyz": [-7.227061645105725, -3.6262090049999998, -5.023109484009847]}, {"species": [{"element": "Au", "occu": 1}], "abc": [0.25, 0.037743320000000004, 0.15466494], "properties": {"magmom": 0.008}, "label": "Au", "xyz": [-0.2868307748942748, -1.208736335, -0.9119135859901532]}, {"species": [{"element": "Au", "occu": 1}], "abc": [0.25, 0.54213842, 0.34516156000000003], "properties": {"magmom": 0.006}, "label": "Au", "xyz": [-4.068125635441816, -1.208736335, -2.0586944480999874]}, {"species": [{"element": "Au", "occu": 1}], "abc": [0.75, 0.45786158, 0.65483844], "properties": {"magmom": 0.006}, "label": "Au", "xyz": [-3.4457667845581845, -3.6262090049999998, -3.876328621900013]}]}, "task_ids": null, "uncorrected_energy_per_atom": null, "energy_per_atom": -5.261342316250001, "formation_energy_per_atom": -0.655926381249999, "energy_above_hull": 0.0, "is_stable": true, "equilibrium_reaction_energy_per_atom": null, "decomposes_to": null, "xas": null, "grain_boundaries": null, "band_gap": 0.0, "cbm": null, "vbm": null, "efermi": 6.62831438, "is_gap_direct": null, "is_metal": null, "es_source_calc_id": null, "bandstructure": null, "dos": null, "dos_energy_up": null, "dos_energy_down": null, "is_magnetic": null, "ordering": null, "total_magnetization": 4.8541878, "total_magnetization_normalized_vol": null, "total_magnetization_normalized_formula_units": null, "num_magnetic_sites": null, "num_unique_magnetic_sites": null, "types_of_magnetic_species": null, "bulk_modulus": null, "shear_modulus": null, "universal_anisotropy": null, "homogeneous_poisson": null, "e_total": null, "e_ionic": null, "e_electronic": null, "n": null, "e_ij_max": null, "weighted_surface_energy_EV_PER_ANG2": null, "weighted_surface_energy": null, "weighted_work_function": null, "surface_anisotropy": null, "shape_factor": null, "has_reconstructed": null, "possible_species": null, "has_props": null, "theoretical": null, "database_IDs": null, "fields_not_requested": ["builder_meta", "nsites", "elements", "nelements", "composition", "composition_reduced", "chemsys", "symmetry", "property_name", "deprecated", "deprecation_reasons", "last_updated", "origins", "warnings", "task_ids", "uncorrected_energy_per_atom", "equilibrium_reaction_energy_per_atom", "decomposes_to", "xas", "grain_boundaries", "cbm", "vbm", "is_gap_direct", "is_metal", "es_source_calc_id", "bandstructure", "dos", "dos_energy_up", "dos_energy_down", "is_magnetic", "ordering", "total_magnetization_normalized_vol", "total_magnetization_normalized_formula_units", "num_magnetic_sites", "num_unique_magnetic_sites", "types_of_magnetic_species", "bulk_modulus", "shear_modulus", "universal_anisotropy", "homogeneous_poisson", "e_total", "e_ionic", "e_electronic", "n", "e_ij_max", "weighted_surface_energy_EV_PER_ANG2", "weighted_surface_energy", "weighted_work_function", "surface_anisotropy", "shape_factor", "has_reconstructed", "possible_species", "has_props", "theoretical", "database_IDs"]}