{"builder_meta": null, "nsites": null, "elements": null, "nelements": null, "composition": null, "composition_reduced": null, "formula_pretty": "CeAu6", "formula_anonymous": "AB6", "chemsys": null, "volume": 278.95609011209643, "density": 15.73790474913547, "density_atomic": 19.92543500800689, "symmetry": null, "property_name": null, "material_id": "mp-1103758", "deprecated": null, "deprecation_reasons": null, "last_updated": null, "origins": null, "warnings": null, "structure": {"@module": "pymatgen.core.structure", "@class": "Structure", "charge": 0, "lattice": {"matrix": [[3.8801244500000003, 3.9263433, -0.6950218300000001], [3.87981873, -3.9280366, -0.69475381], [-0.0647801, -2.5350000000000003e-05, -9.14207115]], "pbc": [true, true, true], "a": 5.563685181704591, "b": 5.56463365955998, "c": 9.142300660865455, "alpha": 83.11308538023981, "beta": 83.10937389827475, "gamma": 89.78860312579026, "volume": 278.9560901120965}, "properties": {}, "sites": [{"species": [{"element": "Ce", "occu": 1}], "abc": [0.68661988, 0.3133813, 0.24990008], "properties": {"magmom": 0.981}, "label": "Ce", "xyz": [3.8638446694434068, 1.464925814362196, -2.979542969420425]}, {"species": [{"element": "Ce", "occu": 1}], "abc": [0.31345617000000003, 0.6866108200000001, 0.75014211], "properties": {"magmom": 0.981}, "label": "Ce", "xyz": [3.831580187977005, -1.4663149140953395, -7.552736906311542]}, {"species": [{"element": "Au", "occu": 1}], "abc": [0.9580567400000001, 0.84116882, 0.13740256], "properties": {"magmom": -0.002}, "label": "Au", "xyz": [6.972060972712237, 0.4575142672251343, -2.5064195709389825]}, {"species": [{"element": "Au", "occu": 1}], "abc": [0.15895404, 0.04188268, 0.36256384], "properties": {"magmom": -0.002}, "label": "Au", "xyz": [0.7557717415452904, 0.4595822390225, -3.4541591009669204]}, {"species": [{"element": "Au", "occu": 1}], "abc": [0.0418871, 0.15908565, 0.86262985], "properties": {"magmom": -0.002}, "label": "Au", "xyz": [0.7238693974478344, -0.46045298896005743, -8.025861275163047]}, {"species": [{"element": "Au", "occu": 1}], "abc": [0.84101337, 0.95797099, 0.63748955], "properties": {"magmom": -0.002}, "label": "Au", "xyz": [6.938693692714584, -0.4608540603084054, -7.07805147012532]}, {"species": [{"element": "Au", "occu": 1}], "abc": [0.21820056000000002, 0.38736184, 0.08071747], "properties": {"magmom": -0.005}, "label": "Au", "xyz": [2.3443101642006083, -0.6648432243389606, -1.1587001204948257]}, {"species": [{"element": "Au", "occu": 1}], "abc": [0.61274123, 0.78174944, 0.4192218], "properties": {"magmom": -0.005}, "label": "Au", "xyz": [5.383401117398905, -0.6649186165778748, -4.801547456127487]}, {"species": [{"element": "Au", "occu": 1}], "abc": [0.78185158, 0.61266114, 0.91927845], "properties": {"magmom": -0.005}, "label": "Au", "xyz": [5.351144648025439, 0.6632390277009824, -9.373161573735652]}, {"species": [{"element": "Au", "occu": 1}], "abc": [0.38717959, 0.21824315, 0.58080909], "properties": {"magmom": -0.005}, "label": "Au", "xyz": [2.311423983833066, 0.6629181846835257, -5.730521552496105]}, {"species": [{"element": "Au", "occu": 1}], "abc": [0.16801226, 0.54013808, 0.37373983], "properties": {"magmom": -0.001}, "label": "Au", "xyz": [2.723335413934612, -1.4620178102295602, -3.908791294862625]}, {"species": [{"element": "Au", "occu": 1}], "abc": [0.45978621000000003, 0.83201686, 0.12608099], "properties": {"magmom": -0.001}, "label": "Au", "xyz": [5.003934773157324, -1.4629173689842792, -2.0502497177946397]}, {"species": [{"element": "Au", "occu": 1}], "abc": [0.8319995800000001, 0.45976104, 0.6261021800000001], "properties": {"magmom": -0.001}, "label": "Au", "xyz": [4.971492445233393, 1.4607419124714875, -6.621549281610501]}, {"species": [{"element": "Au", "occu": 1}], "abc": [0.54024169, 0.16797117, 0.87392219], "properties": {"magmom": -0.001}, "label": "Au", "xyz": [2.691289914883916, 1.4613552824798384, -8.48163721889757]}]}, "task_ids": null, "uncorrected_energy_per_atom": null, "energy_per_atom": -4.032668240714291, "formation_energy_per_atom": -0.378347973571433, "energy_above_hull": 0.0, "is_stable": true, "equilibrium_reaction_energy_per_atom": null, "decomposes_to": null, "xas": null, "grain_boundaries": null, "band_gap": 0.0, "cbm": null, "vbm": null, "efermi": 5.74987332, "is_gap_direct": null, "is_metal": null, "es_source_calc_id": null, "bandstructure": null, "dos": null, "dos_energy_up": null, "dos_energy_down": null, "is_magnetic": null, "ordering": null, "total_magnetization": 2.0819422, "total_magnetization_normalized_vol": null, "total_magnetization_normalized_formula_units": null, "num_magnetic_sites": null, "num_unique_magnetic_sites": null, "types_of_magnetic_species": null, "bulk_modulus": null, "shear_modulus": null, "universal_anisotropy": null, "homogeneous_poisson": null, "e_total": null, "e_ionic": null, "e_electronic": null, "n": null, "e_ij_max": null, "weighted_surface_energy_EV_PER_ANG2": null, "weighted_surface_energy": null, "weighted_work_function": null, "surface_anisotropy": null, "shape_factor": null, "has_reconstructed": null, "possible_species": null, "has_props": null, "theoretical": null, "database_IDs": null, "fields_not_requested": ["builder_meta", "nsites", "elements", "nelements", "composition", "composition_reduced", "chemsys", "symmetry", "property_name", "deprecated", "deprecation_reasons", "last_updated", "origins", "warnings", "task_ids", "uncorrected_energy_per_atom", "equilibrium_reaction_energy_per_atom", "decomposes_to", "xas", "grain_boundaries", "cbm", "vbm", "is_gap_direct", "is_metal", "es_source_calc_id", "bandstructure", "dos", "dos_energy_up", "dos_energy_down", "is_magnetic", "ordering", "total_magnetization_normalized_vol", "total_magnetization_normalized_formula_units", "num_magnetic_sites", "num_unique_magnetic_sites", "types_of_magnetic_species", "bulk_modulus", "shear_modulus", "universal_anisotropy", "homogeneous_poisson", "e_total", "e_ionic", "e_electronic", "n", "e_ij_max", "weighted_surface_energy_EV_PER_ANG2", "weighted_surface_energy", "weighted_work_function", "surface_anisotropy", "shape_factor", "has_reconstructed", "possible_species", "has_props", "theoretical", "database_IDs"]}