{"builder_meta": null, "nsites": null, "elements": null, "nelements": null, "composition": null, "composition_reduced": null, "formula_pretty": "CeAu2", "formula_anonymous": "AB2", "chemsys": null, "volume": 137.74451341768486, "density": 12.876149258213546, "density_atomic": 22.957418902947477, "symmetry": null, "property_name": null, "material_id": "mp-1077442", "deprecated": null, "deprecation_reasons": null, "last_updated": null, "origins": null, "warnings": null, "structure": {"@module": "pymatgen.core.structure", "@class": "Structure", "charge": 0, "lattice": {"matrix": [[-2.355491, 3.499976, 4.177032], [2.355491, -3.499976, 4.177032], [2.355491, 3.499976, -4.177032]], "pbc": [true, true, true], "a": 5.936814480904806, "b": 5.936814480904806, "c": 5.936814480904806, "alpha": 133.2484176694507, "beta": 107.7515812076093, "gamma": 90.5699043218722, "volume": 137.74451341768486}, "properties": {}, "sites": [{"species": [{"element": "Ce", "occu": 1}], "abc": [0.715318, 0.465317999999999, 0.25], "properties": {"magmom": 0.783}, "label": "Ce", "xyz": [-2.4424906541753444e-15, 1.7499880000000034, 3.8872963523519948]}, {"species": [{"element": "Ce", "occu": 1}], "abc": [0.284682, 0.534682, 0.75], "properties": {"magmom": 0.783}, "label": "Ce", "xyz": [2.355491, 1.749988, 0.28973564764799997]}, {"species": [{"element": "Au", "occu": 1}], "abc": [0.870771, 0.835981, 0.034790999999999], "properties": {"magmom": 0.002}, "label": "Au", "xyz": [2.3554909978351635e-06, 0.24353183005599616, 6.983834599752003]}, {"species": [{"element": "Au", "occu": 1}], "abc": [0.129228999999999, 0.164019, 0.965209], "properties": {"magmom": 0.002}, "label": "Au", "xyz": [2.355488644509002, 3.2564441699439968, -2.806802599752004]}, {"species": [{"element": "Au", "occu": 1}], "abc": [0.69881, 0.164019, 0.534791], "properties": {"magmom": 0.003}, "label": "Au", "xyz": [0.0, 3.7435113300320007, 1.370225223216]}, {"species": [{"element": "Au", "occu": 1}], "abc": [0.30119, 0.835981, 0.465209], "properties": {"magmom": 0.003}, "label": "Au", "xyz": [2.355491, -0.243535330032, 2.8068067767839997]}]}, "task_ids": null, "uncorrected_energy_per_atom": null, "energy_per_atom": -4.838093151666666, "formation_energy_per_atom": -0.6765218616666651, "energy_above_hull": 0.0, "is_stable": true, "equilibrium_reaction_energy_per_atom": null, "decomposes_to": null, "xas": null, "grain_boundaries": null, "band_gap": 0.0, "cbm": null, "vbm": null, "efermi": 6.41952235, "is_gap_direct": null, "is_metal": null, "es_source_calc_id": null, "bandstructure": null, "dos": null, "dos_energy_up": null, "dos_energy_down": null, "is_magnetic": null, "ordering": null, "total_magnetization": 1.8453499, "total_magnetization_normalized_vol": null, "total_magnetization_normalized_formula_units": null, "num_magnetic_sites": null, "num_unique_magnetic_sites": null, "types_of_magnetic_species": null, "bulk_modulus": null, "shear_modulus": null, "universal_anisotropy": null, "homogeneous_poisson": null, "e_total": null, "e_ionic": null, "e_electronic": null, "n": null, "e_ij_max": null, "weighted_surface_energy_EV_PER_ANG2": null, "weighted_surface_energy": null, "weighted_work_function": null, "surface_anisotropy": null, "shape_factor": null, "has_reconstructed": null, "possible_species": null, "has_props": null, "theoretical": null, "database_IDs": null, "fields_not_requested": ["builder_meta", "nsites", "elements", "nelements", "composition", "composition_reduced", "chemsys", "symmetry", "property_name", "deprecated", "deprecation_reasons", "last_updated", "origins", "warnings", "task_ids", "uncorrected_energy_per_atom", "equilibrium_reaction_energy_per_atom", "decomposes_to", "xas", "grain_boundaries", "cbm", "vbm", "is_gap_direct", "is_metal", "es_source_calc_id", "bandstructure", "dos", "dos_energy_up", "dos_energy_down", "is_magnetic", "ordering", "total_magnetization_normalized_vol", "total_magnetization_normalized_formula_units", "num_magnetic_sites", "num_unique_magnetic_sites", "types_of_magnetic_species", "bulk_modulus", "shear_modulus", "universal_anisotropy", "homogeneous_poisson", "e_total", "e_ionic", "e_electronic", "n", "e_ij_max", "weighted_surface_energy_EV_PER_ANG2", "weighted_surface_energy", "weighted_work_function", "surface_anisotropy", "shape_factor", "has_reconstructed", "possible_species", "has_props", "theoretical", "database_IDs"]}