{"builder_meta": null, "nsites": null, "elements": null, "nelements": null, "composition": null, "composition_reduced": null, "formula_pretty": "CeB4", "formula_anonymous": "AB4", "chemsys": null, "volume": 209.83814891888755, "density": 5.8040245745681, "density_atomic": 10.491907445944378, "symmetry": null, "property_name": null, "material_id": "mp-1974", "deprecated": null, "deprecation_reasons": null, "last_updated": null, "origins": null, "warnings": null, "structure": {"@module": "pymatgen.core.structure", "@class": "Structure", "charge": 0, "lattice": {"matrix": [[4.07403967, 0.0, 0.0], [0.0, 7.17677939, 2.82e-06], [0.0, 2.82e-06, 7.17677939]], "pbc": [true, true, true], "a": 4.07403967, "b": 7.176779390000553, "c": 7.176779390000553, "alpha": 89.99995497309045, "beta": 90.0, "gamma": 90.0, "volume": 209.83814891888755}, "properties": {}, "sites": [{"species": [{"element": "Ce", "occu": 1}], "abc": [0.0, 0.68693668, 0.18693668], "properties": {"magmom": 0.0}, "label": "Ce", "xyz": [0.0, 4.929993534420462, 1.3416052494204629]}, {"species": [{"element": "Ce", "occu": 1}], "abc": [0.0, 0.8130532500000001, 0.68694675], "properties": {"magmom": 0.0}, "label": "Ce", "xyz": [0.0, 5.8351057447623536, 4.9300675702376475]}, {"species": [{"element": "Ce", "occu": 1}], "abc": [-0.0, 0.18694675, 0.31305325], "properties": {"magmom": 0.0}, "label": "Ce", "xyz": [0.0, 1.3416764652376474, 2.2467146397623523]}, {"species": [{"element": "Ce", "occu": 1}], "abc": [0.0, 0.31306332000000003, 0.81306332], "properties": {"magmom": 0.0}, "label": "Ce", "xyz": [0.0, 2.2467886755795377, 5.835176960579537]}, {"species": [{"element": "B", "occu": 1}], "abc": [0.5, 0.4615323, 0.32430397], "properties": {"magmom": 0.0}, "label": "B", "xyz": [2.037019835, 3.3123164129964926, 2.327459349512264]}, {"species": [{"element": "B", "occu": 1}], "abc": [0.5, 0.5384677, 0.67569603], "properties": {"magmom": 0.0}, "label": "B", "xyz": [2.037019835, 3.8644657970035072, 4.849322860487736]}, {"species": [{"element": "B", "occu": 1}], "abc": [0.5, 0.32431063, 0.53847014], "properties": {"magmom": 0.0}, "label": "B", "xyz": [2.037019835, 2.3275073638277104, 3.8644823174383918]}, {"species": [{"element": "B", "occu": 1}], "abc": [0.5, 0.6756893700000001, 0.46152986], "properties": {"magmom": 0.0}, "label": "B", "xyz": [2.037019835, 4.84927484617229, 3.312299892561609]}, {"species": [{"element": "B", "occu": 1}], "abc": [0.20166947000000002, -0.0, 0.0], "properties": {"magmom": 0.0}, "label": "B", "xyz": [0.821609421007875, 0.0, 0.0]}, {"species": [{"element": "B", "occu": 1}], "abc": [0.7983295300000001, 0.5, 0.5], "properties": {"magmom": 0.0}, "label": "B", "xyz": [3.2524261749524555, 3.588391105, 3.588391105]}, {"species": [{"element": "B", "occu": 1}], "abc": [0.7983295300000001, -0.0, 0.0], "properties": {"magmom": 0.0}, "label": "B", "xyz": [3.2524261749524555, 0.0, 0.0]}, {"species": [{"element": "B", "occu": 1}], "abc": [0.20166947000000002, 0.5, 0.5], "properties": {"magmom": 0.0}, "label": "B", "xyz": [0.821609421007875, 3.588391105, 3.588391105]}, {"species": [{"element": "B", "occu": 1}], "abc": [0.5, 0.08831034, 0.58831034], "properties": {"magmom": -0.0}, "label": "B", "xyz": [2.037019835, 0.6337854870710514, 4.222173772071051]}, {"species": [{"element": "B", "occu": 1}], "abc": [0.5, 0.41169533, 0.08830467], "properties": {"magmom": -0.0}, "label": "B", "xyz": [2.037019835, 2.954646808322418, 0.6337442966775819]}, {"species": [{"element": "B", "occu": 1}], "abc": [0.5, 0.58830467, 0.91169533], "properties": {"magmom": -0.0}, "label": "B", "xyz": [2.037019835, 4.2221354016775825, 6.543037913322418]}, {"species": [{"element": "B", "occu": 1}], "abc": [0.5, 0.9116896600000001, 0.41168966], "properties": {"magmom": -0.0}, "label": "B", "xyz": [2.037019835, 6.542996722928949, 2.9546084379289486]}, {"species": [{"element": "B", "occu": 1}], "abc": [0.5, 0.17569603, 0.0384677], "properties": {"magmom": 0.0}, "label": "B", "xyz": [2.037019835, 1.2609317554877357, 0.27607469200350765]}, {"species": [{"element": "B", "occu": 1}], "abc": [0.5, 0.9615298600000001, 0.17568937], "properties": {"magmom": 0.0}, "label": "B", "xyz": [2.037019835, 6.90068817756161, 1.2608865611722895]}, {"species": [{"element": "B", "occu": 1}], "abc": [0.5, 0.03847014, 0.82431063], "properties": {"magmom": 0.0}, "label": "B", "xyz": [2.037019835, 0.2760940324383912, 5.915895648827711]}, {"species": [{"element": "B", "occu": 1}], "abc": [0.5, 0.82430397, 0.9615323], "properties": {"magmom": 0.0}, "label": "B", "xyz": [2.037019835, 5.915850454512264, 6.9007075179964925]}]}, "task_ids": null, "uncorrected_energy_per_atom": null, "energy_per_atom": -12.7128358145, "formation_energy_per_atom": -0.6676267045000011, "energy_above_hull": 0.0, "is_stable": true, "equilibrium_reaction_energy_per_atom": null, "decomposes_to": null, "xas": null, "grain_boundaries": null, "band_gap": 0.0, "cbm": null, "vbm": null, "efermi": 8.43771437, "is_gap_direct": null, "is_metal": null, "es_source_calc_id": null, "bandstructure": null, "dos": null, "dos_energy_up": null, "dos_energy_down": null, "is_magnetic": null, "ordering": null, "total_magnetization": 2.9e-05, "total_magnetization_normalized_vol": null, "total_magnetization_normalized_formula_units": null, "num_magnetic_sites": null, "num_unique_magnetic_sites": null, "types_of_magnetic_species": null, "bulk_modulus": null, "shear_modulus": null, "universal_anisotropy": null, "homogeneous_poisson": null, "e_total": null, "e_ionic": null, "e_electronic": null, "n": null, "e_ij_max": null, "weighted_surface_energy_EV_PER_ANG2": null, "weighted_surface_energy": null, "weighted_work_function": null, "surface_anisotropy": null, "shape_factor": null, "has_reconstructed": null, "possible_species": null, "has_props": null, "theoretical": null, "database_IDs": null, "fields_not_requested": ["builder_meta", "nsites", "elements", "nelements", "composition", "composition_reduced", "chemsys", "symmetry", "property_name", "deprecated", "deprecation_reasons", "last_updated", "origins", "warnings", "task_ids", "uncorrected_energy_per_atom", "equilibrium_reaction_energy_per_atom", "decomposes_to", "xas", "grain_boundaries", "cbm", "vbm", "is_gap_direct", "is_metal", "es_source_calc_id", "bandstructure", "dos", "dos_energy_up", "dos_energy_down", "is_magnetic", "ordering", "total_magnetization_normalized_vol", "total_magnetization_normalized_formula_units", "num_magnetic_sites", "num_unique_magnetic_sites", "types_of_magnetic_species", "bulk_modulus", "shear_modulus", "universal_anisotropy", "homogeneous_poisson", "e_total", "e_ionic", "e_electronic", "n", "e_ij_max", "weighted_surface_energy_EV_PER_ANG2", "weighted_surface_energy", "weighted_work_function", "surface_anisotropy", "shape_factor", "has_reconstructed", "possible_species", "has_props", "theoretical", "database_IDs"]}