{
  "builder_meta": null,
  "nsites": null,
  "elements": null,
  "nelements": null,
  "composition": null,
  "composition_reduced": null,
  "formula_pretty": "CeBr3",
  "formula_anonymous": "AB3",
  "chemsys": null,
  "volume": 249.16436158805223,
  "density": 5.062676127265132,
  "density_atomic": 31.14554519850653,
  "symmetry": null,
  "property_name": null,
  "material_id": "mp-569850",
  "deprecated": null,
  "deprecation_reasons": null,
  "last_updated": null,
  "origins": null,
  "warnings": null,
  "structure": {
    "@module": "pymatgen.core.structure",
    "@class": "Structure",
    "charge": 0,
    "lattice": {
      "matrix": [
        [8.08676402, 2.08e-6, 0.0],
        [-4.04338357, 7.00334293, 0.0],
        [-0.0, -0.0, 4.39952406]
      ],
      "pbc": [true, true, true],
      "a": 8.086764020000267,
      "b": 8.086764673794269,
      "c": 4.39952406,
      "alpha": 90.0,
      "beta": 90.0,
      "gamma": 119.99999535119429,
      "volume": 249.16436158805223
    },
    "properties": {},
    "sites": [
      {
        "species": [{ "element": "Ce", "occu": 1 }],
        "abc": [0.666667, 0.333333, 0.75],
        "properties": { "magmom": 0.987 },
        "label": "Ce",
        "xyz": [4.043385533382531, 2.33444669555305, 3.299643045]
      },
      {
        "species": [{ "element": "Ce", "occu": 1 }],
        "abc": [0.333333, 0.666667, 0.25],
        "properties": { "magmom": 0.987 },
        "label": "Ce",
        "xyz": [-5.083382529580405e-6, 4.66889831444695, 1.099881015]
      },
      {
        "species": [{ "element": "Br", "occu": 1 }],
        "abc": [0.91206229, 0.61168928, 0.25],
        "properties": { "magmom": -0.011 },
        "label": "Br",
        "xyz": [4.902338126073677, 4.283871691534353, 1.099881015]
      },
      {
        "species": [{ "element": "Br", "occu": 1 }],
        "abc": [0.08793771, 0.38831072, 0.75],
        "properties": { "magmom": -0.011 },
        "label": "Br",
        "xyz": [-0.858957676073676, 2.7194733184656465, 3.299643045]
      },
      {
        "species": [{ "element": "Br", "occu": 1 }],
        "abc": [0.61168928, 0.69962599, 0.75],
        "properties": { "magmom": -0.011 },
        "label": "Br",
        "xyz": [2.1177306278127213, 4.899722003024453, 3.299643045]
      },
      {
        "species": [{ "element": "Br", "occu": 1 }],
        "abc": [0.38831072, 0.30037401, 0.25],
        "properties": { "magmom": -0.011 },
        "label": "Br",
        "xyz": [1.9256498221872786, 2.1036230069755466, 1.099881015]
      },
      {
        "species": [{ "element": "Br", "occu": 1 }],
        "abc": [0.30037401, 0.91206229, 0.75],
        "properties": { "magmom": -0.011 },
        "label": "Br",
        "xyz": [-1.2587639415914547, 6.387485615169051, 3.299643045]
      },
      {
        "species": [{ "element": "Br", "occu": 1 }],
        "abc": [0.69962599, 0.08793771, 0.25],
        "properties": { "magmom": -0.011 },
        "label": "Br",
        "xyz": [5.3021443915914555, 0.6158593948309494, 1.099881015]
      }
    ]
  },
  "task_ids": null,
  "uncorrected_energy_per_atom": null,
  "energy_per_atom": -4.973717503749999,
  "formation_energy_per_atom": -2.261770134999998,
  "energy_above_hull": 0.0,
  "is_stable": true,
  "equilibrium_reaction_energy_per_atom": null,
  "decomposes_to": null,
  "xas": null,
  "grain_boundaries": null,
  "band_gap": 0.0,
  "cbm": null,
  "vbm": null,
  "efermi": 3.27713153,
  "is_gap_direct": null,
  "is_metal": null,
  "es_source_calc_id": null,
  "bandstructure": null,
  "dos": null,
  "dos_energy_up": null,
  "dos_energy_down": null,
  "is_magnetic": null,
  "ordering": null,
  "total_magnetization": 1.9999995,
  "total_magnetization_normalized_vol": null,
  "total_magnetization_normalized_formula_units": null,
  "num_magnetic_sites": null,
  "num_unique_magnetic_sites": null,
  "types_of_magnetic_species": null,
  "bulk_modulus": null,
  "shear_modulus": null,
  "universal_anisotropy": null,
  "homogeneous_poisson": null,
  "e_total": null,
  "e_ionic": null,
  "e_electronic": null,
  "n": null,
  "e_ij_max": null,
  "weighted_surface_energy_EV_PER_ANG2": null,
  "weighted_surface_energy": null,
  "weighted_work_function": null,
  "surface_anisotropy": null,
  "shape_factor": null,
  "has_reconstructed": null,
  "possible_species": null,
  "has_props": null,
  "theoretical": null,
  "database_IDs": null,
  "fields_not_requested": [
    "builder_meta",
    "nsites",
    "elements",
    "nelements",
    "composition",
    "composition_reduced",
    "chemsys",
    "symmetry",
    "property_name",
    "deprecated",
    "deprecation_reasons",
    "last_updated",
    "origins",
    "warnings",
    "task_ids",
    "uncorrected_energy_per_atom",
    "equilibrium_reaction_energy_per_atom",
    "decomposes_to",
    "xas",
    "grain_boundaries",
    "cbm",
    "vbm",
    "is_gap_direct",
    "is_metal",
    "es_source_calc_id",
    "bandstructure",
    "dos",
    "dos_energy_up",
    "dos_energy_down",
    "is_magnetic",
    "ordering",
    "total_magnetization_normalized_vol",
    "total_magnetization_normalized_formula_units",
    "num_magnetic_sites",
    "num_unique_magnetic_sites",
    "types_of_magnetic_species",
    "bulk_modulus",
    "shear_modulus",
    "universal_anisotropy",
    "homogeneous_poisson",
    "e_total",
    "e_ionic",
    "e_electronic",
    "n",
    "e_ij_max",
    "weighted_surface_energy_EV_PER_ANG2",
    "weighted_surface_energy",
    "weighted_work_function",
    "surface_anisotropy",
    "shape_factor",
    "has_reconstructed",
    "possible_species",
    "has_props",
    "theoretical",
    "database_IDs"
  ]
}
