{"builder_meta": null, "nsites": null, "elements": null, "nelements": null, "composition": null, "composition_reduced": null, "formula_pretty": "CeC2", "formula_anonymous": "AB2", "chemsys": null, "volume": 44.667479688626955, "density": 6.101901582317124, "density_atomic": 14.889159896208986, "symmetry": null, "property_name": null, "material_id": "mp-2839", "deprecated": null, "deprecation_reasons": null, "last_updated": null, "origins": null, "warnings": null, "structure": {"@module": "pymatgen.core.structure", "@class": "Structure", "charge": 0, "lattice": {"matrix": [[3.3509059900000002, -1e-08, -1.7194631500000002], [-0.8823147100000001, 3.23265996, -1.71946313], [-0.000402199999999, -0.00052492, 4.12408932]], "pbc": [true, true, true], "a": 3.766314442266578, "b": 3.766314261967392, "c": 4.1240893730184744, "alpha": 117.16945751387037, "beta": 117.16948013757529, "gamma": 90.00000076465894, "volume": 44.66747968862697}, "properties": {}, "sites": [{"species": [{"element": "Ce", "occu": 1}], "abc": [0.0, 0.0, 0.0], "properties": {"magmom": 0.001}, "label": "Ce", "xyz": [0.0, 0.0, 0.0]}, {"species": [{"element": "C", "occu": 1}], "abc": [0.60369681, 0.60369681, 0.20739263], "properties": {"magmom": -0.0}, "label": "C", "xyz": [1.4901972676140312, 1.9514376350904197, -1.2207630946314554]}, {"species": [{"element": "C", "occu": 1}], "abc": [0.39630319, 0.39630319, 0.79260737], "properties": {"magmom": -0.0}, "label": "C", "xyz": [0.9779918123859702, 1.2806973949095801, 1.9059261346314558]}]}, "task_ids": null, "uncorrected_energy_per_atom": null, "energy_per_atom": -8.289523310000002, "formation_energy_per_atom": -0.15809635833333302, "energy_above_hull": 0.053652068749995, "is_stable": false, "equilibrium_reaction_energy_per_atom": null, "decomposes_to": null, "xas": null, "grain_boundaries": null, "band_gap": 0.0, "cbm": null, "vbm": null, "efermi": 7.09884809, "is_gap_direct": null, "is_metal": null, "es_source_calc_id": null, "bandstructure": null, "dos": null, "dos_energy_up": null, "dos_energy_down": null, "is_magnetic": null, "ordering": null, "total_magnetization": 0.001112299999999, "total_magnetization_normalized_vol": null, "total_magnetization_normalized_formula_units": null, "num_magnetic_sites": null, "num_unique_magnetic_sites": null, "types_of_magnetic_species": null, "bulk_modulus": null, "shear_modulus": null, "universal_anisotropy": null, "homogeneous_poisson": null, "e_total": null, "e_ionic": null, "e_electronic": null, "n": null, "e_ij_max": null, "weighted_surface_energy_EV_PER_ANG2": null, "weighted_surface_energy": null, "weighted_work_function": null, "surface_anisotropy": null, "shape_factor": null, "has_reconstructed": null, "possible_species": null, "has_props": null, "theoretical": null, "database_IDs": null, "fields_not_requested": ["builder_meta", "nsites", "elements", "nelements", "composition", "composition_reduced", "chemsys", "symmetry", "property_name", "deprecated", "deprecation_reasons", "last_updated", "origins", "warnings", "task_ids", "uncorrected_energy_per_atom", "equilibrium_reaction_energy_per_atom", "decomposes_to", "xas", "grain_boundaries", "cbm", "vbm", "is_gap_direct", "is_metal", "es_source_calc_id", "bandstructure", "dos", "dos_energy_up", "dos_energy_down", "is_magnetic", "ordering", "total_magnetization_normalized_vol", "total_magnetization_normalized_formula_units", "num_magnetic_sites", "num_unique_magnetic_sites", "types_of_magnetic_species", "bulk_modulus", "shear_modulus", "universal_anisotropy", "homogeneous_poisson", "e_total", "e_ionic", "e_electronic", "n", "e_ij_max", "weighted_surface_energy_EV_PER_ANG2", "weighted_surface_energy", "weighted_work_function", "surface_anisotropy", "shape_factor", "has_reconstructed", "possible_species", "has_props", "theoretical", "database_IDs"]}