{"builder_meta": null, "nsites": null, "elements": null, "nelements": null, "composition": null, "composition_reduced": null, "formula_pretty": "CeCd2", "formula_anonymous": "AB2", "chemsys": null, "volume": 73.98379179223977, "density": 8.190899536328361, "density_atomic": 24.66126393074659, "symmetry": null, "property_name": null, "material_id": "mp-866189", "deprecated": null, "deprecation_reasons": null, "last_updated": null, "origins": null, "warnings": null, "structure": {"@module": "pymatgen.core.structure", "@class": "Structure", "charge": 0, "lattice": {"matrix": [[5.16153277, -2e-08, 0.0], [-2.58076742, 4.47001929, -0.0], [0.0, -0.0, 3.20662741]], "pbc": [true, true, true], "a": 5.16153277, "b": 5.161533970546504, "c": 3.20662741, "alpha": 90.0, "beta": 90.0, "gamma": 120.0000057942478, "volume": 73.98379179223977}, "properties": {}, "sites": [{"species": [{"element": "Ce", "occu": 1}], "abc": [0.0, 0.0, -0.0], "properties": {"magmom": -1.205}, "label": "Ce", "xyz": [0.0, 0.0, 0.0]}, {"species": [{"element": "Cd", "occu": 1}], "abc": [0.333333, 0.666667, 0.50033759], "properties": {"magmom": 0.003}, "label": "Cd", "xyz": [-3.270766729901453e-06, 2.9800143433397697, 1.6043962303473418]}, {"species": [{"element": "Cd", "occu": 1}], "abc": [0.666667, 0.333333, 0.49966241], "properties": {"magmom": 0.003}, "label": "Cd", "xyz": [2.5807686207667304, 1.49000492666023, 1.602231179652658]}]}, "task_ids": null, "uncorrected_energy_per_atom": null, "energy_per_atom": -24.015116196666668, "formation_energy_per_atom": -0.33158148333333304, "energy_above_hull": 0.0, "is_stable": true, "equilibrium_reaction_energy_per_atom": null, "decomposes_to": null, "xas": null, "grain_boundaries": null, "band_gap": 0.0, "cbm": null, "vbm": null, "efermi": 4.72730414, "is_gap_direct": null, "is_metal": null, "es_source_calc_id": null, "bandstructure": null, "dos": null, "dos_energy_up": null, "dos_energy_down": null, "is_magnetic": null, "ordering": null, "total_magnetization": 1.4489992, "total_magnetization_normalized_vol": null, "total_magnetization_normalized_formula_units": null, "num_magnetic_sites": null, "num_unique_magnetic_sites": null, "types_of_magnetic_species": null, "bulk_modulus": null, "shear_modulus": null, "universal_anisotropy": null, "homogeneous_poisson": null, "e_total": null, "e_ionic": null, "e_electronic": null, "n": null, "e_ij_max": null, "weighted_surface_energy_EV_PER_ANG2": null, "weighted_surface_energy": null, "weighted_work_function": null, "surface_anisotropy": null, "shape_factor": null, "has_reconstructed": null, "possible_species": null, "has_props": null, "theoretical": null, "database_IDs": null, "fields_not_requested": ["builder_meta", "nsites", "elements", "nelements", "composition", "composition_reduced", "chemsys", "symmetry", "property_name", "deprecated", "deprecation_reasons", "last_updated", "origins", "warnings", "task_ids", "uncorrected_energy_per_atom", "equilibrium_reaction_energy_per_atom", "decomposes_to", "xas", "grain_boundaries", "cbm", "vbm", "is_gap_direct", "is_metal", "es_source_calc_id", "bandstructure", "dos", "dos_energy_up", "dos_energy_down", "is_magnetic", "ordering", "total_magnetization_normalized_vol", "total_magnetization_normalized_formula_units", "num_magnetic_sites", "num_unique_magnetic_sites", "types_of_magnetic_species", "bulk_modulus", "shear_modulus", "universal_anisotropy", "homogeneous_poisson", "e_total", "e_ionic", "e_electronic", "n", "e_ij_max", "weighted_surface_energy_EV_PER_ANG2", "weighted_surface_energy", "weighted_work_function", "surface_anisotropy", "shape_factor", "has_reconstructed", "possible_species", "has_props", "theoretical", "database_IDs"]}