{"builder_meta": null, "nsites": null, "elements": null, "nelements": null, "composition": null, "composition_reduced": null, "formula_pretty": "CeCl3", "formula_anonymous": "AB3", "chemsys": null, "volume": 209.62628175437192, "density": 3.9048669185460962, "density_atomic": 26.20328521929649, "symmetry": null, "property_name": null, "material_id": "mp-582011", "deprecated": null, "deprecation_reasons": null, "last_updated": null, "origins": null, "warnings": null, "structure": {"@module": "pymatgen.core.structure", "@class": "Structure", "charge": 0, "lattice": {"matrix": [[7.50452676, 5.1370000000000025e-05, -0.0], [-3.75231539, 6.49908974, -0.0], [-0.0, 0.0, 4.29801741]], "pbc": [true, true, true], "a": 7.5045267601758185, "b": 7.5045345115206255, "c": 4.29801741, "alpha": 90.0, "beta": 90.0, "gamma": 120.00003214792848, "volume": 209.62628175437192}, "properties": {}, "sites": [{"species": [{"element": "Ce", "occu": 1}], "abc": [0.666667, 0.333333999999999, 0.75], "properties": {"magmom": 0.978}, "label": "Ce", "xyz": [3.7522460432986637, 2.1664018260769438, 3.2235130575]}, {"species": [{"element": "Ce", "occu": 1}], "abc": [0.333333, 0.666666, 0.25], "properties": {"magmom": 0.978}, "label": "Ce", "xyz": [-3.4673298659804175e-05, 4.33273928392305, 1.0745043525]}, {"species": [{"element": "Cl", "occu": 1}], "abc": [0.9146214500000001, 0.61128523, 0.25], "properties": {"magmom": -0.009000000000000001}, "label": "Cl", "xyz": [4.570066170586312, 3.972844550610427, 1.0745043525]}, {"species": [{"element": "Cl", "occu": 1}], "abc": [0.08537855, 0.38871477, 0.75], "properties": {"magmom": -0.009000000000000001}, "label": "Cl", "xyz": [-0.8178548005863123, 2.5262965593895728, 3.2235130575]}, {"species": [{"element": "Cl", "occu": 1}], "abc": [0.61128523, 0.6966637800000001, 0.75], "properties": {"magmom": -0.009000000000000001}, "label": "Cl", "xyz": [1.9733041431781806, 4.527711826549883, 3.2235130575]}, {"species": [{"element": "Cl", "occu": 1}], "abc": [0.38871477, 0.30333622, 0.25], "properties": {"magmom": -0.009000000000000001}, "label": "Cl", "xyz": [1.7789072268218193, 1.9714292834501175, 1.0745043525]}, {"species": [{"element": "Cl", "occu": 1}], "abc": [0.30333622, 0.9146214500000001, 0.75], "properties": {"magmom": -0.009000000000000001}, "label": "Cl", "xyz": [-1.1555533625918688, 5.9442224640605446, 3.2235130575]}, {"species": [{"element": "Cl", "occu": 1}], "abc": [0.6966637800000001, 0.08537855, 0.25], "properties": {"magmom": -0.009000000000000001}, "label": "Cl", "xyz": [4.907764732591868, 0.5549186459394556, 1.0745043525]}]}, "task_ids": null, "uncorrected_energy_per_atom": null, "energy_per_atom": -14.89158872125, "formation_energy_per_atom": -2.567102358125, "energy_above_hull": 0.0, "is_stable": true, "equilibrium_reaction_energy_per_atom": null, "decomposes_to": null, "xas": null, "grain_boundaries": null, "band_gap": 0.011099999999999001, "cbm": null, "vbm": null, "efermi": 4.26701309, "is_gap_direct": null, "is_metal": null, "es_source_calc_id": null, "bandstructure": null, "dos": null, "dos_energy_up": null, "dos_energy_down": null, "is_magnetic": null, "ordering": null, "total_magnetization": 2.0000005, "total_magnetization_normalized_vol": null, "total_magnetization_normalized_formula_units": null, "num_magnetic_sites": null, "num_unique_magnetic_sites": null, "types_of_magnetic_species": null, "bulk_modulus": null, "shear_modulus": null, "universal_anisotropy": null, "homogeneous_poisson": null, "e_total": null, "e_ionic": null, "e_electronic": null, "n": null, "e_ij_max": null, "weighted_surface_energy_EV_PER_ANG2": null, "weighted_surface_energy": null, "weighted_work_function": null, "surface_anisotropy": null, "shape_factor": null, "has_reconstructed": null, "possible_species": null, "has_props": null, "theoretical": null, "database_IDs": null, "fields_not_requested": ["builder_meta", "nsites", "elements", "nelements", "composition", "composition_reduced", "chemsys", "symmetry", "property_name", "deprecated", "deprecation_reasons", "last_updated", "origins", "warnings", "task_ids", "uncorrected_energy_per_atom", "equilibrium_reaction_energy_per_atom", "decomposes_to", "xas", "grain_boundaries", "cbm", "vbm", "is_gap_direct", "is_metal", "es_source_calc_id", "bandstructure", "dos", "dos_energy_up", "dos_energy_down", "is_magnetic", "ordering", "total_magnetization_normalized_vol", "total_magnetization_normalized_formula_units", "num_magnetic_sites", "num_unique_magnetic_sites", "types_of_magnetic_species", "bulk_modulus", "shear_modulus", "universal_anisotropy", "homogeneous_poisson", "e_total", "e_ionic", "e_electronic", "n", "e_ij_max", "weighted_surface_energy_EV_PER_ANG2", "weighted_surface_energy", "weighted_work_function", "surface_anisotropy", "shape_factor", "has_reconstructed", "possible_species", "has_props", "theoretical", "database_IDs"]}