{"builder_meta": null, "nsites": null, "elements": null, "nelements": null, "composition": null, "composition_reduced": null, "formula_pretty": "CeCo3", "formula_anonymous": "AB3", "chemsys": null, "volume": 173.9206583200482, "density": 9.077427284201423, "density_atomic": 14.493388193337351, "symmetry": null, "property_name": null, "material_id": "mp-570872", "deprecated": null, "deprecation_reasons": null, "last_updated": null, "origins": null, "warnings": null, "structure": {"@module": "pymatgen.core.structure", "@class": "Structure", "charge": 0, "lattice": {"matrix": [[4.7855424, 0.09031813, 7.65570845], [2.26389895, 4.21714721, 7.65570844], [0.14781088, 0.09031813, 9.02714957]], "pbc": [true, true, true], "a": 9.028811953862249, "b": 9.028811702816109, "c": 9.028811371382409, "alpha": 31.069605447568645, "beta": 31.069609532111084, "gamma": 31.0696086391437, "volume": 173.9206583200482}, "properties": {}, "sites": [{"species": [{"element": "Ce", "occu": 1}], "abc": [0.8612287, 0.8612287, 0.8612287], "properties": {"magmom": -1.064}, "label": "Ce", "xyz": [6.198480181615, 3.787497340749589, 20.9610719522094]}, {"species": [{"element": "Ce", "occu": 1}], "abc": [0.1387713, 0.1387713, 0.1387713], "properties": {"magmom": -1.064}, "label": "Ce", "xyz": [0.9987720483849989, 0.610286129250411, 3.3774945077905976]}, {"species": [{"element": "Ce", "occu": 1}], "abc": [0.0, -0.0, 0.0], "properties": {"magmom": -1.005}, "label": "Ce", "xyz": [0.0, 0.0, 0.0]}, {"species": [{"element": "Co", "occu": 1}], "abc": [0.33116747, 0.33116747, 0.33116747], "properties": {"magmom": 1.445}, "label": "Co", "xyz": [2.383495811960958, 1.4564028253677213, 8.060141477985056]}, {"species": [{"element": "Co", "occu": 1}], "abc": [0.42206512, 0.42206512, 0.91716558], "properties": {"magmom": 1.509}, "label": "Co", "xyz": [3.110890360806222, 1.9008675557089065, 14.741805878163678]}, {"species": [{"element": "Co", "occu": 1}], "abc": [0.57793488, 0.57793488, 0.08283442], "properties": {"magmom": 1.509}, "label": "Co", "xyz": [4.0863618691937775, 2.4969159142910944, 9.596760581836323]}, {"species": [{"element": "Co", "occu": 1}], "abc": [0.66883253, 0.66883253, 0.66883253], "properties": {"magmom": 1.445}, "label": "Co", "xyz": [4.813756418039041, 2.941380644632279, 16.278424982014943]}, {"species": [{"element": "Co", "occu": 1}], "abc": [0.57793488, 0.08283442, 0.57793488], "properties": {"magmom": 1.509}, "label": "Co", "xyz": [3.0386856923362653, 0.45372093844171707, 10.275761716162243]}, {"species": [{"element": "Co", "occu": 1}], "abc": [0.91716558, 0.42206512, 0.42206512], "properties": {"magmom": 1.509}, "label": "Co", "xyz": [5.407033369714721, 1.9008675557089065, 14.062804748788764]}, {"species": [{"element": "Co", "occu": 1}], "abc": [0.42206512, 0.91716558, 0.42206512], "properties": {"magmom": 1.509}, "label": "Co", "xyz": [4.158566537663734, 3.944062531558284, 14.06280474383776]}, {"species": [{"element": "Co", "occu": 1}], "abc": [0.5, 0.5, 0.5], "properties": {"magmom": 1.2770000000000001}, "label": "Co", "xyz": [3.598626115, 2.198891735, 12.169283230000001]}, {"species": [{"element": "Co", "occu": 1}], "abc": [0.08283442, 0.57793488, 0.57793488], "properties": {"magmom": 1.509}, "label": "Co", "xyz": [1.7902188602852787, 2.496915914291094, 10.275761711211238]}]}, "task_ids": null, "uncorrected_energy_per_atom": null, "energy_per_atom": -6.982134264999999, "formation_energy_per_atom": -0.147834257499998, "energy_above_hull": 0.02781178, "is_stable": false, "equilibrium_reaction_energy_per_atom": null, "decomposes_to": null, "xas": null, "grain_boundaries": null, "band_gap": 0.0, "cbm": null, "vbm": null, "efermi": 7.19205801, "is_gap_direct": null, "is_metal": null, "es_source_calc_id": null, "bandstructure": null, "dos": null, "dos_energy_up": null, "dos_energy_down": null, "is_magnetic": null, "ordering": null, "total_magnetization": 8.5088308, "total_magnetization_normalized_vol": null, "total_magnetization_normalized_formula_units": null, "num_magnetic_sites": null, "num_unique_magnetic_sites": null, "types_of_magnetic_species": null, "bulk_modulus": null, "shear_modulus": null, "universal_anisotropy": null, "homogeneous_poisson": null, "e_total": null, "e_ionic": null, "e_electronic": null, "n": null, "e_ij_max": null, "weighted_surface_energy_EV_PER_ANG2": null, "weighted_surface_energy": null, "weighted_work_function": null, "surface_anisotropy": null, "shape_factor": null, "has_reconstructed": null, "possible_species": null, "has_props": null, "theoretical": null, "database_IDs": null, "fields_not_requested": ["builder_meta", "nsites", "elements", "nelements", "composition", "composition_reduced", "chemsys", "symmetry", "property_name", "deprecated", "deprecation_reasons", "last_updated", "origins", "warnings", "task_ids", "uncorrected_energy_per_atom", "equilibrium_reaction_energy_per_atom", "decomposes_to", "xas", "grain_boundaries", "cbm", "vbm", "is_gap_direct", "is_metal", "es_source_calc_id", "bandstructure", "dos", "dos_energy_up", "dos_energy_down", "is_magnetic", "ordering", "total_magnetization_normalized_vol", "total_magnetization_normalized_formula_units", "num_magnetic_sites", "num_unique_magnetic_sites", "types_of_magnetic_species", "bulk_modulus", "shear_modulus", "universal_anisotropy", "homogeneous_poisson", "e_total", "e_ionic", "e_electronic", "n", "e_ij_max", "weighted_surface_energy_EV_PER_ANG2", "weighted_surface_energy", "weighted_work_function", "surface_anisotropy", "shape_factor", "has_reconstructed", "possible_species", "has_props", "theoretical", "database_IDs"]}