{
  "builder_meta": null,
  "nsites": null,
  "elements": null,
  "nelements": null,
  "composition": null,
  "composition_reduced": null,
  "formula_pretty": "CeCu6",
  "formula_anonymous": "AB6",
  "chemsys": null,
  "volume": 405.39265874387524,
  "density": 8.542747544520381,
  "density_atomic": 14.478309240852687,
  "symmetry": null,
  "property_name": null,
  "material_id": "mp-581942",
  "deprecated": null,
  "deprecation_reasons": null,
  "last_updated": null,
  "origins": null,
  "warnings": null,
  "structure": {
    "@module": "pymatgen.core.structure",
    "@class": "Structure",
    "charge": 0,
    "lattice": {
      "matrix": [
        [10.04758807, 0.0, 0.0],
        [0.0, 5.03785232, 0.02696997],
        [0.0, 0.17916753, 8.00978088]
      ],
      "pbc": [true, true, true],
      "a": 10.04758807,
      "b": 5.037924510888505,
      "c": 8.01178449219772,
      "alpha": 88.41185964353977,
      "beta": 90.0,
      "gamma": 90.0,
      "volume": 405.39265874387524
    },
    "properties": {},
    "sites": [
      {
        "species": [{ "element": "Ce", "occu": 1 }],
        "abc": [0.43587789, 0.7400335100000001, 0.26062923],
        "properties": { "magmom": 0.8220000000000001 },
        "label": "Ce",
        "xyz": [4.379521487540772, 3.774875830616145, 2.107541704786817]
      },
      {
        "species": [{ "element": "Ce", "occu": 1 }],
        "abc": [0.06412211, 0.7400335100000001, 0.76062923],
        "properties": { "magmom": 0.8220000000000001 },
        "label": "Ce",
        "xyz": [0.6442725474592277, 3.864459595616145, 6.112432144786816]
      },
      {
        "species": [{ "element": "Ce", "occu": 1 }],
        "abc": [0.93587789, 0.25996649, 0.23937077],
        "properties": { "magmom": 0.8220000000000001 },
        "label": "Ce",
        "xyz": [9.403315522540773, 1.3525602543838549, 1.924318705213183]
      },
      {
        "species": [{ "element": "Ce", "occu": 1 }],
        "abc": [0.56412211, 0.25996649, 0.7393707700000001],
        "properties": { "magmom": 0.8220000000000001 },
        "label": "Ce",
        "xyz": [5.668066582459228, 1.4421440193838548, 5.929209145213183]
      },
      {
        "species": [{ "element": "Cu", "occu": 1 }],
        "abc": [0.14325883, 0.75749787, 0.14936879],
        "properties": { "magmom": 0.002 },
        "label": "Cu",
        "xyz": [1.4394057112301581, 3.842924438937947, 1.216840973039699]
      },
      {
        "species": [{ "element": "Cu", "occu": 1 }],
        "abc": [0.6432588300000001, 0.24250213, 0.35063121],
        "properties": { "magmom": 0.002 },
        "label": "Cu",
        "xyz": [6.463199746230159, 1.284511646062053, 2.8150194369603008]
      },
      {
        "species": [{ "element": "Cu", "occu": 1 }],
        "abc": [0.40414223, 0.22361877, 0.43726283],
        "properties": { "magmom": -0.001 },
        "label": "Cu",
        "xyz": [4.060654648731196, 1.2049016404519561, 3.5084104467870265]
      },
      {
        "species": [{ "element": "Cu", "occu": 1 }],
        "abc": [0.74454758, 0.7511279200000001, 0.31807062],
        "properties": { "magmom": 0.004 },
        "label": "Cu",
        "xyz": [7.480907382355371, 3.8410594617397433, 2.567933868034308]
      },
      {
        "species": [{ "element": "Cu", "occu": 1 }],
        "abc": [0.80622864, 0.49975413, 0.56709949],
        "properties": { "magmom": 0.003 },
        "label": "Cu",
        "xyz": [8.100653264956325, 2.6192933181376414, 4.555821005953227]
      },
      {
        "species": [{ "element": "Cu", "occu": 1 }],
        "abc": [0.48426331, 0.25012581, 0.09910917],
        "properties": { "magmom": -0.001 },
        "label": "Cu",
        "xyz": [4.865678256294712, 1.2778540373896294, 0.8005886204905952]
      },
      {
        "species": [{ "element": "Cu", "occu": 1 }],
        "abc": [0.51573669, 0.74987419, 0.90089083],
        "properties": { "magmom": -0.001 },
        "label": "Cu",
        "xyz": [5.181909813705288, 3.9391658126103706, 7.236162229509404]
      },
      {
        "species": [{ "element": "Cu", "occu": 1 }],
        "abc": [0.30622864, 0.50024587, 0.9329005100000001],
        "properties": { "magmom": 0.003 },
        "label": "Cu",
        "xyz": [3.076859229956325, 2.6873102968623583, 7.485820284046773]
      },
      {
        "species": [{ "element": "Cu", "occu": 1 }],
        "abc": [0.6937713600000001, 0.49975413, 0.06709949],
        "properties": { "magmom": 0.003 },
        "label": "Cu",
        "xyz": [6.970728840043676, 2.5297095531376415, 0.5509305659532272]
      },
      {
        "species": [{ "element": "Cu", "occu": 1 }],
        "abc": [0.98426331, 0.74987419, 0.40089083000000003],
        "properties": { "magmom": -0.001 },
        "label": "Cu",
        "xyz": [9.88947229129471, 3.8495820476103706, 3.2312717895094045]
      },
      {
        "species": [{ "element": "Cu", "occu": 1 }],
        "abc": [0.81055351, 0.008787950000000001, 0.56201064],
        "properties": { "magmom": 0.003 },
        "label": "Cu",
        "xyz": [8.144107777172625, 0.1449664524980632, 4.501819089376425]
      },
      {
        "species": [{ "element": "Cu", "occu": 1 }],
        "abc": [0.85674117, 0.24250213, 0.85063121],
        "properties": { "magmom": 0.002 },
        "label": "Cu",
        "xyz": [8.608182358769842, 1.374095411062053, 6.8199098769603]
      },
      {
        "species": [{ "element": "Cu", "occu": 1 }],
        "abc": [0.09585777000000001, 0.22361877, 0.93726283],
        "properties": { "magmom": -0.001 },
        "label": "Cu",
        "xyz": [0.963139386268804, 1.2944854054519561, 7.513300886787026]
      },
      {
        "species": [{ "element": "Cu", "occu": 1 }],
        "abc": [0.90414223, 0.77638123, 0.06273717],
        "properties": { "magmom": -0.001 },
        "label": "Cu",
        "xyz": [9.084448683731196, 3.922534444548044, 0.5234499632129727]
      },
      {
        "species": [{ "element": "Cu", "occu": 1 }],
        "abc": [0.35674117, 0.75749787, 0.64936879],
        "properties": { "magmom": 0.002 },
        "label": "Cu",
        "xyz": [3.5843883237698417, 3.932508203937947, 5.2217314130396995]
      },
      {
        "species": [{ "element": "Cu", "occu": 1 }],
        "abc": [0.01573669, 0.25012581, 0.59910917],
        "properties": { "magmom": -0.001 },
        "label": "Cu",
        "xyz": [0.1581157787052883, 1.3674378023896294, 4.805479060490595]
      },
      {
        "species": [{ "element": "Cu", "occu": 1 }],
        "abc": [0.25545242, 0.24887208, 0.68192938],
        "properties": { "magmom": 0.004 },
        "label": "Cu",
        "xyz": [2.5666806876446295, 1.375960388260257, 5.468816981965692]
      },
      {
        "species": [{ "element": "Cu", "occu": 1 }],
        "abc": [0.19377136, 0.50024587, 0.43290051],
        "properties": { "magmom": 0.003 },
        "label": "Cu",
        "xyz": [1.9469348050436752, 2.5977265318623584, 3.480929844046772]
      },
      {
        "species": [{ "element": "Cu", "occu": 1 }],
        "abc": [0.18944649, 0.99121205, 0.43798936],
        "properties": { "magmom": 0.003 },
        "label": "Cu",
        "xyz": [1.9034802928273742, 5.072053397501937, 3.534931760623575]
      },
      {
        "species": [{ "element": "Cu", "occu": 1 }],
        "abc": [0.75545242, 0.7511279200000001, 0.81807062],
        "properties": { "magmom": 0.004 },
        "label": "Cu",
        "xyz": [7.590474722644629, 3.9306432267397433, 6.572824308034307]
      },
      {
        "species": [{ "element": "Cu", "occu": 1 }],
        "abc": [0.5958577700000001, 0.77638123, 0.56273717],
        "properties": { "magmom": -0.001 },
        "label": "Cu",
        "xyz": [5.986933421268804, 4.012118209548044, 4.528340403212972]
      },
      {
        "species": [{ "element": "Cu", "occu": 1 }],
        "abc": [0.68944649, 0.008787950000000001, 0.06201064],
        "properties": { "magmom": 0.003 },
        "label": "Cu",
        "xyz": [6.927274327827375, 0.0553826874980632, 0.4969286493764246]
      },
      {
        "species": [{ "element": "Cu", "occu": 1 }],
        "abc": [0.31055351000000003, 0.99121205, 0.93798936],
        "properties": { "magmom": 0.003 },
        "label": "Cu",
        "xyz": [3.120313742172626, 5.161637162501936, 7.539822200623574]
      },
      {
        "species": [{ "element": "Cu", "occu": 1 }],
        "abc": [0.24454758000000001, 0.24887208, 0.18192938],
        "properties": { "magmom": 0.004 },
        "label": "Cu",
        "xyz": [2.457113347355371, 1.286376623260257, 1.463926541965692]
      }
    ]
  },
  "task_ids": null,
  "uncorrected_energy_per_atom": null,
  "energy_per_atom": -13.809386108214285,
  "formation_energy_per_atom": -0.106328285357142,
  "energy_above_hull": 0.0,
  "is_stable": true,
  "equilibrium_reaction_energy_per_atom": null,
  "decomposes_to": null,
  "xas": null,
  "grain_boundaries": null,
  "band_gap": 0.0,
  "cbm": null,
  "vbm": null,
  "efermi": 7.10951255,
  "is_gap_direct": null,
  "is_metal": null,
  "es_source_calc_id": null,
  "bandstructure": null,
  "dos": null,
  "dos_energy_up": null,
  "dos_energy_down": null,
  "is_magnetic": null,
  "ordering": null,
  "total_magnetization": 3.7780526,
  "total_magnetization_normalized_vol": null,
  "total_magnetization_normalized_formula_units": null,
  "num_magnetic_sites": null,
  "num_unique_magnetic_sites": null,
  "types_of_magnetic_species": null,
  "bulk_modulus": null,
  "shear_modulus": null,
  "universal_anisotropy": null,
  "homogeneous_poisson": null,
  "e_total": null,
  "e_ionic": null,
  "e_electronic": null,
  "n": null,
  "e_ij_max": null,
  "weighted_surface_energy_EV_PER_ANG2": null,
  "weighted_surface_energy": null,
  "weighted_work_function": null,
  "surface_anisotropy": null,
  "shape_factor": null,
  "has_reconstructed": null,
  "possible_species": null,
  "has_props": null,
  "theoretical": null,
  "database_IDs": null,
  "fields_not_requested": [
    "builder_meta",
    "nsites",
    "elements",
    "nelements",
    "composition",
    "composition_reduced",
    "chemsys",
    "symmetry",
    "property_name",
    "deprecated",
    "deprecation_reasons",
    "last_updated",
    "origins",
    "warnings",
    "task_ids",
    "uncorrected_energy_per_atom",
    "equilibrium_reaction_energy_per_atom",
    "decomposes_to",
    "xas",
    "grain_boundaries",
    "cbm",
    "vbm",
    "is_gap_direct",
    "is_metal",
    "es_source_calc_id",
    "bandstructure",
    "dos",
    "dos_energy_up",
    "dos_energy_down",
    "is_magnetic",
    "ordering",
    "total_magnetization_normalized_vol",
    "total_magnetization_normalized_formula_units",
    "num_magnetic_sites",
    "num_unique_magnetic_sites",
    "types_of_magnetic_species",
    "bulk_modulus",
    "shear_modulus",
    "universal_anisotropy",
    "homogeneous_poisson",
    "e_total",
    "e_ionic",
    "e_electronic",
    "n",
    "e_ij_max",
    "weighted_surface_energy_EV_PER_ANG2",
    "weighted_surface_energy",
    "weighted_work_function",
    "surface_anisotropy",
    "shape_factor",
    "has_reconstructed",
    "possible_species",
    "has_props",
    "theoretical",
    "database_IDs"
  ]
}
