{"builder_meta": null, "nsites": null, "elements": null, "nelements": null, "composition": null, "composition_reduced": null, "formula_pretty": "CeCu2", "formula_anonymous": "AB2", "chemsys": null, "volume": 108.01824878759159, "density": 8.215451146233045, "density_atomic": 18.0030414645986, "symmetry": null, "property_name": null, "material_id": "mp-2801", "deprecated": null, "deprecation_reasons": null, "last_updated": null, "origins": null, "warnings": null, "structure": {"@module": "pymatgen.core.structure", "@class": "Structure", "charge": 0, "lattice": {"matrix": [[4.01977336, -1e-08, 1.73031405], [1.8219086, 4.96760297, 1.3018551], [0.03824821, 0.18912632000000001, 5.4455654]], "pbc": [true, true, true], "a": 4.376364310405739, "b": 5.4489684267485705, "c": 5.448982860696306, "alpha": 74.17159609246772, "beta": 66.32323132919241, "gamma": 66.32319017457156, "volume": 108.01824878759157}, "properties": {}, "sites": [{"species": [{"element": "Ce", "occu": 1}], "abc": [0.52112673, 0.72887427, 0.22887227000000002], "properties": {"magmom": 0.0}, "label": "Ce", "xyz": [3.431507601915772, 3.664043753372461, 3.096940502939292]}, {"species": [{"element": "Ce", "occu": 1}], "abc": [0.47887327, 0.27112573, 0.77112773], "properties": {"magmom": 0.0}, "label": "Ce", "xyz": [2.448422568084229, 1.492685526627539, 5.380794047060709]}, {"species": [{"element": "Cu", "occu": 1}], "abc": [0.833589199999999, 0.69814298, 0.63468063], "properties": {"magmom": -0.0}, "label": "Cu", "xyz": [4.647067756654509, 3.5881319445239397, 5.807446982508658]}, {"species": [{"element": "Cu", "occu": 1}], "abc": [0.1664108, 0.30185702000000003, 0.36531937000000003], "properties": {"magmom": -0.0}, "label": "Cu", "xyz": [1.232862413345488, 1.56859733547606, 2.67028756749134]}, {"species": [{"element": "Cu", "occu": 1}], "abc": [0.833589199999999, 0.13468063, 0.19814198], "properties": {"magmom": -0.0}, "label": "Cu", "xyz": [3.603794033454982, 0.7065137527684926, 2.696700880300463]}, {"species": [{"element": "Cu", "occu": 1}], "abc": [0.1664108, 0.86531937, 0.8018580200000001], "properties": {"magmom": -0.0}, "label": "Cu", "xyz": [2.2761361365450146, 4.450215527231507, 5.781033669699535]}]}, "task_ids": null, "uncorrected_energy_per_atom": null, "energy_per_atom": -17.622238031666665, "formation_energy_per_atom": -0.11083111166666701, "energy_above_hull": 0.0, "is_stable": true, "equilibrium_reaction_energy_per_atom": null, "decomposes_to": null, "xas": null, "grain_boundaries": null, "band_gap": 0.0, "cbm": null, "vbm": null, "efermi": 7.36441435, "is_gap_direct": null, "is_metal": null, "es_source_calc_id": null, "bandstructure": null, "dos": null, "dos_energy_up": null, "dos_energy_down": null, "is_magnetic": null, "ordering": null, "total_magnetization": 6.51e-05, "total_magnetization_normalized_vol": null, "total_magnetization_normalized_formula_units": null, "num_magnetic_sites": null, "num_unique_magnetic_sites": null, "types_of_magnetic_species": null, "bulk_modulus": null, "shear_modulus": null, "universal_anisotropy": null, "homogeneous_poisson": null, "e_total": null, "e_ionic": null, "e_electronic": null, "n": null, "e_ij_max": null, "weighted_surface_energy_EV_PER_ANG2": null, "weighted_surface_energy": null, "weighted_work_function": null, "surface_anisotropy": null, "shape_factor": null, "has_reconstructed": null, "possible_species": null, "has_props": null, "theoretical": null, "database_IDs": null, "fields_not_requested": ["builder_meta", "nsites", "elements", "nelements", "composition", "composition_reduced", "chemsys", "symmetry", "property_name", "deprecated", "deprecation_reasons", "last_updated", "origins", "warnings", "task_ids", "uncorrected_energy_per_atom", "equilibrium_reaction_energy_per_atom", "decomposes_to", "xas", "grain_boundaries", "cbm", "vbm", "is_gap_direct", "is_metal", "es_source_calc_id", "bandstructure", "dos", "dos_energy_up", "dos_energy_down", "is_magnetic", "ordering", "total_magnetization_normalized_vol", "total_magnetization_normalized_formula_units", "num_magnetic_sites", "num_unique_magnetic_sites", "types_of_magnetic_species", "bulk_modulus", "shear_modulus", "universal_anisotropy", "homogeneous_poisson", "e_total", "e_ionic", "e_electronic", "n", "e_ij_max", "weighted_surface_energy_EV_PER_ANG2", "weighted_surface_energy", "weighted_work_function", "surface_anisotropy", "shape_factor", "has_reconstructed", "possible_species", "has_props", "theoretical", "database_IDs"]}