{"builder_meta": null, "nsites": null, "elements": null, "nelements": null, "composition": null, "composition_reduced": null, "formula_pretty": "CeCu", "formula_anonymous": "AB", "chemsys": null, "volume": 181.89941701517387, "density": 7.436828834996823, "density_atomic": 22.737427126896733, "symmetry": null, "property_name": null, "material_id": "mp-636198", "deprecated": null, "deprecation_reasons": null, "last_updated": null, "origins": null, "warnings": null, "structure": {"@module": "pymatgen.core.structure", "@class": "Structure", "charge": 0, "lattice": {"matrix": [[4.199662, 0.0, 0.0], [0.0, 6.148626, 0.0], [0.0, 0.0, 7.044317]], "pbc": [true, true, true], "a": 4.199662, "b": 6.148626, "c": 7.044317, "alpha": 90.0, "beta": 90.0, "gamma": 90.0, "volume": 181.89941701517387}, "properties": {}, "sites": [{"species": [{"element": "Ce", "occu": 1}], "abc": [0.75, 0.353699, 0.332478999999999], "properties": {"magmom": 0.731}, "label": "Ce", "xyz": [3.1497465, 2.174762867574, 2.3420874718429934]}, {"species": [{"element": "Ce", "occu": 1}], "abc": [0.25, 0.853699, 0.167521], "properties": {"magmom": 0.731}, "label": "Ce", "xyz": [1.0499155, 5.249075867574, 1.1800710281570002]}, {"species": [{"element": "Ce", "occu": 1}], "abc": [0.25, 0.646301, 0.667520999999999], "properties": {"magmom": 0.731}, "label": "Ce", "xyz": [1.0499155, 3.973863132426, 4.702229528156994]}, {"species": [{"element": "Ce", "occu": 1}], "abc": [0.75, 0.146301, 0.832479], "properties": {"magmom": 0.731}, "label": "Ce", "xyz": [3.1497465, 0.8995501324259999, 5.864245971843]}, {"species": [{"element": "Cu", "occu": 1}], "abc": [0.25, 0.105050999999999, 0.540656], "properties": {"magmom": 0.004}, "label": "Cu", "xyz": [1.0499155, 0.6459193099259939, 3.8085522519520003]}, {"species": [{"element": "Cu", "occu": 1}], "abc": [0.75, 0.894949, 0.459344], "properties": {"magmom": 0.004}, "label": "Cu", "xyz": [3.1497465, 5.5027066900740005, 3.235764748048]}, {"species": [{"element": "Cu", "occu": 1}], "abc": [0.25, 0.394949, 0.040656], "properties": {"magmom": 0.004}, "label": "Cu", "xyz": [1.0499155, 2.428393690074, 0.286393751952]}, {"species": [{"element": "Cu", "occu": 1}], "abc": [0.75, 0.605051, 0.959344], "properties": {"magmom": 0.004}, "label": "Cu", "xyz": [3.1497465, 3.720232309926, 6.757923248048]}]}, "task_ids": null, "uncorrected_energy_per_atom": null, "energy_per_atom": -20.826786768749997, "formation_energy_per_atom": 0.016925611250002002, "energy_above_hull": 0.10004894500000101, "is_stable": false, "equilibrium_reaction_energy_per_atom": null, "decomposes_to": null, "xas": null, "grain_boundaries": null, "band_gap": 0.0, "cbm": null, "vbm": null, "efermi": 7.02847338, "is_gap_direct": null, "is_metal": null, "es_source_calc_id": null, "bandstructure": null, "dos": null, "dos_energy_up": null, "dos_energy_down": null, "is_magnetic": null, "ordering": null, "total_magnetization": 3.8449991, "total_magnetization_normalized_vol": null, "total_magnetization_normalized_formula_units": null, "num_magnetic_sites": null, "num_unique_magnetic_sites": null, "types_of_magnetic_species": null, "bulk_modulus": null, "shear_modulus": null, "universal_anisotropy": null, "homogeneous_poisson": null, "e_total": null, "e_ionic": null, "e_electronic": null, "n": null, "e_ij_max": null, "weighted_surface_energy_EV_PER_ANG2": null, "weighted_surface_energy": null, "weighted_work_function": null, "surface_anisotropy": null, "shape_factor": null, "has_reconstructed": null, "possible_species": null, "has_props": null, "theoretical": null, "database_IDs": null, "fields_not_requested": ["builder_meta", "nsites", "elements", "nelements", "composition", "composition_reduced", "chemsys", "symmetry", "property_name", "deprecated", "deprecation_reasons", "last_updated", "origins", "warnings", "task_ids", "uncorrected_energy_per_atom", "equilibrium_reaction_energy_per_atom", "decomposes_to", "xas", "grain_boundaries", "cbm", "vbm", "is_gap_direct", "is_metal", "es_source_calc_id", "bandstructure", "dos", "dos_energy_up", "dos_energy_down", "is_magnetic", "ordering", "total_magnetization_normalized_vol", "total_magnetization_normalized_formula_units", "num_magnetic_sites", "num_unique_magnetic_sites", "types_of_magnetic_species", "bulk_modulus", "shear_modulus", "universal_anisotropy", "homogeneous_poisson", "e_total", "e_ionic", "e_electronic", "n", "e_ij_max", "weighted_surface_energy_EV_PER_ANG2", "weighted_surface_energy", "weighted_work_function", "surface_anisotropy", "shape_factor", "has_reconstructed", "possible_species", "has_props", "theoretical", "database_IDs"]}