{
  "builder_meta": null,
  "nsites": null,
  "elements": null,
  "nelements": null,
  "composition": null,
  "composition_reduced": null,
  "formula_pretty": "CeEr3",
  "formula_anonymous": "AB3",
  "chemsys": null,
  "volume": 249.3485275011424,
  "density": 8.549385984019418,
  "density_atomic": 31.1685659376428,
  "symmetry": null,
  "property_name": null,
  "material_id": "mp-1183865",
  "deprecated": null,
  "deprecation_reasons": null,
  "last_updated": null,
  "origins": null,
  "warnings": null,
  "structure": {
    "@module": "pymatgen.core.structure",
    "@class": "Structure",
    "charge": 0,
    "lattice": {
      "matrix": [
        [3.557289, -6.161406, 0.0],
        [3.557289, 6.161406, 0.0],
        [0.0, 0.0, 5.688239]
      ],
      "pbc": [true, true, true],
      "a": 7.114578619029872,
      "b": 7.114578619029872,
      "c": 5.688239,
      "alpha": 90.0,
      "beta": 90.0,
      "gamma": 120.00000575644579,
      "volume": 249.3485275011424
    },
    "properties": {},
    "sites": [
      {
        "species": [{ "element": "Ce", "occu": 1 }],
        "abc": [0.333333, 0.666667, 0.75],
        "properties": { "magmom": 0.656 },
        "label": "Ce",
        "xyz": [3.557289, 2.0538061076040006, 4.26617925]
      },
      {
        "species": [{ "element": "Ce", "occu": 1 }],
        "abc": [0.666667, 0.333333, 0.25],
        "properties": { "magmom": 0.656 },
        "label": "Ce",
        "xyz": [3.557289, -2.0538061076040006, 1.42205975]
      },
      {
        "species": [{ "element": "Er", "occu": 1 }],
        "abc": [0.165518, 0.331036999999999, 0.25],
        "properties": { "magmom": 0.02 },
        "label": "Er",
        "xyz": [1.7663896393949965, 1.0198297597139943, 1.42205975]
      },
      {
        "species": [{ "element": "Er", "occu": 1 }],
        "abc": [0.668963, 0.834482, 0.25],
        "properties": { "magmom": 0.01 },
        "label": "Er",
        "xyz": [5.348188360605, 1.0198297597139998, 1.42205975]
      },
      {
        "species": [{ "element": "Er", "occu": 1 }],
        "abc": [0.165518, 0.834482, 0.25],
        "properties": { "magmom": 0.023 },
        "label": "Er",
        "xyz": [3.557289, 4.121758803384, 1.42205975]
      },
      {
        "species": [{ "element": "Er", "occu": 1 }],
        "abc": [0.834482, 0.668963, 0.75],
        "properties": { "magmom": 0.02 },
        "label": "Er",
        "xyz": [5.348188360605, -1.0198297597139998, 4.26617925]
      },
      {
        "species": [{ "element": "Er", "occu": 1 }],
        "abc": [0.331036999999999, 0.165518, 0.75],
        "properties": { "magmom": 0.01 },
        "label": "Er",
        "xyz": [1.7663896393949965, -1.0198297597139943, 4.26617925]
      },
      {
        "species": [{ "element": "Er", "occu": 1 }],
        "abc": [0.834482, 0.165518, 0.75],
        "properties": { "magmom": 0.023 },
        "label": "Er",
        "xyz": [3.557289, -4.121758803384, 4.26617925]
      }
    ]
  },
  "task_ids": null,
  "uncorrected_energy_per_atom": null,
  "energy_per_atom": -33.0904648275,
  "formation_energy_per_atom": 0.06376873749999801,
  "energy_above_hull": 0.06376873749999801,
  "is_stable": false,
  "equilibrium_reaction_energy_per_atom": null,
  "decomposes_to": null,
  "xas": null,
  "grain_boundaries": null,
  "band_gap": 0.0,
  "cbm": null,
  "vbm": null,
  "efermi": 4.08395785,
  "is_gap_direct": null,
  "is_metal": null,
  "es_source_calc_id": null,
  "bandstructure": null,
  "dos": null,
  "dos_energy_up": null,
  "dos_energy_down": null,
  "is_magnetic": null,
  "ordering": null,
  "total_magnetization": 1.3392221,
  "total_magnetization_normalized_vol": null,
  "total_magnetization_normalized_formula_units": null,
  "num_magnetic_sites": null,
  "num_unique_magnetic_sites": null,
  "types_of_magnetic_species": null,
  "bulk_modulus": null,
  "shear_modulus": null,
  "universal_anisotropy": null,
  "homogeneous_poisson": null,
  "e_total": null,
  "e_ionic": null,
  "e_electronic": null,
  "n": null,
  "e_ij_max": null,
  "weighted_surface_energy_EV_PER_ANG2": null,
  "weighted_surface_energy": null,
  "weighted_work_function": null,
  "surface_anisotropy": null,
  "shape_factor": null,
  "has_reconstructed": null,
  "possible_species": null,
  "has_props": null,
  "theoretical": null,
  "database_IDs": null,
  "fields_not_requested": [
    "builder_meta",
    "nsites",
    "elements",
    "nelements",
    "composition",
    "composition_reduced",
    "chemsys",
    "symmetry",
    "property_name",
    "deprecated",
    "deprecation_reasons",
    "last_updated",
    "origins",
    "warnings",
    "task_ids",
    "uncorrected_energy_per_atom",
    "equilibrium_reaction_energy_per_atom",
    "decomposes_to",
    "xas",
    "grain_boundaries",
    "cbm",
    "vbm",
    "is_gap_direct",
    "is_metal",
    "es_source_calc_id",
    "bandstructure",
    "dos",
    "dos_energy_up",
    "dos_energy_down",
    "is_magnetic",
    "ordering",
    "total_magnetization_normalized_vol",
    "total_magnetization_normalized_formula_units",
    "num_magnetic_sites",
    "num_unique_magnetic_sites",
    "types_of_magnetic_species",
    "bulk_modulus",
    "shear_modulus",
    "universal_anisotropy",
    "homogeneous_poisson",
    "e_total",
    "e_ionic",
    "e_electronic",
    "n",
    "e_ij_max",
    "weighted_surface_energy_EV_PER_ANG2",
    "weighted_surface_energy",
    "weighted_work_function",
    "surface_anisotropy",
    "shape_factor",
    "has_reconstructed",
    "possible_species",
    "has_props",
    "theoretical",
    "database_IDs"
  ]
}
