{"builder_meta": null, "nsites": null, "elements": null, "nelements": null, "composition": null, "composition_reduced": null, "formula_pretty": "CeEr", "formula_anonymous": "AB", "chemsys": null, "volume": 182.15271300803178, "density": 8.406268353087924, "density_atomic": 30.35878550133863, "symmetry": null, "property_name": null, "material_id": "mp-1226960", "deprecated": null, "deprecation_reasons": null, "last_updated": null, "origins": null, "warnings": null, "structure": {"@module": "pymatgen.core.structure", "@class": "Structure", "charge": 0, "lattice": {"matrix": [[16.76253, -1.772794, 0.0], [16.76253, 1.772794, 0.0], [16.57504, 0.0, 3.0648400000000002]], "pbc": [true, true, true], "a": 16.8560140770983, "b": 16.8560140770983, "c": 16.85601362206379, "alpha": 12.074244100057076, "beta": 12.074244100057076, "gamma": 12.074243441735755, "volume": 182.1527130080318}, "properties": {}, "sites": [{"species": [{"element": "Ce", "occu": 1}], "abc": [0.999674, 0.999674, 0.999674], "properties": {"magmom": 0.209}, "label": "Ce", "xyz": [50.0837673674, 0.0, 3.06384086216]}, {"species": [{"element": "Ce", "occu": 1}], "abc": [0.500101999999999, 0.500101999999999, 0.500101999999999], "properties": {"magmom": 0.402}, "label": "Ce", "xyz": [25.055160210199958, 0.0, 1.5327326136799972]}, {"species": [{"element": "Ce", "occu": 1}], "abc": [0.611877, 0.611877, 0.611877], "properties": {"magmom": 0.455}, "label": "Ce", "xyz": [30.655098887700003, 0.0, 1.8753051046800002]}, {"species": [{"element": "Er", "occu": 1}], "abc": [0.111187, 0.111187, 0.111187], "properties": {"magmom": -0.037}, "label": "Er", "xyz": [5.5704798187, 0.0, 0.34077036508]}, {"species": [{"element": "Er", "occu": 1}], "abc": [0.888597, 0.888597, 0.888597], "properties": {"magmom": 0.007}, "label": "Er", "xyz": [44.5187985597, 0.0, 2.72340762948]}, {"species": [{"element": "Er", "occu": 1}], "abc": [0.388561999999999, 0.388561999999999, 0.388561999999999], "properties": {"magmom": -0.055}, "label": "Er", "xyz": [19.466995056199952, 0.0, 1.190880360079997]}]}, "task_ids": null, "uncorrected_energy_per_atom": null, "energy_per_atom": -32.32140330083334, "formation_energy_per_atom": 0.061628662499998, "energy_above_hull": 0.061628662499998, "is_stable": false, "equilibrium_reaction_energy_per_atom": null, "decomposes_to": null, "xas": null, "grain_boundaries": null, "band_gap": 0.0, "cbm": null, "vbm": null, "efermi": 5.48984817, "is_gap_direct": null, "is_metal": null, "es_source_calc_id": null, "bandstructure": null, "dos": null, "dos_energy_up": null, "dos_energy_down": null, "is_magnetic": null, "ordering": null, "total_magnetization": 1.1913529, "total_magnetization_normalized_vol": null, "total_magnetization_normalized_formula_units": null, "num_magnetic_sites": null, "num_unique_magnetic_sites": null, "types_of_magnetic_species": null, "bulk_modulus": null, "shear_modulus": null, "universal_anisotropy": null, "homogeneous_poisson": null, "e_total": null, "e_ionic": null, "e_electronic": null, "n": null, "e_ij_max": null, "weighted_surface_energy_EV_PER_ANG2": null, "weighted_surface_energy": null, "weighted_work_function": null, "surface_anisotropy": null, "shape_factor": null, "has_reconstructed": null, "possible_species": null, "has_props": null, "theoretical": null, "database_IDs": null, "fields_not_requested": ["builder_meta", "nsites", "elements", "nelements", "composition", "composition_reduced", "chemsys", "symmetry", "property_name", "deprecated", "deprecation_reasons", "last_updated", "origins", "warnings", "task_ids", "uncorrected_energy_per_atom", "equilibrium_reaction_energy_per_atom", "decomposes_to", "xas", "grain_boundaries", "cbm", "vbm", "is_gap_direct", "is_metal", "es_source_calc_id", "bandstructure", "dos", "dos_energy_up", "dos_energy_down", "is_magnetic", "ordering", "total_magnetization_normalized_vol", "total_magnetization_normalized_formula_units", "num_magnetic_sites", "num_unique_magnetic_sites", "types_of_magnetic_species", "bulk_modulus", "shear_modulus", "universal_anisotropy", "homogeneous_poisson", "e_total", "e_ionic", "e_electronic", "n", "e_ij_max", "weighted_surface_energy_EV_PER_ANG2", "weighted_surface_energy", "weighted_work_function", "surface_anisotropy", "shape_factor", "has_reconstructed", "possible_species", "has_props", "theoretical", "database_IDs"]}