{
  "builder_meta": null,
  "nsites": null,
  "elements": null,
  "nelements": null,
  "composition": null,
  "composition_reduced": null,
  "formula_pretty": "CeEu3",
  "formula_anonymous": "AB3",
  "chemsys": null,
  "volume": 329.1335259654989,
  "density": 6.013939571199297,
  "density_atomic": 41.14169074568736,
  "symmetry": null,
  "property_name": null,
  "material_id": "mp-1184049",
  "deprecated": null,
  "deprecation_reasons": null,
  "last_updated": null,
  "origins": null,
  "warnings": null,
  "structure": {
    "@module": "pymatgen.core.structure",
    "@class": "Structure",
    "charge": 0,
    "lattice": {
      "matrix": [
        [3.880813, -6.721766, 0.0],
        [3.880813, 6.721766, 0.0],
        [0.0, 0.0, 6.308644]
      ],
      "pbc": [true, true, true],
      "a": 7.761626614294519,
      "b": 7.761626614294519,
      "c": 6.308644,
      "alpha": 90.0,
      "beta": 90.0,
      "gamma": 120.00000523619595,
      "volume": 329.1335259654989
    },
    "properties": {},
    "sites": [
      {
        "species": [{ "element": "Ce", "occu": 1 }],
        "abc": [0.333333, 0.666667, 0.75],
        "properties": { "magmom": 0.8170000000000001 },
        "label": "Ce",
        "xyz": [3.880813, 2.2405931478439998, 4.731483]
      },
      {
        "species": [{ "element": "Ce", "occu": 1 }],
        "abc": [0.666667, 0.333333, 0.25],
        "properties": { "magmom": 0.8160000000000001 },
        "label": "Ce",
        "xyz": [3.880813, -2.2405931478439998, 1.577161]
      },
      {
        "species": [{ "element": "Eu", "occu": 1 }],
        "abc": [0.169951, 0.339903, 0.25],
        "properties": { "magmom": 7.003 },
        "label": "Eu",
        "xyz": [1.9786480313019998, 1.1423775752319998, 1.577161]
      },
      {
        "species": [{ "element": "Eu", "occu": 1 }],
        "abc": [0.660096999999999, 0.830048999999999, 0.25],
        "properties": { "magmom": 7.0 },
        "label": "Eu",
        "xyz": [5.782977968697992, 1.1423775752320005, 1.577161]
      },
      {
        "species": [{ "element": "Eu", "occu": 1 }],
        "abc": [0.169951, 0.830048999999999, 0.25],
        "properties": { "magmom": 7.003 },
        "label": "Eu",
        "xyz": [3.8808129999999963, 4.437024293067994, 1.577161]
      },
      {
        "species": [{ "element": "Eu", "occu": 1 }],
        "abc": [0.830048999999999, 0.660096999999999, 0.75],
        "properties": { "magmom": 7.003 },
        "label": "Eu",
        "xyz": [5.782977968697992, -1.1423775752320005, 4.731483]
      },
      {
        "species": [{ "element": "Eu", "occu": 1 }],
        "abc": [0.339903, 0.169951, 0.75],
        "properties": { "magmom": 7.0 },
        "label": "Eu",
        "xyz": [1.9786480313019998, -1.1423775752319998, 4.731483]
      },
      {
        "species": [{ "element": "Eu", "occu": 1 }],
        "abc": [0.830048999999999, 0.169951, 0.75],
        "properties": { "magmom": 7.003 },
        "label": "Eu",
        "xyz": [3.8808129999999963, -4.437024293067994, 4.731483]
      }
    ]
  },
  "task_ids": null,
  "uncorrected_energy_per_atom": null,
  "energy_per_atom": -36.451989145,
  "formation_energy_per_atom": 0.148830081249997,
  "energy_above_hull": 0.148830081249997,
  "is_stable": false,
  "equilibrium_reaction_energy_per_atom": null,
  "decomposes_to": null,
  "xas": null,
  "grain_boundaries": null,
  "band_gap": 0.0,
  "cbm": null,
  "vbm": null,
  "efermi": 3.0143193,
  "is_gap_direct": null,
  "is_metal": null,
  "es_source_calc_id": null,
  "bandstructure": null,
  "dos": null,
  "dos_energy_up": null,
  "dos_energy_down": null,
  "is_magnetic": null,
  "ordering": null,
  "total_magnetization": 47.1890316,
  "total_magnetization_normalized_vol": null,
  "total_magnetization_normalized_formula_units": null,
  "num_magnetic_sites": null,
  "num_unique_magnetic_sites": null,
  "types_of_magnetic_species": null,
  "bulk_modulus": null,
  "shear_modulus": null,
  "universal_anisotropy": null,
  "homogeneous_poisson": null,
  "e_total": null,
  "e_ionic": null,
  "e_electronic": null,
  "n": null,
  "e_ij_max": null,
  "weighted_surface_energy_EV_PER_ANG2": null,
  "weighted_surface_energy": null,
  "weighted_work_function": null,
  "surface_anisotropy": null,
  "shape_factor": null,
  "has_reconstructed": null,
  "possible_species": null,
  "has_props": null,
  "theoretical": null,
  "database_IDs": null,
  "fields_not_requested": [
    "builder_meta",
    "nsites",
    "elements",
    "nelements",
    "composition",
    "composition_reduced",
    "chemsys",
    "symmetry",
    "property_name",
    "deprecated",
    "deprecation_reasons",
    "last_updated",
    "origins",
    "warnings",
    "task_ids",
    "uncorrected_energy_per_atom",
    "equilibrium_reaction_energy_per_atom",
    "decomposes_to",
    "xas",
    "grain_boundaries",
    "cbm",
    "vbm",
    "is_gap_direct",
    "is_metal",
    "es_source_calc_id",
    "bandstructure",
    "dos",
    "dos_energy_up",
    "dos_energy_down",
    "is_magnetic",
    "ordering",
    "total_magnetization_normalized_vol",
    "total_magnetization_normalized_formula_units",
    "num_magnetic_sites",
    "num_unique_magnetic_sites",
    "types_of_magnetic_species",
    "bulk_modulus",
    "shear_modulus",
    "universal_anisotropy",
    "homogeneous_poisson",
    "e_total",
    "e_ionic",
    "e_electronic",
    "n",
    "e_ij_max",
    "weighted_surface_energy_EV_PER_ANG2",
    "weighted_surface_energy",
    "weighted_work_function",
    "surface_anisotropy",
    "shape_factor",
    "has_reconstructed",
    "possible_species",
    "has_props",
    "theoretical",
    "database_IDs"
  ]
}
