{"builder_meta": null, "nsites": null, "elements": null, "nelements": null, "composition": null, "composition_reduced": null, "formula_pretty": "CeF3", "formula_anonymous": "AB3", "chemsys": null, "volume": 319.6498739297401, "density": 6.143800902812646, "density_atomic": 13.318744747072506, "symmetry": null, "property_name": null, "material_id": "mp-2038579", "deprecated": null, "deprecation_reasons": null, "last_updated": null, "origins": null, "warnings": null, "structure": {"@module": "pymatgen.core.structure", "@class": "Structure", "charge": 0, "lattice": {"matrix": [[7.16804413, -0.0778425, 0.0], [-3.65124464, 6.17233464, 0.0], [0.0, 0.0, 7.27148854]], "pbc": [true, true, true], "a": 7.1684667889607825, "b": 7.171422615441978, "c": 7.27148854, "alpha": 90.0, "beta": 90.0, "gamma": 121.22862554717373, "volume": 319.6498739297401}, "properties": {}, "sites": [{"species": [{"element": "Ce", "occu": 1}], "abc": [0.67610103, 0.00945375, 0.75], "properties": {"magmom": 0.968}, "label": "Ce", "xyz": [4.811804065363054, 0.005722314175125004, 5.453616405]}, {"species": [{"element": "Ce", "occu": 1}], "abc": [0.32389897, 0.9905462500000001, 0.25], "properties": {"magmom": 0.968}, "label": "Ce", "xyz": [-1.2950045753630537, 6.088769825824875, 1.817872135]}, {"species": [{"element": "Ce", "occu": 1}], "abc": [0.00931795, 0.67634352, 0.75], "properties": {"magmom": 0.968}, "label": "Ce", "xyz": [-2.402704175397599, 4.173893204512657, 5.453616405]}, {"species": [{"element": "Ce", "occu": 1}], "abc": [0.65711429, 0.6569862, 0.25], "properties": {"magmom": 0.978}, "label": "Ce", "xyz": [2.31140688786965, 4.003987261142643, 1.817872135]}, {"species": [{"element": "Ce", "occu": 1}], "abc": [0.99068205, 0.32365648, 0.25], "properties": {"magmom": 0.968}, "label": "Ce", "xyz": [5.919503665397599, 1.9205989354873423, 1.817872135]}, {"species": [{"element": "Ce", "occu": 1}], "abc": [0.34288571, 0.3430138, 0.75], "properties": {"magmom": 0.978}, "label": "Ce", "xyz": [1.2053926021303507, 2.090504878857357, 5.453616405]}, {"species": [{"element": "F", "occu": 1}], "abc": [0.33411962, 0.00088709, 0.57994685], "properties": {"magmom": -0.004}, "label": "F", "xyz": [2.391745198251133, -0.0205332901840524, 4.217076873584099]}, {"species": [{"element": "F", "occu": 1}], "abc": [0.66588038, -0.00088709, 0.07994685], "properties": {"magmom": -0.004}, "label": "F", "xyz": [4.776298931748868, -0.0573092098159476, 0.581332603584099]}, {"species": [{"element": "F", "occu": 1}], "abc": [0.66588038, -0.00088709, 0.42005315], "properties": {"magmom": -0.004}, "label": "F", "xyz": [4.776298931748868, -0.0573092098159476, 3.054411666415901]}, {"species": [{"element": "F", "occu": 1}], "abc": [-0.00325466, -0.00332063, 0.25], "properties": {"magmom": -0.004}, "label": "F", "xyz": [-0.0112051140192226, -0.020242688704573204, 1.817872135]}, {"species": [{"element": "F", "occu": 1}], "abc": [0.33279872, 0.33276837, 0.41987784], "properties": {"magmom": -0.004}, "label": "F", "xyz": [1.170497184043477, 2.0280518528857367, 3.0531369017599537]}, {"species": [{"element": "F", "occu": 1}], "abc": [-0.0004981300000000001, 0.66623113, 0.07991525000000001], "properties": {"magmom": -0.004}, "label": "F", "xyz": [-2.4361434602361203, 4.112240257629868, 0.5811028245462351]}, {"species": [{"element": "F", "occu": 1}], "abc": [0.6633406900000001, 0.32968381, 0.25], "properties": {"magmom": -0.004}, "label": "F", "xyz": [3.5510990949873715, 1.9832827030488533, 1.817872135]}, {"species": [{"element": "F", "occu": 1}], "abc": [0.66720128, 0.66723163, 0.58012216], "properties": {"magmom": -0.004}, "label": "F", "xyz": [2.3463023059565233, 4.066440287114263, 4.218351638240047]}, {"species": [{"element": "F", "occu": 1}], "abc": [0.6703306, 0.33680643, 0.75], "properties": {"magmom": -0.004}, "label": "F", "xyz": [3.5751966502343437, 2.026701785133235, 5.453616405]}, {"species": [{"element": "F", "occu": 1}], "abc": [0.0004981300000000001, 0.33376887, 0.92008475], "properties": {"magmom": -0.004}, "label": "F", "xyz": [-1.21510117976388, 2.060094382370132, 6.690385715453765]}, {"species": [{"element": "F", "occu": 1}], "abc": [0.66720128, 0.66723163, 0.9198778400000001], "properties": {"magmom": -0.004}, "label": "F", "xyz": [2.3463023059565233, 4.066440287114263, 6.688881171759954]}, {"species": [{"element": "F", "occu": 1}], "abc": [0.33279872, 0.33276837, 0.08012216], "properties": {"magmom": -0.004}, "label": "F", "xyz": [1.170497184043477, 2.0280518528857367, 0.5826073682400463]}, {"species": [{"element": "F", "occu": 1}], "abc": [-0.0004981300000000001, 0.66623113, 0.42008475], "properties": {"magmom": -0.004}, "label": "F", "xyz": [-2.4361434602361203, 4.112240257629868, 3.054641445453765]}, {"species": [{"element": "F", "occu": 1}], "abc": [0.3296694, 0.66319357, 0.25], "properties": {"magmom": -0.004}, "label": "F", "xyz": [-0.05839716023434249, 4.067790354866765, 1.817872135]}, {"species": [{"element": "F", "occu": 1}], "abc": [0.0004981300000000001, 0.33376887, 0.57991525], "properties": {"magmom": -0.004}, "label": "F", "xyz": [-1.21510117976388, 2.060094382370132, 4.216847094546235]}, {"species": [{"element": "F", "occu": 1}], "abc": [0.33411962, 0.00088709, 0.92005315], "properties": {"magmom": -0.004}, "label": "F", "xyz": [2.391745198251133, -0.0205332901840524, 6.690155936415901]}, {"species": [{"element": "F", "occu": 1}], "abc": [0.33665931, 0.67031619, 0.75], "properties": {"magmom": -0.004}, "label": "F", "xyz": [-0.03429960498737117, 4.111209436951146, 5.453616405]}, {"species": [{"element": "F", "occu": 1}], "abc": [0.00325466, 0.00332063, 0.75], "properties": {"magmom": -0.004}, "label": "F", "xyz": [0.0112051140192226, 0.020242688704573204, 5.453616405]}]}, "task_ids": null, "uncorrected_energy_per_atom": null, "energy_per_atom": -14.444144496249999, "formation_energy_per_atom": -4.389466343749999, "energy_above_hull": 0.0, "is_stable": true, "equilibrium_reaction_energy_per_atom": null, "decomposes_to": null, "xas": null, "grain_boundaries": null, "band_gap": 0.9484, "cbm": null, "vbm": null, "efermi": 5.90035713, "is_gap_direct": null, "is_metal": null, "es_source_calc_id": null, "bandstructure": null, "dos": null, "dos_energy_up": null, "dos_energy_down": null, "is_magnetic": null, "ordering": null, "total_magnetization": 5.9999997, "total_magnetization_normalized_vol": null, "total_magnetization_normalized_formula_units": null, "num_magnetic_sites": null, "num_unique_magnetic_sites": null, "types_of_magnetic_species": null, "bulk_modulus": null, "shear_modulus": null, "universal_anisotropy": null, "homogeneous_poisson": null, "e_total": null, "e_ionic": null, "e_electronic": null, "n": null, "e_ij_max": null, "weighted_surface_energy_EV_PER_ANG2": null, "weighted_surface_energy": null, "weighted_work_function": null, "surface_anisotropy": null, "shape_factor": null, "has_reconstructed": null, "possible_species": null, "has_props": null, "theoretical": null, "database_IDs": null, "fields_not_requested": ["builder_meta", "nsites", "elements", "nelements", "composition", "composition_reduced", "chemsys", "symmetry", "property_name", "deprecated", "deprecation_reasons", "last_updated", "origins", "warnings", "task_ids", "uncorrected_energy_per_atom", "equilibrium_reaction_energy_per_atom", "decomposes_to", "xas", "grain_boundaries", "cbm", "vbm", "is_gap_direct", "is_metal", "es_source_calc_id", "bandstructure", "dos", "dos_energy_up", "dos_energy_down", "is_magnetic", "ordering", "total_magnetization_normalized_vol", "total_magnetization_normalized_formula_units", "num_magnetic_sites", "num_unique_magnetic_sites", "types_of_magnetic_species", "bulk_modulus", "shear_modulus", "universal_anisotropy", "homogeneous_poisson", "e_total", "e_ionic", "e_electronic", "n", "e_ij_max", "weighted_surface_energy_EV_PER_ANG2", "weighted_surface_energy", "weighted_work_function", "surface_anisotropy", "shape_factor", "has_reconstructed", "possible_species", "has_props", "theoretical", "database_IDs"]}