{
  "builder_meta": null,
  "nsites": null,
  "elements": null,
  "nelements": null,
  "composition": null,
  "composition_reduced": null,
  "formula_pretty": "CeF4",
  "formula_anonymous": "AB4",
  "chemsys": null,
  "volume": 454.4772832450901,
  "density": 4.737642139028645,
  "density_atomic": 15.149242774836337,
  "symmetry": null,
  "property_name": null,
  "material_id": "mp-542001",
  "deprecated": null,
  "deprecation_reasons": null,
  "last_updated": null,
  "origins": null,
  "warnings": null,
  "structure": {
    "@module": "pymatgen.core.structure",
    "@class": "Structure",
    "charge": 0,
    "lattice": {
      "matrix": [
        [7.4121781, -0.00113033, 3.75192749],
        [3.505045469999999, 7.39198853, 1.39617396],
        [0.00973496, -0.0008963700000000001, 8.2991571]
      ],
      "pbc": [true, true, true],
      "a": 8.307667864929556,
      "b": 8.299165012276907,
      "c": 8.299162857987895,
      "alpha": 80.29184119492045,
      "beta": 63.08497868007012,
      "gamma": 63.084971869347825,
      "volume": 454.4772832450901
    },
    "properties": {},
    "sites": [
      {
        "species": [{ "element": "Ce", "occu": 1 }],
        "abc": [0.67028139, 0.63184375, 0.77593988],
        "properties": { "magmom": -0.0 },
        "label": "Ce",
        "xyz": [7.190439857175075, 4.669128584358393, 9.83665792799031]
      },
      {
        "species": [{ "element": "Ce", "occu": 1 }],
        "abc": [0.82971861, 0.22406012, 0.36815625],
        "properties": { "magmom": -0.0 },
        "label": "Ce",
        "xyz": [6.938947005185597, 1.6549819770161698, 6.4812575229389395]
      },
      {
        "species": [{ "element": "Ce", "occu": 1 }],
        "abc": [0.32971861, 0.36815625, 0.22406012],
        "properties": { "magmom": -0.0 },
        "label": "Ce",
        "xyz": [3.7365186728249236, 2.720833245641607, 3.6106006220096907]
      },
      {
        "species": [{ "element": "Ce", "occu": 1 }],
        "abc": [0.17028139, 0.77593988, 0.63184375],
        "properties": { "magmom": -0.0 },
        "label": "Ce",
        "xyz": [3.988011524814402, 5.73497985298383, 6.966001027061061]
      },
      {
        "species": [{ "element": "Ce", "occu": 1 }],
        "abc": [0.75, 0.78772363, 0.21227637],
        "properties": { "magmom": -0.0 },
        "label": "Ce",
        "xyz": [8.322207217914352, 5.821806012100187, 5.675459780630401]
      },
      {
        "species": [{ "element": "Ce", "occu": 1 }],
        "abc": [0.25, 0.21227637, 0.78772363],
        "properties": { "magmom": -0.0 },
        "label": "Ce",
        "xyz": [2.6047513120856483, 1.568155817899813, 7.771798769369599]
      },
      {
        "species": [{ "element": "F", "occu": 1 }],
        "abc": [0.75, 0.39640361, 0.60359639],
        "properties": { "magmom": 0.0 },
        "label": "F",
        "xyz": [6.954422239234941, 2.928822145174489, 8.376735281034865]
      },
      {
        "species": [{ "element": "F", "occu": 1 }],
        "abc": [0.25, 0.60359639, 0.39640361],
        "properties": { "magmom": 0.0 },
        "label": "F",
        "xyz": [3.972536290765058, 4.461139684825511, 5.070523268965136]
      },
      {
        "species": [{ "element": "F", "occu": 1 }],
        "abc": [0.78245986, 0.50297071, 0.26112151],
        "properties": { "magmom": -0.0 },
        "label": "F",
        "xyz": [7.565209054504239, 3.716835219904484, 5.805055700179484]
      },
      {
        "species": [{ "element": "F", "occu": 1 }],
        "abc": [0.71754014, 0.73887849, 0.49702929],
        "properties": { "magmom": -0.0 },
        "label": "F",
        "xyz": [7.9131765760908515, 5.460524743852597, 7.848685644798028]
      },
      {
        "species": [{ "element": "F", "occu": 1 }],
        "abc": [0.21754014, 0.49702929, 0.73887849],
        "properties": { "magmom": -0.0 },
        "label": "F",
        "xyz": [3.36174947549576, 3.673126610095516, 7.642202849820517]
      },
      {
        "species": [{ "element": "F", "occu": 1 }],
        "abc": [0.28245986, 0.26112151, 0.50297071],
        "properties": { "magmom": -0.0 },
        "label": "F",
        "xyz": [3.0137819539091475, 1.929437086147404, 5.598572905201973]
      },
      {
        "species": [{ "element": "F", "occu": 1 }],
        "abc": [0.65171667, 0.72412023, 0.02882672],
        "properties": { "magmom": 0.0 },
        "label": "F",
        "xyz": [7.3689949876419165, 5.3519259401903545, 3.6954289768571815]
      },
      {
        "species": [{ "element": "F", "occu": 1 }],
        "abc": [0.84828333, 0.97117328, 0.27587977],
        "properties": { "magmom": 0.0 },
        "label": "F",
        "xyz": [9.694319305395874, 7.177695615956645, 6.8281939412613974]
      },
      {
        "species": [{ "element": "F", "occu": 1 }],
        "abc": [0.34828333, 0.27587977, 0.97117328],
        "properties": { "magmom": 0.0 },
        "label": "F",
        "xyz": [3.5579635423580838, 2.038035889809646, 9.75182957314282]
      },
      {
        "species": [{ "element": "F", "occu": 1 }],
        "abc": [0.15171667, 0.02882672, 0.72412023],
        "properties": { "magmom": 0.0 },
        "label": "F",
        "xyz": [1.2326392246041262, 0.21226621404335538, 6.619064608738603]
      },
      {
        "species": [{ "element": "F", "occu": 1 }],
        "abc": [0.5, 0.5, -0.0],
        "properties": { "magmom": -0.0 },
        "label": "F",
        "xyz": [5.4586117849999995, 3.6954291, 2.574050725]
      },
      {
        "species": [{ "element": "F", "occu": 1 }],
        "abc": [-0.0, 0.0, 0.5],
        "properties": { "magmom": -0.0 },
        "label": "F",
        "xyz": [0.00486748, -0.00044818500000000003, 4.14957855]
      },
      {
        "species": [{ "element": "F", "occu": 1 }],
        "abc": [0.95644712, 0.82588595, 0.93422667],
        "properties": { "magmom": -0.0 },
        "label": "F",
        "xyz": [9.993218863719601, 6.103020955854816, 12.49489460091905]
      },
      {
        "species": [{ "element": "F", "occu": 1 }],
        "abc": [0.54355288, 0.06577333, 0.17411405],
        "properties": { "magmom": -0.0 },
        "label": "F",
        "xyz": [4.261144259003431, 0.4854252362020561, 3.5762018576164136]
      },
      {
        "species": [{ "element": "F", "occu": 1 }],
        "abc": [0.04355288, 0.17411405, 0.06577333],
        "properties": { "magmom": -0.0 },
        "label": "F",
        "xyz": [0.9337396662803982, 1.286940874145184, 0.9523639490809523]
      },
      {
        "species": [{ "element": "F", "occu": 1 }],
        "abc": [0.45644712, 0.93422667, 0.82588595],
        "properties": { "magmom": -0.0 },
        "label": "F",
        "xyz": [6.6658142709965675, 6.904536593797944, 9.871056692383586]
      },
      {
        "species": [{ "element": "F", "occu": 1 }],
        "abc": [0.92797131, 0.40306353, 0.81483997],
        "properties": { "magmom": -0.0 },
        "label": "F",
        "xyz": [8.298977055873372, 2.97766167870657, 10.806912795121278]
      },
      {
        "species": [{ "element": "F", "occu": 1 }],
        "abc": [0.57202869, 0.18516003, 0.59693647],
        "properties": { "magmom": -0.0 },
        "label": "F",
        "xyz": [4.894784005624245, 1.3675191608416746, 7.358795322647945]
      },
      {
        "species": [{ "element": "F", "occu": 1 }],
        "abc": [0.07202869, 0.59693647, 0.18516003],
        "properties": { "magmom": -0.0 },
        "label": "F",
        "xyz": [2.6279814741266283, 4.412300151293431, 2.6403457548787226]
      },
      {
        "species": [{ "element": "F", "occu": 1 }],
        "abc": [0.42797131, 0.81483997, 0.40306353],
        "properties": { "magmom": -0.0 },
        "label": "F",
        "xyz": [6.032174524375755, 6.022442669158326, 6.088463227352056]
      },
      {
        "species": [{ "element": "F", "occu": 1 }],
        "abc": [0.89561015, 0.74040122, 0.68207965],
        "properties": { "magmom": -0.0 },
        "label": "F",
        "xyz": [9.240201900220752, 5.471413595081286, 10.054679415487271]
      },
      {
        "species": [{ "element": "F", "occu": 1 }],
        "abc": [0.60438985, 0.31792035, 0.25959878000000003],
        "properties": { "magmom": -0.0 },
        "label": "F",
        "xyz": [5.596697676359948, 2.3491477241160066, 4.865950065104401]
      },
      {
        "species": [{ "element": "F", "occu": 1 }],
        "abc": [0.10438985, 0.25959878000000003, 0.31792035],
        "properties": { "magmom": -0.0 },
        "label": "F",
        "xyz": [1.6867566297792476, 1.9185482349187135, 3.3925791345127303]
      },
      {
        "species": [{ "element": "F", "occu": 1 }],
        "abc": [0.39561015, 0.68207965, 0.74040122],
        "properties": { "magmom": -0.0 },
        "label": "F",
        "xyz": [5.330260853640052, 5.040814105883994, 8.5813084848956]
      }
    ]
  },
  "task_ids": null,
  "uncorrected_energy_per_atom": null,
  "energy_per_atom": -6.776128403333333,
  "formation_energy_per_atom": -4.057656529333332,
  "energy_above_hull": 0.0,
  "is_stable": true,
  "equilibrium_reaction_energy_per_atom": null,
  "decomposes_to": null,
  "xas": null,
  "grain_boundaries": null,
  "band_gap": 2.1473,
  "cbm": null,
  "vbm": null,
  "efermi": -1.09848172,
  "is_gap_direct": null,
  "is_metal": null,
  "es_source_calc_id": null,
  "bandstructure": null,
  "dos": null,
  "dos_energy_up": null,
  "dos_energy_down": null,
  "is_magnetic": null,
  "ordering": null,
  "total_magnetization": 0.0,
  "total_magnetization_normalized_vol": null,
  "total_magnetization_normalized_formula_units": null,
  "num_magnetic_sites": null,
  "num_unique_magnetic_sites": null,
  "types_of_magnetic_species": null,
  "bulk_modulus": null,
  "shear_modulus": null,
  "universal_anisotropy": null,
  "homogeneous_poisson": null,
  "e_total": null,
  "e_ionic": null,
  "e_electronic": null,
  "n": null,
  "e_ij_max": null,
  "weighted_surface_energy_EV_PER_ANG2": null,
  "weighted_surface_energy": null,
  "weighted_work_function": null,
  "surface_anisotropy": null,
  "shape_factor": null,
  "has_reconstructed": null,
  "possible_species": null,
  "has_props": null,
  "theoretical": null,
  "database_IDs": null,
  "fields_not_requested": [
    "builder_meta",
    "nsites",
    "elements",
    "nelements",
    "composition",
    "composition_reduced",
    "chemsys",
    "symmetry",
    "property_name",
    "deprecated",
    "deprecation_reasons",
    "last_updated",
    "origins",
    "warnings",
    "task_ids",
    "uncorrected_energy_per_atom",
    "equilibrium_reaction_energy_per_atom",
    "decomposes_to",
    "xas",
    "grain_boundaries",
    "cbm",
    "vbm",
    "is_gap_direct",
    "is_metal",
    "es_source_calc_id",
    "bandstructure",
    "dos",
    "dos_energy_up",
    "dos_energy_down",
    "is_magnetic",
    "ordering",
    "total_magnetization_normalized_vol",
    "total_magnetization_normalized_formula_units",
    "num_magnetic_sites",
    "num_unique_magnetic_sites",
    "types_of_magnetic_species",
    "bulk_modulus",
    "shear_modulus",
    "universal_anisotropy",
    "homogeneous_poisson",
    "e_total",
    "e_ionic",
    "e_electronic",
    "n",
    "e_ij_max",
    "weighted_surface_energy_EV_PER_ANG2",
    "weighted_surface_energy",
    "weighted_work_function",
    "surface_anisotropy",
    "shape_factor",
    "has_reconstructed",
    "possible_species",
    "has_props",
    "theoretical",
    "database_IDs"
  ]
}
