{"builder_meta": null, "nsites": null, "elements": null, "nelements": null, "composition": null, "composition_reduced": null, "formula_pretty": "CeFe2", "formula_anonymous": "AB2", "chemsys": null, "volume": 99.28577125121703, "density": 8.422832293789613, "density_atomic": 16.547628541869503, "symmetry": null, "property_name": null, "material_id": "mp-204", "deprecated": null, "deprecation_reasons": null, "last_updated": null, "origins": null, "warnings": null, "structure": {"@module": "pymatgen.core.structure", "@class": "Structure", "charge": 0, "lattice": {"matrix": [[4.50123643, -3.38e-05, 2.59873187], [1.50038439, 4.24379383, 2.59873377], [-3.727e-05, -2.6260000000000003e-05, 5.19753072]], "pbc": [true, true, true], "a": 5.197551032174218, "b": 5.197533703271212, "c": 5.197530720199963, "alpha": 60.00083097061225, "beta": 60.00096641797447, "gamma": 60.00090522804581, "volume": 99.28577125121703}, "properties": {}, "sites": [{"species": [{"element": "Ce", "occu": 1}], "abc": [0.12500081, 0.12499567, 0.12500287000000002], "properties": {"magmom": -1.335}, "label": "Ce", "xyz": [0.7501950929801346, 0.530448345519972, 1.299380314368757]}, {"species": [{"element": "Ce", "occu": 1}], "abc": [0.87499919, 0.87500433, 0.87499713], "properties": {"magmom": -1.335}, "label": "Ce", "xyz": [5.251388457019865, 3.7132854244800284, 9.095616045631242]}, {"species": [{"element": "Fe", "occu": 1}], "abc": [0.5, 0.0, 0.5], "properties": {"magmom": 2.542}, "label": "Fe", "xyz": [2.25059958, -3.0030000000000002e-05, 3.8981312949999998]}, {"species": [{"element": "Fe", "occu": 1}], "abc": [0.0, 0.5, 0.5], "properties": {"magmom": 2.542}, "label": "Fe", "xyz": [0.75017356, 2.121883785, 3.8981322449999998]}, {"species": [{"element": "Fe", "occu": 1}], "abc": [0.5, 0.5, 0.5], "properties": {"magmom": 2.542}, "label": "Fe", "xyz": [3.0007917749999997, 2.121866885, 5.19749818]}, {"species": [{"element": "Fe", "occu": 1}], "abc": [0.5, 0.5, -0.0], "properties": {"magmom": 2.542}, "label": "Fe", "xyz": [3.0008104099999997, 2.1218800150000003, 2.59873282]}]}, "task_ids": null, "uncorrected_energy_per_atom": null, "energy_per_atom": -7.7060086383333335, "formation_energy_per_atom": -0.08034454166666401, "energy_above_hull": 0.0, "is_stable": true, "equilibrium_reaction_energy_per_atom": null, "decomposes_to": null, "xas": null, "grain_boundaries": null, "band_gap": 0.0, "cbm": null, "vbm": null, "efermi": 7.74700242, "is_gap_direct": null, "is_metal": null, "es_source_calc_id": null, "bandstructure": null, "dos": null, "dos_energy_up": null, "dos_energy_down": null, "is_magnetic": null, "ordering": null, "total_magnetization": 6.1212686, "total_magnetization_normalized_vol": null, "total_magnetization_normalized_formula_units": null, "num_magnetic_sites": null, "num_unique_magnetic_sites": null, "types_of_magnetic_species": null, "bulk_modulus": null, "shear_modulus": null, "universal_anisotropy": null, "homogeneous_poisson": null, "e_total": null, "e_ionic": null, "e_electronic": null, "n": null, "e_ij_max": null, "weighted_surface_energy_EV_PER_ANG2": null, "weighted_surface_energy": null, "weighted_work_function": null, "surface_anisotropy": null, "shape_factor": null, "has_reconstructed": null, "possible_species": null, "has_props": null, "theoretical": null, "database_IDs": null, "fields_not_requested": ["builder_meta", "nsites", "elements", "nelements", "composition", "composition_reduced", "chemsys", "symmetry", "property_name", "deprecated", "deprecation_reasons", "last_updated", "origins", "warnings", "task_ids", "uncorrected_energy_per_atom", "equilibrium_reaction_energy_per_atom", "decomposes_to", "xas", "grain_boundaries", "cbm", "vbm", "is_gap_direct", "is_metal", "es_source_calc_id", "bandstructure", "dos", "dos_energy_up", "dos_energy_down", "is_magnetic", "ordering", "total_magnetization_normalized_vol", "total_magnetization_normalized_formula_units", "num_magnetic_sites", "num_unique_magnetic_sites", "types_of_magnetic_species", "bulk_modulus", "shear_modulus", "universal_anisotropy", "homogeneous_poisson", "e_total", "e_ionic", "e_electronic", "n", "e_ij_max", "weighted_surface_energy_EV_PER_ANG2", "weighted_surface_energy", "weighted_work_function", "surface_anisotropy", "shape_factor", "has_reconstructed", "possible_species", "has_props", "theoretical", "database_IDs"]}