{
  "builder_meta": null,
  "nsites": null,
  "elements": null,
  "nelements": null,
  "composition": null,
  "composition_reduced": null,
  "formula_pretty": "CeGa3",
  "formula_anonymous": "AB3",
  "chemsys": null,
  "volume": 165.26708834441592,
  "density": 7.018958144511633,
  "density_atomic": 20.65838604305199,
  "symmetry": null,
  "property_name": null,
  "material_id": "mp-862696",
  "deprecated": null,
  "deprecation_reasons": null,
  "last_updated": null,
  "origins": null,
  "warnings": null,
  "structure": {
    "@module": "pymatgen.core.structure",
    "@class": "Structure",
    "charge": 0,
    "lattice": {
      "matrix": [
        [6.50106002, 2.251e-5, -1.8780000000000003e-5],
        [-3.25063965, 5.60233453, -7.261000000000001e-5],
        [2.401e-5, -2.4920000000000002e-5, 4.53766353]
      ],
      "pbc": [true, true, true],
      "a": 6.501060020066095,
      "b": 6.4770989127428535,
      "c": 4.537663530131949,
      "alpha": 90.0010666121345,
      "beta": 89.99986234742407,
      "gamma": 120.12337231872577,
      "volume": 165.26708834441592
    },
    "properties": {},
    "sites": [
      {
        "species": [{ "element": "Ce", "occu": 1 }],
        "abc": [0.33429792, 0.66860619, 0.74999622],
        "properties": { "magmom": 0.896 },
        "label": "Ce",
        "xyz": [-8.894155903303337e-5, 3.7457443803491173, 3.4031756695214628]
      },
      {
        "species": [{ "element": "Ce", "occu": 1 }],
        "abc": [0.66570094, 0.33138917, 0.24997584],
        "properties": { "magmom": 0.896 },
        "label": "Ce",
        "xyz": [3.250540992647746, 1.856561745489267, 1.1342696885178283]
      },
      {
        "species": [{ "element": "Ga", "occu": 1 }],
        "abc": [0.14071072, 0.28140737, 0.24999596000000002],
        "properties": { "magmom": 0.002 },
        "label": "Ga",
        "xyz": [2.0883856193548958e-5, 1.57653516344647, 1.1343744748028817]
      },
      {
        "species": [{ "element": "Ga", "occu": 1 }],
        "abc": [0.71952118, 0.85912506, 0.25000827000000003],
        "properties": { "magmom": 0.002 },
        "label": "Ga",
        "xyz": [1.8849503951951565, 4.8131159554419956, 1.1343775152990263]
      },
      {
        "species": [{ "element": "Ga", "occu": 1 }],
        "abc": [0.13959755000000001, 0.85913425, 0.25001768],
        "properties": { "magmom": 0.002 },
        "label": "Ga",
        "xyz": [-1.8851978036035646, 4.813154386580917, 1.134431105011329]
      },
      {
        "species": [{ "element": "Ga", "occu": 1 }],
        "abc": [0.85930762, 0.7186372, 0.74997924],
        "properties": { "magmom": 0.002 },
        "label": "Ga",
        "xyz": [3.250397843979925, 4.026046653634381, 3.4030851275609217]
      },
      {
        "species": [{ "element": "Ga", "occu": 1 }],
        "abc": [0.28044845, 0.14085656, 0.74999859],
        "properties": { "magmom": 0.002 },
        "label": "Ga",
        "xyz": [1.365356294533511, 0.7891131927947636, 3.4032257549777096]
      },
      {
        "species": [{ "element": "Ga", "occu": 1 }],
        "abc": [0.8604196, 0.14084318, 0.75003219],
        "properties": { "magmom": 0.002 },
        "label": "Ga",
        "xyz": [5.135827044917186, 0.7890512878720267, 3.4033673295856426]
      }
    ]
  },
  "task_ids": null,
  "uncorrected_energy_per_atom": null,
  "energy_per_atom": -16.91144767875,
  "formation_energy_per_atom": -0.619208526249998,
  "energy_above_hull": 0.0,
  "is_stable": true,
  "equilibrium_reaction_energy_per_atom": null,
  "decomposes_to": null,
  "xas": null,
  "grain_boundaries": null,
  "band_gap": 0.0,
  "cbm": null,
  "vbm": null,
  "efermi": 5.43797111,
  "is_gap_direct": null,
  "is_metal": null,
  "es_source_calc_id": null,
  "bandstructure": null,
  "dos": null,
  "dos_energy_up": null,
  "dos_energy_down": null,
  "is_magnetic": null,
  "ordering": null,
  "total_magnetization": 1.9715384,
  "total_magnetization_normalized_vol": null,
  "total_magnetization_normalized_formula_units": null,
  "num_magnetic_sites": null,
  "num_unique_magnetic_sites": null,
  "types_of_magnetic_species": null,
  "bulk_modulus": null,
  "shear_modulus": null,
  "universal_anisotropy": null,
  "homogeneous_poisson": null,
  "e_total": null,
  "e_ionic": null,
  "e_electronic": null,
  "n": null,
  "e_ij_max": null,
  "weighted_surface_energy_EV_PER_ANG2": null,
  "weighted_surface_energy": null,
  "weighted_work_function": null,
  "surface_anisotropy": null,
  "shape_factor": null,
  "has_reconstructed": null,
  "possible_species": null,
  "has_props": null,
  "theoretical": null,
  "database_IDs": null,
  "fields_not_requested": [
    "builder_meta",
    "nsites",
    "elements",
    "nelements",
    "composition",
    "composition_reduced",
    "chemsys",
    "symmetry",
    "property_name",
    "deprecated",
    "deprecation_reasons",
    "last_updated",
    "origins",
    "warnings",
    "task_ids",
    "uncorrected_energy_per_atom",
    "equilibrium_reaction_energy_per_atom",
    "decomposes_to",
    "xas",
    "grain_boundaries",
    "cbm",
    "vbm",
    "is_gap_direct",
    "is_metal",
    "es_source_calc_id",
    "bandstructure",
    "dos",
    "dos_energy_up",
    "dos_energy_down",
    "is_magnetic",
    "ordering",
    "total_magnetization_normalized_vol",
    "total_magnetization_normalized_formula_units",
    "num_magnetic_sites",
    "num_unique_magnetic_sites",
    "types_of_magnetic_species",
    "bulk_modulus",
    "shear_modulus",
    "universal_anisotropy",
    "homogeneous_poisson",
    "e_total",
    "e_ionic",
    "e_electronic",
    "n",
    "e_ij_max",
    "weighted_surface_energy_EV_PER_ANG2",
    "weighted_surface_energy",
    "weighted_work_function",
    "surface_anisotropy",
    "shape_factor",
    "has_reconstructed",
    "possible_species",
    "has_props",
    "theoretical",
    "database_IDs"
  ]
}
