{"builder_meta": null, "nsites": null, "elements": null, "nelements": null, "composition": null, "composition_reduced": null, "formula_pretty": "CeGa", "formula_anonymous": "AB", "chemsys": null, "volume": 105.33316432659858, "density": 6.616071195124788, "density_atomic": 26.333291081649644, "symmetry": null, "property_name": null, "material_id": "mp-1018276", "deprecated": null, "deprecation_reasons": null, "last_updated": null, "origins": null, "warnings": null, "structure": {"@module": "pymatgen.core.structure", "@class": "Structure", "charge": 0, "lattice": {"matrix": [[-0.0, 0.0, 4.17855348], [4.45919574, -3.0000000000000004e-08, -0.0], [-2.22959946, 5.65304745, 0.0]], "pbc": [true, true, true], "a": 4.17855348, "b": 4.45919574, "c": 6.076846157669601, "alpha": 111.52460587402238, "beta": 90.0, "gamma": 90.0, "volume": 105.33316432659858}, "properties": {}, "sites": [{"species": [{"element": "Ce", "occu": 1}], "abc": [0.25, 0.1434145, 0.286829], "properties": {"magmom": 1.015}, "label": "Ce", "xyz": [-4.5605810994331364e-07, 1.6214579427336149, 1.04463837]}, {"species": [{"element": "Ce", "occu": 1}], "abc": [0.75, 0.8565855, 0.713171], "properties": {"magmom": 1.015}, "label": "Ce", "xyz": [2.2295967360581104, 4.031589477266385, 3.13391511]}, {"species": [{"element": "Ga", "occu": 1}], "abc": [0.25, 0.43262224, 0.8652434800000001], "properties": {"magmom": -0.03}, "label": "Ga", "xyz": [8.538607365604634e-07, 4.891262435264459, 1.04463837]}, {"species": [{"element": "Ga", "occu": 1}], "abc": [0.75, 0.5673777600000001, 0.13475652], "properties": {"magmom": -0.03}, "label": "Ga", "xyz": [2.2295954261392636, 0.7617849847355411, 3.13391511]}]}, "task_ids": null, "uncorrected_energy_per_atom": null, "energy_per_atom": -21.7674007125, "formation_energy_per_atom": -0.625698357499999, "energy_above_hull": 0.0, "is_stable": true, "equilibrium_reaction_energy_per_atom": null, "decomposes_to": null, "xas": null, "grain_boundaries": null, "band_gap": 0.0, "cbm": null, "vbm": null, "efermi": 5.77005143, "is_gap_direct": null, "is_metal": null, "es_source_calc_id": null, "bandstructure": null, "dos": null, "dos_energy_up": null, "dos_energy_down": null, "is_magnetic": null, "ordering": null, "total_magnetization": 2.5508564, "total_magnetization_normalized_vol": null, "total_magnetization_normalized_formula_units": null, "num_magnetic_sites": null, "num_unique_magnetic_sites": null, "types_of_magnetic_species": null, "bulk_modulus": null, "shear_modulus": null, "universal_anisotropy": null, "homogeneous_poisson": null, "e_total": null, "e_ionic": null, "e_electronic": null, "n": null, "e_ij_max": null, "weighted_surface_energy_EV_PER_ANG2": null, "weighted_surface_energy": null, "weighted_work_function": null, "surface_anisotropy": null, "shape_factor": null, "has_reconstructed": null, "possible_species": null, "has_props": null, "theoretical": null, "database_IDs": null, "fields_not_requested": ["builder_meta", "nsites", "elements", "nelements", "composition", "composition_reduced", "chemsys", "symmetry", "property_name", "deprecated", "deprecation_reasons", "last_updated", "origins", "warnings", "task_ids", "uncorrected_energy_per_atom", "equilibrium_reaction_energy_per_atom", "decomposes_to", "xas", "grain_boundaries", "cbm", "vbm", "is_gap_direct", "is_metal", "es_source_calc_id", "bandstructure", "dos", "dos_energy_up", "dos_energy_down", "is_magnetic", "ordering", "total_magnetization_normalized_vol", "total_magnetization_normalized_formula_units", "num_magnetic_sites", "num_unique_magnetic_sites", "types_of_magnetic_species", "bulk_modulus", "shear_modulus", "universal_anisotropy", "homogeneous_poisson", "e_total", "e_ionic", "e_electronic", "n", "e_ij_max", "weighted_surface_energy_EV_PER_ANG2", "weighted_surface_energy", "weighted_work_function", "surface_anisotropy", "shape_factor", "has_reconstructed", "possible_species", "has_props", "theoretical", "database_IDs"]}