{"builder_meta": null, "nsites": null, "elements": null, "nelements": null, "composition": null, "composition_reduced": null, "formula_pretty": "CeGa6", "formula_anonymous": "AB6", "chemsys": null, "volume": 275.6616404254434, "density": 6.728064756981282, "density_atomic": 19.69011717324596, "symmetry": null, "property_name": null, "material_id": "mp-711", "deprecated": null, "deprecation_reasons": null, "last_updated": null, "origins": null, "warnings": null, "structure": {"@module": "pymatgen.core.structure", "@class": "Structure", "charge": 0, "lattice": {"matrix": [[5.99564119, 0.0, 0.0], [-0.0, 5.99564119, -0.0], [0.0, 0.0, 7.66840545]], "pbc": [true, true, true], "a": 5.99564119, "b": 5.99564119, "c": 7.66840545, "alpha": 90.0, "beta": 90.0, "gamma": 90.0, "volume": 275.6616404254434}, "properties": {}, "sites": [{"species": [{"element": "Ce", "occu": 1}], "abc": [0.25, 0.75, -0.0], "properties": {"magmom": 0.914}, "label": "Ce", "xyz": [1.4989102975, 4.4967308925, 0.0]}, {"species": [{"element": "Ce", "occu": 1}], "abc": [0.75, 0.25, -0.0], "properties": {"magmom": 0.914}, "label": "Ce", "xyz": [4.4967308925, 1.4989102975, 0.0]}, {"species": [{"element": "Ga", "occu": 1}], "abc": [0.95455468, 0.045445320000000004, 0.34640908], "properties": {"magmom": -0.004}, "label": "Ga", "xyz": [5.723167357515269, 0.27247383248473084, 2.6564052770014857]}, {"species": [{"element": "Ga", "occu": 1}], "abc": [0.54544532, 0.45455468, 0.34640908], "properties": {"magmom": -0.004}, "label": "Ga", "xyz": [3.2702944274847305, 2.725346762515269, 2.6564052770014857]}, {"species": [{"element": "Ga", "occu": 1}], "abc": [0.25, 0.25, 0.16042056], "properties": {"magmom": -0.001}, "label": "Ga", "xyz": [1.4989102975, 1.4989102975, 1.230169896596052]}, {"species": [{"element": "Ga", "occu": 1}], "abc": [0.25, 0.25, 0.8395794400000001], "properties": {"magmom": -0.001}, "label": "Ga", "xyz": [1.4989102975, 1.4989102975, 6.438235553403948]}, {"species": [{"element": "Ga", "occu": 1}], "abc": [0.75, 0.75, 0.8395794400000001], "properties": {"magmom": -0.001}, "label": "Ga", "xyz": [4.4967308925, 4.4967308925, 6.438235553403948]}, {"species": [{"element": "Ga", "occu": 1}], "abc": [0.75, 0.75, 0.16042056], "properties": {"magmom": -0.001}, "label": "Ga", "xyz": [4.4967308925, 4.4967308925, 1.230169896596052]}, {"species": [{"element": "Ga", "occu": 1}], "abc": [0.45455468, 0.54544532, 0.65359092], "properties": {"magmom": -0.004}, "label": "Ga", "xyz": [2.725346762515269, 3.2702944274847305, 5.012000172998514]}, {"species": [{"element": "Ga", "occu": 1}], "abc": [0.95455468, 0.45455468, 0.65359092], "properties": {"magmom": -0.004}, "label": "Ga", "xyz": [5.723167357515269, 2.725346762515269, 5.012000172998514]}, {"species": [{"element": "Ga", "occu": 1}], "abc": [0.54544532, 0.045445320000000004, 0.65359092], "properties": {"magmom": -0.004}, "label": "Ga", "xyz": [3.2702944274847305, 0.27247383248473084, 5.012000172998514]}, {"species": [{"element": "Ga", "occu": 1}], "abc": [0.45455468, 0.95455468, 0.34640908], "properties": {"magmom": -0.004}, "label": "Ga", "xyz": [2.725346762515269, 5.723167357515269, 2.6564052770014857]}, {"species": [{"element": "Ga", "occu": 1}], "abc": [0.045445320000000004, 0.54544532, 0.34640908], "properties": {"magmom": -0.004}, "label": "Ga", "xyz": [0.27247383248473084, 3.2702944274847305, 2.6564052770014857]}, {"species": [{"element": "Ga", "occu": 1}], "abc": [0.045445320000000004, 0.95455468, 0.65359092], "properties": {"magmom": -0.004}, "label": "Ga", "xyz": [0.27247383248473084, 5.723167357515269, 5.012000172998514]}]}, "task_ids": null, "uncorrected_energy_per_atom": null, "energy_per_atom": -14.580503984285714, "formation_energy_per_atom": -0.36660620428571405, "energy_above_hull": 0.0, "is_stable": true, "equilibrium_reaction_energy_per_atom": null, "decomposes_to": null, "xas": null, "grain_boundaries": null, "band_gap": 0.0, "cbm": null, "vbm": null, "efermi": 4.59795174, "is_gap_direct": null, "is_metal": null, "es_source_calc_id": null, "bandstructure": null, "dos": null, "dos_energy_up": null, "dos_energy_down": null, "is_magnetic": null, "ordering": null, "total_magnetization": 1.940455099999999, "total_magnetization_normalized_vol": null, "total_magnetization_normalized_formula_units": null, "num_magnetic_sites": null, "num_unique_magnetic_sites": null, "types_of_magnetic_species": null, "bulk_modulus": null, "shear_modulus": null, "universal_anisotropy": null, "homogeneous_poisson": null, "e_total": null, "e_ionic": null, "e_electronic": null, "n": null, "e_ij_max": null, "weighted_surface_energy_EV_PER_ANG2": null, "weighted_surface_energy": null, "weighted_work_function": null, "surface_anisotropy": null, "shape_factor": null, "has_reconstructed": null, "possible_species": null, "has_props": null, "theoretical": null, "database_IDs": null, "fields_not_requested": ["builder_meta", "nsites", "elements", "nelements", "composition", "composition_reduced", "chemsys", "symmetry", "property_name", "deprecated", "deprecation_reasons", "last_updated", "origins", "warnings", "task_ids", "uncorrected_energy_per_atom", "equilibrium_reaction_energy_per_atom", "decomposes_to", "xas", "grain_boundaries", "cbm", "vbm", "is_gap_direct", "is_metal", "es_source_calc_id", "bandstructure", "dos", "dos_energy_up", "dos_energy_down", "is_magnetic", "ordering", "total_magnetization_normalized_vol", "total_magnetization_normalized_formula_units", "num_magnetic_sites", "num_unique_magnetic_sites", "types_of_magnetic_species", "bulk_modulus", "shear_modulus", "universal_anisotropy", "homogeneous_poisson", "e_total", "e_ionic", "e_electronic", "n", "e_ij_max", "weighted_surface_energy_EV_PER_ANG2", "weighted_surface_energy", "weighted_work_function", "surface_anisotropy", "shape_factor", "has_reconstructed", "possible_species", "has_props", "theoretical", "database_IDs"]}