{"builder_meta": null, "nsites": null, "elements": null, "nelements": null, "composition": null, "composition_reduced": null, "formula_pretty": "CeGe5", "formula_anonymous": "AB5", "chemsys": null, "volume": 120.47485401600507, "density": 6.937347114226948, "density_atomic": 20.079142336000846, "symmetry": null, "property_name": null, "material_id": "mp-984703", "deprecated": null, "deprecation_reasons": null, "last_updated": null, "origins": null, "warnings": null, "structure": {"@module": "pymatgen.core.structure", "@class": "Structure", "charge": 0, "lattice": {"matrix": [[-1.97125357, 3.07405725, 4.95957308], [1.97680737, -3.06773621, 4.95770809], [1.97670202, 3.07136428, -4.9554830899999995]], "pbc": [true, true, true], "a": 6.158979927664645, "b": 6.156106101902641, "c": 6.156089836219737, "alpha": 142.54043312241615, "beta": 120.13007389821311, "gamma": 72.72237463655497, "volume": 120.47485401600507}, "properties": {}, "sites": [{"species": [{"element": "Ce", "occu": 1}], "abc": [0.0, 0.0, -0.0], "properties": {"magmom": 0.513}, "label": "Ce", "xyz": [0.0, 0.0, 0.0]}, {"species": [{"element": "Ge", "occu": 1}], "abc": [0.12451738, 0.32889291, 0.795109499999999], "properties": {"magmom": -0.015}, "label": "Ge", "xyz": [1.9763971533478881, 1.815887782509391, -1.6920435954575779]}, {"species": [{"element": "Ge", "occu": 1}], "abc": [0.53378183, 0.32902181, 0.20430967], "properties": {"magmom": -0.016}, "label": "Ge", "xyz": [0.002052738304640034, 1.259033206509615, 3.2660709690760994]}, {"species": [{"element": "Ge", "occu": 1}], "abc": [0.46621717, 0.67097819, 0.79569133], "properties": {"magmom": -0.016}, "label": "Ge", "xyz": [1.9802070296509502, 1.818652110797415, 1.695717195867732]}, {"species": [{"element": "Ge", "occu": 1}], "abc": [0.87548262, 0.67110809, 0.2048905], "properties": {"magmom": -0.015}, "label": "Ge", "xyz": [0.005860643459479897, 1.2617944697543961, 6.653846633165673]}, {"species": [{"element": "Ge", "occu": 1}], "abc": [0.5, 0.999999, 0.499998999999999], "properties": {"magmom": -0.014}, "label": "Ge", "xyz": [1.979527641490608, 0.0049745513719270384, 4.959753082775005]}]}, "task_ids": null, "uncorrected_energy_per_atom": null, "energy_per_atom": -5.138440931666665, "formation_energy_per_atom": -0.296426074166664, "energy_above_hull": 0.008901027916667, "is_stable": false, "equilibrium_reaction_energy_per_atom": null, "decomposes_to": null, "xas": null, "grain_boundaries": null, "band_gap": 0.0, "cbm": null, "vbm": null, "efermi": 7.03186528, "is_gap_direct": null, "is_metal": null, "es_source_calc_id": null, "bandstructure": null, "dos": null, "dos_energy_up": null, "dos_energy_down": null, "is_magnetic": null, "ordering": null, "total_magnetization": 0.4186869, "total_magnetization_normalized_vol": null, "total_magnetization_normalized_formula_units": null, "num_magnetic_sites": null, "num_unique_magnetic_sites": null, "types_of_magnetic_species": null, "bulk_modulus": null, "shear_modulus": null, "universal_anisotropy": null, "homogeneous_poisson": null, "e_total": null, "e_ionic": null, "e_electronic": null, "n": null, "e_ij_max": null, "weighted_surface_energy_EV_PER_ANG2": null, "weighted_surface_energy": null, "weighted_work_function": null, "surface_anisotropy": null, "shape_factor": null, "has_reconstructed": null, "possible_species": null, "has_props": null, "theoretical": null, "database_IDs": null, "fields_not_requested": ["builder_meta", "nsites", "elements", "nelements", "composition", "composition_reduced", "chemsys", "symmetry", "property_name", "deprecated", "deprecation_reasons", "last_updated", "origins", "warnings", "task_ids", "uncorrected_energy_per_atom", "equilibrium_reaction_energy_per_atom", "decomposes_to", "xas", "grain_boundaries", "cbm", "vbm", "is_gap_direct", "is_metal", "es_source_calc_id", "bandstructure", "dos", "dos_energy_up", "dos_energy_down", "is_magnetic", "ordering", "total_magnetization_normalized_vol", "total_magnetization_normalized_formula_units", "num_magnetic_sites", "num_unique_magnetic_sites", "types_of_magnetic_species", "bulk_modulus", "shear_modulus", "universal_anisotropy", "homogeneous_poisson", "e_total", "e_ionic", "e_electronic", "n", "e_ij_max", "weighted_surface_energy_EV_PER_ANG2", "weighted_surface_energy", "weighted_work_function", "surface_anisotropy", "shape_factor", "has_reconstructed", "possible_species", "has_props", "theoretical", "database_IDs"]}