{
  "builder_meta": null,
  "nsites": null,
  "elements": null,
  "nelements": null,
  "composition": null,
  "composition_reduced": null,
  "formula_pretty": "CeGe2",
  "formula_anonymous": "AB2",
  "chemsys": null,
  "volume": 136.56792597150093,
  "density": 6.940300280320133,
  "density_atomic": 22.761320995250156,
  "symmetry": null,
  "property_name": null,
  "material_id": "mp-21055",
  "deprecated": null,
  "deprecation_reasons": null,
  "last_updated": null,
  "origins": null,
  "warnings": null,
  "structure": {
    "@module": "pymatgen.core.structure",
    "@class": "Structure",
    "charge": 0,
    "lattice": {
      "matrix": [
        [-2.075424, 2.075424, 7.9263829999999995],
        [2.075424, -2.075424, 7.9263829999999995],
        [2.075424, 2.075424, -7.9263829999999995]
      ],
      "pbc": [true, true, true],
      "a": 8.452355708454359,
      "b": 8.452355708454359,
      "c": 8.452355708454359,
      "alpha": 151.57204778895354,
      "beta": 151.57204778895354,
      "gamma": 40.63858664890675,
      "volume": 136.5679259715009
    },
    "properties": {},
    "sites": [
      {
        "species": [{ "element": "Ce", "occu": 1 }],
        "abc": [0.25, 0.75, 0.5],
        "properties": { "magmom": 0.722 },
        "label": "Ce",
        "xyz": [2.075424, 0.0, 3.9631914999999998]
      },
      {
        "species": [{ "element": "Ce", "occu": 1 }],
        "abc": [0.5, 0.5, 0.0],
        "properties": { "magmom": 0.722 },
        "label": "Ce",
        "xyz": [0.0, 0.0, 7.9263829999999995]
      },
      {
        "species": [{ "element": "Ge", "occu": 1 }],
        "abc": [0.830322, 0.330322, 0.5],
        "properties": { "magmom": 0.003 },
        "label": "Ge",
        "xyz": [0.0, 2.075424, 5.236517370652]
      },
      {
        "species": [{ "element": "Ge", "occu": 1 }],
        "abc": [0.919678, 0.919678, 0.0],
        "properties": { "magmom": 0.003 },
        "label": "Ge",
        "xyz": [0.0, 0.0, 14.579440129347999]
      },
      {
        "species": [{ "element": "Ge", "occu": 1 }],
        "abc": [0.669678, 0.169678, 0.5],
        "properties": { "magmom": 0.003 },
        "label": "Ge",
        "xyz": [0.0, 2.075424, 2.6898656293479997]
      },
      {
        "species": [{ "element": "Ge", "occu": 1 }],
        "abc": [0.080321999999999, 0.080321999999999, 0.0],
        "properties": { "magmom": 0.003 },
        "label": "Ge",
        "xyz": [0.0, 0.0, 1.273325870651984]
      }
    ]
  },
  "task_ids": null,
  "uncorrected_energy_per_atom": null,
  "energy_per_atom": -5.634139986666667,
  "formation_energy_per_atom": -0.5731381266666651,
  "energy_above_hull": 0.037516077499999,
  "is_stable": false,
  "equilibrium_reaction_energy_per_atom": null,
  "decomposes_to": null,
  "xas": null,
  "grain_boundaries": null,
  "band_gap": 0.0,
  "cbm": null,
  "vbm": null,
  "efermi": 7.24665096,
  "is_gap_direct": null,
  "is_metal": null,
  "es_source_calc_id": null,
  "bandstructure": null,
  "dos": null,
  "dos_energy_up": null,
  "dos_energy_down": null,
  "is_magnetic": null,
  "ordering": null,
  "total_magnetization": 1.7401261,
  "total_magnetization_normalized_vol": null,
  "total_magnetization_normalized_formula_units": null,
  "num_magnetic_sites": null,
  "num_unique_magnetic_sites": null,
  "types_of_magnetic_species": null,
  "bulk_modulus": null,
  "shear_modulus": null,
  "universal_anisotropy": null,
  "homogeneous_poisson": null,
  "e_total": null,
  "e_ionic": null,
  "e_electronic": null,
  "n": null,
  "e_ij_max": null,
  "weighted_surface_energy_EV_PER_ANG2": null,
  "weighted_surface_energy": null,
  "weighted_work_function": null,
  "surface_anisotropy": null,
  "shape_factor": null,
  "has_reconstructed": null,
  "possible_species": null,
  "has_props": null,
  "theoretical": null,
  "database_IDs": null,
  "fields_not_requested": [
    "builder_meta",
    "nsites",
    "elements",
    "nelements",
    "composition",
    "composition_reduced",
    "chemsys",
    "symmetry",
    "property_name",
    "deprecated",
    "deprecation_reasons",
    "last_updated",
    "origins",
    "warnings",
    "task_ids",
    "uncorrected_energy_per_atom",
    "equilibrium_reaction_energy_per_atom",
    "decomposes_to",
    "xas",
    "grain_boundaries",
    "cbm",
    "vbm",
    "is_gap_direct",
    "is_metal",
    "es_source_calc_id",
    "bandstructure",
    "dos",
    "dos_energy_up",
    "dos_energy_down",
    "is_magnetic",
    "ordering",
    "total_magnetization_normalized_vol",
    "total_magnetization_normalized_formula_units",
    "num_magnetic_sites",
    "num_unique_magnetic_sites",
    "types_of_magnetic_species",
    "bulk_modulus",
    "shear_modulus",
    "universal_anisotropy",
    "homogeneous_poisson",
    "e_total",
    "e_ionic",
    "e_electronic",
    "n",
    "e_ij_max",
    "weighted_surface_energy_EV_PER_ANG2",
    "weighted_surface_energy",
    "weighted_work_function",
    "surface_anisotropy",
    "shape_factor",
    "has_reconstructed",
    "possible_species",
    "has_props",
    "theoretical",
    "database_IDs"
  ]
}
