{"builder_meta": null, "nsites": null, "elements": null, "nelements": null, "composition": null, "composition_reduced": null, "formula_pretty": "CeGe", "formula_anonymous": "AB", "chemsys": null, "volume": 205.4340737764352, "density": 6.878890987441919, "density_atomic": 25.6792592220544, "symmetry": null, "property_name": null, "material_id": "mp-1079395", "deprecated": null, "deprecation_reasons": null, "last_updated": null, "origins": null, "warnings": null, "structure": {"@module": "pymatgen.core.structure", "@class": "Structure", "charge": 0, "lattice": {"matrix": [[-0.00037144, 4.09844686, 4.69e-06], [-4.2850000000000005e-05, -5.4400000000000004e-06, 6.01106785], [8.33876138, -0.00139323, 4.629e-05]], "pbc": [true, true, true], "a": 4.098446876834386, "b": 6.0110678501551895, "c": 8.338761496518059, "alpha": 90.00009036585662, "beta": 90.0147655931336, "gamma": 89.99998624988886, "volume": 205.4340737764352}, "properties": {}, "sites": [{"species": [{"element": "Ce", "occu": 1}], "abc": [0.24987137, 0.38147621, 0.68186363], "properties": {"magmom": 1.091}, "label": "Ce", "xyz": [5.685788945793338, 1.023132463684591, 2.2931121168350064]}, {"species": [{"element": "Ce", "occu": 1}], "abc": [0.24984701, 0.11852524, 0.18187961], "properties": {"magmom": 1.091}, "label": "Ce", "xyz": [1.5165527856975332, 1.0237306487085427, 0.7124728505671578]}, {"species": [{"element": "Ce", "occu": 1}], "abc": [0.75014802, 0.61856042, 0.31808036], "properties": {"magmom": 1.091}, "label": "Ce", "xyz": [2.6520910814099508, 3.07399527303557, 3.718226896078575]}, {"species": [{"element": "Ce", "occu": 1}], "abc": [0.75013154, 0.88145721, 0.81816854], "properties": {"magmom": 1.091}, "label": "Ce", "xyz": [6.822195824382319, 3.073229562617758, 5.298540487320338]}, {"species": [{"element": "Ge", "occu": 1}], "abc": [0.24985588, 0.86879052, 0.53658767], "properties": {"magmom": -0.012}, "label": "Ge", "xyz": [4.474346505438335, 1.023268730578634, 5.222384773624103]}, {"species": [{"element": "Ge", "occu": 1}], "abc": [0.24986997, 0.6312327, 0.03647482], "properties": {"magmom": -0.012}, "label": "Ge", "xyz": [0.30403496033559974, 1.0240245422354375, 3.7943854491482716]}, {"species": [{"element": "Ge", "occu": 1}], "abc": [0.7501300200000001, 0.13120322, 0.46351824], "properties": {"magmom": -0.012}, "label": "Ge", "xyz": [3.8648837482849654, 3.0737215237977056, 0.7886964319276004]}, {"species": [{"element": "Ge", "occu": 1}], "abc": [0.75014619, 0.36875349, 0.96342913], "properties": {"magmom": -0.012}, "label": "Ge", "xyz": [8.033511186223139, 3.073090012560688, 2.2166503636343555]}]}, "task_ids": null, "uncorrected_energy_per_atom": null, "energy_per_atom": -5.9832059525000005, "formation_energy_per_atom": -0.7032170899999991, "energy_above_hull": 0.0, "is_stable": true, "equilibrium_reaction_energy_per_atom": null, "decomposes_to": null, "xas": null, "grain_boundaries": null, "band_gap": 0.0, "cbm": null, "vbm": null, "efermi": 7.22641914, "is_gap_direct": null, "is_metal": null, "es_source_calc_id": null, "bandstructure": null, "dos": null, "dos_energy_up": null, "dos_energy_down": null, "is_magnetic": null, "ordering": null, "total_magnetization": 5.5783983, "total_magnetization_normalized_vol": null, "total_magnetization_normalized_formula_units": null, "num_magnetic_sites": null, "num_unique_magnetic_sites": null, "types_of_magnetic_species": null, "bulk_modulus": null, "shear_modulus": null, "universal_anisotropy": null, "homogeneous_poisson": null, "e_total": null, "e_ionic": null, "e_electronic": null, "n": null, "e_ij_max": null, "weighted_surface_energy_EV_PER_ANG2": null, "weighted_surface_energy": null, "weighted_work_function": null, "surface_anisotropy": null, "shape_factor": null, "has_reconstructed": null, "possible_species": null, "has_props": null, "theoretical": null, "database_IDs": null, "fields_not_requested": ["builder_meta", "nsites", "elements", "nelements", "composition", "composition_reduced", "chemsys", "symmetry", "property_name", "deprecated", "deprecation_reasons", "last_updated", "origins", "warnings", "task_ids", "uncorrected_energy_per_atom", "equilibrium_reaction_energy_per_atom", "decomposes_to", "xas", "grain_boundaries", "cbm", "vbm", "is_gap_direct", "is_metal", "es_source_calc_id", "bandstructure", "dos", "dos_energy_up", "dos_energy_down", "is_magnetic", "ordering", "total_magnetization_normalized_vol", "total_magnetization_normalized_formula_units", "num_magnetic_sites", "num_unique_magnetic_sites", "types_of_magnetic_species", "bulk_modulus", "shear_modulus", "universal_anisotropy", "homogeneous_poisson", "e_total", "e_ionic", "e_electronic", "n", "e_ij_max", "weighted_surface_energy_EV_PER_ANG2", "weighted_surface_energy", "weighted_work_function", "surface_anisotropy", "shape_factor", "has_reconstructed", "possible_species", "has_props", "theoretical", "database_IDs"]}