{"builder_meta": null, "nsites": null, "elements": null, "nelements": null, "composition": null, "composition_reduced": null, "formula_pretty": "CeHg3", "formula_anonymous": "AB3", "chemsys": null, "volume": 203.97317059004862, "density": 12.079340458354483, "density_atomic": 25.496646323756078, "symmetry": null, "property_name": null, "material_id": "mp-862668", "deprecated": null, "deprecation_reasons": null, "last_updated": null, "origins": null, "warnings": null, "structure": {"@module": "pymatgen.core.structure", "@class": "Structure", "charge": 0, "lattice": {"matrix": [[6.83635302, 0.0036157200000000002, -5.1880000000000005e-05], [-3.41846657, 5.92775204, 1.51e-06], [-1.852e-05, -0.00010009, 5.03183155]], "pbc": [true, true, true], "a": 6.836353976366771, "b": 6.842817982230274, "c": 5.031831551029545, "alpha": 90.00086929112713, "beta": 90.00064629231444, "gamma": 119.94125190502791, "volume": 203.97317059004862}, "properties": {}, "sites": [{"species": [{"element": "Ce", "occu": 1}], "abc": [0.33289195, 0.666602399999999, 0.75000163], "properties": {"magmom": 1.046}, "label": "Ce", "xyz": [-0.003005022195763605, 3.952582312887197, 3.773865600520684]}, {"species": [{"element": "Ce", "occu": 1}], "abc": [0.66637284, 0.33349015, 0.24999709], "properties": {"magmom": 1.047}, "label": "Ce", "xyz": [3.4155304180345842, 1.9792313123787126, 1.2579091770173767]}, {"species": [{"element": "Hg", "occu": 1}], "abc": [0.16182142, 0.32322564, 0.25000038], "properties": {"magmom": 0.008}, "label": "Hg", "xyz": [0.0013276784037958272, 1.9165615252969934, 1.257951892371436]}, {"species": [{"element": "Hg", "occu": 1}], "abc": [0.67660655, 0.83816534, 0.25000229], "properties": {"magmom": 0.008}, "label": "Hg", "xyz": [1.760276406479186, 4.970857701148053, 1.257935573676099]}, {"species": [{"element": "Hg", "occu": 1}], "abc": [0.16181051, 0.83841946, 0.2500033], "properties": {"magmom": 0.006}, "label": "Hg", "xyz": [-1.7599197570023282, 4.970502703057619, 1.2579673638282405]}, {"species": [{"element": "Hg", "occu": 1}], "abc": [0.83857149, 0.67671497, 0.75000142], "properties": {"magmom": 0.008}, "label": "Hg", "xyz": [3.419429345757548, 4.014355515981734, 3.7738383244515044]}, {"species": [{"element": "Hg", "occu": 1}], "abc": [0.32339945000000003, 0.16163372, 0.7500026200000001], "properties": {"magmom": 0.006}, "label": "Hg", "xyz": [1.658319448220576, 0.959218867559907, 3.773870312002112]}, {"species": [{"element": "Hg", "occu": 1}], "abc": [0.83852979, 0.16175133, 0.74999527], "properties": {"magmom": 0.008}, "label": "Hg", "xyz": [5.179530258056028, 0.9617785982859376, 3.7738066032557716]}]}, "task_ids": null, "uncorrected_energy_per_atom": null, "energy_per_atom": -45.1683075425, "formation_energy_per_atom": -0.432295460624999, "energy_above_hull": 0.0, "is_stable": true, "equilibrium_reaction_energy_per_atom": null, "decomposes_to": null, "xas": null, "grain_boundaries": null, "band_gap": 0.0, "cbm": null, "vbm": null, "efermi": 4.27985303, "is_gap_direct": null, "is_metal": null, "es_source_calc_id": null, "bandstructure": null, "dos": null, "dos_energy_up": null, "dos_energy_down": null, "is_magnetic": null, "ordering": null, "total_magnetization": 2.4397482, "total_magnetization_normalized_vol": null, "total_magnetization_normalized_formula_units": null, "num_magnetic_sites": null, "num_unique_magnetic_sites": null, "types_of_magnetic_species": null, "bulk_modulus": null, "shear_modulus": null, "universal_anisotropy": null, "homogeneous_poisson": null, "e_total": null, "e_ionic": null, "e_electronic": null, "n": null, "e_ij_max": null, "weighted_surface_energy_EV_PER_ANG2": null, "weighted_surface_energy": null, "weighted_work_function": null, "surface_anisotropy": null, "shape_factor": null, "has_reconstructed": null, "possible_species": null, "has_props": null, "theoretical": null, "database_IDs": null, "fields_not_requested": ["builder_meta", "nsites", "elements", "nelements", "composition", "composition_reduced", "chemsys", "symmetry", "property_name", "deprecated", "deprecation_reasons", "last_updated", "origins", "warnings", "task_ids", "uncorrected_energy_per_atom", "equilibrium_reaction_energy_per_atom", "decomposes_to", "xas", "grain_boundaries", "cbm", "vbm", "is_gap_direct", "is_metal", "es_source_calc_id", "bandstructure", "dos", "dos_energy_up", "dos_energy_down", "is_magnetic", "ordering", "total_magnetization_normalized_vol", "total_magnetization_normalized_formula_units", "num_magnetic_sites", "num_unique_magnetic_sites", "types_of_magnetic_species", "bulk_modulus", "shear_modulus", "universal_anisotropy", "homogeneous_poisson", "e_total", "e_ionic", "e_electronic", "n", "e_ij_max", "weighted_surface_energy_EV_PER_ANG2", "weighted_surface_energy", "weighted_work_function", "surface_anisotropy", "shape_factor", "has_reconstructed", "possible_species", "has_props", "theoretical", "database_IDs"]}