{"builder_meta": null, "nsites": null, "elements": null, "nelements": null, "composition": null, "composition_reduced": null, "formula_pretty": "CeI3", "formula_anonymous": "AB3", "chemsys": null, "volume": 324.406392393713, "density": 5.331939213390109, "density_atomic": 40.55079904921413, "symmetry": null, "property_name": null, "material_id": "mp-1545417", "deprecated": null, "deprecation_reasons": null, "last_updated": null, "origins": null, "warnings": null, "structure": {"@module": "pymatgen.core.structure", "@class": "Structure", "charge": 0, "lattice": {"matrix": [[4.39400105, -0.02709479, 0.017117999999999002], [-2.16298011, 7.30047276, -0.02710833], [-0.03825574, 0.02110346, 10.13126654]], "pbc": [true, true, true], "a": 4.394117929797771, "b": 7.614205167797426, "c": 10.131360745832245, "alpha": 90.02809748977593, "beta": 89.9938745035755, "gamma": 106.85736232716758, "volume": 324.406392393713}, "properties": {}, "sites": [{"species": [{"element": "Ce", "occu": 1}], "abc": [0.74894648, 0.4841202, 0.24996812000000002], "properties": {"magmom": 1.002}, "label": "Ce", "xyz": [2.2341665406575735, 3.5192889772906075, 2.5321904259260783]}, {"species": [{"element": "Ce", "occu": 1}], "abc": [0.25105352000000003, 0.5158798, 0.75003188], "properties": {"magmom": 1.002}, "label": "Ce", "xyz": [-0.041401340657573206, 3.7751924527093923, 7.589085784073921]}, {"species": [{"element": "I", "occu": 1}], "abc": [0.35131977000000003, 0.70262874, 0.06739062], "properties": {"magmom": -0.014}, "label": "I", "xyz": [0.02134937089423862, 5.121425216625669, 0.6697191335873103]}, {"species": [{"element": "I", "occu": 1}], "abc": [0.64868023, 0.29737126, 0.93260938], "properties": {"magmom": -0.014}, "label": "I", "xyz": [2.171415829105762, 2.173056213374331, 9.45155707641269]}, {"species": [{"element": "I", "occu": 1}], "abc": [0.64833072, 0.29730173, 0.56738865], "properties": {"magmom": -0.014}, "label": "I", "xyz": [2.184002263095315, 2.164850660336655, 5.75140441677932]}, {"species": [{"element": "I", "occu": 1}], "abc": [0.35166928000000003, 0.7026982700000001, 0.43261135], "properties": {"magmom": -0.014}, "label": "I", "xyz": [0.008762936904685416, 5.129630769663346, 4.36987179322068]}, {"species": [{"element": "I", "occu": 1}], "abc": [0.08809085, 0.17087671000000001, 0.24995392], "properties": {"magmom": -0.015}, "label": "I", "xyz": [0.007906190227653558, 1.2503688561443114, 2.529225543164143]}, {"species": [{"element": "I", "occu": 1}], "abc": [0.9119091500000001, 0.8291232900000001, 0.7500460800000001], "properties": {"magmom": -0.015}, "label": "I", "xyz": [2.1848590097723464, 6.0441125738556885, 7.592050666835857]}]}, "task_ids": null, "uncorrected_energy_per_atom": null, "energy_per_atom": -4.345401381249999, "formation_energy_per_atom": -1.718154452499998, "energy_above_hull": 0.0, "is_stable": true, "equilibrium_reaction_energy_per_atom": null, "decomposes_to": null, "xas": null, "grain_boundaries": null, "band_gap": 0.7358999999999991, "cbm": null, "vbm": null, "efermi": 3.85200549, "is_gap_direct": null, "is_metal": null, "es_source_calc_id": null, "bandstructure": null, "dos": null, "dos_energy_up": null, "dos_energy_down": null, "is_magnetic": null, "ordering": null, "total_magnetization": 1.9999999, "total_magnetization_normalized_vol": null, "total_magnetization_normalized_formula_units": null, "num_magnetic_sites": null, "num_unique_magnetic_sites": null, "types_of_magnetic_species": null, "bulk_modulus": null, "shear_modulus": null, "universal_anisotropy": null, "homogeneous_poisson": null, "e_total": null, "e_ionic": null, "e_electronic": null, "n": null, "e_ij_max": null, "weighted_surface_energy_EV_PER_ANG2": null, "weighted_surface_energy": null, "weighted_work_function": null, "surface_anisotropy": null, "shape_factor": null, "has_reconstructed": null, "possible_species": null, "has_props": null, "theoretical": null, "database_IDs": null, "fields_not_requested": ["builder_meta", "nsites", "elements", "nelements", "composition", "composition_reduced", "chemsys", "symmetry", "property_name", "deprecated", "deprecation_reasons", "last_updated", "origins", "warnings", "task_ids", "uncorrected_energy_per_atom", "equilibrium_reaction_energy_per_atom", "decomposes_to", "xas", "grain_boundaries", "cbm", "vbm", "is_gap_direct", "is_metal", "es_source_calc_id", "bandstructure", "dos", "dos_energy_up", "dos_energy_down", "is_magnetic", "ordering", "total_magnetization_normalized_vol", "total_magnetization_normalized_formula_units", "num_magnetic_sites", "num_unique_magnetic_sites", "types_of_magnetic_species", "bulk_modulus", "shear_modulus", "universal_anisotropy", "homogeneous_poisson", "e_total", "e_ionic", "e_electronic", "n", "e_ij_max", "weighted_surface_energy_EV_PER_ANG2", "weighted_surface_energy", "weighted_work_function", "surface_anisotropy", "shape_factor", "has_reconstructed", "possible_species", "has_props", "theoretical", "database_IDs"]}