{"builder_meta": null, "nsites": null, "elements": null, "nelements": null, "composition": null, "composition_reduced": null, "formula_pretty": "CeIr5", "formula_anonymous": "AB5", "chemsys": null, "volume": 104.57311524021303, "density": 17.486208347896795, "density_atomic": 17.428852540035503, "symmetry": null, "property_name": null, "material_id": "mp-30507", "deprecated": null, "deprecation_reasons": null, "last_updated": null, "origins": null, "warnings": null, "structure": {"@module": "pymatgen.core.structure", "@class": "Structure", "charge": 0, "lattice": {"matrix": [[5.27434179, 0.00010099000000000001, 0.0], [-2.63708299, 4.56736006, 0.0], [0.0, 0.0, 4.34091943]], "pbc": [true, true, true], "a": 5.274341790966849, "b": 5.273991336154293, "c": 4.34091943, "alpha": 90.0, "beta": 90.0, "gamma": 119.9999983480247, "volume": 104.57311524021303}, "properties": {}, "sites": [{"species": [{"element": "Ce", "occu": 1}], "abc": [0.0, -0.0, 0.0], "properties": {"magmom": 0.336}, "label": "Ce", "xyz": [0.0, 0.0, 0.0]}, {"species": [{"element": "Ir", "occu": 1}], "abc": [0.33335117000000003, 0.66669584, 0.0], "properties": {"magmom": 0.007}, "label": "Ir", "xyz": [7.574750863281743e-05, 3.045073616918809, 0.0]}, {"species": [{"element": "Ir", "occu": 1}], "abc": [0.66664883, 0.33330416, -0.0], "properties": {"magmom": 0.007}, "label": "Ir", "xyz": [2.637183052491367, 1.5223874330811915, 0.0]}, {"species": [{"element": "Ir", "occu": 1}], "abc": [0.5, -0.0, 0.5], "properties": {"magmom": 0.038}, "label": "Ir", "xyz": [2.637170895, 5.0495000000000004e-05, 2.170459715]}, {"species": [{"element": "Ir", "occu": 1}], "abc": [0.5, 0.5, 0.5], "properties": {"magmom": 0.038}, "label": "Ir", "xyz": [1.3186294, 2.283730525, 2.170459715]}, {"species": [{"element": "Ir", "occu": 1}], "abc": [0.0, 0.5, 0.5], "properties": {"magmom": 0.038}, "label": "Ir", "xyz": [-1.318541495, 2.28368003, 2.170459715]}]}, "task_ids": null, "uncorrected_energy_per_atom": null, "energy_per_atom": -8.720794275000003, "formation_energy_per_atom": -0.365940813333336, "energy_above_hull": 0.056291448055555006, "is_stable": false, "equilibrium_reaction_energy_per_atom": null, "decomposes_to": null, "xas": null, "grain_boundaries": null, "band_gap": 0.0, "cbm": null, "vbm": null, "efermi": 8.41450514, "is_gap_direct": null, "is_metal": null, "es_source_calc_id": null, "bandstructure": null, "dos": null, "dos_energy_up": null, "dos_energy_down": null, "is_magnetic": null, "ordering": null, "total_magnetization": 0.504403199999999, "total_magnetization_normalized_vol": null, "total_magnetization_normalized_formula_units": null, "num_magnetic_sites": null, "num_unique_magnetic_sites": null, "types_of_magnetic_species": null, "bulk_modulus": null, "shear_modulus": null, "universal_anisotropy": null, "homogeneous_poisson": null, "e_total": null, "e_ionic": null, "e_electronic": null, "n": null, "e_ij_max": null, "weighted_surface_energy_EV_PER_ANG2": null, "weighted_surface_energy": null, "weighted_work_function": null, "surface_anisotropy": null, "shape_factor": null, "has_reconstructed": null, "possible_species": null, "has_props": null, "theoretical": null, "database_IDs": null, "fields_not_requested": ["builder_meta", "nsites", "elements", "nelements", "composition", "composition_reduced", "chemsys", "symmetry", "property_name", "deprecated", "deprecation_reasons", "last_updated", "origins", "warnings", "task_ids", "uncorrected_energy_per_atom", "equilibrium_reaction_energy_per_atom", "decomposes_to", "xas", "grain_boundaries", "cbm", "vbm", "is_gap_direct", "is_metal", "es_source_calc_id", "bandstructure", "dos", "dos_energy_up", "dos_energy_down", "is_magnetic", "ordering", "total_magnetization_normalized_vol", "total_magnetization_normalized_formula_units", "num_magnetic_sites", "num_unique_magnetic_sites", "types_of_magnetic_species", "bulk_modulus", "shear_modulus", "universal_anisotropy", "homogeneous_poisson", "e_total", "e_ionic", "e_electronic", "n", "e_ij_max", "weighted_surface_energy_EV_PER_ANG2", "weighted_surface_energy", "weighted_work_function", "surface_anisotropy", "shape_factor", "has_reconstructed", "possible_species", "has_props", "theoretical", "database_IDs"]}