{"builder_meta": null, "nsites": null, "elements": null, "nelements": null, "composition": null, "composition_reduced": null, "formula_pretty": "CeIr3", "formula_anonymous": "AB3", "chemsys": null, "volume": 428.54593466451337, "density": 16.664065747091186, "density_atomic": 17.85608061102139, "symmetry": null, "property_name": null, "material_id": "mp-1191930", "deprecated": null, "deprecation_reasons": null, "last_updated": null, "origins": null, "warnings": null, "structure": {"@module": "pymatgen.core.structure", "@class": "Structure", "charge": 0.0, "lattice": {"matrix": [[2.65039157, -4.59061367, -0.0], [2.65039157, 4.59061367, 0.0], [0.0, 0.0, 17.61110461]], "pbc": [true, true, true], "a": 5.300783842180129, "b": 5.300783842180129, "c": 17.61110461, "alpha": 90.0, "beta": 90.0, "gamma": 120.0000087639609, "volume": 428.54593466451337}, "properties": {}, "sites": [{"species": [{"element": "Ce", "occu": 1}], "abc": [0.333333, 0.666667, 0.95731529], "properties": {"magmom": -0.002}, "label": "Ce", "xyz": [2.65039157, 1.53020761707578, 16.859379716942488]}, {"species": [{"element": "Ce", "occu": 1}], "abc": [0.666667, 0.333333, 0.04268471], "properties": {"magmom": -0.002}, "label": "Ce", "xyz": [2.65039157, -1.53020761707578, 0.7517248930575132]}, {"species": [{"element": "Ce", "occu": 1}], "abc": [0.666667, 0.333333, 0.45731529], "properties": {"magmom": -0.002}, "label": "Ce", "xyz": [2.65039157, -1.53020761707578, 8.053827411942487]}, {"species": [{"element": "Ce", "occu": 1}], "abc": [0.333333, 0.666667, 0.54268471], "properties": {"magmom": -0.002}, "label": "Ce", "xyz": [2.65039157, 1.53020761707578, 9.557277198057513]}, {"species": [{"element": "Ce", "occu": 1}], "abc": [0.333333, 0.666667, 0.75], "properties": {"magmom": -0.405}, "label": "Ce", "xyz": [2.65039157, 1.53020761707578, 13.208328457500002]}, {"species": [{"element": "Ce", "occu": 1}], "abc": [0.666667, 0.333333, 0.25], "properties": {"magmom": -0.405}, "label": "Ce", "xyz": [2.65039157, -1.53020761707578, 4.4027761525]}, {"species": [{"element": "Ir", "occu": 1}], "abc": [0.16764397, 0.83235603, 0.37372112], "properties": {"magmom": 0.009000000000000001}, "label": "Ir", "xyz": [2.65039157, 3.0514362692498604, 6.581641739286364]}, {"species": [{"element": "Ir", "occu": 1}], "abc": [0.16764397, 0.33528895000000003, 0.37372112], "properties": {"magmom": 0.009000000000000001}, "label": "Ir", "xyz": [1.3329691714434846, 0.7695933368948766, 6.581641739286364]}, {"species": [{"element": "Ir", "occu": 1}], "abc": [0.66471105, 0.83235603, 0.37372112], "properties": {"magmom": 0.009000000000000001}, "label": "Ir", "xyz": [3.9678139685565155, 0.7695933368948769, 6.581641739286364]}, {"species": [{"element": "Ir", "occu": 1}], "abc": [0.83235603, 0.16764397, 0.62627888], "properties": {"magmom": 0.009000000000000001}, "label": "Ir", "xyz": [2.65039157, -3.0514362692498604, 11.029462870713637]}, {"species": [{"element": "Ir", "occu": 1}], "abc": [0.83235603, 0.66471105, 0.62627888], "properties": {"magmom": 0.009000000000000001}, "label": "Ir", "xyz": [3.9678139685565155, -0.7695933368948769, 11.029462870713637]}, {"species": [{"element": "Ir", "occu": 1}], "abc": [0.33528895000000003, 0.16764397, 0.62627888], "properties": {"magmom": 0.009000000000000001}, "label": "Ir", "xyz": [1.3329691714434846, -0.7695933368948766, 11.029462870713637]}, {"species": [{"element": "Ir", "occu": 1}], "abc": [0.83235603, 0.16764397, 0.87372112], "properties": {"magmom": 0.009000000000000001}, "label": "Ir", "xyz": [2.65039157, -3.0514362692498604, 15.387194044286366]}, {"species": [{"element": "Ir", "occu": 1}], "abc": [0.83235603, 0.66471105, 0.87372112], "properties": {"magmom": 0.009000000000000001}, "label": "Ir", "xyz": [3.9678139685565155, -0.7695933368948769, 15.387194044286366]}, {"species": [{"element": "Ir", "occu": 1}], "abc": [0.33528895000000003, 0.16764397, 0.87372112], "properties": {"magmom": 0.009000000000000001}, "label": "Ir", "xyz": [1.3329691714434846, -0.7695933368948766, 15.387194044286366]}, {"species": [{"element": "Ir", "occu": 1}], "abc": [0.16764397, 0.83235603, 0.12627888], "properties": {"magmom": 0.009000000000000001}, "label": "Ir", "xyz": [2.65039157, 3.0514362692498604, 2.2239105657136373]}, {"species": [{"element": "Ir", "occu": 1}], "abc": [0.16764397, 0.33528895000000003, 0.12627888], "properties": {"magmom": 0.009000000000000001}, "label": "Ir", "xyz": [1.3329691714434846, 0.7695933368948766, 2.2239105657136373]}, {"species": [{"element": "Ir", "occu": 1}], "abc": [0.66471105, 0.83235603, 0.12627888], "properties": {"magmom": 0.009000000000000001}, "label": "Ir", "xyz": [3.9678139685565155, 0.7695933368948769, 2.2239105657136373]}, {"species": [{"element": "Ir", "occu": 1}], "abc": [0.333333, 0.666667, 0.25], "properties": {"magmom": 0.083}, "label": "Ir", "xyz": [2.65039157, 1.53020761707578, 4.4027761525]}, {"species": [{"element": "Ir", "occu": 1}], "abc": [0.666667, 0.333333, 0.75], "properties": {"magmom": 0.083}, "label": "Ir", "xyz": [2.65039157, -1.53020761707578, 13.208328457500002]}, {"species": [{"element": "Ir", "occu": 1}], "abc": [0.0, -0.0, 0.25], "properties": {"magmom": 0.096}, "label": "Ir", "xyz": [0.0, 0.0, 4.4027761525]}, {"species": [{"element": "Ir", "occu": 1}], "abc": [0.0, -0.0, 0.75], "properties": {"magmom": 0.096}, "label": "Ir", "xyz": [0.0, 0.0, 13.208328457500002]}, {"species": [{"element": "Ir", "occu": 1}], "abc": [0.0, -0.0, 0.5], "properties": {"magmom": 0.007}, "label": "Ir", "xyz": [0.0, 0.0, 8.805552305]}, {"species": [{"element": "Ir", "occu": 1}], "abc": [0.0, -0.0, 0.0], "properties": {"magmom": 0.007}, "label": "Ir", "xyz": [0.0, 0.0, 0.0]}]}, "task_ids": null, "uncorrected_energy_per_atom": null, "energy_per_atom": -8.746411494583336, "formation_energy_per_atom": -0.633348392083335, "energy_above_hull": 0.0, "is_stable": true, "equilibrium_reaction_energy_per_atom": null, "decomposes_to": null, "xas": null, "grain_boundaries": null, "band_gap": 0.0, "cbm": null, "vbm": null, "efermi": 8.86676667, "is_gap_direct": null, "is_metal": null, "es_source_calc_id": null, "bandstructure": null, "dos": null, "dos_energy_up": null, "dos_energy_down": null, "is_magnetic": null, "ordering": null, "total_magnetization": 0.424452599999999, "total_magnetization_normalized_vol": null, "total_magnetization_normalized_formula_units": null, "num_magnetic_sites": null, "num_unique_magnetic_sites": null, "types_of_magnetic_species": null, "bulk_modulus": null, "shear_modulus": null, "universal_anisotropy": null, "homogeneous_poisson": null, "e_total": null, "e_ionic": null, "e_electronic": null, "n": null, "e_ij_max": null, "weighted_surface_energy_EV_PER_ANG2": null, "weighted_surface_energy": null, "weighted_work_function": null, "surface_anisotropy": null, "shape_factor": null, "has_reconstructed": null, "possible_species": null, "has_props": null, "theoretical": null, "database_IDs": null, "fields_not_requested": ["builder_meta", "nsites", "elements", "nelements", "composition", "composition_reduced", "chemsys", "symmetry", "property_name", "deprecated", "deprecation_reasons", "last_updated", "origins", "warnings", "task_ids", "uncorrected_energy_per_atom", "equilibrium_reaction_energy_per_atom", "decomposes_to", "xas", "grain_boundaries", "cbm", "vbm", "is_gap_direct", "is_metal", "es_source_calc_id", "bandstructure", "dos", "dos_energy_up", "dos_energy_down", "is_magnetic", "ordering", "total_magnetization_normalized_vol", "total_magnetization_normalized_formula_units", "num_magnetic_sites", "num_unique_magnetic_sites", "types_of_magnetic_species", "bulk_modulus", "shear_modulus", "universal_anisotropy", "homogeneous_poisson", "e_total", "e_ionic", "e_electronic", "n", "e_ij_max", "weighted_surface_energy_EV_PER_ANG2", "weighted_surface_energy", "weighted_work_function", "surface_anisotropy", "shape_factor", "has_reconstructed", "possible_species", "has_props", "theoretical", "database_IDs"]}