{
  "builder_meta": null,
  "nsites": null,
  "elements": null,
  "nelements": null,
  "composition": null,
  "composition_reduced": null,
  "formula_pretty": "CeLu3",
  "formula_anonymous": "AB3",
  "chemsys": null,
  "volume": 243.18546427079264,
  "density": 9.081847977751528,
  "density_atomic": 30.39818303384908,
  "symmetry": null,
  "property_name": null,
  "material_id": "mp-1006323",
  "deprecated": null,
  "deprecation_reasons": null,
  "last_updated": null,
  "origins": null,
  "warnings": null,
  "structure": {
    "@module": "pymatgen.core.structure",
    "@class": "Structure",
    "charge": 0,
    "lattice": {
      "matrix": [
        [7.06068501, 0.00010344, 0.0],
        [-3.53026078, 6.11167165, 0.0],
        [0.0, 0.0, 5.63543035]
      ],
      "pbc": [true, true, true],
      "a": 7.060685010757705,
      "b": 7.057993449431639,
      "c": 5.63543035,
      "alpha": 90.0,
      "beta": 90.0,
      "gamma": 120.0110101833558,
      "volume": 243.18546427079264
    },
    "properties": {},
    "sites": [
      {
        "species": [{ "element": "Ce", "occu": 1 }],
        "abc": [0.33327938, 0.66651477, 0.749999],
        "properties": { "magmom": 1.027 },
        "label": "Ce",
        "xyz": [0.00020977068637328955, 4.073553898534338, 4.22656712706965]
      },
      {
        "species": [{ "element": "Ce", "occu": 1 }],
        "abc": [0.66661605, 0.33337282, 0.25],
        "properties": { "magmom": 1.026 },
        "label": "Ce",
        "xyz": [3.5298729600964114, 2.037534167638765, 1.4088575875]
      },
      {
        "species": [{ "element": "Lu", "occu": 1 }],
        "abc": [0.16585404, 0.33172783, 0.25],
        "properties": { "magmom": 0.182 },
        "label": "Lu",
        "xyz": [-4.261380756687139e-5, 2.0274287300689173, 1.4088575875]
      },
      {
        "species": [{ "element": "Lu", "occu": 1 }],
        "abc": [0.66776465, 0.83398838, 0.25],
        "properties": { "magmom": 0.182 },
        "label": "Lu",
        "xyz": [1.77067938557316, 5.097132212050823, 1.4088575875]
      },
      {
        "species": [{ "element": "Lu", "occu": 1 }],
        "abc": [0.16606456, 0.83364235, 0.25],
        "properties": { "magmom": 0.182 },
        "label": "Lu",
        "xyz": [-1.7704453432677871, 5.094965494452463, 1.4088575875]
      },
      {
        "species": [{ "element": "Lu", "occu": 1 }],
        "abc": [0.83415039, 0.66824874, 0.749999],
        "properties": { "magmom": 0.182 },
        "label": "Lu",
        "xyz": [3.530580836652237, 4.084203163922562, 4.22656712706965]
      },
      {
        "species": [{ "element": "Lu", "occu": 1 }],
        "abc": [0.33227204, 0.16607243, 0.749999],
        "properties": { "magmom": 0.182 },
        "label": "Lu",
        "xyz": [1.759789225801825, 1.015014532497427, 4.22656712706965]
      },
      {
        "species": [{ "element": "Lu", "occu": 1 }],
        "abc": [0.83399789, 0.16643466, 0.749999],
        "properties": { "magmom": 0.182 },
        "label": "Lu",
        "xyz": [5.301038647663995, 1.0172802618411305, 4.22656712706965]
      }
    ]
  },
  "task_ids": null,
  "uncorrected_energy_per_atom": null,
  "energy_per_atom": -36.24522213875,
  "formation_energy_per_atom": 0.024845188749999,
  "energy_above_hull": 0.024845188749999,
  "is_stable": false,
  "equilibrium_reaction_energy_per_atom": null,
  "decomposes_to": null,
  "xas": null,
  "grain_boundaries": null,
  "band_gap": 0.0,
  "cbm": null,
  "vbm": null,
  "efermi": 4.13532722,
  "is_gap_direct": null,
  "is_metal": null,
  "es_source_calc_id": null,
  "bandstructure": null,
  "dos": null,
  "dos_energy_up": null,
  "dos_energy_down": null,
  "is_magnetic": null,
  "ordering": null,
  "total_magnetization": 4.1276277,
  "total_magnetization_normalized_vol": null,
  "total_magnetization_normalized_formula_units": null,
  "num_magnetic_sites": null,
  "num_unique_magnetic_sites": null,
  "types_of_magnetic_species": null,
  "bulk_modulus": null,
  "shear_modulus": null,
  "universal_anisotropy": null,
  "homogeneous_poisson": null,
  "e_total": null,
  "e_ionic": null,
  "e_electronic": null,
  "n": null,
  "e_ij_max": null,
  "weighted_surface_energy_EV_PER_ANG2": null,
  "weighted_surface_energy": null,
  "weighted_work_function": null,
  "surface_anisotropy": null,
  "shape_factor": null,
  "has_reconstructed": null,
  "possible_species": null,
  "has_props": null,
  "theoretical": null,
  "database_IDs": null,
  "fields_not_requested": [
    "builder_meta",
    "nsites",
    "elements",
    "nelements",
    "composition",
    "composition_reduced",
    "chemsys",
    "symmetry",
    "property_name",
    "deprecated",
    "deprecation_reasons",
    "last_updated",
    "origins",
    "warnings",
    "task_ids",
    "uncorrected_energy_per_atom",
    "equilibrium_reaction_energy_per_atom",
    "decomposes_to",
    "xas",
    "grain_boundaries",
    "cbm",
    "vbm",
    "is_gap_direct",
    "is_metal",
    "es_source_calc_id",
    "bandstructure",
    "dos",
    "dos_energy_up",
    "dos_energy_down",
    "is_magnetic",
    "ordering",
    "total_magnetization_normalized_vol",
    "total_magnetization_normalized_formula_units",
    "num_magnetic_sites",
    "num_unique_magnetic_sites",
    "types_of_magnetic_species",
    "bulk_modulus",
    "shear_modulus",
    "universal_anisotropy",
    "homogeneous_poisson",
    "e_total",
    "e_ionic",
    "e_electronic",
    "n",
    "e_ij_max",
    "weighted_surface_energy_EV_PER_ANG2",
    "weighted_surface_energy",
    "weighted_work_function",
    "surface_anisotropy",
    "shape_factor",
    "has_reconstructed",
    "possible_species",
    "has_props",
    "theoretical",
    "database_IDs"
  ]
}
