{"builder_meta": null, "nsites": null, "elements": null, "nelements": null, "composition": null, "composition_reduced": null, "formula_pretty": "CeMg", "formula_anonymous": "AB", "chemsys": null, "volume": 104.90841335556104, "density": 5.205063829229399, "density_atomic": 26.22710333889026, "symmetry": null, "property_name": null, "material_id": "mp-1038816", "deprecated": null, "deprecation_reasons": null, "last_updated": null, "origins": null, "warnings": null, "structure": {"@module": "pymatgen.core.structure", "@class": "Structure", "charge": 0, "lattice": {"matrix": [[1.69255779, 5.60424758, -0.06622199], [-1.69255779, 5.60424758, -0.06622199], [0.0, 2.24502936, 5.5034002]], "pbc": [true, true, true], "a": 5.854633051044711, "b": 5.854633051044711, "c": 5.943700075594499, "alpha": 69.44607109488562, "beta": 69.44607109488562, "gamma": 33.607824109696836, "volume": 104.90841335556104}, "properties": {}, "sites": [{"species": [{"element": "Ce", "occu": 1}], "abc": [0.14302839, 0.14302839, 0.55532191], "properties": {"magmom": 0.787}, "label": "Ce", "xyz": [0.0, 2.8498470092588697, 3.0372154613337896]}, {"species": [{"element": "Ce", "occu": 1}], "abc": [0.85697161, 0.85697161, 0.44467809], "properties": {"magmom": 0.787}, "label": "Ce", "xyz": [0.0, 10.60367751074113, 2.33374075866621]}, {"species": [{"element": "Mg", "occu": 1}], "abc": [0.37100119, 0.37100119, 0.93419165], "properties": {"magmom": -0.007}, "label": "Mg", "xyz": [0.0, 6.255652724586085, 5.0920936392599945]}, {"species": [{"element": "Mg", "occu": 1}], "abc": [0.62899881, 0.62899881, 0.06580835], "properties": {"magmom": -0.007}, "label": "Mg", "xyz": [0.0, 7.197871795413915, 0.2788625807400062]}]}, "task_ids": null, "uncorrected_energy_per_atom": null, "energy_per_atom": -17.524908064999998, "formation_energy_per_atom": -0.019941892500000002, "energy_above_hull": 0.016450333333331003, "is_stable": false, "equilibrium_reaction_energy_per_atom": null, "decomposes_to": null, "xas": null, "grain_boundaries": null, "band_gap": 0.0, "cbm": null, "vbm": null, "efermi": 6.00078939, "is_gap_direct": null, "is_metal": null, "es_source_calc_id": null, "bandstructure": null, "dos": null, "dos_energy_up": null, "dos_energy_down": null, "is_magnetic": null, "ordering": null, "total_magnetization": 1.654745199999999, "total_magnetization_normalized_vol": null, "total_magnetization_normalized_formula_units": null, "num_magnetic_sites": null, "num_unique_magnetic_sites": null, "types_of_magnetic_species": null, "bulk_modulus": null, "shear_modulus": null, "universal_anisotropy": null, "homogeneous_poisson": null, "e_total": null, "e_ionic": null, "e_electronic": null, "n": null, "e_ij_max": null, "weighted_surface_energy_EV_PER_ANG2": null, "weighted_surface_energy": null, "weighted_work_function": null, "surface_anisotropy": null, "shape_factor": null, "has_reconstructed": null, "possible_species": null, "has_props": null, "theoretical": null, "database_IDs": null, "fields_not_requested": ["builder_meta", "nsites", "elements", "nelements", "composition", "composition_reduced", "chemsys", "symmetry", "property_name", "deprecated", "deprecation_reasons", "last_updated", "origins", "warnings", "task_ids", "uncorrected_energy_per_atom", "equilibrium_reaction_energy_per_atom", "decomposes_to", "xas", "grain_boundaries", "cbm", "vbm", "is_gap_direct", "is_metal", "es_source_calc_id", "bandstructure", "dos", "dos_energy_up", "dos_energy_down", "is_magnetic", "ordering", "total_magnetization_normalized_vol", "total_magnetization_normalized_formula_units", "num_magnetic_sites", "num_unique_magnetic_sites", "types_of_magnetic_species", "bulk_modulus", "shear_modulus", "universal_anisotropy", "homogeneous_poisson", "e_total", "e_ionic", "e_electronic", "n", "e_ij_max", "weighted_surface_energy_EV_PER_ANG2", "weighted_surface_energy", "weighted_work_function", "surface_anisotropy", "shape_factor", "has_reconstructed", "possible_species", "has_props", "theoretical", "database_IDs"]}