{
  "builder_meta": null,
  "nsites": null,
  "elements": null,
  "nelements": null,
  "composition": null,
  "composition_reduced": null,
  "formula_pretty": "CeMg5",
  "formula_anonymous": "AB5",
  "chemsys": null,
  "volume": 139.202215822821,
  "density": 3.121107658783861,
  "density_atomic": 23.200369303803498,
  "symmetry": null,
  "property_name": null,
  "material_id": "mp-1038976",
  "deprecated": null,
  "deprecation_reasons": null,
  "last_updated": null,
  "origins": null,
  "warnings": null,
  "structure": {
    "@module": "pymatgen.core.structure",
    "@class": "Structure",
    "charge": 0,
    "lattice": {
      "matrix": [
        [3.15198998, -1.8880000000000002e-5, 0.0],
        [-1.57601235, 2.72969319, 0.0],
        [0.0, 0.0, 16.17889982]
      ],
      "pbc": [true, true, true],
      "a": 3.1519899800565447,
      "b": 3.151989822141705,
      "c": 16.17889982,
      "alpha": 90.0,
      "beta": 90.0,
      "gamma": 120.00070923346276,
      "volume": 139.202215822821
    },
    "properties": {},
    "sites": [
      {
        "species": [{ "element": "Ce", "occu": 1 }],
        "abc": [0.6666626800000001, 0.33333737, -0.0],
        "properties": { "magmom": -0.0 },
        "label": "Ce",
        "xyz": [1.575970275563427, 0.9098961622701119, 0.0]
      },
      {
        "species": [{ "element": "Mg", "occu": 1 }],
        "abc": [5.299999999999997e-6, -5.29e-6, 0.81842501],
        "properties": { "magmom": -0.0 },
        "label": "Mg",
        "xyz": [2.504265222549999e-5, -1.44401770391e-5, 13.241216246972499]
      },
      {
        "species": [{ "element": "Mg", "occu": 1 }],
        "abc": [0.6666623700000001, 0.33333762, 0.65982084],
        "properties": { "magmom": -0.0 },
        "label": "Mg",
        "xyz": [1.575968904443446, 0.9098968446992621, 10.67517526950825]
      },
      {
        "species": [{ "element": "Mg", "occu": 1 }],
        "abc": [2.969999999999998e-6, -3.03e-6, 0.5],
        "properties": { "magmom": 0.0 },
        "label": "Mg",
        "xyz": [1.4136727661099993e-5, -8.2710264393e-6, 8.08944991]
      },
      {
        "species": [{ "element": "Mg", "occu": 1 }],
        "abc": [0.6666623700000001, 0.33333762, 0.34017916],
        "properties": { "magmom": -0.0 },
        "label": "Mg",
        "xyz": [1.575968904443446, 0.9098968446992621, 5.503724550491752]
      },
      {
        "species": [{ "element": "Mg", "occu": 1 }],
        "abc": [5.299999999999997e-6, -5.29e-6, 0.18157499],
        "properties": { "magmom": -0.0 },
        "label": "Mg",
        "xyz": [2.504265222549999e-5, -1.44401770391e-5, 2.937683573027502]
      }
    ]
  },
  "task_ids": null,
  "uncorrected_energy_per_atom": null,
  "energy_per_atom": -8.626922445,
  "formation_energy_per_atom": -0.0123979975,
  "energy_above_hull": 0.032971736666668,
  "is_stable": false,
  "equilibrium_reaction_energy_per_atom": null,
  "decomposes_to": null,
  "xas": null,
  "grain_boundaries": null,
  "band_gap": 0.0,
  "cbm": null,
  "vbm": null,
  "efermi": 4.3799284400000005,
  "is_gap_direct": null,
  "is_metal": null,
  "es_source_calc_id": null,
  "bandstructure": null,
  "dos": null,
  "dos_energy_up": null,
  "dos_energy_down": null,
  "is_magnetic": null,
  "ordering": null,
  "total_magnetization": 4.8e-6,
  "total_magnetization_normalized_vol": null,
  "total_magnetization_normalized_formula_units": null,
  "num_magnetic_sites": null,
  "num_unique_magnetic_sites": null,
  "types_of_magnetic_species": null,
  "bulk_modulus": null,
  "shear_modulus": null,
  "universal_anisotropy": null,
  "homogeneous_poisson": null,
  "e_total": null,
  "e_ionic": null,
  "e_electronic": null,
  "n": null,
  "e_ij_max": null,
  "weighted_surface_energy_EV_PER_ANG2": null,
  "weighted_surface_energy": null,
  "weighted_work_function": null,
  "surface_anisotropy": null,
  "shape_factor": null,
  "has_reconstructed": null,
  "possible_species": null,
  "has_props": null,
  "theoretical": null,
  "database_IDs": null,
  "fields_not_requested": [
    "builder_meta",
    "nsites",
    "elements",
    "nelements",
    "composition",
    "composition_reduced",
    "chemsys",
    "symmetry",
    "property_name",
    "deprecated",
    "deprecation_reasons",
    "last_updated",
    "origins",
    "warnings",
    "task_ids",
    "uncorrected_energy_per_atom",
    "equilibrium_reaction_energy_per_atom",
    "decomposes_to",
    "xas",
    "grain_boundaries",
    "cbm",
    "vbm",
    "is_gap_direct",
    "is_metal",
    "es_source_calc_id",
    "bandstructure",
    "dos",
    "dos_energy_up",
    "dos_energy_down",
    "is_magnetic",
    "ordering",
    "total_magnetization_normalized_vol",
    "total_magnetization_normalized_formula_units",
    "num_magnetic_sites",
    "num_unique_magnetic_sites",
    "types_of_magnetic_species",
    "bulk_modulus",
    "shear_modulus",
    "universal_anisotropy",
    "homogeneous_poisson",
    "e_total",
    "e_ionic",
    "e_electronic",
    "n",
    "e_ij_max",
    "weighted_surface_energy_EV_PER_ANG2",
    "weighted_surface_energy",
    "weighted_work_function",
    "surface_anisotropy",
    "shape_factor",
    "has_reconstructed",
    "possible_species",
    "has_props",
    "theoretical",
    "database_IDs"
  ]
}
