{
  "builder_meta": null,
  "nsites": null,
  "elements": null,
  "nelements": null,
  "composition": null,
  "composition_reduced": null,
  "formula_pretty": "CeMg7",
  "formula_anonymous": "AB7",
  "chemsys": null,
  "volume": 205.79203585747626,
  "density": 2.503420036665137,
  "density_atomic": 25.724004482184533,
  "symmetry": null,
  "property_name": null,
  "material_id": "mp-1016346",
  "deprecated": null,
  "deprecation_reasons": null,
  "last_updated": null,
  "origins": null,
  "warnings": null,
  "structure": {
    "@module": "pymatgen.core.structure",
    "@class": "Structure",
    "charge": 0,
    "lattice": {
      "matrix": [
        [3.377676, -5.850307, 0.0],
        [3.377676, 5.850307, 0.0],
        [0.0, 0.0, 5.207172]
      ],
      "pbc": [true, true, true],
      "a": 6.755352481937933,
      "b": 6.755352481937933,
      "c": 5.207172,
      "alpha": 90.0,
      "beta": 90.0,
      "gamma": 120.00000471992496,
      "volume": 205.79203585747626
    },
    "properties": {},
    "sites": [
      {
        "species": [{ "element": "Ce", "occu": 1 }],
        "abc": [0.666667, 0.333333, 0.0],
        "properties": { "magmom": 0.9590000000000001 },
        "label": "Ce",
        "xyz": [3.377676, -1.9501062335380002, 0.0]
      },
      {
        "species": [{ "element": "Mg", "occu": 1 }],
        "abc": [0.170647, 0.341294999999999, 0.0],
        "properties": { "magmom": 0.005 },
        "label": "Mg",
        "xyz": [1.7291742067919968, 0.9983431889359942, 0.0]
      },
      {
        "species": [{ "element": "Mg", "occu": 1 }],
        "abc": [0.170647, 0.829353, 0.0],
        "properties": { "magmom": 0.005 },
        "label": "Mg",
        "xyz": [3.377676, 3.8536323227420004, 0.0]
      },
      {
        "species": [{ "element": "Mg", "occu": 1 }],
        "abc": [0.658705, 0.829353, 0.0],
        "properties": { "magmom": 0.003 },
        "label": "Mg",
        "xyz": [5.026177793208, 0.9983431889360004, 0.0]
      },
      {
        "species": [{ "element": "Mg", "occu": 1 }],
        "abc": [0.007000999999999, 0.5035000000000001, 0.5],
        "properties": { "magmom": 0.002 },
        "label": "Mg",
        "xyz": [1.724306975675997, 2.904671575193006, 2.603586]
      },
      {
        "species": [{ "element": "Mg", "occu": 1 }],
        "abc": [0.4965, 0.5035000000000001, 0.5],
        "properties": { "magmom": 0.004 },
        "label": "Mg",
        "xyz": [3.377676, 0.040952149000000215, 2.603586]
      },
      {
        "species": [{ "element": "Mg", "occu": 1 }],
        "abc": [0.4965, 0.992999, 0.5],
        "properties": { "magmom": 0.003 },
        "label": "Mg",
        "xyz": [5.0310450243239995, 2.9046715751929995, 2.603586]
      },
      {
        "species": [{ "element": "Mg", "occu": 1 }],
        "abc": [0.0, 0.0, 0.5],
        "properties": { "magmom": -0.002 },
        "label": "Mg",
        "xyz": [0.0, 0.0, 2.603586]
      }
    ]
  },
  "task_ids": null,
  "uncorrected_energy_per_atom": null,
  "energy_per_atom": -7.455482693750002,
  "formation_energy_per_atom": 0.047736538124997,
  "energy_above_hull": 0.08849697000000001,
  "is_stable": false,
  "equilibrium_reaction_energy_per_atom": null,
  "decomposes_to": null,
  "xas": null,
  "grain_boundaries": null,
  "band_gap": 0.0,
  "cbm": null,
  "vbm": null,
  "efermi": 3.62270158,
  "is_gap_direct": null,
  "is_metal": null,
  "es_source_calc_id": null,
  "bandstructure": null,
  "dos": null,
  "dos_energy_up": null,
  "dos_energy_down": null,
  "is_magnetic": null,
  "ordering": null,
  "total_magnetization": 1.3109037,
  "total_magnetization_normalized_vol": null,
  "total_magnetization_normalized_formula_units": null,
  "num_magnetic_sites": null,
  "num_unique_magnetic_sites": null,
  "types_of_magnetic_species": null,
  "bulk_modulus": null,
  "shear_modulus": null,
  "universal_anisotropy": null,
  "homogeneous_poisson": null,
  "e_total": null,
  "e_ionic": null,
  "e_electronic": null,
  "n": null,
  "e_ij_max": null,
  "weighted_surface_energy_EV_PER_ANG2": null,
  "weighted_surface_energy": null,
  "weighted_work_function": null,
  "surface_anisotropy": null,
  "shape_factor": null,
  "has_reconstructed": null,
  "possible_species": null,
  "has_props": null,
  "theoretical": null,
  "database_IDs": null,
  "fields_not_requested": [
    "builder_meta",
    "nsites",
    "elements",
    "nelements",
    "composition",
    "composition_reduced",
    "chemsys",
    "symmetry",
    "property_name",
    "deprecated",
    "deprecation_reasons",
    "last_updated",
    "origins",
    "warnings",
    "task_ids",
    "uncorrected_energy_per_atom",
    "equilibrium_reaction_energy_per_atom",
    "decomposes_to",
    "xas",
    "grain_boundaries",
    "cbm",
    "vbm",
    "is_gap_direct",
    "is_metal",
    "es_source_calc_id",
    "bandstructure",
    "dos",
    "dos_energy_up",
    "dos_energy_down",
    "is_magnetic",
    "ordering",
    "total_magnetization_normalized_vol",
    "total_magnetization_normalized_formula_units",
    "num_magnetic_sites",
    "num_unique_magnetic_sites",
    "types_of_magnetic_species",
    "bulk_modulus",
    "shear_modulus",
    "universal_anisotropy",
    "homogeneous_poisson",
    "e_total",
    "e_ionic",
    "e_electronic",
    "n",
    "e_ij_max",
    "weighted_surface_energy_EV_PER_ANG2",
    "weighted_surface_energy",
    "weighted_work_function",
    "surface_anisotropy",
    "shape_factor",
    "has_reconstructed",
    "possible_species",
    "has_props",
    "theoretical",
    "database_IDs"
  ]
}
