{
  "builder_meta": null,
  "nsites": null,
  "elements": null,
  "nelements": null,
  "composition": null,
  "composition_reduced": null,
  "formula_pretty": "CeN2",
  "formula_anonymous": "AB2",
  "chemsys": null,
  "volume": 146.7748022679541,
  "density": 5.70640394597841,
  "density_atomic": 16.30831136310601,
  "symmetry": null,
  "property_name": null,
  "material_id": "mp-1226927",
  "deprecated": null,
  "deprecation_reasons": null,
  "last_updated": null,
  "origins": null,
  "warnings": null,
  "structure": {
    "@module": "pymatgen.core.structure",
    "@class": "Structure",
    "charge": 0,
    "lattice": {
      "matrix": [
        [-2.35453402, -4.07858684, -0.00010322],
        [3.63067595, 0.62294552, -5.21960784],
        [5.10136167, -2.9447722, 0.14855424]
      ],
      "pbc": [true, true, true],
      "a": 4.70942683066771,
      "b": 6.388597262168428,
      "c": 5.892167899870133,
      "alpha": 64.9948333184893,
      "beta": 90.00172574998146,
      "gamma": 111.62687673623907,
      "volume": 146.7748022679541
    },
    "properties": {},
    "sites": [
      {
        "species": [{ "element": "Ce", "occu": 1 }],
        "abc": [0.62837657, 0.25670223000000003, 0.09435107],
        "properties": { "magmom": 0.0 },
        "label": "Ce",
        "xyz": [-0.06621246664205593, -2.680819312790083, -1.325933581786002]
      },
      {
        "species": [{ "element": "Ce", "occu": 1 }],
        "abc": [0.8326521100000001, 0.6653437600000001, 0.45606933],
        "properties": { "magmom": 0.0 },
        "label": "Ce",
        "xyz": [2.7817144670193708, -4.3245913078489036, -3.405168419636414]
      },
      {
        "species": [{ "element": "Ce", "occu": 1 }],
        "abc": [0.41144305000000003, 0.82288768, 0.83622507],
        "properties": { "magmom": 0.0 },
        "label": "Ce",
        "xyz": [6.284768370400802, -3.627984354499323, -4.170968675376236]
      },
      {
        "species": [{ "element": "N", "occu": 1 }],
        "abc": [0.84601774, 0.6921163, 0.82316712],
        "properties": { "magmom": -0.0 },
        "label": "N",
        "xyz": [4.72014564863176, -5.443445723296629, -3.490378025718326]
      },
      {
        "species": [{ "element": "N", "occu": 1 }],
        "abc": [0.38963128, 0.77934462, 0.24618299000000002],
        "properties": { "magmom": -0.0 },
        "label": "N",
        "xyz": [3.1680161335717374, -1.8286085965601309, -4.031341979374165]
      },
      {
        "species": [{ "element": "N", "occu": 1 }],
        "abc": [0.18245738, 0.36477734, 0.102626299999999],
        "properties": { "magmom": -0.0 },
        "label": "N",
        "xyz": [1.4183200801868212, -0.8191429344072194, -1.8887679249685974]
      },
      {
        "species": [{ "element": "N", "occu": 1 }],
        "abc": [0.62694446, 0.2539648, 0.72142667],
        "properties": { "magmom": -0.0 },
        "label": "N",
        "xyz": [3.1261601938397696, -4.523278391723784, -1.2184903836936123]
      },
      {
        "species": [{ "element": "N", "occu": 1 }],
        "abc": [0.39323914, 0.7865669, 0.46348887],
        "properties": { "magmom": -0.0 },
        "label": "N",
        "xyz": [4.294298949660125, -2.4787407942270434, -4.0367581112372175]
      },
      {
        "species": [{ "element": "N", "occu": 1 }],
        "abc": [0.06669026, 0.13329638, 0.21231158],
        "properties": { "magmom": -0.0 },
        "label": "N",
        "xyz": [1.4100096314245545, -0.8141748725610367, -0.6642219284501573]
      }
    ]
  },
  "task_ids": null,
  "uncorrected_energy_per_atom": null,
  "energy_per_atom": -17.49370020222222,
  "formation_energy_per_atom": -1.127656834722219,
  "energy_above_hull": 0.036453498194443004,
  "is_stable": false,
  "equilibrium_reaction_energy_per_atom": null,
  "decomposes_to": null,
  "xas": null,
  "grain_boundaries": null,
  "band_gap": 0.46520000000000006,
  "cbm": null,
  "vbm": null,
  "efermi": 5.16218969,
  "is_gap_direct": null,
  "is_metal": null,
  "es_source_calc_id": null,
  "bandstructure": null,
  "dos": null,
  "dos_energy_up": null,
  "dos_energy_down": null,
  "is_magnetic": null,
  "ordering": null,
  "total_magnetization": 0.0,
  "total_magnetization_normalized_vol": null,
  "total_magnetization_normalized_formula_units": null,
  "num_magnetic_sites": null,
  "num_unique_magnetic_sites": null,
  "types_of_magnetic_species": null,
  "bulk_modulus": null,
  "shear_modulus": null,
  "universal_anisotropy": null,
  "homogeneous_poisson": null,
  "e_total": null,
  "e_ionic": null,
  "e_electronic": null,
  "n": null,
  "e_ij_max": null,
  "weighted_surface_energy_EV_PER_ANG2": null,
  "weighted_surface_energy": null,
  "weighted_work_function": null,
  "surface_anisotropy": null,
  "shape_factor": null,
  "has_reconstructed": null,
  "possible_species": null,
  "has_props": null,
  "theoretical": null,
  "database_IDs": null,
  "fields_not_requested": [
    "builder_meta",
    "nsites",
    "elements",
    "nelements",
    "composition",
    "composition_reduced",
    "chemsys",
    "symmetry",
    "property_name",
    "deprecated",
    "deprecation_reasons",
    "last_updated",
    "origins",
    "warnings",
    "task_ids",
    "uncorrected_energy_per_atom",
    "equilibrium_reaction_energy_per_atom",
    "decomposes_to",
    "xas",
    "grain_boundaries",
    "cbm",
    "vbm",
    "is_gap_direct",
    "is_metal",
    "es_source_calc_id",
    "bandstructure",
    "dos",
    "dos_energy_up",
    "dos_energy_down",
    "is_magnetic",
    "ordering",
    "total_magnetization_normalized_vol",
    "total_magnetization_normalized_formula_units",
    "num_magnetic_sites",
    "num_unique_magnetic_sites",
    "types_of_magnetic_species",
    "bulk_modulus",
    "shear_modulus",
    "universal_anisotropy",
    "homogeneous_poisson",
    "e_total",
    "e_ionic",
    "e_electronic",
    "n",
    "e_ij_max",
    "weighted_surface_energy_EV_PER_ANG2",
    "weighted_surface_energy",
    "weighted_work_function",
    "surface_anisotropy",
    "shape_factor",
    "has_reconstructed",
    "possible_species",
    "has_props",
    "theoretical",
    "database_IDs"
  ]
}
