{"builder_meta": null, "nsites": null, "elements": null, "nelements": null, "composition": null, "composition_reduced": null, "formula_pretty": "CeNi3", "formula_anonymous": "AB3", "chemsys": null, "volume": 339.0696058907513, "density": 9.291121357181877, "density_atomic": 14.12790024544797, "symmetry": null, "property_name": null, "material_id": "mp-580354", "deprecated": null, "deprecation_reasons": null, "last_updated": null, "origins": null, "warnings": null, "structure": {"@module": "pymatgen.core.structure", "@class": "Structure", "charge": 0, "lattice": {"matrix": [[4.88682845, -1.02e-06, -0.0], [-2.44341524, 4.23212151, 0.0], [0.0, -0.0, 16.39470822]], "pbc": [true, true, true], "a": 4.886828450000107, "b": 4.886832359562678, "c": 16.39470822, "alpha": 90.0, "beta": 90.0, "gamma": 119.9999992359699, "volume": 339.0696058907513}, "properties": {}, "sites": [{"species": [{"element": "Ce", "occu": 1}], "abc": [0.333333, 0.666667, 0.45821843], "properties": {"magmom": 0.001}, "label": "Ce", "xyz": [-3.120081230267857e-06, 2.82141541070751, 7.512357460876494]}, {"species": [{"element": "Ce", "occu": 1}], "abc": [0.666667, 0.333333, 0.9582184300000001], "properties": {"magmom": 0.001}, "label": "Ce", "xyz": [2.4434163300812304, 1.4107050792924898, 15.709711570876493]}, {"species": [{"element": "Ce", "occu": 1}], "abc": [0.666667, 0.333333, 0.54178157], "properties": {"magmom": 0.001}, "label": "Ce", "xyz": [2.4434163300812304, 1.4107050792924898, 8.882350759123506]}, {"species": [{"element": "Ce", "occu": 1}], "abc": [0.333333, 0.666667, 0.041781570000000004], "properties": {"magmom": 0.001}, "label": "Ce", "xyz": [-3.120081230267857e-06, 2.82141541070751, 0.6849966491235054]}, {"species": [{"element": "Ce", "occu": 1}], "abc": [0.333333, 0.666667, 0.25], "properties": {"magmom": 0.001}, "label": "Ce", "xyz": [-3.120081230267857e-06, 2.82141541070751, 4.098677055]}, {"species": [{"element": "Ce", "occu": 1}], "abc": [0.666667, 0.333333, 0.75], "properties": {"magmom": 0.001}, "label": "Ce", "xyz": [2.4434163300812304, 1.4107050792924898, 12.296031164999999]}, {"species": [{"element": "Ni", "occu": 1}], "abc": [0.83380874, 0.16619126, 0.37294478000000003], "properties": {"magmom": -0.0}, "label": "Ni", "xyz": [3.6686060150518514, 0.7033407557350878, 6.114320850272091]}, {"species": [{"element": "Ni", "occu": 1}], "abc": [0.16619126, 0.83380874, 0.87294478], "properties": {"magmom": -0.0}, "label": "Ni", "xyz": [-1.225192805051851, 3.5287797342649125, 14.31167496027209]}, {"species": [{"element": "Ni", "occu": 1}], "abc": [0.83380874, 0.66761947, 0.12705522], "properties": {"magmom": -0.0}, "label": "Ni", "xyz": [2.443408684971931, 2.8254458689968844, 2.083033259727908]}, {"species": [{"element": "Ni", "occu": 1}], "abc": [0.16619126, 0.33238053, 0.62705522], "properties": {"magmom": -0.0}, "label": "Ni", "xyz": [4.5250280698017065e-06, 1.406674621003115, 10.280387369727908]}, {"species": [{"element": "Ni", "occu": 1}], "abc": [0.0, 0.0, 0.5], "properties": {"magmom": -0.0}, "label": "Ni", "xyz": [0.0, 0.0, 8.19735411]}, {"species": [{"element": "Ni", "occu": 1}], "abc": [0.66761947, 0.83380874, 0.87294478], "properties": {"magmom": -0.0}, "label": "Ni", "xyz": [1.2252008372087237, 3.5287792228081383, 14.31167496027209]}, {"species": [{"element": "Ni", "occu": 1}], "abc": [0.83380874, 0.66761947, 0.37294478000000003], "properties": {"magmom": -0.0}, "label": "Ni", "xyz": [2.443408684971931, 2.8254458689968844, 6.114320850272091]}, {"species": [{"element": "Ni", "occu": 1}], "abc": [0.16619126, 0.33238053, 0.87294478], "properties": {"magmom": -0.0}, "label": "Ni", "xyz": [4.5250280698017065e-06, 1.406674621003115, 14.31167496027209]}, {"species": [{"element": "Ni", "occu": 1}], "abc": [0.33238053, 0.16619126, 0.12705522], "properties": {"magmom": -0.0}, "label": "Ni", "xyz": [1.2182123727912764, 0.7033412671918621, 2.083033259727908]}, {"species": [{"element": "Ni", "occu": 1}], "abc": [0.666667, 0.333333, 0.25], "properties": {"magmom": -0.0}, "label": "Ni", "xyz": [2.4434163300812304, 1.4107050792924898, 4.098677055]}, {"species": [{"element": "Ni", "occu": 1}], "abc": [0.83380874, 0.16619126, 0.12705522], "properties": {"magmom": -0.0}, "label": "Ni", "xyz": [3.6686060150518514, 0.7033407557350878, 2.083033259727908]}, {"species": [{"element": "Ni", "occu": 1}], "abc": [0.0, 0.0, 0.75], "properties": {"magmom": -0.0}, "label": "Ni", "xyz": [0.0, 0.0, 12.296031164999999]}, {"species": [{"element": "Ni", "occu": 1}], "abc": [0.66761947, 0.83380874, 0.62705522], "properties": {"magmom": -0.0}, "label": "Ni", "xyz": [1.2252008372087237, 3.5287792228081383, 10.280387369727908]}, {"species": [{"element": "Ni", "occu": 1}], "abc": [0.33238053, 0.16619126, 0.37294478000000003], "properties": {"magmom": -0.0}, "label": "Ni", "xyz": [1.2182123727912764, 0.7033412671918621, 6.114320850272091]}, {"species": [{"element": "Ni", "occu": 1}], "abc": [0.0, -0.0, -0.0], "properties": {"magmom": -0.0}, "label": "Ni", "xyz": [0.0, 0.0, 0.0]}, {"species": [{"element": "Ni", "occu": 1}], "abc": [0.16619126, 0.83380874, 0.62705522], "properties": {"magmom": -0.0}, "label": "Ni", "xyz": [-1.225192805051851, 3.5287797342649125, 10.280387369727908]}, {"species": [{"element": "Ni", "occu": 1}], "abc": [0.333333, 0.666667, 0.75], "properties": {"magmom": -0.0}, "label": "Ni", "xyz": [-3.120081230267857e-06, 2.82141541070751, 12.296031164999999]}, {"species": [{"element": "Ni", "occu": 1}], "abc": [0.0, -0.0, 0.25], "properties": {"magmom": -0.0}, "label": "Ni", "xyz": [0.0, 0.0, 4.098677055]}]}, "task_ids": null, "uncorrected_energy_per_atom": null, "energy_per_atom": -6.209566637083334, "formation_energy_per_atom": -0.390226659583332, "energy_above_hull": 0.0, "is_stable": true, "equilibrium_reaction_energy_per_atom": null, "decomposes_to": null, "xas": null, "grain_boundaries": null, "band_gap": 0.0, "cbm": null, "vbm": null, "efermi": 8.69568058, "is_gap_direct": null, "is_metal": null, "es_source_calc_id": null, "bandstructure": null, "dos": null, "dos_energy_up": null, "dos_energy_down": null, "is_magnetic": null, "ordering": null, "total_magnetization": 0.0025006, "total_magnetization_normalized_vol": null, "total_magnetization_normalized_formula_units": null, "num_magnetic_sites": null, "num_unique_magnetic_sites": null, "types_of_magnetic_species": null, "bulk_modulus": null, "shear_modulus": null, "universal_anisotropy": null, "homogeneous_poisson": null, "e_total": null, "e_ionic": null, "e_electronic": null, "n": null, "e_ij_max": null, "weighted_surface_energy_EV_PER_ANG2": null, "weighted_surface_energy": null, "weighted_work_function": null, "surface_anisotropy": null, "shape_factor": null, "has_reconstructed": null, "possible_species": null, "has_props": null, "theoretical": null, "database_IDs": null, "fields_not_requested": ["builder_meta", "nsites", "elements", "nelements", "composition", "composition_reduced", "chemsys", "symmetry", "property_name", "deprecated", "deprecation_reasons", "last_updated", "origins", "warnings", "task_ids", "uncorrected_energy_per_atom", "equilibrium_reaction_energy_per_atom", "decomposes_to", "xas", "grain_boundaries", "cbm", "vbm", "is_gap_direct", "is_metal", "es_source_calc_id", "bandstructure", "dos", "dos_energy_up", "dos_energy_down", "is_magnetic", "ordering", "total_magnetization_normalized_vol", "total_magnetization_normalized_formula_units", "num_magnetic_sites", "num_unique_magnetic_sites", "types_of_magnetic_species", "bulk_modulus", "shear_modulus", "universal_anisotropy", "homogeneous_poisson", "e_total", "e_ionic", "e_electronic", "n", "e_ij_max", "weighted_surface_energy_EV_PER_ANG2", "weighted_surface_energy", "weighted_work_function", "surface_anisotropy", "shape_factor", "has_reconstructed", "possible_species", "has_props", "theoretical", "database_IDs"]}