{
  "builder_meta": null,
  "nsites": null,
  "elements": null,
  "nelements": null,
  "composition": null,
  "composition_reduced": null,
  "formula_pretty": "CeNi2",
  "formula_anonymous": "AB2",
  "chemsys": null,
  "volume": 90.29659799679021,
  "density": 9.470865318183662,
  "density_atomic": 15.049432999465035,
  "symmetry": null,
  "property_name": null,
  "material_id": "mp-1654",
  "deprecated": null,
  "deprecation_reasons": null,
  "last_updated": null,
  "origins": null,
  "warnings": null,
  "structure": {
    "@module": "pymatgen.core.structure",
    "@class": "Structure",
    "charge": 0,
    "lattice": {
      "matrix": [
        [4.36105796, 1.3310000000000001e-5, 2.51787897],
        [1.45369657, 4.11166679, 2.51788306],
        [1.127e-5, 1.2290000000000003e-5, 5.03573746]
      ],
      "pbc": [true, true, true],
      "a": 5.035726465786717,
      "b": 5.0357494589637435,
      "c": 5.035737460027608,
      "alpha": 59.99971597484364,
      "beta": 59.99966501688108,
      "gamma": 59.999723145109535,
      "volume": 90.29659799679023
    },
    "properties": {},
    "sites": [
      {
        "species": [{ "element": "Ce", "occu": 1 }],
        "abc": [0.125, 0.124999, 0.125],
        "properties": { "magmom": 0.233 },
        "label": "Ce",
        "xyz": [0.72684427130343, 0.51395743708321, 1.25893491836694]
      },
      {
        "species": [{ "element": "Ce", "occu": 1 }],
        "abc": [0.874999, 0.875000999999999, 0.875],
        "properties": { "magmom": 0.233 },
        "label": "Ce",
        "xyz": [5.087917167638608, 3.597734952903476, 8.812562053754089]
      },
      {
        "species": [{ "element": "Ni", "occu": 1 }],
        "abc": [0.50000025, -1.739999999999999e-6, 0.50000025],
        "properties": { "magmom": 0.006 },
        "label": "Ni",
        "xyz": [2.180533175835276, 5.645706185400006e-6, 3.776805722287583]
      },
      {
        "species": [{ "element": "Ni", "occu": 1 }],
        "abc": [-1.739999999999999e-6, 0.50000025, 0.50000025],
        "properties": { "magmom": 0.006 },
        "label": "Ni",
        "xyz": [0.7268466951861096, 2.055840567896611, 3.7768077672957228]
      },
      {
        "species": [{ "element": "Ni", "occu": 1 }],
        "abc": [0.50000025, 0.50000025, 0.50000025],
        "properties": { "magmom": 0.006 },
        "label": "Ni",
        "xyz": [2.9073843536914503, 2.0558472229230977, 5.0357522628748725]
      },
      {
        "species": [{ "element": "Ni", "occu": 1 }],
        "abc": [0.50000025, 0.50000025, -1.739999999999999e-6],
        "properties": { "magmom": 0.006 },
        "label": "Ni",
        "xyz": [2.907378718669023, 2.0558410778986405, 2.5178735117573274]
      }
    ]
  },
  "task_ids": null,
  "uncorrected_energy_per_atom": null,
  "energy_per_atom": -6.208472866666668,
  "formation_energy_per_atom": -0.37606512333333303,
  "energy_above_hull": 0.0,
  "is_stable": true,
  "equilibrium_reaction_energy_per_atom": null,
  "decomposes_to": null,
  "xas": null,
  "grain_boundaries": null,
  "band_gap": 0.0,
  "cbm": null,
  "vbm": null,
  "efermi": 9.38692474,
  "is_gap_direct": null,
  "is_metal": null,
  "es_source_calc_id": null,
  "bandstructure": null,
  "dos": null,
  "dos_energy_up": null,
  "dos_energy_down": null,
  "is_magnetic": null,
  "ordering": null,
  "total_magnetization": 0.558647999999999,
  "total_magnetization_normalized_vol": null,
  "total_magnetization_normalized_formula_units": null,
  "num_magnetic_sites": null,
  "num_unique_magnetic_sites": null,
  "types_of_magnetic_species": null,
  "bulk_modulus": null,
  "shear_modulus": null,
  "universal_anisotropy": null,
  "homogeneous_poisson": null,
  "e_total": null,
  "e_ionic": null,
  "e_electronic": null,
  "n": null,
  "e_ij_max": null,
  "weighted_surface_energy_EV_PER_ANG2": null,
  "weighted_surface_energy": null,
  "weighted_work_function": null,
  "surface_anisotropy": null,
  "shape_factor": null,
  "has_reconstructed": null,
  "possible_species": null,
  "has_props": null,
  "theoretical": null,
  "database_IDs": null,
  "fields_not_requested": [
    "builder_meta",
    "nsites",
    "elements",
    "nelements",
    "composition",
    "composition_reduced",
    "chemsys",
    "symmetry",
    "property_name",
    "deprecated",
    "deprecation_reasons",
    "last_updated",
    "origins",
    "warnings",
    "task_ids",
    "uncorrected_energy_per_atom",
    "equilibrium_reaction_energy_per_atom",
    "decomposes_to",
    "xas",
    "grain_boundaries",
    "cbm",
    "vbm",
    "is_gap_direct",
    "is_metal",
    "es_source_calc_id",
    "bandstructure",
    "dos",
    "dos_energy_up",
    "dos_energy_down",
    "is_magnetic",
    "ordering",
    "total_magnetization_normalized_vol",
    "total_magnetization_normalized_formula_units",
    "num_magnetic_sites",
    "num_unique_magnetic_sites",
    "types_of_magnetic_species",
    "bulk_modulus",
    "shear_modulus",
    "universal_anisotropy",
    "homogeneous_poisson",
    "e_total",
    "e_ionic",
    "e_electronic",
    "n",
    "e_ij_max",
    "weighted_surface_energy_EV_PER_ANG2",
    "weighted_surface_energy",
    "weighted_work_function",
    "surface_anisotropy",
    "shape_factor",
    "has_reconstructed",
    "possible_species",
    "has_props",
    "theoretical",
    "database_IDs"
  ]
}
