{"builder_meta": null, "nsites": null, "elements": null, "nelements": null, "composition": null, "composition_reduced": null, "formula_pretty": "CeO3", "formula_anonymous": "AB3", "chemsys": null, "volume": 115.99054272631692, "density": 5.386145641533107, "density_atomic": 14.498817840789615, "symmetry": null, "property_name": null, "material_id": "mp-1205900", "deprecated": null, "deprecation_reasons": null, "last_updated": null, "origins": null, "warnings": null, "structure": {"@module": "pymatgen.core.structure", "@class": "Structure", "charge": 0, "lattice": {"matrix": [[3.032442, -5.252344, 0.0], [3.032442, 5.252344, 0.0], [0.0, 0.0, 3.64122]], "pbc": [true, true, true], "a": 6.064884333414776, "b": 6.064884333414776, "c": 3.64122, "alpha": 90.0, "beta": 90.0, "gamma": 120.00000363709228, "volume": 115.99054272631692}, "properties": {}, "sites": [{"species": [{"element": "Ce", "occu": 1}], "abc": [0.333333, 0.666667, 0.75], "properties": {"magmom": -0.112}, "label": "Ce", "xyz": [3.0324420000000005, 1.750784834896, 2.730915]}, {"species": [{"element": "Ce", "occu": 1}], "abc": [0.666667, 0.333333, 0.25], "properties": {"magmom": -0.112}, "label": "Ce", "xyz": [3.0324420000000005, -1.750784834896, 0.910305]}, {"species": [{"element": "O", "occu": 1}], "abc": [0.913273999999999, 0.589596, 0.75], "properties": {"magmom": 0.601}, "label": "O", "xyz": [4.5573661085399975, -1.700068201231995, 2.730915]}, {"species": [{"element": "O", "occu": 1}], "abc": [0.086726, 0.410404, 0.25], "properties": {"magmom": 0.601}, "label": "O", "xyz": [1.50751789146, 1.7000682012319999, 0.910305]}, {"species": [{"element": "O", "occu": 1}], "abc": [0.676321, 0.086726, 0.75], "properties": {"magmom": 0.602}, "label": "O", "xyz": [2.3138957707739998, -3.09675576068, 2.730915]}, {"species": [{"element": "O", "occu": 1}], "abc": [0.323679, 0.913273999999999, 0.25], "properties": {"magmom": 0.601}, "label": "O", "xyz": [3.7509882292259973, 3.096755760679995, 0.910305]}, {"species": [{"element": "O", "occu": 1}], "abc": [0.410404, 0.323679, 0.75], "properties": {"magmom": 0.602}, "label": "O", "xyz": [2.226064120686, -0.4555095333999999, 2.730915]}, {"species": [{"element": "O", "occu": 1}], "abc": [0.589596, 0.676321, 0.25], "properties": {"magmom": 0.602}, "label": "O", "xyz": [3.8388198793140003, 0.4555095333999999, 0.910305]}]}, "task_ids": null, "uncorrected_energy_per_atom": null, "energy_per_atom": -7.62940354875, "formation_energy_per_atom": -2.434195327499999, "energy_above_hull": 0.51118682, "is_stable": false, "equilibrium_reaction_energy_per_atom": null, "decomposes_to": null, "xas": null, "grain_boundaries": null, "band_gap": 0.0, "cbm": null, "vbm": null, "efermi": 2.34599766, "is_gap_direct": null, "is_metal": null, "es_source_calc_id": null, "bandstructure": null, "dos": null, "dos_energy_up": null, "dos_energy_down": null, "is_magnetic": null, "ordering": null, "total_magnetization": 3.9997471, "total_magnetization_normalized_vol": null, "total_magnetization_normalized_formula_units": null, "num_magnetic_sites": null, "num_unique_magnetic_sites": null, "types_of_magnetic_species": null, "bulk_modulus": null, "shear_modulus": null, "universal_anisotropy": null, "homogeneous_poisson": null, "e_total": null, "e_ionic": null, "e_electronic": null, "n": null, "e_ij_max": null, "weighted_surface_energy_EV_PER_ANG2": null, "weighted_surface_energy": null, "weighted_work_function": null, "surface_anisotropy": null, "shape_factor": null, "has_reconstructed": null, "possible_species": null, "has_props": null, "theoretical": null, "database_IDs": null, "fields_not_requested": ["builder_meta", "nsites", "elements", "nelements", "composition", "composition_reduced", "chemsys", "symmetry", "property_name", "deprecated", "deprecation_reasons", "last_updated", "origins", "warnings", "task_ids", "uncorrected_energy_per_atom", "equilibrium_reaction_energy_per_atom", "decomposes_to", "xas", "grain_boundaries", "cbm", "vbm", "is_gap_direct", "is_metal", "es_source_calc_id", "bandstructure", "dos", "dos_energy_up", "dos_energy_down", "is_magnetic", "ordering", "total_magnetization_normalized_vol", "total_magnetization_normalized_formula_units", "num_magnetic_sites", "num_unique_magnetic_sites", "types_of_magnetic_species", "bulk_modulus", "shear_modulus", "universal_anisotropy", "homogeneous_poisson", "e_total", "e_ionic", "e_electronic", "n", "e_ij_max", "weighted_surface_energy_EV_PER_ANG2", "weighted_surface_energy", "weighted_work_function", "surface_anisotropy", "shape_factor", "has_reconstructed", "possible_species", "has_props", "theoretical", "database_IDs"]}