{
  "builder_meta": null,
  "nsites": null,
  "elements": null,
  "nelements": null,
  "composition": null,
  "composition_reduced": null,
  "formula_pretty": "CeOs2",
  "formula_anonymous": "AB2",
  "chemsys": null,
  "volume": 219.7655505329354,
  "density": 15.733799643084856,
  "density_atomic": 18.313795877744617,
  "symmetry": null,
  "property_name": null,
  "material_id": "mp-1102302",
  "deprecated": null,
  "deprecation_reasons": null,
  "last_updated": null,
  "origins": null,
  "warnings": null,
  "structure": {
    "@module": "pymatgen.core.structure",
    "@class": "Structure",
    "charge": 0,
    "lattice": {
      "matrix": [
        [-2.65475758, -4.59816142, -0.0],
        [-2.65475758, 4.59816142, 0.0],
        [0.0, -0.0, -9.00161713]
      ],
      "pbc": [true, true, true],
      "a": 5.309503390425877,
      "b": 5.309503390425877,
      "c": 9.00161713,
      "alpha": 90.0,
      "beta": 90.0,
      "gamma": 119.99985334427974,
      "volume": 219.7655505329354
    },
    "properties": {},
    "sites": [
      {
        "species": [{ "element": "Ce", "occu": 1 }],
        "abc": [0.66667502, 0.33332498, 0.57038769],
        "properties": { "magmom": -0.0 },
        "label": "Ce",
        "xyz": [-2.65475758, -1.5327972932834568, -5.134411601045129]
      },
      {
        "species": [{ "element": "Ce", "occu": 1 }],
        "abc": [0.33332498, 0.66667502, 0.42961231],
        "properties": { "magmom": -0.0 },
        "label": "Ce",
        "xyz": [-2.65475758, 1.5327972932834568, -3.86720552895487]
      },
      {
        "species": [{ "element": "Ce", "occu": 1 }],
        "abc": [0.33332498, 0.66667502, 0.07038769],
        "properties": { "magmom": -0.0 },
        "label": "Ce",
        "xyz": [-2.65475758, 1.5327972932834568, -0.6336030360451297]
      },
      {
        "species": [{ "element": "Ce", "occu": 1 }],
        "abc": [0.66667502, 0.33332498, 0.92961231],
        "properties": { "magmom": -0.0 },
        "label": "Ce",
        "xyz": [-2.65475758, -1.5327972932834568, -8.36801409395487]
      },
      {
        "species": [{ "element": "Os", "occu": 1 }],
        "abc": [0.0, 0.0, 0.5],
        "properties": { "magmom": 0.0 },
        "label": "Os",
        "xyz": [0.0, 0.0, -4.500808565]
      },
      {
        "species": [{ "element": "Os", "occu": 1 }],
        "abc": [0.0, 0.0, -0.0],
        "properties": { "magmom": 0.0 },
        "label": "Os",
        "xyz": [0.0, 0.0, 0.0]
      },
      {
        "species": [{ "element": "Os", "occu": 1 }],
        "abc": [0.17030084, 0.34055523, 0.75],
        "properties": { "magmom": 0.0 },
        "label": "Os",
        "xyz": [-1.3561990241215107, 0.7828571676836339, -6.7512128475]
      },
      {
        "species": [{ "element": "Os", "occu": 1 }],
        "abc": [0.17030828, 0.82969172, 0.75],
        "properties": { "magmom": -0.0 },
        "label": "Os",
        "xyz": [-2.65475758, 3.0319514947948853, -6.7512128475]
      },
      {
        "species": [{ "element": "Os", "occu": 1 }],
        "abc": [0.65944477, 0.82969916, 0.75],
        "properties": { "magmom": 0.0 },
        "label": "Os",
        "xyz": [-3.95331613587849, 0.7828571676836336, -6.7512128475]
      },
      {
        "species": [{ "element": "Os", "occu": 1 }],
        "abc": [0.82969916, 0.65944477, 0.25],
        "properties": { "magmom": 0.0 },
        "label": "Os",
        "xyz": [-3.95331613587849, -0.7828571676836336, -2.2504042825]
      },
      {
        "species": [{ "element": "Os", "occu": 1 }],
        "abc": [0.82969172, 0.17030828, 0.25],
        "properties": { "magmom": -0.0 },
        "label": "Os",
        "xyz": [-2.65475758, -3.0319514947948853, -2.2504042825]
      },
      {
        "species": [{ "element": "Os", "occu": 1 }],
        "abc": [0.34055523, 0.17030084, 0.25],
        "properties": { "magmom": 0.0 },
        "label": "Os",
        "xyz": [-1.3561990241215107, -0.7828571676836339, -2.2504042825]
      }
    ]
  },
  "task_ids": null,
  "uncorrected_energy_per_atom": null,
  "energy_per_atom": -9.710330373333335,
  "formation_energy_per_atom": -0.24643546333333302,
  "energy_above_hull": 0.0,
  "is_stable": true,
  "equilibrium_reaction_energy_per_atom": null,
  "decomposes_to": null,
  "xas": null,
  "grain_boundaries": null,
  "band_gap": 0.0,
  "cbm": null,
  "vbm": null,
  "efermi": 8.66774606,
  "is_gap_direct": null,
  "is_metal": null,
  "es_source_calc_id": null,
  "bandstructure": null,
  "dos": null,
  "dos_energy_up": null,
  "dos_energy_down": null,
  "is_magnetic": null,
  "ordering": null,
  "total_magnetization": 0.0,
  "total_magnetization_normalized_vol": null,
  "total_magnetization_normalized_formula_units": null,
  "num_magnetic_sites": null,
  "num_unique_magnetic_sites": null,
  "types_of_magnetic_species": null,
  "bulk_modulus": null,
  "shear_modulus": null,
  "universal_anisotropy": null,
  "homogeneous_poisson": null,
  "e_total": null,
  "e_ionic": null,
  "e_electronic": null,
  "n": null,
  "e_ij_max": null,
  "weighted_surface_energy_EV_PER_ANG2": null,
  "weighted_surface_energy": null,
  "weighted_work_function": null,
  "surface_anisotropy": null,
  "shape_factor": null,
  "has_reconstructed": null,
  "possible_species": null,
  "has_props": null,
  "theoretical": null,
  "database_IDs": null,
  "fields_not_requested": [
    "builder_meta",
    "nsites",
    "elements",
    "nelements",
    "composition",
    "composition_reduced",
    "chemsys",
    "symmetry",
    "property_name",
    "deprecated",
    "deprecation_reasons",
    "last_updated",
    "origins",
    "warnings",
    "task_ids",
    "uncorrected_energy_per_atom",
    "equilibrium_reaction_energy_per_atom",
    "decomposes_to",
    "xas",
    "grain_boundaries",
    "cbm",
    "vbm",
    "is_gap_direct",
    "is_metal",
    "es_source_calc_id",
    "bandstructure",
    "dos",
    "dos_energy_up",
    "dos_energy_down",
    "is_magnetic",
    "ordering",
    "total_magnetization_normalized_vol",
    "total_magnetization_normalized_formula_units",
    "num_magnetic_sites",
    "num_unique_magnetic_sites",
    "types_of_magnetic_species",
    "bulk_modulus",
    "shear_modulus",
    "universal_anisotropy",
    "homogeneous_poisson",
    "e_total",
    "e_ionic",
    "e_electronic",
    "n",
    "e_ij_max",
    "weighted_surface_energy_EV_PER_ANG2",
    "weighted_surface_energy",
    "weighted_work_function",
    "surface_anisotropy",
    "shape_factor",
    "has_reconstructed",
    "possible_species",
    "has_props",
    "theoretical",
    "database_IDs"
  ]
}
