{
  "builder_meta": null,
  "nsites": null,
  "elements": null,
  "nelements": null,
  "composition": null,
  "composition_reduced": null,
  "formula_pretty": "CeP2",
  "formula_anonymous": "AB2",
  "chemsys": null,
  "volume": 261.3105577579913,
  "density": 5.136177863086828,
  "density_atomic": 21.775879813165943,
  "symmetry": null,
  "property_name": null,
  "material_id": "mp-568080",
  "deprecated": null,
  "deprecation_reasons": null,
  "last_updated": null,
  "origins": null,
  "warnings": null,
  "structure": {
    "@module": "pymatgen.core.structure",
    "@class": "Structure",
    "charge": 0,
    "lattice": {
      "matrix": [
        [4.0464279, 0.0, -0.52375308],
        [0.0, 6.56582129, 0.0],
        [-0.03258059, 0.0, 9.83970917]
      ],
      "pbc": [true, true, true],
      "a": 4.080183333957912,
      "b": 6.56582129,
      "c": 9.83976310919256,
      "alpha": 90.0,
      "beta": 97.56484030626316,
      "gamma": 90.0,
      "volume": 261.31055775799126
    },
    "properties": {},
    "sites": [
      {
        "species": [{ "element": "Ce", "occu": 1 }],
        "abc": [0.22061886, 0.317118399999999, 0.1400807],
        "properties": { "magmom": 0.913 },
        "label": "Ce",
        "xyz": [0.8881543985165811, 2.0821427421707295, 1.2628035408989304]
      },
      {
        "species": [{ "element": "Ce", "occu": 1 }],
        "abc": [0.77938114, 0.6828816, 0.859919299999999],
        "properties": { "magmom": 0.913 },
        "label": "Ce",
        "xyz": [3.1256929114834193, 4.483678547829264, 8.05315254910106]
      },
      {
        "species": [{ "element": "Ce", "occu": 1 }],
        "abc": [0.27938114000000003, 0.817118399999999, 0.3599193],
        "properties": { "magmom": 0.913 },
        "label": "Ce",
        "xyz": [1.1187692564834193, 5.36505338717073, 3.39517450410107]
      },
      {
        "species": [{ "element": "Ce", "occu": 1 }],
        "abc": [0.72061886, 0.1828816, 0.6400807],
        "properties": { "magmom": 0.913 },
        "label": "Ce",
        "xyz": [2.895078053516581, 1.200767902829264, 5.92078158589893]
      },
      {
        "species": [{ "element": "P", "occu": 1 }],
        "abc": [0.19665923, 0.83782453, 0.66476352],
        "properties": { "magmom": -0.016 },
        "label": "P",
        "xyz": [0.7741090073724401, 5.501006136358243, 6.438078826202551]
      },
      {
        "species": [{ "element": "P", "occu": 1 }],
        "abc": [0.80334077, 0.16217547000000002, 0.33523648],
        "properties": { "magmom": -0.016 },
        "label": "P",
        "xyz": [3.2397383026275604, 1.0648151536417563, 2.87787726379745]
      },
      {
        "species": [{ "element": "P", "occu": 1 }],
        "abc": [0.14581488, 0.37848431, 0.45265182],
        "properties": { "magmom": -0.007 },
        "label": "P",
        "xyz": [0.5752817353069783, 2.4850603405289595, 4.377591271561359]
      },
      {
        "species": [{ "element": "P", "occu": 1 }],
        "abc": [0.35418512, 0.87848431, 0.047348180000000004],
        "properties": { "magmom": -0.007 },
        "label": "P",
        "xyz": [1.4316419196930221, 5.76797098552896, 0.28038677343864105]
      },
      {
        "species": [{ "element": "P", "occu": 1 }],
        "abc": [0.69665923, 0.66217547, 0.16476352],
        "properties": { "magmom": -0.016 },
        "label": "P",
        "xyz": [2.81361325237244, 4.347725798641756, 1.2563477012025501]
      },
      {
        "species": [{ "element": "P", "occu": 1 }],
        "abc": [0.64581488, 0.12151569, 0.95265182],
        "properties": { "magmom": -0.007 },
        "label": "P",
        "xyz": [2.5822053903069784, 0.79785030447104, 9.035569316561359]
      },
      {
        "species": [{ "element": "P", "occu": 1 }],
        "abc": [0.85418512, 0.6215156900000001, 0.54734818],
        "properties": { "magmom": -0.007 },
        "label": "P",
        "xyz": [3.438565574693022, 4.08076094947104, 4.93836481843864]
      },
      {
        "species": [{ "element": "P", "occu": 1 }],
        "abc": [0.30334077, 0.33782453, 0.8352364800000001],
        "properties": { "magmom": -0.016 },
        "label": "P",
        "xyz": [1.2002340576275596, 2.218095491358244, 8.05960838879745]
      }
    ]
  },
  "task_ids": null,
  "uncorrected_energy_per_atom": null,
  "energy_per_atom": -17.475944263333332,
  "formation_energy_per_atom": -1.194350468650791,
  "energy_above_hull": 0.0029652941666670003,
  "is_stable": false,
  "equilibrium_reaction_energy_per_atom": null,
  "decomposes_to": null,
  "xas": null,
  "grain_boundaries": null,
  "band_gap": 0.0,
  "cbm": null,
  "vbm": null,
  "efermi": 8.28338275,
  "is_gap_direct": null,
  "is_metal": null,
  "es_source_calc_id": null,
  "bandstructure": null,
  "dos": null,
  "dos_energy_up": null,
  "dos_energy_down": null,
  "is_magnetic": null,
  "ordering": null,
  "total_magnetization": 3.9220504,
  "total_magnetization_normalized_vol": null,
  "total_magnetization_normalized_formula_units": null,
  "num_magnetic_sites": null,
  "num_unique_magnetic_sites": null,
  "types_of_magnetic_species": null,
  "bulk_modulus": null,
  "shear_modulus": null,
  "universal_anisotropy": null,
  "homogeneous_poisson": null,
  "e_total": null,
  "e_ionic": null,
  "e_electronic": null,
  "n": null,
  "e_ij_max": null,
  "weighted_surface_energy_EV_PER_ANG2": null,
  "weighted_surface_energy": null,
  "weighted_work_function": null,
  "surface_anisotropy": null,
  "shape_factor": null,
  "has_reconstructed": null,
  "possible_species": null,
  "has_props": null,
  "theoretical": null,
  "database_IDs": null,
  "fields_not_requested": [
    "builder_meta",
    "nsites",
    "elements",
    "nelements",
    "composition",
    "composition_reduced",
    "chemsys",
    "symmetry",
    "property_name",
    "deprecated",
    "deprecation_reasons",
    "last_updated",
    "origins",
    "warnings",
    "task_ids",
    "uncorrected_energy_per_atom",
    "equilibrium_reaction_energy_per_atom",
    "decomposes_to",
    "xas",
    "grain_boundaries",
    "cbm",
    "vbm",
    "is_gap_direct",
    "is_metal",
    "es_source_calc_id",
    "bandstructure",
    "dos",
    "dos_energy_up",
    "dos_energy_down",
    "is_magnetic",
    "ordering",
    "total_magnetization_normalized_vol",
    "total_magnetization_normalized_formula_units",
    "num_magnetic_sites",
    "num_unique_magnetic_sites",
    "types_of_magnetic_species",
    "bulk_modulus",
    "shear_modulus",
    "universal_anisotropy",
    "homogeneous_poisson",
    "e_total",
    "e_ionic",
    "e_electronic",
    "n",
    "e_ij_max",
    "weighted_surface_energy_EV_PER_ANG2",
    "weighted_surface_energy",
    "weighted_work_function",
    "surface_anisotropy",
    "shape_factor",
    "has_reconstructed",
    "possible_species",
    "has_props",
    "theoretical",
    "database_IDs"
  ]
}
