{"builder_meta": null, "nsites": null, "elements": null, "nelements": null, "composition": null, "composition_reduced": null, "formula_pretty": "CeP5", "formula_anonymous": "AB5", "chemsys": null, "volume": 257.05575903325644, "density": 3.811109332082355, "density_atomic": 21.42131325277137, "symmetry": null, "property_name": null, "material_id": "mp-566", "deprecated": null, "deprecation_reasons": null, "last_updated": null, "origins": null, "warnings": null, "structure": {"@module": "pymatgen.core.structure", "@class": "Structure", "charge": 0, "lattice": {"matrix": [[9.63297595, 0.0, 0.0], [0.0, 4.97436798, -0.30755228], [0.0, 1.65948402, 5.26189474]], "pbc": [true, true, true], "a": 9.63297595, "b": 4.983866491528689, "c": 5.517374689784538, "alpha": 76.03383608886656, "beta": 90.0, "gamma": 90.0, "volume": 257.05575903325644}, "properties": {}, "sites": [{"species": [{"element": "Ce", "occu": 1}], "abc": [0.25, 0.52634322, 0.13535434], "properties": {"magmom": 0.966}, "label": "Ce", "xyz": [2.4082439875, 2.842843224325742, 0.55034223230863]}, {"species": [{"element": "Ce", "occu": 1}], "abc": [0.75, 0.47365678, 0.86464566], "properties": {"magmom": 0.966}, "label": "Ce", "xyz": [7.2247319625, 3.791008775674258, 4.40400022769137]}, {"species": [{"element": "P", "occu": 1}], "abc": [0.25, 0.79555774, 0.57839388], "properties": {"magmom": -0.007}, "label": "P", "xyz": [2.4082439875, 4.917232349222963, 2.7987721180115437]}, {"species": [{"element": "P", "occu": 1}], "abc": [0.75, 0.20444226000000001, 0.42160612000000003], "properties": {"magmom": -0.007}, "label": "P", "xyz": [7.2247319625, 1.7166196507770373, 2.1555703419884558]}, {"species": [{"element": "P", "occu": 1}], "abc": [0.91052471, 0.88208106, 0.45810642], "properties": {"magmom": -0.002}, "label": "P", "xyz": [8.771062633310725, 5.148016064077868, 2.139221720610414]}, {"species": [{"element": "P", "occu": 1}], "abc": [0.41052471, 0.11791894, 0.54189358], "properties": {"magmom": -0.002}, "label": "P", "xyz": [3.9545746583107246, 1.485835935922133, 2.815120739389586]}, {"species": [{"element": "P", "occu": 1}], "abc": [0.08947529, 0.11791894, 0.54189358], "properties": {"magmom": -0.002}, "label": "P", "xyz": [0.8619133166892755, 1.485835935922133, 2.815120739389586]}, {"species": [{"element": "P", "occu": 1}], "abc": [0.58947529, 0.88208106, 0.45810642], "properties": {"magmom": -0.002}, "label": "P", "xyz": [5.678401291689275, 5.148016064077868, 2.139221720610414]}, {"species": [{"element": "P", "occu": 1}], "abc": [0.96346474, 0.79529874, 0.10512345000000001], "properties": {"magmom": -0.007}, "label": "P", "xyz": [9.281032669093005, 4.130559272192615, 0.3085525878375258]}, {"species": [{"element": "P", "occu": 1}], "abc": [0.46346474, 0.20470126, 0.89487655], "properties": {"magmom": -0.007}, "label": "P", "xyz": [4.464544694093003, 2.503292727807386, 4.645789872162474]}, {"species": [{"element": "P", "occu": 1}], "abc": [0.03653526, 0.20470126, 0.89487655], "properties": {"magmom": -0.007}, "label": "P", "xyz": [0.351943280906997, 2.503292727807386, 4.645789872162474]}, {"species": [{"element": "P", "occu": 1}], "abc": [0.53653526, 0.79529874, 0.10512345000000001], "properties": {"magmom": -0.007}, "label": "P", "xyz": [5.168431255906997, 4.130559272192615, 0.3085525878375258]}]}, "task_ids": null, "uncorrected_energy_per_atom": null, "energy_per_atom": -13.279467675, "formation_energy_per_atom": -0.637632621646822, "energy_above_hull": 0.0, "is_stable": true, "equilibrium_reaction_energy_per_atom": null, "decomposes_to": null, "xas": null, "grain_boundaries": null, "band_gap": 0.0, "cbm": null, "vbm": null, "efermi": 8.02476351, "is_gap_direct": null, "is_metal": null, "es_source_calc_id": null, "bandstructure": null, "dos": null, "dos_energy_up": null, "dos_energy_down": null, "is_magnetic": null, "ordering": null, "total_magnetization": 1.9954581, "total_magnetization_normalized_vol": null, "total_magnetization_normalized_formula_units": null, "num_magnetic_sites": null, "num_unique_magnetic_sites": null, "types_of_magnetic_species": null, "bulk_modulus": null, "shear_modulus": null, "universal_anisotropy": null, "homogeneous_poisson": null, "e_total": null, "e_ionic": null, "e_electronic": null, "n": null, "e_ij_max": null, "weighted_surface_energy_EV_PER_ANG2": null, "weighted_surface_energy": null, "weighted_work_function": null, "surface_anisotropy": null, "shape_factor": null, "has_reconstructed": null, "possible_species": null, "has_props": null, "theoretical": null, "database_IDs": null, "fields_not_requested": ["builder_meta", "nsites", "elements", "nelements", "composition", "composition_reduced", "chemsys", "symmetry", "property_name", "deprecated", "deprecation_reasons", "last_updated", "origins", "warnings", "task_ids", "uncorrected_energy_per_atom", "equilibrium_reaction_energy_per_atom", "decomposes_to", "xas", "grain_boundaries", "cbm", "vbm", "is_gap_direct", "is_metal", "es_source_calc_id", "bandstructure", "dos", "dos_energy_up", "dos_energy_down", "is_magnetic", "ordering", "total_magnetization_normalized_vol", "total_magnetization_normalized_formula_units", "num_magnetic_sites", "num_unique_magnetic_sites", "types_of_magnetic_species", "bulk_modulus", "shear_modulus", "universal_anisotropy", "homogeneous_poisson", "e_total", "e_ionic", "e_electronic", "n", "e_ij_max", "weighted_surface_energy_EV_PER_ANG2", "weighted_surface_energy", "weighted_work_function", "surface_anisotropy", "shape_factor", "has_reconstructed", "possible_species", "has_props", "theoretical", "database_IDs"]}