{
  "builder_meta": null,
  "nsites": null,
  "elements": null,
  "nelements": null,
  "composition": null,
  "composition_reduced": null,
  "formula_pretty": "CePd",
  "formula_anonymous": "AB",
  "chemsys": null,
  "volume": 98.3663091644966,
  "density": 8.3236356594145,
  "density_atomic": 24.59157729112415,
  "symmetry": null,
  "property_name": null,
  "material_id": "mp-1018086",
  "deprecated": null,
  "deprecation_reasons": null,
  "last_updated": null,
  "origins": null,
  "warnings": null,
  "structure": {
    "@module": "pymatgen.core.structure",
    "@class": "Structure",
    "charge": 0,
    "lattice": {
      "matrix": [
        [-3.88023775, 1e-8, -0.0],
        [-0.0, -0.0, -4.54937007],
        [-1.94011835, -5.5723293, 0.0]
      ],
      "pbc": [true, true, true],
      "a": 3.88023775,
      "b": 4.54937007,
      "c": 5.900416344601897,
      "alpha": 90.0,
      "beta": 70.80341168811849,
      "gamma": 90.0,
      "volume": 98.3663091644966
    },
    "properties": {},
    "sites": [
      {
        "species": [{ "element": "Ce", "occu": 1 }],
        "abc": [0.13650345, 0.75, 0.7269911],
        "properties": { "magmom": 1.051 },
        "label": "Ce",
        "xyz": [-1.9401146130919225, -4.051033806004195, -3.4120275525]
      },
      {
        "species": [{ "element": "Ce", "occu": 1 }],
        "abc": [0.86349655, 0.25, 0.2730089],
        "properties": { "magmom": 1.051 },
        "label": "Ce",
        "xyz": [-3.8802414869080777, -1.5212954839958046, -1.1373425175]
      },
      {
        "species": [{ "element": "Pd", "occu": 1 }],
        "abc": [0.41261499, 0.75, 0.17477003],
        "properties": { "magmom": 0.005 },
        "label": "Pd",
        "xyz": [-1.9401188026469232, -0.9738761548047291, -3.4120275525]
      },
      {
        "species": [{ "element": "Pd", "occu": 1 }],
        "abc": [0.58738501, 0.25, 0.82522997],
        "properties": { "magmom": 0.005 },
        "label": "Pd",
        "xyz": [-3.880237297353077, -4.598453135195271, -1.1373425175]
      }
    ]
  },
  "task_ids": null,
  "uncorrected_energy_per_atom": null,
  "energy_per_atom": -27.6753803125,
  "formation_energy_per_atom": -0.7748391274999981,
  "energy_above_hull": 0.0,
  "is_stable": true,
  "equilibrium_reaction_energy_per_atom": null,
  "decomposes_to": null,
  "xas": null,
  "grain_boundaries": null,
  "band_gap": 0.0,
  "cbm": null,
  "vbm": null,
  "efermi": 6.97811483,
  "is_gap_direct": null,
  "is_metal": null,
  "es_source_calc_id": null,
  "bandstructure": null,
  "dos": null,
  "dos_energy_up": null,
  "dos_energy_down": null,
  "is_magnetic": null,
  "ordering": null,
  "total_magnetization": 2.4908532,
  "total_magnetization_normalized_vol": null,
  "total_magnetization_normalized_formula_units": null,
  "num_magnetic_sites": null,
  "num_unique_magnetic_sites": null,
  "types_of_magnetic_species": null,
  "bulk_modulus": null,
  "shear_modulus": null,
  "universal_anisotropy": null,
  "homogeneous_poisson": null,
  "e_total": null,
  "e_ionic": null,
  "e_electronic": null,
  "n": null,
  "e_ij_max": null,
  "weighted_surface_energy_EV_PER_ANG2": null,
  "weighted_surface_energy": null,
  "weighted_work_function": null,
  "surface_anisotropy": null,
  "shape_factor": null,
  "has_reconstructed": null,
  "possible_species": null,
  "has_props": null,
  "theoretical": null,
  "database_IDs": null,
  "fields_not_requested": [
    "builder_meta",
    "nsites",
    "elements",
    "nelements",
    "composition",
    "composition_reduced",
    "chemsys",
    "symmetry",
    "property_name",
    "deprecated",
    "deprecation_reasons",
    "last_updated",
    "origins",
    "warnings",
    "task_ids",
    "uncorrected_energy_per_atom",
    "equilibrium_reaction_energy_per_atom",
    "decomposes_to",
    "xas",
    "grain_boundaries",
    "cbm",
    "vbm",
    "is_gap_direct",
    "is_metal",
    "es_source_calc_id",
    "bandstructure",
    "dos",
    "dos_energy_up",
    "dos_energy_down",
    "is_magnetic",
    "ordering",
    "total_magnetization_normalized_vol",
    "total_magnetization_normalized_formula_units",
    "num_magnetic_sites",
    "num_unique_magnetic_sites",
    "types_of_magnetic_species",
    "bulk_modulus",
    "shear_modulus",
    "universal_anisotropy",
    "homogeneous_poisson",
    "e_total",
    "e_ionic",
    "e_electronic",
    "n",
    "e_ij_max",
    "weighted_surface_energy_EV_PER_ANG2",
    "weighted_surface_energy",
    "weighted_work_function",
    "surface_anisotropy",
    "shape_factor",
    "has_reconstructed",
    "possible_species",
    "has_props",
    "theoretical",
    "database_IDs"
  ]
}
