{"builder_meta": null, "nsites": null, "elements": null, "nelements": null, "composition": null, "composition_reduced": null, "formula_pretty": "CePt", "formula_anonymous": "AB", "chemsys": null, "volume": 96.62965797704241, "density": 11.520535346540537, "density_atomic": 24.157414494260603, "symmetry": null, "property_name": null, "material_id": "mp-21245", "deprecated": null, "deprecation_reasons": null, "last_updated": null, "origins": null, "warnings": null, "structure": {"@module": "pymatgen.core.structure", "@class": "Structure", "charge": 0, "lattice": {"matrix": [[3.68563375, 0.0, -1.31996317], [0.0, 4.41369226, -0.0], [0.04272371, -0.0, 5.9248327]], "pbc": [true, true, true], "a": 3.914868951739702, "b": 4.41369226, "c": 5.92498673740165, "alpha": 90.0, "beta": 109.29119334717925, "gamma": 90.0, "volume": 96.62965797704241}, "properties": {}, "sites": [{"species": [{"element": "Ce", "occu": 1}], "abc": [0.86327268, 0.25, 0.72654536], "properties": {"magmom": 0.964}, "label": "Ce", "xyz": [3.2127476381234357, 1.103423065, 3.1651715636940763]}, {"species": [{"element": "Ce", "occu": 1}], "abc": [0.13672732, 0.75, 0.27345464], "properties": {"magmom": 0.964}, "label": "Ce", "xyz": [0.5156098218765645, 3.310269195, 1.4396979663059237]}, {"species": [{"element": "Pt", "occu": 1}], "abc": [0.59170483, 0.25, 0.18341067], "properties": {"magmom": -0.006}, "label": "Pt", "xyz": [2.188643275761998, 1.103423065, 0.3056489520337978]}, {"species": [{"element": "Pt", "occu": 1}], "abc": [0.40829517, 0.75, 0.81658933], "properties": {"magmom": -0.006}, "label": "Pt", "xyz": [1.5397141842380018, 3.310269195, 4.299220577966202]}]}, "task_ids": null, "uncorrected_energy_per_atom": null, "energy_per_atom": -42.3977625875, "formation_energy_per_atom": -1.233589757499999, "energy_above_hull": 0.0, "is_stable": true, "equilibrium_reaction_energy_per_atom": null, "decomposes_to": null, "xas": null, "grain_boundaries": null, "band_gap": 0.0, "cbm": null, "vbm": null, "efermi": 7.63232846, "is_gap_direct": null, "is_metal": null, "es_source_calc_id": null, "bandstructure": null, "dos": null, "dos_energy_up": null, "dos_energy_down": null, "is_magnetic": null, "ordering": null, "total_magnetization": 2.2230078, "total_magnetization_normalized_vol": null, "total_magnetization_normalized_formula_units": null, "num_magnetic_sites": null, "num_unique_magnetic_sites": null, "types_of_magnetic_species": null, "bulk_modulus": null, "shear_modulus": null, "universal_anisotropy": null, "homogeneous_poisson": null, "e_total": null, "e_ionic": null, "e_electronic": null, "n": null, "e_ij_max": null, "weighted_surface_energy_EV_PER_ANG2": null, "weighted_surface_energy": null, "weighted_work_function": null, "surface_anisotropy": null, "shape_factor": null, "has_reconstructed": null, "possible_species": null, "has_props": null, "theoretical": null, "database_IDs": null, "fields_not_requested": ["builder_meta", "nsites", "elements", "nelements", "composition", "composition_reduced", "chemsys", "symmetry", "property_name", "deprecated", "deprecation_reasons", "last_updated", "origins", "warnings", "task_ids", "uncorrected_energy_per_atom", "equilibrium_reaction_energy_per_atom", "decomposes_to", "xas", "grain_boundaries", "cbm", "vbm", "is_gap_direct", "is_metal", "es_source_calc_id", "bandstructure", "dos", "dos_energy_up", "dos_energy_down", "is_magnetic", "ordering", "total_magnetization_normalized_vol", "total_magnetization_normalized_formula_units", "num_magnetic_sites", "num_unique_magnetic_sites", "types_of_magnetic_species", "bulk_modulus", "shear_modulus", "universal_anisotropy", "homogeneous_poisson", "e_total", "e_ionic", "e_electronic", "n", "e_ij_max", "weighted_surface_energy_EV_PER_ANG2", "weighted_surface_energy", "weighted_work_function", "surface_anisotropy", "shape_factor", "has_reconstructed", "possible_species", "has_props", "theoretical", "database_IDs"]}