{"builder_meta": null, "nsites": null, "elements": null, "nelements": null, "composition": null, "composition_reduced": null, "formula_pretty": "CePt5", "formula_anonymous": "AB5", "chemsys": null, "volume": 110.24985552715152, "density": 16.80175542490851, "density_atomic": 18.374975921191922, "symmetry": null, "property_name": null, "material_id": "mp-542777", "deprecated": null, "deprecation_reasons": null, "last_updated": null, "origins": null, "warnings": null, "structure": {"@module": "pymatgen.core.structure", "@class": "Structure", "charge": 0, "lattice": {"matrix": [[5.36853902, 1.009999999999998e-06, -0.0], [-2.68427001, 4.6492916, 0.0], [0.0, 0.0, 4.41707814]], "pbc": [true, true, true], "a": 5.368539020000095, "b": 5.368539640201603, "c": 4.41707814, "alpha": 90.0, "beta": 90.0, "gamma": 119.99999156099851, "volume": 110.24985552715152}, "properties": {}, "sites": [{"species": [{"element": "Ce", "occu": 1}], "abc": [-0.0, 0.0, 0.0], "properties": {"magmom": 0.742}, "label": "Ce", "xyz": [0.0, 0.0, 0.0]}, {"species": [{"element": "Pt", "occu": 1}], "abc": [0.333333, 0.666667, -0.0], "properties": {"magmom": -0.093}, "label": "Pt", "xyz": [-3.017603010135872e-06, 3.09952961976353, 0.0]}, {"species": [{"element": "Pt", "occu": 1}], "abc": [0.666667, 0.333333, 0.0], "properties": {"magmom": -0.093}, "label": "Pt", "xyz": [2.68427202760301, 1.5497629902364698, 0.0]}, {"species": [{"element": "Pt", "occu": 1}], "abc": [0.5, 0.0, 0.5], "properties": {"magmom": -0.063}, "label": "Pt", "xyz": [2.68426951, 5.04999999999999e-07, 2.20853907]}, {"species": [{"element": "Pt", "occu": 1}], "abc": [0.5, 0.5, 0.5], "properties": {"magmom": -0.063}, "label": "Pt", "xyz": [1.342134505, 2.324646305, 2.20853907]}, {"species": [{"element": "Pt", "occu": 1}], "abc": [-0.0, 0.5, 0.5], "properties": {"magmom": -0.063}, "label": "Pt", "xyz": [-1.342135005, 2.3246458, 2.20853907]}]}, "task_ids": null, "uncorrected_energy_per_atom": null, "energy_per_atom": -48.83745252333333, "formation_energy_per_atom": -0.7909169800000011, "energy_above_hull": 0.0, "is_stable": true, "equilibrium_reaction_energy_per_atom": null, "decomposes_to": null, "xas": null, "grain_boundaries": null, "band_gap": 0.0, "cbm": null, "vbm": null, "efermi": 7.49291921, "is_gap_direct": null, "is_metal": null, "es_source_calc_id": null, "bandstructure": null, "dos": null, "dos_energy_up": null, "dos_energy_down": null, "is_magnetic": null, "ordering": null, "total_magnetization": 0.4587012, "total_magnetization_normalized_vol": null, "total_magnetization_normalized_formula_units": null, "num_magnetic_sites": null, "num_unique_magnetic_sites": null, "types_of_magnetic_species": null, "bulk_modulus": null, "shear_modulus": null, "universal_anisotropy": null, "homogeneous_poisson": null, "e_total": null, "e_ionic": null, "e_electronic": null, "n": null, "e_ij_max": null, "weighted_surface_energy_EV_PER_ANG2": null, "weighted_surface_energy": null, "weighted_work_function": null, "surface_anisotropy": null, "shape_factor": null, "has_reconstructed": null, "possible_species": null, "has_props": null, "theoretical": null, "database_IDs": null, "fields_not_requested": ["builder_meta", "nsites", "elements", "nelements", "composition", "composition_reduced", "chemsys", "symmetry", "property_name", "deprecated", "deprecation_reasons", "last_updated", "origins", "warnings", "task_ids", "uncorrected_energy_per_atom", "equilibrium_reaction_energy_per_atom", "decomposes_to", "xas", "grain_boundaries", "cbm", "vbm", "is_gap_direct", "is_metal", "es_source_calc_id", "bandstructure", "dos", "dos_energy_up", "dos_energy_down", "is_magnetic", "ordering", "total_magnetization_normalized_vol", "total_magnetization_normalized_formula_units", "num_magnetic_sites", "num_unique_magnetic_sites", "types_of_magnetic_species", "bulk_modulus", "shear_modulus", "universal_anisotropy", "homogeneous_poisson", "e_total", "e_ionic", "e_electronic", "n", "e_ij_max", "weighted_surface_energy_EV_PER_ANG2", "weighted_surface_energy", "weighted_work_function", "surface_anisotropy", "shape_factor", "has_reconstructed", "possible_species", "has_props", "theoretical", "database_IDs"]}