{"builder_meta": null, "nsites": null, "elements": null, "nelements": null, "composition": null, "composition_reduced": null, "formula_pretty": "CePu4", "formula_anonymous": "AB4", "chemsys": null, "volume": 124.07585898512339, "density": 14.937266894759448, "density_atomic": 24.81517179702468, "symmetry": null, "property_name": null, "material_id": "mp-1227015", "deprecated": null, "deprecation_reasons": null, "last_updated": null, "origins": null, "warnings": null, "structure": {"@module": "pymatgen.core.structure", "@class": "Structure", "charge": 0, "lattice": {"matrix": [[13.26517, -1.645319, 0.0], [13.26517, 1.645319, 0.0], [13.061096, 0.0, 2.84246]], "pbc": [true, true, true], "a": 13.36681748737002, "b": 13.36681748737002, "c": 13.366817406279475, "alpha": 14.140916757094194, "beta": 14.140916757094194, "gamma": 14.140915917374429, "volume": 124.07585898512339}, "properties": {}, "sites": [{"species": [{"element": "Ce", "occu": 1}], "abc": [0.0, 0.0, 0.0], "properties": {"magmom": -0.51}, "label": "Ce", "xyz": [0.0, 0.0, 0.0]}, {"species": [{"element": "Pu", "occu": 1}], "abc": [0.597426, 0.597426, 0.597426], "properties": {"magmom": 5.085}, "label": "Pu", "xyz": [23.652953243736, 0.0, 1.69815950796]}, {"species": [{"element": "Pu", "occu": 1}], "abc": [0.199191999999999, 0.199191999999999, 0.199191999999999], "properties": {"magmom": -0.23900000000000002}, "label": "Pu", "xyz": [7.886297319711961, 0.0, 0.5661952923199972]}, {"species": [{"element": "Pu", "occu": 1}], "abc": [0.800808, 0.800808, 0.800808], "properties": {"magmom": -0.23900000000000002}, "label": "Pu", "xyz": [31.705138680287995, 0.0, 2.2762647076799998]}, {"species": [{"element": "Pu", "occu": 1}], "abc": [0.402574, 0.402574, 0.402574], "properties": {"magmom": 5.085}, "label": "Pu", "xyz": [15.938482756263998, 0.0, 1.14430049204]}]}, "task_ids": null, "uncorrected_energy_per_atom": null, "energy_per_atom": -74.54687820999999, "formation_energy_per_atom": 0.7063260630000171, "energy_above_hull": 0.706326063000005, "is_stable": false, "equilibrium_reaction_energy_per_atom": null, "decomposes_to": null, "xas": null, "grain_boundaries": null, "band_gap": 0.0, "cbm": null, "vbm": null, "efermi": 12.3930938, "is_gap_direct": null, "is_metal": null, "es_source_calc_id": null, "bandstructure": null, "dos": null, "dos_energy_up": null, "dos_energy_down": null, "is_magnetic": null, "ordering": null, "total_magnetization": 9.3815887, "total_magnetization_normalized_vol": null, "total_magnetization_normalized_formula_units": null, "num_magnetic_sites": null, "num_unique_magnetic_sites": null, "types_of_magnetic_species": null, "bulk_modulus": null, "shear_modulus": null, "universal_anisotropy": null, "homogeneous_poisson": null, "e_total": null, "e_ionic": null, "e_electronic": null, "n": null, "e_ij_max": null, "weighted_surface_energy_EV_PER_ANG2": null, "weighted_surface_energy": null, "weighted_work_function": null, "surface_anisotropy": null, "shape_factor": null, "has_reconstructed": null, "possible_species": null, "has_props": null, "theoretical": null, "database_IDs": null, "fields_not_requested": ["builder_meta", "nsites", "elements", "nelements", "composition", "composition_reduced", "chemsys", "symmetry", "property_name", "deprecated", "deprecation_reasons", "last_updated", "origins", "warnings", "task_ids", "uncorrected_energy_per_atom", "equilibrium_reaction_energy_per_atom", "decomposes_to", "xas", "grain_boundaries", "cbm", "vbm", "is_gap_direct", "is_metal", "es_source_calc_id", "bandstructure", "dos", "dos_energy_up", "dos_energy_down", "is_magnetic", "ordering", "total_magnetization_normalized_vol", "total_magnetization_normalized_formula_units", "num_magnetic_sites", "num_unique_magnetic_sites", "types_of_magnetic_species", "bulk_modulus", "shear_modulus", "universal_anisotropy", "homogeneous_poisson", "e_total", "e_ionic", "e_electronic", "n", "e_ij_max", "weighted_surface_energy_EV_PER_ANG2", "weighted_surface_energy", "weighted_work_function", "surface_anisotropy", "shape_factor", "has_reconstructed", "possible_species", "has_props", "theoretical", "database_IDs"]}