{
  "builder_meta": null,
  "nsites": null,
  "elements": null,
  "nelements": null,
  "composition": null,
  "composition_reduced": null,
  "formula_pretty": "CePu3",
  "formula_anonymous": "AB3",
  "chemsys": null,
  "volume": 205.72890022835196,
  "density": 14.078553737462192,
  "density_atomic": 25.716112528543995,
  "symmetry": null,
  "property_name": null,
  "material_id": "mp-1184000",
  "deprecated": null,
  "deprecation_reasons": null,
  "last_updated": null,
  "origins": null,
  "warnings": null,
  "structure": {
    "@module": "pymatgen.core.structure",
    "@class": "Structure",
    "charge": 0,
    "lattice": {
      "matrix": [
        [6.771678, 0.008718, 0.0],
        [-3.378292, 5.824242, 0.0],
        [0.0, 0.0, 5.212372]
      ],
      "pbc": [true, true, true],
      "a": 6.771683611865516,
      "b": 6.733101195721627,
      "c": 5.212372,
      "alpha": 90.0,
      "beta": 90.0,
      "gamma": 120.04167451750969,
      "volume": 205.72890022835196
    },
    "properties": {},
    "sites": [
      {
        "species": [{ "element": "Ce", "occu": 1 }],
        "abc": [0.333575, 0.6669600000000001, 0.750000999999999],
        "properties": { "magmom": 0.334 },
        "label": "Ce",
        "xyz": [0.005676856529999164, 3.8874445511700007, 3.909284212371995]
      },
      {
        "species": [{ "element": "Ce", "occu": 1 }],
        "abc": [0.666647, 0.333186, 0.25],
        "properties": { "magmom": 0.335 },
        "label": "Ce",
        "xyz": [3.3887192253539995, 1.946367723558, 1.303093]
      },
      {
        "species": [{ "element": "Pu", "occu": 1 }],
        "abc": [0.164068, 0.328047, 0.25],
        "properties": { "magmom": 5.25 },
        "label": "Pu",
        "xyz": [0.0027771103799998365, 1.912055460198, 1.303093]
      },
      {
        "species": [{ "element": "Pu", "occu": 1 }],
        "abc": [0.671677, 0.835784, 0.25],
        "properties": { "magmom": 5.247 },
        "label": "Pu",
        "xyz": [1.7248579630779997, 4.873663955814, 1.303093]
      },
      {
        "species": [{ "element": "Pu", "occu": 1 }],
        "abc": [0.164125, 0.835774, 0.25],
        "properties": { "magmom": 5.247 },
        "label": "Pu",
        "xyz": [-1.7120869662580003, 4.869180875058, 1.303093]
      },
      {
        "species": [{ "element": "Pu", "occu": 1 }],
        "abc": [0.835958, 0.6720600000000001, 0.750000999999999],
        "properties": { "magmom": 5.249 },
        "label": "Pu",
        "xyz": [3.390423476003999, 3.9215279603640005, 3.909284212371995]
      },
      {
        "species": [{ "element": "Pu", "occu": 1 }],
        "abc": [0.328184, 0.164134, 0.750000999999999],
        "properties": { "magmom": 5.247 },
        "label": "Pu",
        "xyz": [1.667863793624, 0.9588172445400001, 3.909284212371995]
      },
      {
        "species": [{ "element": "Pu", "occu": 1 }],
        "abc": [0.835765, 0.164054, 0.750000999999999],
        "properties": { "magmom": 5.247 },
        "label": "Pu",
        "xyz": [5.105309147901999, 0.9627763963379999, 3.909284212371995]
      }
    ]
  },
  "task_ids": null,
  "uncorrected_energy_per_atom": null,
  "energy_per_atom": -72.2771575696875,
  "formation_energy_per_atom": 0.200260733749999,
  "energy_above_hull": 0.200260733749999,
  "is_stable": false,
  "equilibrium_reaction_energy_per_atom": null,
  "decomposes_to": null,
  "xas": null,
  "grain_boundaries": null,
  "band_gap": 0.0,
  "cbm": null,
  "vbm": null,
  "efermi": 11.60858044,
  "is_gap_direct": null,
  "is_metal": null,
  "es_source_calc_id": null,
  "bandstructure": null,
  "dos": null,
  "dos_energy_up": null,
  "dos_energy_down": null,
  "is_magnetic": null,
  "ordering": null,
  "total_magnetization": 33.8122089,
  "total_magnetization_normalized_vol": null,
  "total_magnetization_normalized_formula_units": null,
  "num_magnetic_sites": null,
  "num_unique_magnetic_sites": null,
  "types_of_magnetic_species": null,
  "bulk_modulus": null,
  "shear_modulus": null,
  "universal_anisotropy": null,
  "homogeneous_poisson": null,
  "e_total": null,
  "e_ionic": null,
  "e_electronic": null,
  "n": null,
  "e_ij_max": null,
  "weighted_surface_energy_EV_PER_ANG2": null,
  "weighted_surface_energy": null,
  "weighted_work_function": null,
  "surface_anisotropy": null,
  "shape_factor": null,
  "has_reconstructed": null,
  "possible_species": null,
  "has_props": null,
  "theoretical": null,
  "database_IDs": null,
  "fields_not_requested": [
    "builder_meta",
    "nsites",
    "elements",
    "nelements",
    "composition",
    "composition_reduced",
    "chemsys",
    "symmetry",
    "property_name",
    "deprecated",
    "deprecation_reasons",
    "last_updated",
    "origins",
    "warnings",
    "task_ids",
    "uncorrected_energy_per_atom",
    "equilibrium_reaction_energy_per_atom",
    "decomposes_to",
    "xas",
    "grain_boundaries",
    "cbm",
    "vbm",
    "is_gap_direct",
    "is_metal",
    "es_source_calc_id",
    "bandstructure",
    "dos",
    "dos_energy_up",
    "dos_energy_down",
    "is_magnetic",
    "ordering",
    "total_magnetization_normalized_vol",
    "total_magnetization_normalized_formula_units",
    "num_magnetic_sites",
    "num_unique_magnetic_sites",
    "types_of_magnetic_species",
    "bulk_modulus",
    "shear_modulus",
    "universal_anisotropy",
    "homogeneous_poisson",
    "e_total",
    "e_ionic",
    "e_electronic",
    "n",
    "e_ij_max",
    "weighted_surface_energy_EV_PER_ANG2",
    "weighted_surface_energy",
    "weighted_work_function",
    "surface_anisotropy",
    "shape_factor",
    "has_reconstructed",
    "possible_species",
    "has_props",
    "theoretical",
    "database_IDs"
  ]
}
