{
  "builder_meta": null,
  "nsites": null,
  "elements": null,
  "nelements": null,
  "composition": null,
  "composition_reduced": null,
  "formula_pretty": "CeRh2",
  "formula_anonymous": "AB2",
  "chemsys": null,
  "volume": 108.40344170778317,
  "density": 10.597916240338252,
  "density_atomic": 18.06724028463053,
  "symmetry": null,
  "property_name": null,
  "material_id": "mp-951",
  "deprecated": null,
  "deprecation_reasons": null,
  "last_updated": null,
  "origins": null,
  "warnings": null,
  "structure": {
    "@module": "pymatgen.core.structure",
    "@class": "Structure",
    "charge": 0,
    "lattice": {
      "matrix": [
        [4.6350031, 2.018e-5, 2.67604603],
        [1.54501906, 4.36986531, 2.67604784],
        [-1.1400000000000003e-5, -5.35e-6, 5.35210898]
      ],
      "pbc": [true, true, true],
      "a": 5.352053446304101,
      "b": 5.352012590163942,
      "c": 5.3521089800148145,
      "alpha": 59.99958111531014,
      "beta": 59.9998833782606,
      "gamma": 59.99918051504391,
      "volume": 108.40344170778319
    },
    "properties": {},
    "sites": [
      {
        "species": [{ "element": "Ce", "occu": 1 }],
        "abc": [0.12499277, 0.12498871, 0.1250132],
        "properties": { "magmom": 0.79 },
        "label": "Ce",
        "xyz": [0.7724503905119195, 0.5461856815041287, 1.3380464436956254]
      },
      {
        "species": [{ "element": "Ce", "occu": 1 }],
        "abc": [0.87500723, 0.87501129, 0.8749868],
        "properties": { "magmom": 0.79 },
        "label": "Ce",
        "xyz": [5.40756036948808, 3.823694458495871, 9.366156406304373]
      },
      {
        "species": [{ "element": "Rh", "occu": 1 }],
        "abc": [0.5, -0.0, 0.5],
        "properties": { "magmom": -0.07 },
        "label": "Rh",
        "xyz": [2.31749585, 7.415e-6, 4.0140775049999995]
      },
      {
        "species": [{ "element": "Rh", "occu": 1 }],
        "abc": [0.0, 0.5, 0.5],
        "properties": { "magmom": -0.07 },
        "label": "Rh",
        "xyz": [0.77250383, 2.1849299799999997, 4.01407841]
      },
      {
        "species": [{ "element": "Rh", "occu": 1 }],
        "abc": [0.5, 0.5, 0.5],
        "properties": { "magmom": -0.07 },
        "label": "Rh",
        "xyz": [3.09000538, 2.1849400699999997, 5.352101425]
      },
      {
        "species": [{ "element": "Rh", "occu": 1 }],
        "abc": [0.5, 0.5, -0.0],
        "properties": { "magmom": -0.07 },
        "label": "Rh",
        "xyz": [3.09001108, 2.184942745, 2.676046935]
      }
    ]
  },
  "task_ids": null,
  "uncorrected_energy_per_atom": null,
  "energy_per_atom": -27.133601690000003,
  "formation_energy_per_atom": -0.7625730166666691,
  "energy_above_hull": 0.0,
  "is_stable": true,
  "equilibrium_reaction_energy_per_atom": null,
  "decomposes_to": null,
  "xas": null,
  "grain_boundaries": null,
  "band_gap": 0.0,
  "cbm": null,
  "vbm": null,
  "efermi": 8.15783511,
  "is_gap_direct": null,
  "is_metal": null,
  "es_source_calc_id": null,
  "bandstructure": null,
  "dos": null,
  "dos_energy_up": null,
  "dos_energy_down": null,
  "is_magnetic": null,
  "ordering": null,
  "total_magnetization": 1.4801014,
  "total_magnetization_normalized_vol": null,
  "total_magnetization_normalized_formula_units": null,
  "num_magnetic_sites": null,
  "num_unique_magnetic_sites": null,
  "types_of_magnetic_species": null,
  "bulk_modulus": null,
  "shear_modulus": null,
  "universal_anisotropy": null,
  "homogeneous_poisson": null,
  "e_total": null,
  "e_ionic": null,
  "e_electronic": null,
  "n": null,
  "e_ij_max": null,
  "weighted_surface_energy_EV_PER_ANG2": null,
  "weighted_surface_energy": null,
  "weighted_work_function": null,
  "surface_anisotropy": null,
  "shape_factor": null,
  "has_reconstructed": null,
  "possible_species": null,
  "has_props": null,
  "theoretical": null,
  "database_IDs": null,
  "fields_not_requested": [
    "builder_meta",
    "nsites",
    "elements",
    "nelements",
    "composition",
    "composition_reduced",
    "chemsys",
    "symmetry",
    "property_name",
    "deprecated",
    "deprecation_reasons",
    "last_updated",
    "origins",
    "warnings",
    "task_ids",
    "uncorrected_energy_per_atom",
    "equilibrium_reaction_energy_per_atom",
    "decomposes_to",
    "xas",
    "grain_boundaries",
    "cbm",
    "vbm",
    "is_gap_direct",
    "is_metal",
    "es_source_calc_id",
    "bandstructure",
    "dos",
    "dos_energy_up",
    "dos_energy_down",
    "is_magnetic",
    "ordering",
    "total_magnetization_normalized_vol",
    "total_magnetization_normalized_formula_units",
    "num_magnetic_sites",
    "num_unique_magnetic_sites",
    "types_of_magnetic_species",
    "bulk_modulus",
    "shear_modulus",
    "universal_anisotropy",
    "homogeneous_poisson",
    "e_total",
    "e_ionic",
    "e_electronic",
    "n",
    "e_ij_max",
    "weighted_surface_energy_EV_PER_ANG2",
    "weighted_surface_energy",
    "weighted_work_function",
    "surface_anisotropy",
    "shape_factor",
    "has_reconstructed",
    "possible_species",
    "has_props",
    "theoretical",
    "database_IDs"
  ]
}
