{
  "builder_meta": null,
  "nsites": null,
  "elements": null,
  "nelements": null,
  "composition": null,
  "composition_reduced": null,
  "formula_pretty": "CeRh",
  "formula_anonymous": "AB",
  "chemsys": null,
  "volume": 86.94708281452357,
  "density": 9.2825815820545,
  "density_atomic": 21.736770703630892,
  "symmetry": null,
  "property_name": null,
  "material_id": "mp-1018117",
  "deprecated": null,
  "deprecation_reasons": null,
  "last_updated": null,
  "origins": null,
  "warnings": null,
  "structure": {
    "@module": "pymatgen.core.structure",
    "@class": "Structure",
    "charge": 0,
    "lattice": {
      "matrix": [
        [-3.8176987000000002, -0.0, -0.0],
        [0.0, -0.0, -3.95619354],
        [-1.9088493500000001, -5.75672967, -0.0]
      ],
      "pbc": [true, true, true],
      "a": 3.8176987000000002,
      "b": 3.95619354,
      "c": 6.064951964727646,
      "alpha": 90.0,
      "beta": 71.65521617831074,
      "gamma": 90.0,
      "volume": 86.94708281452358
    },
    "properties": {},
    "sites": [
      {
        "species": [{ "element": "Ce", "occu": 1 }],
        "abc": [0.13764146, 0.75, 0.72471909],
        "properties": { "magmom": 0.433 },
        "label": "Ce",
        "xyz": [-1.9088531867871934, -4.1720118878184005, -2.967145155]
      },
      {
        "species": [{ "element": "Ce", "occu": 1 }],
        "abc": [0.86235854, 0.25, 0.27528091],
        "properties": { "magmom": 0.433 },
        "label": "Ce",
        "xyz": [-3.817694863212807, -1.5847177821815996, -0.989048385]
      },
      {
        "species": [{ "element": "Rh", "occu": 1 }],
        "abc": [0.40413314, 0.75, 0.19173372],
        "properties": { "magmom": -0.063 },
        "label": "Rh",
        "xyz": [-1.9088493500000001, -1.1037591946634724, -2.967145155]
      },
      {
        "species": [{ "element": "Rh", "occu": 1 }],
        "abc": [0.59586686, 0.25, 0.80826628],
        "properties": { "magmom": -0.063 },
        "label": "Rh",
        "xyz": [-3.8176987000000002, -4.652970475336528, -0.989048385]
      }
    ]
  },
  "task_ids": null,
  "uncorrected_energy_per_atom": null,
  "energy_per_atom": -28.293117615,
  "formation_energy_per_atom": -0.804688919999996,
  "energy_above_hull": 0.0,
  "is_stable": true,
  "equilibrium_reaction_energy_per_atom": null,
  "decomposes_to": null,
  "xas": null,
  "grain_boundaries": null,
  "band_gap": 0.0,
  "cbm": null,
  "vbm": null,
  "efermi": 7.76152222,
  "is_gap_direct": null,
  "is_metal": null,
  "es_source_calc_id": null,
  "bandstructure": null,
  "dos": null,
  "dos_energy_up": null,
  "dos_energy_down": null,
  "is_magnetic": null,
  "ordering": null,
  "total_magnetization": 0.8769081,
  "total_magnetization_normalized_vol": null,
  "total_magnetization_normalized_formula_units": null,
  "num_magnetic_sites": null,
  "num_unique_magnetic_sites": null,
  "types_of_magnetic_species": null,
  "bulk_modulus": null,
  "shear_modulus": null,
  "universal_anisotropy": null,
  "homogeneous_poisson": null,
  "e_total": null,
  "e_ionic": null,
  "e_electronic": null,
  "n": null,
  "e_ij_max": null,
  "weighted_surface_energy_EV_PER_ANG2": null,
  "weighted_surface_energy": null,
  "weighted_work_function": null,
  "surface_anisotropy": null,
  "shape_factor": null,
  "has_reconstructed": null,
  "possible_species": null,
  "has_props": null,
  "theoretical": null,
  "database_IDs": null,
  "fields_not_requested": [
    "builder_meta",
    "nsites",
    "elements",
    "nelements",
    "composition",
    "composition_reduced",
    "chemsys",
    "symmetry",
    "property_name",
    "deprecated",
    "deprecation_reasons",
    "last_updated",
    "origins",
    "warnings",
    "task_ids",
    "uncorrected_energy_per_atom",
    "equilibrium_reaction_energy_per_atom",
    "decomposes_to",
    "xas",
    "grain_boundaries",
    "cbm",
    "vbm",
    "is_gap_direct",
    "is_metal",
    "es_source_calc_id",
    "bandstructure",
    "dos",
    "dos_energy_up",
    "dos_energy_down",
    "is_magnetic",
    "ordering",
    "total_magnetization_normalized_vol",
    "total_magnetization_normalized_formula_units",
    "num_magnetic_sites",
    "num_unique_magnetic_sites",
    "types_of_magnetic_species",
    "bulk_modulus",
    "shear_modulus",
    "universal_anisotropy",
    "homogeneous_poisson",
    "e_total",
    "e_ionic",
    "e_electronic",
    "n",
    "e_ij_max",
    "weighted_surface_energy_EV_PER_ANG2",
    "weighted_surface_energy",
    "weighted_work_function",
    "surface_anisotropy",
    "shape_factor",
    "has_reconstructed",
    "possible_species",
    "has_props",
    "theoretical",
    "database_IDs"
  ]
}
