{"builder_meta": null, "nsites": null, "elements": null, "nelements": null, "composition": null, "composition_reduced": null, "formula_pretty": "CeRu2", "formula_anonymous": "AB2", "chemsys": null, "volume": 106.68372817777177, "density": 10.654473151354763, "density_atomic": 17.780621362961963, "symmetry": null, "property_name": null, "material_id": "mp-607", "deprecated": null, "deprecation_reasons": null, "last_updated": null, "origins": null, "warnings": null, "structure": {"@module": "pymatgen.core.structure", "@class": "Structure", "charge": 0, "lattice": {"matrix": [[4.61036185, -3.07e-06, 2.66179117], [1.53678488, 4.34669376, 2.66179118], [-1.02e-06, 0.0, 5.32358236]], "pbc": [true, true, true], "a": 5.323586067739942, "b": 5.323587765459056, "c": 5.323582360000097, "alpha": 60.000037247749766, "beta": 60.000034141340784, "gamma": 60.00008294723007, "volume": 106.68372817777177}, "properties": {}, "sites": [{"species": [{"element": "Ce", "occu": 1}], "abc": [0.125001, 0.125001, 0.124999], "properties": {"magmom": -0.0}, "label": "Ce", "xyz": [0.76839936089775, 0.54334068294069, 1.3308955887499898]}, {"species": [{"element": "Ce", "occu": 1}], "abc": [0.874999, 0.874999, 0.875000999999999], "properties": {"magmom": -0.0}, "label": "Ce", "xyz": [5.37874634910225, 3.80335000705931, 9.316269121250004]}, {"species": [{"element": "Ru", "occu": 1}], "abc": [0.5, -0.0, 0.5], "properties": {"magmom": 0.0}, "label": "Ru", "xyz": [2.305180415, -1.535e-06, 3.9926867649999997]}, {"species": [{"element": "Ru", "occu": 1}], "abc": [-0.0, 0.5, 0.5], "properties": {"magmom": 0.0}, "label": "Ru", "xyz": [0.76839193, 2.17334688, 3.9926867699999997]}, {"species": [{"element": "Ru", "occu": 1}], "abc": [0.5, 0.5, 0.5], "properties": {"magmom": 0.0}, "label": "Ru", "xyz": [3.073572855, 2.173345345, 5.323582354999999]}, {"species": [{"element": "Ru", "occu": 1}], "abc": [0.5, 0.5, 0.0], "properties": {"magmom": 0.0}, "label": "Ru", "xyz": [3.073573365, 2.173345345, 2.661791175]}]}, "task_ids": null, "uncorrected_energy_per_atom": null, "energy_per_atom": -8.44402269833333, "formation_energy_per_atom": -0.282104381666661, "energy_above_hull": 0.0, "is_stable": true, "equilibrium_reaction_energy_per_atom": null, "decomposes_to": null, "xas": null, "grain_boundaries": null, "band_gap": 0.0, "cbm": null, "vbm": null, "efermi": 8.51216981, "is_gap_direct": null, "is_metal": null, "es_source_calc_id": null, "bandstructure": null, "dos": null, "dos_energy_up": null, "dos_energy_down": null, "is_magnetic": null, "ordering": null, "total_magnetization": 0.0007366, "total_magnetization_normalized_vol": null, "total_magnetization_normalized_formula_units": null, "num_magnetic_sites": null, "num_unique_magnetic_sites": null, "types_of_magnetic_species": null, "bulk_modulus": null, "shear_modulus": null, "universal_anisotropy": null, "homogeneous_poisson": null, "e_total": null, "e_ionic": null, "e_electronic": null, "n": null, "e_ij_max": null, "weighted_surface_energy_EV_PER_ANG2": null, "weighted_surface_energy": null, "weighted_work_function": null, "surface_anisotropy": null, "shape_factor": null, "has_reconstructed": null, "possible_species": null, "has_props": null, "theoretical": null, "database_IDs": null, "fields_not_requested": ["builder_meta", "nsites", "elements", "nelements", "composition", "composition_reduced", "chemsys", "symmetry", "property_name", "deprecated", "deprecation_reasons", "last_updated", "origins", "warnings", "task_ids", "uncorrected_energy_per_atom", "equilibrium_reaction_energy_per_atom", "decomposes_to", "xas", "grain_boundaries", "cbm", "vbm", "is_gap_direct", "is_metal", "es_source_calc_id", "bandstructure", "dos", "dos_energy_up", "dos_energy_down", "is_magnetic", "ordering", "total_magnetization_normalized_vol", "total_magnetization_normalized_formula_units", "num_magnetic_sites", "num_unique_magnetic_sites", "types_of_magnetic_species", "bulk_modulus", "shear_modulus", "universal_anisotropy", "homogeneous_poisson", "e_total", "e_ionic", "e_electronic", "n", "e_ij_max", "weighted_surface_energy_EV_PER_ANG2", "weighted_surface_energy", "weighted_work_function", "surface_anisotropy", "shape_factor", "has_reconstructed", "possible_species", "has_props", "theoretical", "database_IDs"]}