{
  "builder_meta": null,
  "nsites": null,
  "elements": null,
  "nelements": null,
  "composition": null,
  "composition_reduced": null,
  "formula_pretty": "CeS2",
  "formula_anonymous": "AB2",
  "chemsys": null,
  "volume": 539.5654817885766,
  "density": 5.028616153465198,
  "density_atomic": 22.481895074524022,
  "symmetry": null,
  "property_name": null,
  "material_id": "mp-20594",
  "deprecated": null,
  "deprecation_reasons": null,
  "last_updated": null,
  "origins": null,
  "warnings": null,
  "structure": {
    "@module": "pymatgen.core.structure",
    "@class": "Structure",
    "charge": 0,
    "lattice": {
      "matrix": [
        [4.105564, 0.00018862, 0.0],
        [0.00037044, 8.07099425, 0.0],
        [0.0, 0.0, 16.28337013]
      ],
      "pbc": [true, true, true],
      "a": 4.10556400433284,
      "b": 8.070994258501171,
      "c": 16.28337013,
      "alpha": 90.0,
      "beta": 90.0,
      "gamma": 89.99473794291335,
      "volume": 539.5654817885766
    },
    "properties": {},
    "sites": [
      {
        "species": [{ "element": "Ce", "occu": 1 }],
        "abc": [0.78005844, 0.8707487700000001, 0.86439362],
        "properties": { "magmom": 0.972 },
        "label": "Ce",
        "xyz": [3.2029024093345186, 7.027955450487526, 14.07524125247057]
      },
      {
        "species": [{ "element": "Ce", "occu": 1 }],
        "abc": [0.21994156, 0.12925123, 0.36439362000000003],
        "properties": { "magmom": 0.972 },
        "label": "Ce",
        "xyz": [0.9030320306654813, 1.0432274195124747, 5.933556187470572]
      },
      {
        "species": [{ "element": "Ce", "occu": 1 }],
        "abc": [0.71990179, 0.37075067, 0.86439076],
        "properties": { "magmom": 0.972 },
        "label": "Ce",
        "xyz": [2.9557402134377546, 2.9924623136292774, 14.075194682032]
      },
      {
        "species": [{ "element": "Ce", "occu": 1 }],
        "abc": [0.28009821, 0.62925033, 0.36439076],
        "properties": { "magmom": 0.972 },
        "label": "Ce",
        "xyz": [1.1501942269326855, 5.078728627364972, 5.933509617031999]
      },
      {
        "species": [{ "element": "Ce", "occu": 1 }],
        "abc": [0.280191099999999, 0.62849412, 0.64128015],
        "properties": { "magmom": 0.972 },
        "label": "Ce",
        "xyz": [1.150575312642209, 5.072625278324093, 10.44220203947192]
      },
      {
        "species": [{ "element": "Ce", "occu": 1 }],
        "abc": [0.7198089, 0.37150588, 0.14128015],
        "properties": { "magmom": 0.972 },
        "label": "Ce",
        "xyz": [2.955359127357787, 2.998557591675908, 2.3005169744719196]
      },
      {
        "species": [{ "element": "Ce", "occu": 1 }],
        "abc": [0.21980835, 0.12849518000000001, 0.64127693],
        "properties": { "magmom": 0.972 },
        "label": "Ce",
        "xyz": [0.9024848484138793, 1.0371253191836922, 10.4421496070201]
      },
      {
        "species": [{ "element": "Ce", "occu": 1 }],
        "abc": [0.78019165, 0.8715048200000001, 0.14127693],
        "properties": { "magmom": 0.972 },
        "label": "Ce",
        "xyz": [3.203449591586121, 7.034057550816309, 2.300464542020101]
      },
      {
        "species": [{ "element": "S", "occu": 1 }],
        "abc": [0.83955656, 0.59989978, 0.50283372],
        "properties": { "magmom": -0.01 },
        "label": "S",
        "xyz": [3.4470754155743433, 4.841946032114612, 8.187827576604786]
      },
      {
        "species": [{ "element": "S", "occu": 1 }],
        "abc": [0.16044344, 0.40010022, 0.00283372],
        "properties": { "magmom": -0.01 },
        "label": "S",
        "xyz": [0.6588590244256568, 3.2292368378853875, 0.0461425116047836]
      },
      {
        "species": [{ "element": "S", "occu": 1 }],
        "abc": [0.66047724, 0.09994043, 0.50283867],
        "properties": { "magmom": -0.01 },
        "label": "S",
        "xyz": [2.711668601296249, 0.8067432150895363, 8.187908179286929]
      },
      {
        "species": [{ "element": "S", "occu": 1 }],
        "abc": [0.33952276000000003, 0.90005957, 0.00283867],
        "properties": { "magmom": -0.01 },
        "label": "S",
        "xyz": [1.394265838703751, 7.264439654910464, 0.04622311428692711]
      },
      {
        "species": [{ "element": "S", "occu": 1 }],
        "abc": [0.35429632, 0.89247473, 0.502814499999999],
        "properties": { "magmom": -0.008 },
        "label": "S",
        "xyz": [1.4549168250634612, 7.203225241472181, 8.18751461023087]
      },
      {
        "species": [{ "element": "S", "occu": 1 }],
        "abc": [0.64570368, 0.10752527, 0.002814499999999],
        "properties": { "magmom": -0.008 },
        "label": "S",
        "xyz": [2.651017614936539, 0.8679576285278192, 0.04582954523086872]
      },
      {
        "species": [{ "element": "S", "occu": 1 }],
        "abc": [0.14564782, 0.39248834, 0.50281382],
        "properties": { "magmom": -0.008 },
        "label": "S",
        "xyz": [0.5981118398511496, 3.1677986074238533, 8.187503537539197]
      },
      {
        "species": [{ "element": "S", "occu": 1 }],
        "abc": [0.85435218, 0.60751166, 0.00281382],
        "properties": { "magmom": -0.008 },
        "label": "S",
        "xyz": [3.5078226001488506, 4.903384262576147, 0.0458184725391966]
      },
      {
        "species": [{ "element": "S", "occu": 1 }],
        "abc": [0.759394799999999, 0.874265099999999, 0.31990363],
        "properties": { "magmom": -0.021 },
        "label": "S",
        "xyz": [3.11806781543084, 7.056331832122844, 5.2091092132205725]
      },
      {
        "species": [{ "element": "S", "occu": 1 }],
        "abc": [0.2406052, 0.125734899999999, 0.81990363],
        "properties": { "magmom": -0.021 },
        "label": "S",
        "xyz": [0.9878666245691561, 1.014851037877141, 13.350794278220572]
      },
      {
        "species": [{ "element": "S", "occu": 1 }],
        "abc": [0.74057655, 0.37425168000000003, 0.319900199999999],
        "properties": { "magmom": -0.021 },
        "label": "S",
        "xyz": [3.0406230607165394, 3.020722844881701, 5.20905336126101]
      },
      {
        "species": [{ "element": "S", "occu": 1 }],
        "abc": [0.25942345, 0.62574832, 0.8199002],
        "properties": { "magmom": -0.021 },
        "label": "S",
        "xyz": [1.065311379283461, 5.0504600251183, 13.350738426261026]
      },
      {
        "species": [{ "element": "S", "occu": 1 }],
        "abc": [0.25954867, 0.62643108, 0.18577976000000002],
        "properties": { "magmom": -0.021 },
        "label": "S",
        "xyz": [1.0658257309291552, 5.055970600771426, 3.0251205947425692]
      },
      {
        "species": [{ "element": "S", "occu": 1 }],
        "abc": [0.74045133, 0.37356892, 0.68577976],
        "properties": { "magmom": -0.021 },
        "label": "S",
        "xyz": [3.0401087090708447, 3.015212269228575, 11.16680565974257]
      },
      {
        "species": [{ "element": "S", "occu": 1 }],
        "abc": [0.24048305, 0.12642789000000001, 0.18577424],
        "properties": { "magmom": -0.021 },
        "label": "S",
        "xyz": [0.9873653866377716, 1.0204441331425236, 3.0250307105394514]
      },
      {
        "species": [{ "element": "S", "occu": 1 }],
        "abc": [0.75951695, 0.87357211, 0.68577424],
        "properties": { "magmom": -0.021 },
        "label": "S",
        "xyz": [3.118569053362229, 7.050738736857476, 11.166715775539451]
      }
    ]
  },
  "task_ids": null,
  "uncorrected_energy_per_atom": null,
  "energy_per_atom": -17.685675884166667,
  "formation_energy_per_atom": -2.048800242708331,
  "energy_above_hull": 0.0,
  "is_stable": true,
  "equilibrium_reaction_energy_per_atom": null,
  "decomposes_to": null,
  "xas": null,
  "grain_boundaries": null,
  "band_gap": 0.0,
  "cbm": null,
  "vbm": null,
  "efermi": 7.63065218,
  "is_gap_direct": null,
  "is_metal": null,
  "es_source_calc_id": null,
  "bandstructure": null,
  "dos": null,
  "dos_energy_up": null,
  "dos_energy_down": null,
  "is_magnetic": null,
  "ordering": null,
  "total_magnetization": 7.9998465,
  "total_magnetization_normalized_vol": null,
  "total_magnetization_normalized_formula_units": null,
  "num_magnetic_sites": null,
  "num_unique_magnetic_sites": null,
  "types_of_magnetic_species": null,
  "bulk_modulus": null,
  "shear_modulus": null,
  "universal_anisotropy": null,
  "homogeneous_poisson": null,
  "e_total": null,
  "e_ionic": null,
  "e_electronic": null,
  "n": null,
  "e_ij_max": null,
  "weighted_surface_energy_EV_PER_ANG2": null,
  "weighted_surface_energy": null,
  "weighted_work_function": null,
  "surface_anisotropy": null,
  "shape_factor": null,
  "has_reconstructed": null,
  "possible_species": null,
  "has_props": null,
  "theoretical": null,
  "database_IDs": null,
  "fields_not_requested": [
    "builder_meta",
    "nsites",
    "elements",
    "nelements",
    "composition",
    "composition_reduced",
    "chemsys",
    "symmetry",
    "property_name",
    "deprecated",
    "deprecation_reasons",
    "last_updated",
    "origins",
    "warnings",
    "task_ids",
    "uncorrected_energy_per_atom",
    "equilibrium_reaction_energy_per_atom",
    "decomposes_to",
    "xas",
    "grain_boundaries",
    "cbm",
    "vbm",
    "is_gap_direct",
    "is_metal",
    "es_source_calc_id",
    "bandstructure",
    "dos",
    "dos_energy_up",
    "dos_energy_down",
    "is_magnetic",
    "ordering",
    "total_magnetization_normalized_vol",
    "total_magnetization_normalized_formula_units",
    "num_magnetic_sites",
    "num_unique_magnetic_sites",
    "types_of_magnetic_species",
    "bulk_modulus",
    "shear_modulus",
    "universal_anisotropy",
    "homogeneous_poisson",
    "e_total",
    "e_ionic",
    "e_electronic",
    "n",
    "e_ij_max",
    "weighted_surface_energy_EV_PER_ANG2",
    "weighted_surface_energy",
    "weighted_work_function",
    "surface_anisotropy",
    "shape_factor",
    "has_reconstructed",
    "possible_species",
    "has_props",
    "theoretical",
    "database_IDs"
  ]
}
