{
  "builder_meta": null,
  "nsites": null,
  "elements": null,
  "nelements": null,
  "composition": null,
  "composition_reduced": null,
  "formula_pretty": "CeSe2",
  "formula_anonymous": "AB2",
  "chemsys": null,
  "volume": 639.6265412825892,
  "density": 6.189867234224714,
  "density_atomic": 26.65110588677455,
  "symmetry": null,
  "property_name": null,
  "material_id": "mp-1096430",
  "deprecated": null,
  "deprecation_reasons": null,
  "last_updated": null,
  "origins": null,
  "warnings": null,
  "structure": {
    "@module": "pymatgen.core.structure",
    "@class": "Structure",
    "charge": 0,
    "lattice": {
      "matrix": [
        [0.0, -6.88403647, 0.0],
        [-5.64078309, 0.0, 0.0],
        [0.0, 0.0, -16.47190824]
      ],
      "pbc": [true, true, true],
      "a": 6.88403647,
      "b": 5.64078309,
      "c": 16.47190824,
      "alpha": 90.0,
      "beta": 90.0,
      "gamma": 90.0,
      "volume": 639.6265412825892
    },
    "properties": {},
    "sites": [
      {
        "species": [{ "element": "Ce", "occu": 1 }],
        "abc": [0.0014736, 0.5, 0.46037103],
        "properties": { "magmom": 0.343 },
        "label": "Ce",
        "xyz": [-2.820391545, -0.010144316142192, -7.583189362514288]
      },
      {
        "species": [{ "element": "Ce", "occu": 1 }],
        "abc": [0.998526399999999, 0.5, 0.96037103],
        "properties": { "magmom": 0.343 },
        "label": "Ce",
        "xyz": [-2.820391545, -6.873892153857801, -15.819143482514288]
      },
      {
        "species": [{ "element": "Ce", "occu": 1 }],
        "abc": [0.49115053000000003, 0.5, 0.20049591],
        "properties": { "magmom": 0.629 },
        "label": "Ce",
        "xyz": [-2.820391545, -3.381098160779829, -3.3025502320152986]
      },
      {
        "species": [{ "element": "Ce", "occu": 1 }],
        "abc": [0.50884947, 0.5, 0.70049591],
        "properties": { "magmom": 0.629 },
        "label": "Ce",
        "xyz": [-2.820391545, -3.502938309220171, -11.5385043520153]
      },
      {
        "species": [{ "element": "Ce", "occu": 1 }],
        "abc": [0.00366572, 0.0, 0.7650062],
        "properties": { "magmom": -0.612 },
        "label": "Ce",
        "xyz": [0.0, -0.0252349501688084, -12.601111929431088]
      },
      {
        "species": [{ "element": "Ce", "occu": 1 }],
        "abc": [0.99633428, 0.0, 0.265006199999999],
        "properties": { "magmom": -0.612 },
        "label": "Ce",
        "xyz": [0.0, -6.858801519831191, -4.365157809431072]
      },
      {
        "species": [{ "element": "Ce", "occu": 1 }],
        "abc": [0.47165256, 0.0, 0.00667695],
        "properties": { "magmom": -0.23500000000000001 },
        "label": "Ce",
        "xyz": [0.0, -3.246873424208863, -0.109982107723068]
      },
      {
        "species": [{ "element": "Ce", "occu": 1 }],
        "abc": [0.52834744, 0.0, 0.50667695],
        "properties": { "magmom": -0.23500000000000001 },
        "label": "Ce",
        "xyz": [0.0, -3.637163045791137, -8.345936227723069]
      },
      {
        "species": [{ "element": "Se", "occu": 1 }],
        "abc": [0.61761512, 0.0, 0.17306767],
        "properties": { "magmom": -0.008 },
        "label": "Se",
        "xyz": [0.0, -4.251685010503426, -2.850754779550601]
      },
      {
        "species": [{ "element": "Se", "occu": 1 }],
        "abc": [0.38238488, 0.0, 0.67306767],
        "properties": { "magmom": -0.008 },
        "label": "Se",
        "xyz": [0.0, -2.6323514594965736, -11.086708899550601]
      },
      {
        "species": [{ "element": "Se", "occu": 1 }],
        "abc": [0.13880372, 0.0, 0.43482475],
        "properties": { "magmom": 0.002 },
        "label": "Se",
        "xyz": [0.0, -0.9555298706516683, -7.16239338248094]
      },
      {
        "species": [{ "element": "Se", "occu": 1 }],
        "abc": [0.86119628, 0.0, 0.93482475],
        "properties": { "magmom": 0.002 },
        "label": "Se",
        "xyz": [0.0, -5.9285065993483315, -15.398347502480942]
      },
      {
        "species": [{ "element": "Se", "occu": 1 }],
        "abc": [0.60534264, 0.5, 0.029014210000000002],
        "properties": { "magmom": -0.005 },
        "label": "Se",
        "xyz": [-2.820391545, -4.167200810606081, -0.47791940477609046]
      },
      {
        "species": [{ "element": "Se", "occu": 1 }],
        "abc": [0.39465736, 0.5, 0.52901421],
        "properties": { "magmom": -0.005 },
        "label": "Se",
        "xyz": [-2.820391545, -2.716835659393919, -8.713873524776092]
      },
      {
        "species": [{ "element": "Se", "occu": 1 }],
        "abc": [0.13265041, 0.5, 0.29389705],
        "properties": { "magmom": 0.004 },
        "label": "Se",
        "xyz": [-2.820391545, -0.9131702602004527, -4.841045239606692]
      },
      {
        "species": [{ "element": "Se", "occu": 1 }],
        "abc": [0.86734959, 0.5, 0.79389705],
        "properties": { "magmom": 0.004 },
        "label": "Se",
        "xyz": [-2.820391545, -5.9708662097995475, -13.076999359606694]
      },
      {
        "species": [{ "element": "Se", "occu": 1 }],
        "abc": [0.67902499, 0.74563, 0.36052684],
        "properties": { "magmom": 0.0 },
        "label": "Se",
        "xyz": [-4.2059370953967, -4.674432795201385, -5.938565026537162]
      },
      {
        "species": [{ "element": "Se", "occu": 1 }],
        "abc": [0.67902499, 0.25437000000000004, 0.36052684],
        "properties": { "magmom": 0.0 },
        "label": "Se",
        "xyz": [-1.4348459946033003, -4.674432795201385, -5.938565026537162]
      },
      {
        "species": [{ "element": "Se", "occu": 1 }],
        "abc": [0.32097501, 0.25437000000000004, 0.86052684],
        "properties": { "magmom": 0.0 },
        "label": "Se",
        "xyz": [-1.4348459946033003, -2.2096036747986147, -14.174519146537163]
      },
      {
        "species": [{ "element": "Se", "occu": 1 }],
        "abc": [0.32097501, 0.74563, 0.86052684],
        "properties": { "magmom": 0.0 },
        "label": "Se",
        "xyz": [-4.2059370953967, -2.2096036747986147, -14.174519146537163]
      },
      {
        "species": [{ "element": "Se", "occu": 1 }],
        "abc": [0.15589852, 0.75319755, 0.10604628],
        "properties": { "magmom": -0.002 },
        "label": "Se",
        "xyz": [-4.24862400346943, -1.0732110972990245, -1.7467845933533475]
      },
      {
        "species": [{ "element": "Se", "occu": 1 }],
        "abc": [0.15589852, 0.24680245, 0.10604628],
        "properties": { "magmom": -0.002 },
        "label": "Se",
        "xyz": [-1.3921590865305706, -1.0732110972990245, -1.7467845933533475]
      },
      {
        "species": [{ "element": "Se", "occu": 1 }],
        "abc": [0.8441014800000001, 0.24680245, 0.60604628],
        "properties": { "magmom": -0.002 },
        "label": "Se",
        "xyz": [-1.3921590865305706, -5.810825372700976, -9.98273871335335]
      },
      {
        "species": [{ "element": "Se", "occu": 1 }],
        "abc": [0.8441014800000001, 0.75319755, 0.60604628],
        "properties": { "magmom": -0.002 },
        "label": "Se",
        "xyz": [-4.24862400346943, -5.810825372700976, -9.98273871335335]
      }
    ]
  },
  "task_ids": null,
  "uncorrected_energy_per_atom": null,
  "energy_per_atom": -6.24871907125,
  "formation_energy_per_atom": -1.939128129479165,
  "energy_above_hull": 0.0,
  "is_stable": true,
  "equilibrium_reaction_energy_per_atom": null,
  "decomposes_to": null,
  "xas": null,
  "grain_boundaries": null,
  "band_gap": 0.0,
  "cbm": null,
  "vbm": null,
  "efermi": 5.31880575,
  "is_gap_direct": null,
  "is_metal": null,
  "es_source_calc_id": null,
  "bandstructure": null,
  "dos": null,
  "dos_energy_up": null,
  "dos_energy_down": null,
  "is_magnetic": null,
  "ordering": null,
  "total_magnetization": 0.197565699999999,
  "total_magnetization_normalized_vol": null,
  "total_magnetization_normalized_formula_units": null,
  "num_magnetic_sites": null,
  "num_unique_magnetic_sites": null,
  "types_of_magnetic_species": null,
  "bulk_modulus": null,
  "shear_modulus": null,
  "universal_anisotropy": null,
  "homogeneous_poisson": null,
  "e_total": null,
  "e_ionic": null,
  "e_electronic": null,
  "n": null,
  "e_ij_max": null,
  "weighted_surface_energy_EV_PER_ANG2": null,
  "weighted_surface_energy": null,
  "weighted_work_function": null,
  "surface_anisotropy": null,
  "shape_factor": null,
  "has_reconstructed": null,
  "possible_species": null,
  "has_props": null,
  "theoretical": null,
  "database_IDs": null,
  "fields_not_requested": [
    "builder_meta",
    "nsites",
    "elements",
    "nelements",
    "composition",
    "composition_reduced",
    "chemsys",
    "symmetry",
    "property_name",
    "deprecated",
    "deprecation_reasons",
    "last_updated",
    "origins",
    "warnings",
    "task_ids",
    "uncorrected_energy_per_atom",
    "equilibrium_reaction_energy_per_atom",
    "decomposes_to",
    "xas",
    "grain_boundaries",
    "cbm",
    "vbm",
    "is_gap_direct",
    "is_metal",
    "es_source_calc_id",
    "bandstructure",
    "dos",
    "dos_energy_up",
    "dos_energy_down",
    "is_magnetic",
    "ordering",
    "total_magnetization_normalized_vol",
    "total_magnetization_normalized_formula_units",
    "num_magnetic_sites",
    "num_unique_magnetic_sites",
    "types_of_magnetic_species",
    "bulk_modulus",
    "shear_modulus",
    "universal_anisotropy",
    "homogeneous_poisson",
    "e_total",
    "e_ionic",
    "e_electronic",
    "n",
    "e_ij_max",
    "weighted_surface_energy_EV_PER_ANG2",
    "weighted_surface_energy",
    "weighted_work_function",
    "surface_anisotropy",
    "shape_factor",
    "has_reconstructed",
    "possible_species",
    "has_props",
    "theoretical",
    "database_IDs"
  ]
}
