{
  "builder_meta": null,
  "nsites": null,
  "elements": null,
  "nelements": null,
  "composition": null,
  "composition_reduced": null,
  "formula_pretty": "CeSi",
  "formula_anonymous": "AB",
  "chemsys": null,
  "volume": 195.57246055007113,
  "density": 5.712566299470599,
  "density_atomic": 24.44655756875889,
  "symmetry": null,
  "property_name": null,
  "material_id": "mp-21115",
  "deprecated": null,
  "deprecation_reasons": null,
  "last_updated": null,
  "origins": null,
  "warnings": null,
  "structure": {
    "@module": "pymatgen.core.structure",
    "@class": "Structure",
    "charge": 0,
    "lattice": {
      "matrix": [
        [3.963643079999999, 1.09e-6, 1.1140000000000002e-5],
        [1.11e-6, 5.96541162, 0.00017335],
        [3.7840000000000004e-5, -4.5860000000000005e-5, 8.2712804]
      ],
      "pbc": [true, true, true],
      "a": 3.9636430800158036,
      "b": 5.9654116225188085,
      "c": 8.271280400213692,
      "alpha": 89.99865270695241,
      "beta": 89.99957684716358,
      "gamma": 89.99997357782985,
      "volume": 195.57246055007107
    },
    "properties": {},
    "sites": [
      {
        "species": [{ "element": "Ce", "occu": 1 }],
        "abc": [0.25, 0.38516745, 0.67974238],
        "properties": { "magmom": 1.095 },
        "label": "Ce",
        "xyz": [0.9909369189875284, 2.2976514813902225, 5.62240937852081]
      },
      {
        "species": [{ "element": "Ce", "occu": 1 }],
        "abc": [0.75, 0.6148331300000001, 0.32026039],
        "properties": { "magmom": 1.095 },
        "label": "Ce",
        "xyz": [2.972745111117931, 3.667718828421486, 2.6490784230264417]
      },
      {
        "species": [{ "element": "Ce", "occu": 1 }],
        "abc": [0.75, 0.88517645, 0.82018143],
        "properties": { "magmom": 1.095 },
        "label": "Ce",
        "xyz": [2.9727643282111695, 5.280405084559969, 6.7841123867405795]
      },
      {
        "species": [{ "element": "Ce", "occu": 1 }],
        "abc": [0.25, 0.11484185000000001, 0.17982038],
        "properties": { "magmom": 1.095 },
        "label": "Ce",
        "xyz": [0.9909177018776325, 0.6850709323896703, 1.4873674774492496]
      },
      {
        "species": [{ "element": "Si", "occu": 1 }],
        "abc": [0.25, 0.88510555, 0.53329536],
        "properties": { "magmom": -0.017 },
        "label": "Si",
        "xyz": [0.9909319323635827, 5.279994748471283, 4.411191676626037]
      },
      {
        "species": [{ "element": "Si", "occu": 1 }],
        "abc": [0.75, 0.11488763, 0.46669782],
        "properties": { "magmom": -0.017 },
        "label": "Si",
        "xyz": [2.9727500973707772, 0.6853314177342354, 3.8602168020593886]
      },
      {
        "species": [{ "element": "Si", "occu": 1 }],
        "abc": [0.75, 0.38514345, 0.966691099999999],
        "properties": { "magmom": -0.017 },
        "label": "Si",
        "xyz": [2.9727693171004526, 2.297495697043043, 7.99584826790149]
      },
      {
        "species": [{ "element": "Si", "occu": 1 }],
        "abc": [0.249999, 0.61484349, 0.03330914],
        "properties": { "magmom": -0.017 },
        "label": "Si",
        "xyz": [0.9909087492510513, 3.667793244669104, 0.2756186049307075]
      }
    ]
  },
  "task_ids": null,
  "uncorrected_energy_per_atom": null,
  "energy_per_atom": -20.556326045,
  "formation_energy_per_atom": -0.749129367499996,
  "energy_above_hull": 0.0,
  "is_stable": true,
  "equilibrium_reaction_energy_per_atom": null,
  "decomposes_to": null,
  "xas": null,
  "grain_boundaries": null,
  "band_gap": 0.0,
  "cbm": null,
  "vbm": null,
  "efermi": 7.99173144,
  "is_gap_direct": null,
  "is_metal": null,
  "es_source_calc_id": null,
  "bandstructure": null,
  "dos": null,
  "dos_energy_up": null,
  "dos_energy_down": null,
  "is_magnetic": null,
  "ordering": null,
  "total_magnetization": 5.8028565,
  "total_magnetization_normalized_vol": null,
  "total_magnetization_normalized_formula_units": null,
  "num_magnetic_sites": null,
  "num_unique_magnetic_sites": null,
  "types_of_magnetic_species": null,
  "bulk_modulus": null,
  "shear_modulus": null,
  "universal_anisotropy": null,
  "homogeneous_poisson": null,
  "e_total": null,
  "e_ionic": null,
  "e_electronic": null,
  "n": null,
  "e_ij_max": null,
  "weighted_surface_energy_EV_PER_ANG2": null,
  "weighted_surface_energy": null,
  "weighted_work_function": null,
  "surface_anisotropy": null,
  "shape_factor": null,
  "has_reconstructed": null,
  "possible_species": null,
  "has_props": null,
  "theoretical": null,
  "database_IDs": null,
  "fields_not_requested": [
    "builder_meta",
    "nsites",
    "elements",
    "nelements",
    "composition",
    "composition_reduced",
    "chemsys",
    "symmetry",
    "property_name",
    "deprecated",
    "deprecation_reasons",
    "last_updated",
    "origins",
    "warnings",
    "task_ids",
    "uncorrected_energy_per_atom",
    "equilibrium_reaction_energy_per_atom",
    "decomposes_to",
    "xas",
    "grain_boundaries",
    "cbm",
    "vbm",
    "is_gap_direct",
    "is_metal",
    "es_source_calc_id",
    "bandstructure",
    "dos",
    "dos_energy_up",
    "dos_energy_down",
    "is_magnetic",
    "ordering",
    "total_magnetization_normalized_vol",
    "total_magnetization_normalized_formula_units",
    "num_magnetic_sites",
    "num_unique_magnetic_sites",
    "types_of_magnetic_species",
    "bulk_modulus",
    "shear_modulus",
    "universal_anisotropy",
    "homogeneous_poisson",
    "e_total",
    "e_ionic",
    "e_electronic",
    "n",
    "e_ij_max",
    "weighted_surface_energy_EV_PER_ANG2",
    "weighted_surface_energy",
    "weighted_work_function",
    "surface_anisotropy",
    "shape_factor",
    "has_reconstructed",
    "possible_species",
    "has_props",
    "theoretical",
    "database_IDs"
  ]
}
