{"builder_meta": null, "nsites": null, "elements": null, "nelements": null, "composition": null, "composition_reduced": null, "formula_pretty": "CeSi2", "formula_anonymous": "AB2", "chemsys": null, "volume": 122.17049567636461, "density": 5.3358583831754345, "density_atomic": 20.3617492793941, "symmetry": null, "property_name": null, "material_id": "mp-1898", "deprecated": null, "deprecation_reasons": null, "last_updated": null, "origins": null, "warnings": null, "structure": {"@module": "pymatgen.core.structure", "@class": "Structure", "charge": 0, "lattice": {"matrix": [[4.01716653, -0.0, -1.15534445], [-0.33226754000000003, 4.00326108, -1.155303599999999], [0.00858448, 0.00940472, 7.59142559]], "pbc": [true, true, true], "a": 4.180005709074814, "b": 4.179859734602751, "c": 7.591436269281459, "alpha": 105.97993356440817, "beta": 105.98052886000944, "gamma": 90.00000143755115, "volume": 122.17049567636461}, "properties": {}, "sites": [{"species": [{"element": "Ce", "occu": 1}], "abc": [0.87494511, 0.62494511, 0.24989022], "properties": {"magmom": 0.8170000000000001}, "label": "Ce", "xyz": [3.309296414740224, 2.504168583549157, 0.16415869852019482]}, {"species": [{"element": "Ce", "occu": 1}], "abc": [0.12505489, 0.37505489000000003, 0.7501097800000001], "properties": {"magmom": 0.8170000000000001}, "label": "Ce", "xyz": [0.3841870552597755, 1.5084972164508428, 5.116618841479807]}, {"species": [{"element": "Si", "occu": 1}], "abc": [0.70915355, 0.95915355, 0.91830711], "properties": {"magmom": -0.005}, "label": "Si", "xyz": [2.5379755041695673, 3.848378497702393, 5.043829926874868]}, {"species": [{"element": "Si", "occu": 1}], "abc": [0.45914377, 0.20914377, 0.41828754], "properties": {"magmom": -0.005}, "label": "Si", "xyz": [1.7785560803591713, 0.8411909917586604, 2.4033049783140004]}, {"species": [{"element": "Si", "occu": 1}], "abc": [0.54085623, 0.79085623, 0.58171246], "properties": {"magmom": -0.005}, "label": "Si", "xyz": [1.9149273896408285, 3.1714748082413395, 2.877472561686001]}, {"species": [{"element": "Si", "occu": 1}], "abc": [0.29084645, 0.04084645, 0.08169289], "properties": {"magmom": -0.005}, "label": "Si", "xyz": [1.1555079658304326, 0.1642873022976068, 0.23694761312513274]}]}, "task_ids": null, "uncorrected_energy_per_atom": null, "energy_per_atom": -16.807196173333335, "formation_energy_per_atom": -0.6778101900000001, "energy_above_hull": 0.0, "is_stable": true, "equilibrium_reaction_energy_per_atom": null, "decomposes_to": null, "xas": null, "grain_boundaries": null, "band_gap": 0.0, "cbm": null, "vbm": null, "efermi": 8.779439140000001, "is_gap_direct": null, "is_metal": null, "es_source_calc_id": null, "bandstructure": null, "dos": null, "dos_energy_up": null, "dos_energy_down": null, "is_magnetic": null, "ordering": null, "total_magnetization": 1.8675578, "total_magnetization_normalized_vol": null, "total_magnetization_normalized_formula_units": null, "num_magnetic_sites": null, "num_unique_magnetic_sites": null, "types_of_magnetic_species": null, "bulk_modulus": null, "shear_modulus": null, "universal_anisotropy": null, "homogeneous_poisson": null, "e_total": null, "e_ionic": null, "e_electronic": null, "n": null, "e_ij_max": null, "weighted_surface_energy_EV_PER_ANG2": null, "weighted_surface_energy": null, "weighted_work_function": null, "surface_anisotropy": null, "shape_factor": null, "has_reconstructed": null, "possible_species": null, "has_props": null, "theoretical": null, "database_IDs": null, "fields_not_requested": ["builder_meta", "nsites", "elements", "nelements", "composition", "composition_reduced", "chemsys", "symmetry", "property_name", "deprecated", "deprecation_reasons", "last_updated", "origins", "warnings", "task_ids", "uncorrected_energy_per_atom", "equilibrium_reaction_energy_per_atom", "decomposes_to", "xas", "grain_boundaries", "cbm", "vbm", "is_gap_direct", "is_metal", "es_source_calc_id", "bandstructure", "dos", "dos_energy_up", "dos_energy_down", "is_magnetic", "ordering", "total_magnetization_normalized_vol", "total_magnetization_normalized_formula_units", "num_magnetic_sites", "num_unique_magnetic_sites", "types_of_magnetic_species", "bulk_modulus", "shear_modulus", "universal_anisotropy", "homogeneous_poisson", "e_total", "e_ionic", "e_electronic", "n", "e_ij_max", "weighted_surface_energy_EV_PER_ANG2", "weighted_surface_energy", "weighted_work_function", "surface_anisotropy", "shape_factor", "has_reconstructed", "possible_species", "has_props", "theoretical", "database_IDs"]}