{
  "builder_meta": null,
  "nsites": null,
  "elements": null,
  "nelements": null,
  "composition": null,
  "composition_reduced": null,
  "formula_pretty": "CeSi5",
  "formula_anonymous": "AB5",
  "chemsys": null,
  "volume": 105.81851736770884,
  "density": 4.402381107003253,
  "density_atomic": 17.636419561284807,
  "symmetry": null,
  "property_name": null,
  "material_id": "mp-1072085",
  "deprecated": null,
  "deprecation_reasons": null,
  "last_updated": null,
  "origins": null,
  "warnings": null,
  "structure": {
    "@module": "pymatgen.core.structure",
    "@class": "Structure",
    "charge": 0,
    "lattice": {
      "matrix": [
        [-1.88643, 3.023265, 4.638577],
        [1.88643, -3.023265, 4.638577],
        [1.88643, 3.023265, -4.638577]
      ],
      "pbc": [true, true, true],
      "a": 5.8493714183708665,
      "b": 5.8493714183708665,
      "c": 5.8493714183708665,
      "alpha": 142.3714765703669,
      "beta": 117.75721837963779,
      "gamma": 75.06566778600101,
      "volume": 105.81851736770884
    },
    "properties": {},
    "sites": [
      {
        "species": [{ "element": "Ce", "occu": 1 }],
        "abc": [0.0, 0.0, 0.0],
        "properties": { "magmom": 0.001 },
        "label": "Ce",
        "xyz": [0.0, 0.0, 0.0]
      },
      {
        "species": [{ "element": "Si", "occu": 1 }],
        "abc": [0.473128, 0.671115999999999, 0.802012],
        "properties": { "magmom": -0.0 },
        "label": "Si",
        "xyz": [1.886429999999998, 1.8261246183600024, 1.5874694838639956]
      },
      {
        "species": [{ "element": "Si", "occu": 1 }],
        "abc": [0.526872, 0.328884, 0.197988],
        "properties": { "magmom": -0.0 },
        "label": "Si",
        "xyz": [5.551115123125783e-17, 1.1971403816400001, 3.0511075161359997]
      },
      {
        "species": [{ "element": "Si", "occu": 1 }],
        "abc": [0.130895999999999, 0.328884, 0.802012],
        "properties": { "magmom": -0.0 },
        "label": "Si",
        "xyz": [1.8864300000000018, 1.8261246183599966, -1.5874694838640044]
      },
      {
        "species": [{ "element": "Si", "occu": 1 }],
        "abc": [0.869104, 0.671115999999999, 0.197988],
        "properties": { "magmom": -0.0 },
        "label": "Si",
        "xyz": [-1.7208456881689926e-15, 1.1971403816400028, 6.226046483863995]
      },
      {
        "species": [{ "element": "Si", "occu": 1 }],
        "abc": [0.5, 0.0, 0.5],
        "properties": { "magmom": -0.0 },
        "label": "Si",
        "xyz": [0.0, 3.023265, 0.0]
      }
    ]
  },
  "task_ids": null,
  "uncorrected_energy_per_atom": null,
  "energy_per_atom": -12.732253578333335,
  "formation_energy_per_atom": -0.28067828916666804,
  "energy_above_hull": 0.05822680583333101,
  "is_stable": false,
  "equilibrium_reaction_energy_per_atom": null,
  "decomposes_to": null,
  "xas": null,
  "grain_boundaries": null,
  "band_gap": 0.0,
  "cbm": null,
  "vbm": null,
  "efermi": 8.67773855,
  "is_gap_direct": null,
  "is_metal": null,
  "es_source_calc_id": null,
  "bandstructure": null,
  "dos": null,
  "dos_energy_up": null,
  "dos_energy_down": null,
  "is_magnetic": null,
  "ordering": null,
  "total_magnetization": 0.0024543,
  "total_magnetization_normalized_vol": null,
  "total_magnetization_normalized_formula_units": null,
  "num_magnetic_sites": null,
  "num_unique_magnetic_sites": null,
  "types_of_magnetic_species": null,
  "bulk_modulus": null,
  "shear_modulus": null,
  "universal_anisotropy": null,
  "homogeneous_poisson": null,
  "e_total": null,
  "e_ionic": null,
  "e_electronic": null,
  "n": null,
  "e_ij_max": null,
  "weighted_surface_energy_EV_PER_ANG2": null,
  "weighted_surface_energy": null,
  "weighted_work_function": null,
  "surface_anisotropy": null,
  "shape_factor": null,
  "has_reconstructed": null,
  "possible_species": null,
  "has_props": null,
  "theoretical": null,
  "database_IDs": null,
  "fields_not_requested": [
    "builder_meta",
    "nsites",
    "elements",
    "nelements",
    "composition",
    "composition_reduced",
    "chemsys",
    "symmetry",
    "property_name",
    "deprecated",
    "deprecation_reasons",
    "last_updated",
    "origins",
    "warnings",
    "task_ids",
    "uncorrected_energy_per_atom",
    "equilibrium_reaction_energy_per_atom",
    "decomposes_to",
    "xas",
    "grain_boundaries",
    "cbm",
    "vbm",
    "is_gap_direct",
    "is_metal",
    "es_source_calc_id",
    "bandstructure",
    "dos",
    "dos_energy_up",
    "dos_energy_down",
    "is_magnetic",
    "ordering",
    "total_magnetization_normalized_vol",
    "total_magnetization_normalized_formula_units",
    "num_magnetic_sites",
    "num_unique_magnetic_sites",
    "types_of_magnetic_species",
    "bulk_modulus",
    "shear_modulus",
    "universal_anisotropy",
    "homogeneous_poisson",
    "e_total",
    "e_ionic",
    "e_electronic",
    "n",
    "e_ij_max",
    "weighted_surface_energy_EV_PER_ANG2",
    "weighted_surface_energy",
    "weighted_work_function",
    "surface_anisotropy",
    "shape_factor",
    "has_reconstructed",
    "possible_species",
    "has_props",
    "theoretical",
    "database_IDs"
  ]
}
