{"builder_meta": null, "nsites": null, "elements": null, "nelements": null, "composition": null, "composition_reduced": null, "formula_pretty": "CeTe3", "formula_anonymous": "AB3", "chemsys": null, "volume": 253.18001725539963, "density": 6.85932844118792, "density_atomic": 31.647502156924954, "symmetry": null, "property_name": null, "material_id": "mp-571571", "deprecated": null, "deprecation_reasons": null, "last_updated": null, "origins": null, "warnings": null, "structure": {"@module": "pymatgen.core.structure", "@class": "Structure", "charge": 0, "lattice": {"matrix": [[4.32944554, 0.0, -0.73055587], [0.0, 4.39251662, 0.0], [0.03085189, 0.0, 13.30803308]], "pbc": [true, true, true], "a": 4.390650357636936, "b": 4.39251662, "c": 13.308068841777564, "alpha": 90.0, "beta": 99.44510507923079, "gamma": 90.0, "volume": 253.18001725539963}, "properties": {}, "sites": [{"species": [{"element": "Ce", "occu": 1}], "abc": [0.08957115, 0.75, 0.33770318], "properties": {"magmom": 0.841}, "label": "Ce", "xyz": [0.3982121972421812, 3.2943874650000002, 4.428728361246043]}, {"species": [{"element": "Ce", "occu": 1}], "abc": [0.75199947, 0.25, 0.6623001900000001], "properties": {"magmom": 0.84}, "label": "Ce", "xyz": [3.276173964082723, 1.098129155, 8.264535210364896]}, {"species": [{"element": "Te", "occu": 1}], "abc": [0.99503845, 0.25, 0.14788109], "properties": {"magmom": -0.015}, "label": "Te", "xyz": [4.312527190602773, 1.098129155, 1.2410752571032555]}, {"species": [{"element": "Te", "occu": 1}], "abc": [0.49475912, 0.75, 0.14812386], "properties": {"magmom": -0.015}, "label": "Te", "xyz": [2.1466025664934203, 3.2943874650000002, 1.6097880494652541]}, {"species": [{"element": "Te", "occu": 1}], "abc": [0.62575166, 0.25, 0.40990023000000003], "properties": {"magmom": -0.042}, "label": "Te", "xyz": [2.7218039303415313, 1.098129155, 4.997819271964364]}, {"species": [{"element": "Te", "occu": 1}], "abc": [0.8469733500000001, 0.75, 0.85209681], "properties": {"magmom": -0.015}, "label": "Te", "xyz": [3.69321378970783, 3.2943874650000002, 10.720971182266409]}, {"species": [{"element": "Te", "occu": 1}], "abc": [0.34722203, 0.25, 0.85186419], "properties": {"magmom": -0.015}, "label": "Te", "xyz": [1.5295604894580654, 1.098129155, 11.082971727977588]}, {"species": [{"element": "Te", "occu": 1}], "abc": [0.21568577, 0.75, 0.59013044], "properties": {"magmom": -0.042}, "label": "Te", "xyz": [0.9520064343884974, 3.2943874650000002, 7.695904911685986]}]}, "task_ids": null, "uncorrected_energy_per_atom": null, "energy_per_atom": -5.164000991249999, "formation_energy_per_atom": -1.322284103749997, "energy_above_hull": 0.20773105791666702, "is_stable": false, "equilibrium_reaction_energy_per_atom": null, "decomposes_to": null, "xas": null, "grain_boundaries": null, "band_gap": 0.0, "cbm": null, "vbm": null, "efermi": 7.01318751, "is_gap_direct": null, "is_metal": null, "es_source_calc_id": null, "bandstructure": null, "dos": null, "dos_energy_up": null, "dos_energy_down": null, "is_magnetic": null, "ordering": null, "total_magnetization": 1.1157386, "total_magnetization_normalized_vol": null, "total_magnetization_normalized_formula_units": null, "num_magnetic_sites": null, "num_unique_magnetic_sites": null, "types_of_magnetic_species": null, "bulk_modulus": null, "shear_modulus": null, "universal_anisotropy": null, "homogeneous_poisson": null, "e_total": null, "e_ionic": null, "e_electronic": null, "n": null, "e_ij_max": null, "weighted_surface_energy_EV_PER_ANG2": null, "weighted_surface_energy": null, "weighted_work_function": null, "surface_anisotropy": null, "shape_factor": null, "has_reconstructed": null, "possible_species": null, "has_props": null, "theoretical": null, "database_IDs": null, "fields_not_requested": ["builder_meta", "nsites", "elements", "nelements", "composition", "composition_reduced", "chemsys", "symmetry", "property_name", "deprecated", "deprecation_reasons", "last_updated", "origins", "warnings", "task_ids", "uncorrected_energy_per_atom", "equilibrium_reaction_energy_per_atom", "decomposes_to", "xas", "grain_boundaries", "cbm", "vbm", "is_gap_direct", "is_metal", "es_source_calc_id", "bandstructure", "dos", "dos_energy_up", "dos_energy_down", "is_magnetic", "ordering", "total_magnetization_normalized_vol", "total_magnetization_normalized_formula_units", "num_magnetic_sites", "num_unique_magnetic_sites", "types_of_magnetic_species", "bulk_modulus", "shear_modulus", "universal_anisotropy", "homogeneous_poisson", "e_total", "e_ionic", "e_electronic", "n", "e_ij_max", "weighted_surface_energy_EV_PER_ANG2", "weighted_surface_energy", "weighted_work_function", "surface_anisotropy", "shape_factor", "has_reconstructed", "possible_species", "has_props", "theoretical", "database_IDs"]}