{
  "builder_meta": null,
  "nsites": null,
  "elements": null,
  "nelements": null,
  "composition": null,
  "composition_reduced": null,
  "formula_pretty": "CeY3",
  "formula_anonymous": "AB3",
  "chemsys": null,
  "volume": 255.85236327521267,
  "density": 5.280881479698365,
  "density_atomic": 31.981545409401583,
  "symmetry": null,
  "property_name": null,
  "material_id": "mp-1006351",
  "deprecated": null,
  "deprecation_reasons": null,
  "last_updated": null,
  "origins": null,
  "warnings": null,
  "structure": {
    "@module": "pymatgen.core.structure",
    "@class": "Structure",
    "charge": 0,
    "lattice": {
      "matrix": [
        [3.598601, -6.232959, 0.0],
        [3.598601, 6.232959, 0.0],
        [0.0, 0.0, 5.703369]
      ],
      "pbc": [true, true, true],
      "a": 7.197201334746861,
      "b": 7.197201334746861,
      "c": 5.703369,
      "alpha": 90.0,
      "beta": 90.0,
      "gamma": 119.99999388473492,
      "volume": 255.85236327521267
    },
    "properties": {},
    "sites": [
      {
        "species": [{ "element": "Ce", "occu": 1 }],
        "abc": [0.333333, 0.666667, 0.75],
        "properties": { "magmom": 0.687 },
        "label": "Ce",
        "xyz": [3.598601, 2.0776571553060004, 4.27752675]
      },
      {
        "species": [{ "element": "Ce", "occu": 1 }],
        "abc": [0.666667, 0.333333, 0.25],
        "properties": { "magmom": 0.6880000000000001 },
        "label": "Ce",
        "xyz": [3.598601, -2.0776571553060004, 1.42584225]
      },
      {
        "species": [{ "element": "Y", "occu": 1 }],
        "abc": [0.16633799999999901, 0.332675, 0.25],
        "properties": { "magmom": 0.018000000000000002 },
        "label": "Y",
        "xyz": [1.7957486808129963, 1.0367717011830062, 1.42584225]
      },
      {
        "species": [{ "element": "Y", "occu": 1 }],
        "abc": [0.667325, 0.833662, 0.25],
        "properties": { "magmom": 0.018000000000000002 },
        "label": "Y",
        "xyz": [5.4014533191870004, 1.0367717011830004, 1.42584225]
      },
      {
        "species": [{ "element": "Y", "occu": 1 }],
        "abc": [0.16633799999999901, 0.833662, 0.25],
        "properties": { "magmom": 0.018000000000000002 },
        "label": "Y",
        "xyz": [3.598600999999997, 4.159403131716006, 1.42584225]
      },
      {
        "species": [{ "element": "Y", "occu": 1 }],
        "abc": [0.833662, 0.667325, 0.75],
        "properties": { "magmom": 0.018000000000000002 },
        "label": "Y",
        "xyz": [5.4014533191870004, -1.0367717011830004, 4.27752675]
      },
      {
        "species": [{ "element": "Y", "occu": 1 }],
        "abc": [0.332675, 0.16633799999999901, 0.75],
        "properties": { "magmom": 0.018000000000000002 },
        "label": "Y",
        "xyz": [1.7957486808129963, -1.0367717011830062, 4.27752675]
      },
      {
        "species": [{ "element": "Y", "occu": 1 }],
        "abc": [0.833662, 0.16633799999999901, 0.75],
        "properties": { "magmom": 0.017 },
        "label": "Y",
        "xyz": [3.598600999999997, -4.159403131716006, 4.27752675]
      }
    ]
  },
  "task_ids": null,
  "uncorrected_energy_per_atom": null,
  "energy_per_atom": -22.8701257,
  "formation_energy_per_atom": 0.07523220999999901,
  "energy_above_hull": 0.07523220999999901,
  "is_stable": false,
  "equilibrium_reaction_energy_per_atom": null,
  "decomposes_to": null,
  "xas": null,
  "grain_boundaries": null,
  "band_gap": 0.0,
  "cbm": null,
  "vbm": null,
  "efermi": 4.24979464,
  "is_gap_direct": null,
  "is_metal": null,
  "es_source_calc_id": null,
  "bandstructure": null,
  "dos": null,
  "dos_energy_up": null,
  "dos_energy_down": null,
  "is_magnetic": null,
  "ordering": null,
  "total_magnetization": 1.790293199999999,
  "total_magnetization_normalized_vol": null,
  "total_magnetization_normalized_formula_units": null,
  "num_magnetic_sites": null,
  "num_unique_magnetic_sites": null,
  "types_of_magnetic_species": null,
  "bulk_modulus": null,
  "shear_modulus": null,
  "universal_anisotropy": null,
  "homogeneous_poisson": null,
  "e_total": null,
  "e_ionic": null,
  "e_electronic": null,
  "n": null,
  "e_ij_max": null,
  "weighted_surface_energy_EV_PER_ANG2": null,
  "weighted_surface_energy": null,
  "weighted_work_function": null,
  "surface_anisotropy": null,
  "shape_factor": null,
  "has_reconstructed": null,
  "possible_species": null,
  "has_props": null,
  "theoretical": null,
  "database_IDs": null,
  "fields_not_requested": [
    "builder_meta",
    "nsites",
    "elements",
    "nelements",
    "composition",
    "composition_reduced",
    "chemsys",
    "symmetry",
    "property_name",
    "deprecated",
    "deprecation_reasons",
    "last_updated",
    "origins",
    "warnings",
    "task_ids",
    "uncorrected_energy_per_atom",
    "equilibrium_reaction_energy_per_atom",
    "decomposes_to",
    "xas",
    "grain_boundaries",
    "cbm",
    "vbm",
    "is_gap_direct",
    "is_metal",
    "es_source_calc_id",
    "bandstructure",
    "dos",
    "dos_energy_up",
    "dos_energy_down",
    "is_magnetic",
    "ordering",
    "total_magnetization_normalized_vol",
    "total_magnetization_normalized_formula_units",
    "num_magnetic_sites",
    "num_unique_magnetic_sites",
    "types_of_magnetic_species",
    "bulk_modulus",
    "shear_modulus",
    "universal_anisotropy",
    "homogeneous_poisson",
    "e_total",
    "e_ionic",
    "e_electronic",
    "n",
    "e_ij_max",
    "weighted_surface_energy_EV_PER_ANG2",
    "weighted_surface_energy",
    "weighted_work_function",
    "surface_anisotropy",
    "shape_factor",
    "has_reconstructed",
    "possible_species",
    "has_props",
    "theoretical",
    "database_IDs"
  ]
}
