{
  "builder_meta": null,
  "nsites": null,
  "elements": null,
  "nelements": null,
  "composition": null,
  "composition_reduced": null,
  "formula_pretty": "CeZn2",
  "formula_anonymous": "AB2",
  "chemsys": null,
  "volume": 128.067966365276,
  "density": 7.025902014981759,
  "density_atomic": 21.344661060879332,
  "symmetry": null,
  "property_name": null,
  "material_id": "mp-1385",
  "deprecated": null,
  "deprecation_reasons": null,
  "last_updated": null,
  "origins": null,
  "warnings": null,
  "structure": {
    "@module": "pymatgen.core.structure",
    "@class": "Structure",
    "charge": 0,
    "lattice": {
      "matrix": [
        [-2.26777166, 3.64712707, 3.8018237],
        [2.29649635, -3.66350763, 3.80827779],
        [2.29631176, 3.68126662, -3.80974431]
      ],
      "pbc": [true, true, true],
      "a": 5.735694170064128,
      "b": 5.761784737946986,
      "c": 5.773986779879038,
      "alpha": 133.0763448632917,
      "beta": 100.90530411262631,
      "gamma": 97.11056181761083,
      "volume": 128.067966365276
    },
    "properties": {},
    "sites": [
      {
        "species": [{ "element": "Ce", "occu": 1 }],
        "abc": [0.28304825, 0.53361269, 0.749495799999999],
        "properties": { "magmom": 0.994 },
        "label": "Ce",
        "xyz": [2.304626814746692, 1.8365126437814958, 0.25285754146378503]
      },
      {
        "species": [{ "element": "Ce", "occu": 1 }],
        "abc": [0.71691867, 0.46638053, 0.25054285],
        "properties": { "magmom": 0.994 },
        "label": "Ce",
        "xyz": [0.02055783534408906, 1.8284198887916197, 3.5472008074672243]
      },
      {
        "species": [{ "element": "Zn", "occu": 1 }],
        "abc": [0.10938863, 0.16441976, 0.94308181],
        "properties": { "magmom": 0.009000000000000001 },
        "label": "Zn",
        "xyz": [2.295130794612736, 3.2683367754226276, -2.55086815322234]
      },
      {
        "species": [{ "element": "Zn", "occu": 1 }],
        "abc": [0.89068328, 0.83558444, 0.05694837],
        "properties": { "magmom": 0.009000000000000001 },
        "label": "Zn",
        "xyz": [0.02982152790078016, 0.39690726337952187, 6.351399739048048]
      },
      {
        "species": [{ "element": "Zn", "occu": 1 }],
        "abc": [0.28085664, 0.83564973, 0.44636753],
        "properties": { "magmom": 0.007 },
        "label": "Zn",
        "xyz": [2.307146834529816, -0.3938914188883462, 2.54960757964661]
      },
      {
        "species": [{ "element": "Zn", "occu": 1 }],
        "abc": [0.71910453, 0.16435285, 0.55356363],
        "properties": { "magmom": 0.007 },
        "label": "Zn",
        "xyz": [0.017825519902766374, 4.058372990700413, 1.2508740636941171]
      }
    ]
  },
  "task_ids": null,
  "uncorrected_energy_per_atom": null,
  "energy_per_atom": -3.113366596666667,
  "formation_energy_per_atom": -0.294554233333333,
  "energy_above_hull": 0.0,
  "is_stable": true,
  "equilibrium_reaction_energy_per_atom": null,
  "decomposes_to": null,
  "xas": null,
  "grain_boundaries": null,
  "band_gap": 0.0,
  "cbm": null,
  "vbm": null,
  "efermi": 5.07267592,
  "is_gap_direct": null,
  "is_metal": null,
  "es_source_calc_id": null,
  "bandstructure": null,
  "dos": null,
  "dos_energy_up": null,
  "dos_energy_down": null,
  "is_magnetic": null,
  "ordering": null,
  "total_magnetization": 2.3936887000000002,
  "total_magnetization_normalized_vol": null,
  "total_magnetization_normalized_formula_units": null,
  "num_magnetic_sites": null,
  "num_unique_magnetic_sites": null,
  "types_of_magnetic_species": null,
  "bulk_modulus": null,
  "shear_modulus": null,
  "universal_anisotropy": null,
  "homogeneous_poisson": null,
  "e_total": null,
  "e_ionic": null,
  "e_electronic": null,
  "n": null,
  "e_ij_max": null,
  "weighted_surface_energy_EV_PER_ANG2": null,
  "weighted_surface_energy": null,
  "weighted_work_function": null,
  "surface_anisotropy": null,
  "shape_factor": null,
  "has_reconstructed": null,
  "possible_species": null,
  "has_props": null,
  "theoretical": null,
  "database_IDs": null,
  "fields_not_requested": [
    "builder_meta",
    "nsites",
    "elements",
    "nelements",
    "composition",
    "composition_reduced",
    "chemsys",
    "symmetry",
    "property_name",
    "deprecated",
    "deprecation_reasons",
    "last_updated",
    "origins",
    "warnings",
    "task_ids",
    "uncorrected_energy_per_atom",
    "equilibrium_reaction_energy_per_atom",
    "decomposes_to",
    "xas",
    "grain_boundaries",
    "cbm",
    "vbm",
    "is_gap_direct",
    "is_metal",
    "es_source_calc_id",
    "bandstructure",
    "dos",
    "dos_energy_up",
    "dos_energy_down",
    "is_magnetic",
    "ordering",
    "total_magnetization_normalized_vol",
    "total_magnetization_normalized_formula_units",
    "num_magnetic_sites",
    "num_unique_magnetic_sites",
    "types_of_magnetic_species",
    "bulk_modulus",
    "shear_modulus",
    "universal_anisotropy",
    "homogeneous_poisson",
    "e_total",
    "e_ionic",
    "e_electronic",
    "n",
    "e_ij_max",
    "weighted_surface_energy_EV_PER_ANG2",
    "weighted_surface_energy",
    "weighted_work_function",
    "surface_anisotropy",
    "shape_factor",
    "has_reconstructed",
    "possible_species",
    "has_props",
    "theoretical",
    "database_IDs"
  ]
}
