{
  "builder_meta": null,
  "nsites": null,
  "elements": null,
  "nelements": null,
  "composition": null,
  "composition_reduced": null,
  "formula_pretty": "CeZn3",
  "formula_anonymous": "AB3",
  "chemsys": null,
  "volume": 296.8761920697377,
  "density": 7.52516646597578,
  "density_atomic": 18.554762004358608,
  "symmetry": null,
  "property_name": null,
  "material_id": "mp-1188098",
  "deprecated": null,
  "deprecation_reasons": null,
  "last_updated": null,
  "origins": null,
  "warnings": null,
  "structure": {
    "@module": "pymatgen.core.structure",
    "@class": "Structure",
    "charge": 0,
    "lattice": {
      "matrix": [
        [-0.0, -4.48180358, 0.0],
        [-6.53237652, -0.0, 0.0],
        [0.0, 0.0, -10.14031258]
      ],
      "pbc": [true, true, true],
      "a": 4.48180358,
      "b": 6.53237652,
      "c": 10.14031258,
      "alpha": 90.0,
      "beta": 90.0,
      "gamma": 90.0,
      "volume": 296.8761920697377
    },
    "properties": {},
    "sites": [
      {
        "species": [{ "element": "Ce", "occu": 1 }],
        "abc": [0.75, 0.22963005, 0.84626631],
        "properties": { "magmom": -0.652 },
        "label": "Ce",
        "xyz": [-1.500029946906426, -3.361352685, -8.58140490932318]
      },
      {
        "species": [{ "element": "Ce", "occu": 1 }],
        "abc": [0.75, 0.72963005, 0.65373369],
        "properties": { "magmom": -0.652 },
        "label": "Ce",
        "xyz": [-4.766218206906426, -3.361352685, -6.62906396067682]
      },
      {
        "species": [{ "element": "Ce", "occu": 1 }],
        "abc": [0.25, 0.77036995, 0.15373369],
        "properties": { "magmom": -0.652 },
        "label": "Ce",
        "xyz": [-5.032346573093574, -1.120450895, -1.5589076706768201]
      },
      {
        "species": [{ "element": "Ce", "occu": 1 }],
        "abc": [0.25, 0.27036995, 0.34626631],
        "properties": { "magmom": -0.652 },
        "label": "Ce",
        "xyz": [-1.766158313093574, -1.120450895, -3.51124861932318]
      },
      {
        "species": [{ "element": "Zn", "occu": 1 }],
        "abc": [0.75, 0.95712894, 0.382903],
        "properties": { "magmom": 0.003 },
        "label": "Zn",
        "xyz": [-6.252326614268489, -3.361352685, -3.88275610781974]
      },
      {
        "species": [{ "element": "Zn", "occu": 1 }],
        "abc": [0.75, 0.45712894, 0.11709699999999901],
        "properties": { "magmom": 0.003 },
        "label": "Zn",
        "xyz": [-2.9861383542684887, -3.361352685, -1.18740018218025]
      },
      {
        "species": [{ "element": "Zn", "occu": 1 }],
        "abc": [0.25, 0.04287106, 0.617097],
        "properties": { "magmom": 0.003 },
        "label": "Zn",
        "xyz": [-0.28004990573151123, -1.120450895, -6.25755647218026]
      },
      {
        "species": [{ "element": "Zn", "occu": 1 }],
        "abc": [0.25, 0.54287106, 0.882903],
        "properties": { "magmom": 0.003 },
        "label": "Zn",
        "xyz": [-3.546238165731511, -1.120450895, -8.95291239781974]
      },
      {
        "species": [{ "element": "Zn", "occu": 1 }],
        "abc": [0.75, 0.57891677, 0.35868565],
        "properties": { "magmom": 0.006 },
        "label": "Zn",
        "xyz": [-3.78170231538224, -3.361352685, -3.637184608960477]
      },
      {
        "species": [{ "element": "Zn", "occu": 1 }],
        "abc": [0.75, 0.07891677, 0.14131435],
        "properties": { "magmom": 0.006 },
        "label": "Zn",
        "xyz": [-0.5155140553822404, -3.361352685, -1.432971681039523]
      },
      {
        "species": [{ "element": "Zn", "occu": 1 }],
        "abc": [0.25, 0.42108323000000003, 0.64131435],
        "properties": { "magmom": 0.006 },
        "label": "Zn",
        "xyz": [-2.7506742046177597, -1.120450895, -6.503127971039524]
      },
      {
        "species": [{ "element": "Zn", "occu": 1 }],
        "abc": [0.25, 0.92108323, 0.85868565],
        "properties": { "magmom": 0.006 },
        "label": "Zn",
        "xyz": [-6.016862464617759, -1.120450895, -8.707340898960476]
      },
      {
        "species": [{ "element": "Zn", "occu": 1 }],
        "abc": [0.75, 0.26723948000000003, 0.54524348],
        "properties": { "magmom": 0.009000000000000001 },
        "label": "Zn",
        "xyz": [-1.7457089043690097, -3.361352685, -5.5289393194069785]
      },
      {
        "species": [{ "element": "Zn", "occu": 1 }],
        "abc": [0.75, 0.76723948, 0.95475652],
        "properties": { "magmom": 0.009000000000000001 },
        "label": "Zn",
        "xyz": [-5.011897164369009, -3.361352685, -9.681529550593021]
      },
      {
        "species": [{ "element": "Zn", "occu": 1 }],
        "abc": [0.25, 0.73276052, 0.45475652],
        "properties": { "magmom": 0.009000000000000001 },
        "label": "Zn",
        "xyz": [-4.78666761563099, -1.120450895, -4.611373260593021]
      },
      {
        "species": [{ "element": "Zn", "occu": 1 }],
        "abc": [0.25, 0.23276052, 0.04524348],
        "properties": { "magmom": 0.009000000000000001 },
        "label": "Zn",
        "xyz": [-1.5204793556309903, -1.120450895, -0.4587830294069784]
      }
    ]
  },
  "task_ids": null,
  "uncorrected_energy_per_atom": null,
  "energy_per_atom": -2.722006640625,
  "formation_energy_per_atom": -0.29296146562499903,
  "energy_above_hull": 0.0,
  "is_stable": true,
  "equilibrium_reaction_energy_per_atom": null,
  "decomposes_to": null,
  "xas": null,
  "grain_boundaries": null,
  "band_gap": 0.0,
  "cbm": null,
  "vbm": null,
  "efermi": 4.72101579,
  "is_gap_direct": null,
  "is_metal": null,
  "es_source_calc_id": null,
  "bandstructure": null,
  "dos": null,
  "dos_energy_up": null,
  "dos_energy_down": null,
  "is_magnetic": null,
  "ordering": null,
  "total_magnetization": 0.993597699999999,
  "total_magnetization_normalized_vol": null,
  "total_magnetization_normalized_formula_units": null,
  "num_magnetic_sites": null,
  "num_unique_magnetic_sites": null,
  "types_of_magnetic_species": null,
  "bulk_modulus": null,
  "shear_modulus": null,
  "universal_anisotropy": null,
  "homogeneous_poisson": null,
  "e_total": null,
  "e_ionic": null,
  "e_electronic": null,
  "n": null,
  "e_ij_max": null,
  "weighted_surface_energy_EV_PER_ANG2": null,
  "weighted_surface_energy": null,
  "weighted_work_function": null,
  "surface_anisotropy": null,
  "shape_factor": null,
  "has_reconstructed": null,
  "possible_species": null,
  "has_props": null,
  "theoretical": null,
  "database_IDs": null,
  "fields_not_requested": [
    "builder_meta",
    "nsites",
    "elements",
    "nelements",
    "composition",
    "composition_reduced",
    "chemsys",
    "symmetry",
    "property_name",
    "deprecated",
    "deprecation_reasons",
    "last_updated",
    "origins",
    "warnings",
    "task_ids",
    "uncorrected_energy_per_atom",
    "equilibrium_reaction_energy_per_atom",
    "decomposes_to",
    "xas",
    "grain_boundaries",
    "cbm",
    "vbm",
    "is_gap_direct",
    "is_metal",
    "es_source_calc_id",
    "bandstructure",
    "dos",
    "dos_energy_up",
    "dos_energy_down",
    "is_magnetic",
    "ordering",
    "total_magnetization_normalized_vol",
    "total_magnetization_normalized_formula_units",
    "num_magnetic_sites",
    "num_unique_magnetic_sites",
    "types_of_magnetic_species",
    "bulk_modulus",
    "shear_modulus",
    "universal_anisotropy",
    "homogeneous_poisson",
    "e_total",
    "e_ionic",
    "e_electronic",
    "n",
    "e_ij_max",
    "weighted_surface_energy_EV_PER_ANG2",
    "weighted_surface_energy",
    "weighted_work_function",
    "surface_anisotropy",
    "shape_factor",
    "has_reconstructed",
    "possible_species",
    "has_props",
    "theoretical",
    "database_IDs"
  ]
}
