{
  "builder_meta": null,
  "nsites": null,
  "elements": null,
  "nelements": null,
  "composition": null,
  "composition_reduced": null,
  "formula_pretty": "CF",
  "formula_anonymous": "AB",
  "chemsys": null,
  "volume": 592.3586741890442,
  "density": 2.086242522748225,
  "density_atomic": 12.340805712271754,
  "symmetry": null,
  "property_name": null,
  "material_id": "mp-1214158",
  "deprecated": null,
  "deprecation_reasons": null,
  "last_updated": null,
  "origins": null,
  "warnings": null,
  "structure": {
    "@module": "pymatgen.core.structure",
    "@class": "Structure",
    "charge": 0,
    "lattice": {
      "matrix": [
        [4.476665, -7.753811, 0.0],
        [4.476665, 7.753811, 0.0],
        [0.0, 0.0, 8.53267]
      ],
      "pbc": [true, true, true],
      "a": 8.953329802143223,
      "b": 8.953329802143223,
      "c": 8.53267,
      "alpha": 90.0,
      "beta": 90.0,
      "gamma": 119.99999853796305,
      "volume": 592.3586741890442
    },
    "properties": {},
    "sites": [
      {
        "species": [{ "element": "C", "occu": 1 }],
        "abc": [0.509884, 0.7221000000000001, 0.75],
        "properties": { "magmom": -0.0 },
        "label": "C",
        "xyz": [5.515179653360001, 1.6454827551760003, 6.3995025]
      },
      {
        "species": [{ "element": "C", "occu": 1 }],
        "abc": [0.490116, 0.27790000000000004, 0.25],
        "properties": { "magmom": -0.0 },
        "label": "C",
        "xyz": [3.4381503466399996, -1.6454827551759994, 2.1331675]
      },
      {
        "species": [{ "element": "C", "occu": 1 }],
        "abc": [0.212216, 0.490116, 0.75],
        "properties": { "magmom": -0.0 },
        "label": "C",
        "xyz": [3.1441050827799994, 2.1547840769, 6.3995025]
      },
      {
        "species": [{ "element": "C", "occu": 1 }],
        "abc": [0.787783999999999, 0.509884, 0.25],
        "properties": { "magmom": -0.0 },
        "label": "C",
        "xyz": [5.8092249172199955, -2.1547840768999924, 2.1331675]
      },
      {
        "species": [{ "element": "C", "occu": 1 }],
        "abc": [0.27790000000000004, 0.787783999999999, 0.75],
        "properties": { "magmom": -0.0 },
        "label": "C",
        "xyz": [4.770710263859995, 3.953544167923992, 6.3995025]
      },
      {
        "species": [{ "element": "C", "occu": 1 }],
        "abc": [0.7221000000000001, 0.212216, 0.25],
        "properties": { "magmom": -0.0 },
        "label": "C",
        "xyz": [4.18261973614, -3.9535441679240004, 2.1331675]
      },
      {
        "species": [{ "element": "C", "occu": 1 }],
        "abc": [0.967603, 0.47654, 0.75],
        "properties": { "magmom": -0.0 },
        "label": "C",
        "xyz": [6.464944423095, -3.807609691093, 6.3995025]
      },
      {
        "species": [{ "element": "C", "occu": 1 }],
        "abc": [0.032396999999999, 0.52346, 0.25],
        "properties": { "magmom": -0.0 },
        "label": "C",
        "xyz": [2.4883855769049954, 3.8076096910930084, 2.1331675]
      },
      {
        "species": [{ "element": "C", "occu": 1 }],
        "abc": [0.508937, 0.032396999999999, 0.75],
        "properties": { "magmom": -0.0 },
        "label": "C",
        "xyz": [2.423370971109995, -3.6950010939400078, 6.3995025]
      },
      {
        "species": [{ "element": "C", "occu": 1 }],
        "abc": [0.49106299999999903, 0.967603, 0.25],
        "properties": { "magmom": -0.0 },
        "label": "C",
        "xyz": [6.529959028889995, 3.6950010939400078, 2.1331675]
      },
      {
        "species": [{ "element": "C", "occu": 1 }],
        "abc": [0.52346, 0.49106299999999903, 0.75],
        "properties": { "magmom": -0.0 },
        "label": "C",
        "xyz": [4.541679605794995, -0.25120021496700806, 6.3995025]
      },
      {
        "species": [{ "element": "C", "occu": 1 }],
        "abc": [0.47654, 0.508937, 0.25],
        "properties": { "magmom": -0.0 },
        "label": "C",
        "xyz": [4.411650394204999, 0.2512002149669996, 2.1331675]
      },
      {
        "species": [{ "element": "C", "occu": 1 }],
        "abc": [0.388157, 0.545411, 0.75],
        "properties": { "magmom": -0.0 },
        "label": "C",
        "xyz": [4.17927119072, 1.2193177949940002, 6.3995025]
      },
      {
        "species": [{ "element": "C", "occu": 1 }],
        "abc": [0.611843, 0.454588999999999, 0.25],
        "properties": { "magmom": -0.0 },
        "label": "C",
        "xyz": [4.774058809279995, -1.2193177949940073, 2.1331675]
      },
      {
        "species": [{ "element": "C", "occu": 1 }],
        "abc": [0.157254, 0.611843, 0.75],
        "properties": { "magmom": -0.0 },
        "label": "C",
        "xyz": [3.4429896215049998, 3.524797188679, 6.3995025]
      },
      {
        "species": [{ "element": "C", "occu": 1 }],
        "abc": [0.842746, 0.388157, 0.25],
        "properties": { "magmom": -0.0 },
        "label": "C",
        "xyz": [5.510340378494999, -3.5247971886790004, 2.1331675]
      },
      {
        "species": [{ "element": "C", "occu": 1 }],
        "abc": [0.454588999999999, 0.842746, 0.75],
        "properties": { "magmom": -0.0 },
        "label": "C",
        "xyz": [5.8077341877749955, 3.0096960163270077, 6.3995025]
      },
      {
        "species": [{ "element": "C", "occu": 1 }],
        "abc": [0.545411, 0.157254, 0.25],
        "properties": { "magmom": -0.0 },
        "label": "C",
        "xyz": [3.145595812225, -3.009696016327, 2.1331675]
      },
      {
        "species": [{ "element": "C", "occu": 1 }],
        "abc": [0.663554, 0.693452, 0.75],
        "properties": { "magmom": -0.0 },
        "label": "C",
        "xyz": [6.07486126499, 0.23182344127800025, 6.3995025]
      },
      {
        "species": [{ "element": "C", "occu": 1 }],
        "abc": [0.336445999999999, 0.306548, 0.25],
        "properties": { "magmom": -0.0 },
        "label": "C",
        "xyz": [2.8784687350099953, -0.23182344127799226, 2.1331675]
      },
      {
        "species": [{ "element": "C", "occu": 1 }],
        "abc": [0.029897999999999002, 0.336445999999999, 0.75],
        "properties": { "magmom": -0.0 },
        "label": "C",
        "xyz": [1.639999362759991, 2.376915254428, 6.3995025]
      },
      {
        "species": [{ "element": "C", "occu": 1 }],
        "abc": [0.970101999999999, 0.663554, 0.25],
        "properties": { "magmom": -0.0 },
        "label": "C",
        "xyz": [7.3133306372399955, -2.376915254427993, 2.1331675]
      },
      {
        "species": [{ "element": "C", "occu": 1 }],
        "abc": [0.306548, 0.970101999999999, 0.75],
        "properties": { "magmom": -0.0 },
        "label": "C",
        "xyz": [5.715134372249995, 5.1450723042939925, 6.3995025]
      },
      {
        "species": [{ "element": "C", "occu": 1 }],
        "abc": [0.693452, 0.029897999999999002, 0.25],
        "properties": { "magmom": -0.0 },
        "label": "C",
        "xyz": [3.2381956277499953, -5.145072304294008, 2.1331675]
      },
      {
        "species": [{ "element": "F", "occu": 1 }],
        "abc": [0.875710999999999, 0.47271799999999903, 0.878842999999999],
        "properties": { "magmom": -0.0 },
        "label": "F",
        "xyz": [6.036464909284991, -3.1247315563229994, 7.498877300809991]
      },
      {
        "species": [{ "element": "F", "occu": 1 }],
        "abc": [0.124289, 0.527282, 0.121157],
        "properties": { "magmom": -0.0 },
        "label": "F",
        "xyz": [2.9168650907149996, 3.124731556323, 1.03379269919]
      },
      {
        "species": [{ "element": "F", "occu": 1 }],
        "abc": [0.597007, 0.124289, 0.878842999999999],
        "properties": { "magmom": -0.0 },
        "label": "F",
        "xyz": [3.229000557839999, -3.665366028297999, 7.498877300809991]
      },
      {
        "species": [{ "element": "F", "occu": 1 }],
        "abc": [0.124289, 0.527282, 0.378843],
        "properties": { "magmom": -0.0 },
        "label": "F",
        "xyz": [2.9168650907149996, 3.124731556323, 3.2325423008099996]
      },
      {
        "species": [{ "element": "F", "occu": 1 }],
        "abc": [0.402993, 0.875710999999999, 0.121157],
        "properties": { "magmom": -0.0 },
        "label": "F",
        "xyz": [5.724329442159995, 3.665366028297992, 1.03379269919]
      },
      {
        "species": [{ "element": "F", "occu": 1 }],
        "abc": [0.875710999999999, 0.47271799999999903, 0.621157],
        "properties": { "magmom": -0.0 },
        "label": "F",
        "xyz": [6.036464909284991, -3.1247315563229994, 5.300127699189999]
      },
      {
        "species": [{ "element": "F", "occu": 1 }],
        "abc": [0.527282, 0.402993, 0.878842999999999],
        "properties": { "magmom": -0.0 },
        "label": "F",
        "xyz": [4.164529532874999, -0.9637134153789999, 7.498877300809991]
      },
      {
        "species": [{ "element": "F", "occu": 1 }],
        "abc": [0.402993, 0.875710999999999, 0.378843],
        "properties": { "magmom": -0.0 },
        "label": "F",
        "xyz": [5.724329442159995, 3.665366028297992, 3.2325423008099996]
      },
      {
        "species": [{ "element": "F", "occu": 1 }],
        "abc": [0.47271799999999903, 0.597007, 0.121157],
        "properties": { "magmom": -0.0 },
        "label": "F",
        "xyz": [4.788800467124995, 0.9637134153790066, 1.03379269919]
      },
      {
        "species": [{ "element": "F", "occu": 1 }],
        "abc": [0.597007, 0.124289, 0.621157],
        "properties": { "magmom": -0.0 },
        "label": "F",
        "xyz": [3.229000557839999, -3.665366028297999, 5.300127699189999]
      },
      {
        "species": [{ "element": "F", "occu": 1 }],
        "abc": [0.47271799999999903, 0.597007, 0.378843],
        "properties": { "magmom": -0.0 },
        "label": "F",
        "xyz": [4.788800467124995, 0.9637134153790066, 3.2325423008099996]
      },
      {
        "species": [{ "element": "F", "occu": 1 }],
        "abc": [0.527282, 0.402993, 0.621157],
        "properties": { "magmom": -0.0 },
        "label": "F",
        "xyz": [4.164529532874999, -0.9637134153789999, 5.300127699189999]
      },
      {
        "species": [{ "element": "F", "occu": 1 }],
        "abc": [0.982406, 0.233292, 0.879147999999999],
        "properties": { "magmom": -0.0 },
        "label": "F",
        "xyz": [5.44227268717, -5.808488373454, 7.501479765159991]
      },
      {
        "species": [{ "element": "F", "occu": 1 }],
        "abc": [0.017594, 0.766708, 0.120852],
        "properties": { "magmom": -0.0 },
        "label": "F",
        "xyz": [3.5110573128299998, 5.808488373454, 1.03119023484]
      },
      {
        "species": [{ "element": "F", "occu": 1 }],
        "abc": [0.250886, 0.017594, 0.879147999999999],
        "properties": { "magmom": -0.0 },
        "label": "F",
        "xyz": [1.2018950191999997, -1.808902075812, 7.501479765159991]
      },
      {
        "species": [{ "element": "F", "occu": 1 }],
        "abc": [0.017594, 0.766708, 0.379148],
        "properties": { "magmom": -0.0 },
        "label": "F",
        "xyz": [3.5110573128299998, 5.808488373454, 3.23514476516]
      },
      {
        "species": [{ "element": "F", "occu": 1 }],
        "abc": [0.749114, 0.982406, 0.120852],
        "properties": { "magmom": -0.0 },
        "label": "F",
        "xyz": [7.751434980799999, 1.808902075812, 1.03119023484]
      },
      {
        "species": [{ "element": "F", "occu": 1 }],
        "abc": [0.982406, 0.233292, 0.620852],
        "properties": { "magmom": -0.0 },
        "label": "F",
        "xyz": [5.44227268717, -5.808488373454, 5.297525234839999]
      },
      {
        "species": [{ "element": "F", "occu": 1 }],
        "abc": [0.766708, 0.749114, 0.879147999999999],
        "properties": { "magmom": -0.0 },
        "label": "F",
        "xyz": [6.78582729363, -0.13642055073399995, 7.501479765159991]
      },
      {
        "species": [{ "element": "F", "occu": 1 }],
        "abc": [0.749114, 0.982406, 0.379148],
        "properties": { "magmom": -0.0 },
        "label": "F",
        "xyz": [7.751434980799999, 1.808902075812, 3.23514476516]
      },
      {
        "species": [{ "element": "F", "occu": 1 }],
        "abc": [0.233292, 0.250886, 0.120852],
        "properties": { "magmom": -0.0 },
        "label": "F",
        "xyz": [2.1675027063699996, 0.13642055073399995, 1.03119023484]
      },
      {
        "species": [{ "element": "F", "occu": 1 }],
        "abc": [0.250886, 0.017594, 0.620852],
        "properties": { "magmom": -0.0 },
        "label": "F",
        "xyz": [1.2018950191999997, -1.808902075812, 5.297525234839999]
      },
      {
        "species": [{ "element": "F", "occu": 1 }],
        "abc": [0.233292, 0.250886, 0.379148],
        "properties": { "magmom": -0.0 },
        "label": "F",
        "xyz": [2.1675027063699996, 0.13642055073399995, 3.23514476516]
      },
      {
        "species": [{ "element": "F", "occu": 1 }],
        "abc": [0.766708, 0.749114, 0.620852],
        "properties": { "magmom": -0.0 },
        "label": "F",
        "xyz": [6.78582729363, -0.13642055073399995, 5.297525234839999]
      }
    ]
  },
  "task_ids": null,
  "uncorrected_energy_per_atom": null,
  "energy_per_atom": -6.62690875125,
  "formation_energy_per_atom": -1.0556498175,
  "energy_above_hull": 0.30745999968749904,
  "is_stable": false,
  "equilibrium_reaction_energy_per_atom": null,
  "decomposes_to": null,
  "xas": null,
  "grain_boundaries": null,
  "band_gap": 4.467,
  "cbm": null,
  "vbm": null,
  "efermi": -2.00781004,
  "is_gap_direct": null,
  "is_metal": null,
  "es_source_calc_id": null,
  "bandstructure": null,
  "dos": null,
  "dos_energy_up": null,
  "dos_energy_down": null,
  "is_magnetic": null,
  "ordering": null,
  "total_magnetization": 0.0042106,
  "total_magnetization_normalized_vol": null,
  "total_magnetization_normalized_formula_units": null,
  "num_magnetic_sites": null,
  "num_unique_magnetic_sites": null,
  "types_of_magnetic_species": null,
  "bulk_modulus": null,
  "shear_modulus": null,
  "universal_anisotropy": null,
  "homogeneous_poisson": null,
  "e_total": null,
  "e_ionic": null,
  "e_electronic": null,
  "n": null,
  "e_ij_max": null,
  "weighted_surface_energy_EV_PER_ANG2": null,
  "weighted_surface_energy": null,
  "weighted_work_function": null,
  "surface_anisotropy": null,
  "shape_factor": null,
  "has_reconstructed": null,
  "possible_species": null,
  "has_props": null,
  "theoretical": null,
  "database_IDs": null,
  "fields_not_requested": [
    "builder_meta",
    "nsites",
    "elements",
    "nelements",
    "composition",
    "composition_reduced",
    "chemsys",
    "symmetry",
    "property_name",
    "deprecated",
    "deprecation_reasons",
    "last_updated",
    "origins",
    "warnings",
    "task_ids",
    "uncorrected_energy_per_atom",
    "equilibrium_reaction_energy_per_atom",
    "decomposes_to",
    "xas",
    "grain_boundaries",
    "cbm",
    "vbm",
    "is_gap_direct",
    "is_metal",
    "es_source_calc_id",
    "bandstructure",
    "dos",
    "dos_energy_up",
    "dos_energy_down",
    "is_magnetic",
    "ordering",
    "total_magnetization_normalized_vol",
    "total_magnetization_normalized_formula_units",
    "num_magnetic_sites",
    "num_unique_magnetic_sites",
    "types_of_magnetic_species",
    "bulk_modulus",
    "shear_modulus",
    "universal_anisotropy",
    "homogeneous_poisson",
    "e_total",
    "e_ionic",
    "e_electronic",
    "n",
    "e_ij_max",
    "weighted_surface_energy_EV_PER_ANG2",
    "weighted_surface_energy",
    "weighted_work_function",
    "surface_anisotropy",
    "shape_factor",
    "has_reconstructed",
    "possible_species",
    "has_props",
    "theoretical",
    "database_IDs"
  ]
}
