{"builder_meta": null, "nsites": null, "elements": null, "nelements": null, "composition": null, "composition_reduced": null, "formula_pretty": "CF2", "formula_anonymous": "AB2", "chemsys": null, "volume": 250.06735113352292, "density": 1.992409267920244, "density_atomic": 13.89263061852905, "symmetry": null, "property_name": null, "material_id": "mp-559432", "deprecated": null, "deprecation_reasons": null, "last_updated": null, "origins": null, "warnings": null, "structure": {"@module": "pymatgen.core.structure", "@class": "Structure", "charge": 0, "lattice": {"matrix": [[6.206991, 0.0, 0.0], [-0.481006999999999, 6.355551, 0.0], [-2.197931, -0.441834, 6.339028]], "pbc": [true, true, true], "a": 6.206991, "b": 6.373727029584026, "c": 6.723793122122438, "alpha": 92.34148665841153, "beta": 109.08003168920354, "gamma": 94.32806397519848, "volume": 250.06735113352292}, "properties": {}, "sites": [{"species": [{"element": "C", "occu": 1}], "abc": [0.548277, 0.825989, 0.767018], "properties": {"magmom": -0.0}, "label": "C", "xyz": [1.3199912738260013, 4.9107205839270005, 4.862148578504]}, {"species": [{"element": "C", "occu": 1}], "abc": [0.451723, 0.174011, 0.232982], "properties": {"magmom": -0.0}, "label": "C", "xyz": [2.208061726174, 1.002996416073, 1.476879421496]}, {"species": [{"element": "C", "occu": 1}], "abc": [0.344624, 0.743042, 0.634610999999999], "properties": {"magmom": -0.0}, "label": "C", "xyz": [0.3868384732490029, 4.442048609568001, 4.022816898107994]}, {"species": [{"element": "C", "occu": 1}], "abc": [0.655376, 0.256957999999999, 0.365388999999999], "properties": {"magmom": -0.0}, "label": "C", "xyz": [3.1412145267510034, 1.4716683904319943, 2.3162111018919935]}, {"species": [{"element": "C", "occu": 1}], "abc": [0.254615, 0.288284, 0.108417], "properties": {"magmom": -0.0}, "label": "C", "xyz": [1.2034333062500002, 1.784301347706, 0.687258398676]}, {"species": [{"element": "C", "occu": 1}], "abc": [0.745385, 0.711716, 0.891583], "properties": {"magmom": -0.0}, "label": "C", "xyz": [2.32461969375, 4.129415652294, 5.651769601324]}, {"species": [{"element": "F", "occu": 1}], "abc": [0.692815, 0.499594999999999, 0.870842], "properties": {"magmom": -0.0}, "label": "F", "xyz": [2.1459371495980006, 2.790433897616994, 5.5202918215759995]}, {"species": [{"element": "F", "occu": 1}], "abc": [0.720424, 0.460935999999999, 0.409105999999999], "properties": {"magmom": 0.0}, "label": "F", "xyz": [3.350765081946003, 2.7487453153319943, 2.593334388967994]}, {"species": [{"element": "F", "occu": 1}], "abc": [0.812931, 0.774941, 0.100637999999999], "properties": {"magmom": -0.0}, "label": "F", "xyz": [4.451907975056002, 4.880711757399, 0.6379470998639937]}, {"species": [{"element": "F", "occu": 1}], "abc": [0.931608, 0.753552999999999, 0.828328], "properties": {"magmom": 0.0}, "label": "F", "xyz": [3.599410414289002, 4.423261049150994, 5.250794385183999]}, {"species": [{"element": "F", "occu": 1}], "abc": [0.307185, 0.500405, 0.129158], "properties": {"magmom": -0.0}, "label": "F", "xyz": [1.3821158504020006, 3.123283102383, 0.8187361784239999]}, {"species": [{"element": "F", "occu": 1}], "abc": [0.187068999999999, 0.225058999999999, 0.899362], "properties": {"magmom": -0.0}, "label": "F", "xyz": [-0.9238549750560054, 1.0330052426009937, 5.701080900136]}, {"species": [{"element": "F", "occu": 1}], "abc": [0.068392, 0.246447, 0.171672], "properties": {"magmom": 0.0}, "label": "F", "xyz": [-0.07135741428899972, 1.490455950849, 1.088233614816]}, {"species": [{"element": "F", "occu": 1}], "abc": [0.59109, 0.039018, 0.795362999999999], "properties": {"magmom": 0.0}, "label": "F", "xyz": [1.9019693851110022, -0.10343752682399956, 5.041828327163993]}, {"species": [{"element": "F", "occu": 1}], "abc": [0.183879, 0.861385, 0.530871], "properties": {"magmom": -0.0}, "label": "F", "xyz": [-0.4398147445069992, 5.240019440721, 3.365206133388]}, {"species": [{"element": "F", "occu": 1}], "abc": [0.279576, 0.539064, 0.590893999999999], "properties": {"magmom": 0.0}, "label": "F", "xyz": [0.17728791805400257, 3.1649716846680005, 3.7456936110319936]}, {"species": [{"element": "F", "occu": 1}], "abc": [0.816121, 0.138615, 0.469128999999999], "properties": {"magmom": -0.0}, "label": "F", "xyz": [3.9678677445070027, 0.6736975592790003, 2.9738218666119938]}, {"species": [{"element": "F", "occu": 1}], "abc": [0.40891000000000005, 0.960982, 0.20463699999999901], "properties": {"magmom": 0.0}, "label": "F", "xyz": [1.6260836148890032, 6.017154526824001, 1.2971996728359938]}]}, "task_ids": null, "uncorrected_energy_per_atom": null, "energy_per_atom": -5.924012776111111, "formation_energy_per_atom": -1.571889361944444, "energy_above_hull": 0.245590394305557, "is_stable": false, "equilibrium_reaction_energy_per_atom": null, "decomposes_to": null, "xas": null, "grain_boundaries": null, "band_gap": 4.9033, "cbm": null, "vbm": null, "efermi": -1.50273871, "is_gap_direct": null, "is_metal": null, "es_source_calc_id": null, "bandstructure": null, "dos": null, "dos_energy_up": null, "dos_energy_down": null, "is_magnetic": null, "ordering": null, "total_magnetization": 0.0, "total_magnetization_normalized_vol": null, "total_magnetization_normalized_formula_units": null, "num_magnetic_sites": null, "num_unique_magnetic_sites": null, "types_of_magnetic_species": null, "bulk_modulus": null, "shear_modulus": null, "universal_anisotropy": null, "homogeneous_poisson": null, "e_total": null, "e_ionic": null, "e_electronic": null, "n": null, "e_ij_max": null, "weighted_surface_energy_EV_PER_ANG2": null, "weighted_surface_energy": null, "weighted_work_function": null, "surface_anisotropy": null, "shape_factor": null, "has_reconstructed": null, "possible_species": null, "has_props": null, "theoretical": null, "database_IDs": null, "fields_not_requested": ["builder_meta", "nsites", "elements", "nelements", "composition", "composition_reduced", "chemsys", "symmetry", "property_name", "deprecated", "deprecation_reasons", "last_updated", "origins", "warnings", "task_ids", "uncorrected_energy_per_atom", "equilibrium_reaction_energy_per_atom", "decomposes_to", "xas", "grain_boundaries", "cbm", "vbm", "is_gap_direct", "is_metal", "es_source_calc_id", "bandstructure", "dos", "dos_energy_up", "dos_energy_down", "is_magnetic", "ordering", "total_magnetization_normalized_vol", "total_magnetization_normalized_formula_units", "num_magnetic_sites", "num_unique_magnetic_sites", "types_of_magnetic_species", "bulk_modulus", "shear_modulus", "universal_anisotropy", "homogeneous_poisson", "e_total", "e_ionic", "e_electronic", "n", "e_ij_max", "weighted_surface_energy_EV_PER_ANG2", "weighted_surface_energy", "weighted_work_function", "surface_anisotropy", "shape_factor", "has_reconstructed", "possible_species", "has_props", "theoretical", "database_IDs"]}