{"builder_meta": null, "nsites": null, "elements": null, "nelements": null, "composition": null, "composition_reduced": null, "formula_pretty": "CF4", "formula_anonymous": "AB4", "chemsys": null, "volume": 122.84706960969223, "density": 2.379130408205632, "density_atomic": 12.284706960969222, "symmetry": null, "property_name": null, "material_id": "mp-1167", "deprecated": null, "deprecation_reasons": null, "last_updated": null, "origins": null, "warnings": null, "structure": {"@module": "pymatgen.core.structure", "@class": "Structure", "charge": 0, "lattice": {"matrix": [[4.01064459, 5e-08, 1.1879475], [1.99557739, 4.12906609, 0.62686945], [-0.01460321, -0.04764663, 7.41346598]], "pbc": [true, true, true], "a": 4.182880501526732, "b": 4.6286586828594745, "c": 7.4136334743302506, "alpha": 82.59704763443953, "beta": 73.6139924396387, "gamma": 63.13784180355886, "volume": 122.84706960969223}, "properties": {}, "sites": [{"species": [{"element": "C", "occu": 1}], "abc": [0.93013234, 0.25, 0.25], "properties": {"magmom": -0.0}, "label": "C", "xyz": [4.225673782405041, 1.020354911506617, 3.11503224547215]}, {"species": [{"element": "C", "occu": 1}], "abc": [0.06986766, 0.75, 0.75], "properties": {"magmom": -0.0}, "label": "C", "xyz": [1.7659449875949593, 3.0610645984933833, 6.11325068452785]}, {"species": [{"element": "F", "occu": 1}], "abc": [0.96550295, 0.50231205, 0.29428399], "properties": {"magmom": 0.0}, "label": "F", "xyz": [4.870394261845482, 2.0600580601420786, 3.6435152425306576]}, {"species": [{"element": "F", "occu": 1}], "abc": [0.26209999, -0.00231205, 0.20571601], "properties": {"magmom": 0.0}, "label": "F", "xyz": [1.0435719181336125, -0.0193482687619313, 1.8349803160349922]}, {"species": [{"element": "F", "occu": 1}], "abc": [0.03449705, 0.49768795, 0.7057160100000001], "properties": {"magmom": 0.0}, "label": "F", "xyz": [1.121224508154518, 2.0213614498579218, 5.584767687469343]}, {"species": [{"element": "F", "occu": 1}], "abc": [0.73790001, 0.00231205, 0.79428399], "properties": {"magmom": 0.0}, "label": "F", "xyz": [2.952469461866388, -0.028298311238068703, 6.766433163965008]}, {"species": [{"element": "F", "occu": 1}], "abc": [0.28914027000000003, 0.82661388, 0.60347829], "properties": {"magmom": 0.0}, "label": "F", "xyz": [2.8003981086155014, 3.3843896490916805, 5.335528221797365]}, {"species": [{"element": "F", "occu": 1}], "abc": [0.21923245, 0.67338612, 0.89652171], "properties": {"magmom": 0.0}, "label": "F", "xyz": [2.209965460556083, 2.737739566326956, 7.328895024994835]}, {"species": [{"element": "F", "occu": 1}], "abc": [0.71085973, 0.17338612, 0.39652171], "properties": {"magmom": 0.0}, "label": "F", "xyz": [3.1912206613844987, 0.6970298609083201, 3.892754708202635]}, {"species": [{"element": "F", "occu": 1}], "abc": [0.78076755, 0.32661388, 0.10347829], "properties": {"magmom": 0.0}, "label": "F", "xyz": [3.7816533094439166, 1.343679943673044, 1.899387905005165]}]}, "task_ids": null, "uncorrected_energy_per_atom": null, "energy_per_atom": -5.5577907060000005, "formation_energy_per_atom": -2.180975707500001, "energy_above_hull": 0.0, "is_stable": true, "equilibrium_reaction_energy_per_atom": null, "decomposes_to": null, "xas": null, "grain_boundaries": null, "band_gap": 9.0653, "cbm": null, "vbm": null, "efermi": -5.25890296, "is_gap_direct": null, "is_metal": null, "es_source_calc_id": null, "bandstructure": null, "dos": null, "dos_energy_up": null, "dos_energy_down": null, "is_magnetic": null, "ordering": null, "total_magnetization": 0.0, "total_magnetization_normalized_vol": null, "total_magnetization_normalized_formula_units": null, "num_magnetic_sites": null, "num_unique_magnetic_sites": null, "types_of_magnetic_species": null, "bulk_modulus": null, "shear_modulus": null, "universal_anisotropy": null, "homogeneous_poisson": null, "e_total": null, "e_ionic": null, "e_electronic": null, "n": null, "e_ij_max": null, "weighted_surface_energy_EV_PER_ANG2": null, "weighted_surface_energy": null, "weighted_work_function": null, "surface_anisotropy": null, "shape_factor": null, "has_reconstructed": null, "possible_species": null, "has_props": null, "theoretical": null, "database_IDs": null, "fields_not_requested": ["builder_meta", "nsites", "elements", "nelements", "composition", "composition_reduced", "chemsys", "symmetry", "property_name", "deprecated", "deprecation_reasons", "last_updated", "origins", "warnings", "task_ids", "uncorrected_energy_per_atom", "equilibrium_reaction_energy_per_atom", "decomposes_to", "xas", "grain_boundaries", "cbm", "vbm", "is_gap_direct", "is_metal", "es_source_calc_id", "bandstructure", "dos", "dos_energy_up", "dos_energy_down", "is_magnetic", "ordering", "total_magnetization_normalized_vol", "total_magnetization_normalized_formula_units", "num_magnetic_sites", "num_unique_magnetic_sites", "types_of_magnetic_species", "bulk_modulus", "shear_modulus", "universal_anisotropy", "homogeneous_poisson", "e_total", "e_ionic", "e_electronic", "n", "e_ij_max", "weighted_surface_energy_EV_PER_ANG2", "weighted_surface_energy", "weighted_work_function", "surface_anisotropy", "shape_factor", "has_reconstructed", "possible_species", "has_props", "theoretical", "database_IDs"]}