{
  "builder_meta": null,
  "nsites": null,
  "elements": null,
  "nelements": null,
  "composition": null,
  "composition_reduced": null,
  "formula_pretty": "CI",
  "formula_anonymous": "AB",
  "chemsys": null,
  "volume": 1428.0060295401752,
  "density": 2.584572467696466,
  "density_atomic": 44.625188423130474,
  "symmetry": null,
  "property_name": null,
  "material_id": "mp-1197830",
  "deprecated": null,
  "deprecation_reasons": null,
  "last_updated": null,
  "origins": null,
  "warnings": null,
  "structure": {
    "@module": "pymatgen.core.structure",
    "@class": "Structure",
    "charge": 0,
    "lattice": {
      "matrix": [
        [16.595465, 0.0, 0.0],
        [0.0, 16.595465, 0.0],
        [0.0, 0.0, 5.185029]
      ],
      "pbc": [true, true, true],
      "a": 16.595465,
      "b": 16.595465,
      "c": 5.185029,
      "alpha": 90.0,
      "beta": 90.0,
      "gamma": 90.0,
      "volume": 1428.0060295401752
    },
    "properties": {},
    "sites": [
      {
        "species": [{ "element": "C", "occu": 1 }],
        "abc": [0.960136, 0.227554999999999, 0.205161999999999],
        "properties": { "magmom": -0.0 },
        "label": "C",
        "xyz": [15.93390338324, 3.776381038074984, 1.063770919697995]
      },
      {
        "species": [{ "element": "C", "occu": 1 }],
        "abc": [0.039864, 0.772444999999999, 0.205161999999999],
        "properties": { "magmom": -0.0 },
        "label": "C",
        "xyz": [0.66156161676, 12.819083961924985, 1.063770919697995]
      },
      {
        "species": [{ "element": "C", "occu": 1 }],
        "abc": [0.272445, 0.460136, 0.705162],
        "properties": { "magmom": -0.0 },
        "label": "C",
        "xyz": [4.521351461925, 7.63617088324, 3.656285419698]
      },
      {
        "species": [{ "element": "C", "occu": 1 }],
        "abc": [0.727555, 0.539864, 0.705162],
        "properties": { "magmom": -0.0 },
        "label": "C",
        "xyz": [12.074113538075, 8.95929411676, 3.656285419698]
      },
      {
        "species": [{ "element": "C", "occu": 1 }],
        "abc": [0.539864, 0.272445, 0.294838],
        "properties": { "magmom": -0.0 },
        "label": "C",
        "xyz": [8.95929411676, 4.521351461925, 1.528743580302]
      },
      {
        "species": [{ "element": "C", "occu": 1 }],
        "abc": [0.460136, 0.727555, 0.294838],
        "properties": { "magmom": -0.0 },
        "label": "C",
        "xyz": [7.63617088324, 12.074113538075, 1.528743580302]
      },
      {
        "species": [{ "element": "C", "occu": 1 }],
        "abc": [0.227554999999999, 0.039864, 0.794837999999999],
        "properties": { "magmom": -0.0 },
        "label": "C",
        "xyz": [3.776381038074984, 0.66156161676, 4.121258080301995]
      },
      {
        "species": [{ "element": "C", "occu": 1 }],
        "abc": [0.772444999999999, 0.960136, 0.794837999999999],
        "properties": { "magmom": -0.0 },
        "label": "C",
        "xyz": [12.819083961924985, 15.93390338324, 4.121258080301995]
      },
      {
        "species": [{ "element": "C", "occu": 1 }],
        "abc": [0.008794999999999002, 0.276122, 0.292112],
        "properties": { "magmom": -0.0 },
        "label": "C",
        "xyz": [0.14595711467498343, 4.58237298673, 1.514609191248]
      },
      {
        "species": [{ "element": "C", "occu": 1 }],
        "abc": [0.991205, 0.723878, 0.292112],
        "properties": { "magmom": -0.0 },
        "label": "C",
        "xyz": [16.449507885325, 12.01309201327, 1.514609191248]
      },
      {
        "species": [{ "element": "C", "occu": 1 }],
        "abc": [0.223878, 0.508795, 0.792111999999999],
        "properties": { "magmom": -0.0 },
        "label": "C",
        "xyz": [3.71535951327, 8.443689614675, 4.107123691247995]
      },
      {
        "species": [{ "element": "C", "occu": 1 }],
        "abc": [0.776122, 0.491205, 0.792111999999999],
        "properties": { "magmom": -0.0 },
        "label": "C",
        "xyz": [12.88010548673, 8.151775385325001, 4.107123691247995]
      },
      {
        "species": [{ "element": "C", "occu": 1 }],
        "abc": [0.491205, 0.223878, 0.207888],
        "properties": { "magmom": -0.0 },
        "label": "C",
        "xyz": [8.151775385325001, 3.71535951327, 1.0779053087519999]
      },
      {
        "species": [{ "element": "C", "occu": 1 }],
        "abc": [0.508795, 0.776122, 0.207888],
        "properties": { "magmom": -0.0 },
        "label": "C",
        "xyz": [8.443689614675, 12.88010548673, 1.0779053087519999]
      },
      {
        "species": [{ "element": "C", "occu": 1 }],
        "abc": [0.276122, 0.991205, 0.707888],
        "properties": { "magmom": -0.0 },
        "label": "C",
        "xyz": [4.58237298673, 16.449507885325, 3.670419808752]
      },
      {
        "species": [{ "element": "C", "occu": 1 }],
        "abc": [0.723878, 0.008794999999999002, 0.707888],
        "properties": { "magmom": -0.0 },
        "label": "C",
        "xyz": [12.01309201327, 0.14595711467498343, 3.670419808752]
      },
      {
        "species": [{ "element": "I", "occu": 1 }],
        "abc": [0.881290999999999, 0.148613, 0.065866],
        "properties": { "magmom": -0.0 },
        "label": "I",
        "xyz": [14.625433945314985, 2.466301840045, 0.341517120114]
      },
      {
        "species": [{ "element": "I", "occu": 1 }],
        "abc": [0.118709, 0.851387, 0.065866],
        "properties": { "magmom": -0.0 },
        "label": "I",
        "xyz": [1.970031054685, 14.129163159955, 0.341517120114]
      },
      {
        "species": [{ "element": "I", "occu": 1 }],
        "abc": [0.351387, 0.381291, 0.565866],
        "properties": { "magmom": -0.0 },
        "label": "I",
        "xyz": [5.831430659955, 6.327701445315, 2.9340316201139998]
      },
      {
        "species": [{ "element": "I", "occu": 1 }],
        "abc": [0.648613, 0.618709, 0.565866],
        "properties": { "magmom": -0.0 },
        "label": "I",
        "xyz": [10.764034340045, 10.267763554685, 2.9340316201139998]
      },
      {
        "species": [{ "element": "I", "occu": 1 }],
        "abc": [0.618709, 0.351387, 0.434133999999999],
        "properties": { "magmom": -0.0 },
        "label": "I",
        "xyz": [10.267763554685, 5.831430659955, 2.250997379885995]
      },
      {
        "species": [{ "element": "I", "occu": 1 }],
        "abc": [0.381291, 0.648613, 0.434133999999999],
        "properties": { "magmom": -0.0 },
        "label": "I",
        "xyz": [6.327701445315, 10.764034340045, 2.250997379885995]
      },
      {
        "species": [{ "element": "I", "occu": 1 }],
        "abc": [0.148613, 0.118709, 0.934133999999999],
        "properties": { "magmom": -0.0 },
        "label": "I",
        "xyz": [2.466301840045, 1.970031054685, 4.843511879885995]
      },
      {
        "species": [{ "element": "I", "occu": 1 }],
        "abc": [0.851387, 0.881290999999999, 0.934133999999999],
        "properties": { "magmom": -0.0 },
        "label": "I",
        "xyz": [14.129163159955, 14.625433945314985, 4.843511879885995]
      },
      {
        "species": [{ "element": "I", "occu": 1 }],
        "abc": [0.087755, 0.354502, 0.433876],
        "properties": { "magmom": -0.0 },
        "label": "I",
        "xyz": [1.456335031075, 5.88312553343, 2.249659642404]
      },
      {
        "species": [{ "element": "I", "occu": 1 }],
        "abc": [0.912245, 0.645498, 0.433876],
        "properties": { "magmom": -0.0 },
        "label": "I",
        "xyz": [15.139129968925, 10.71233946657, 2.249659642404]
      },
      {
        "species": [{ "element": "I", "occu": 1 }],
        "abc": [0.145498, 0.587755, 0.933875999999999],
        "properties": { "magmom": -0.0 },
        "label": "I",
        "xyz": [2.41460696657, 9.754067531075002, 4.842174142403995]
      },
      {
        "species": [{ "element": "I", "occu": 1 }],
        "abc": [0.854502, 0.412245, 0.933875999999999],
        "properties": { "magmom": -0.0 },
        "label": "I",
        "xyz": [14.18085803343, 6.841397468925, 4.842174142403995]
      },
      {
        "species": [{ "element": "I", "occu": 1 }],
        "abc": [0.412245, 0.145498, 0.066124],
        "properties": { "magmom": -0.0 },
        "label": "I",
        "xyz": [6.841397468925, 2.41460696657, 0.34285485759600004]
      },
      {
        "species": [{ "element": "I", "occu": 1 }],
        "abc": [0.587755, 0.854502, 0.066124],
        "properties": { "magmom": -0.0 },
        "label": "I",
        "xyz": [9.754067531075002, 14.18085803343, 0.34285485759600004]
      },
      {
        "species": [{ "element": "I", "occu": 1 }],
        "abc": [0.354502, 0.912245, 0.566124],
        "properties": { "magmom": -0.0 },
        "label": "I",
        "xyz": [5.88312553343, 15.139129968925, 2.935369357596]
      },
      {
        "species": [{ "element": "I", "occu": 1 }],
        "abc": [0.645498, 0.087755, 0.566124],
        "properties": { "magmom": -0.0 },
        "label": "I",
        "xyz": [10.71233946657, 1.456335031075, 2.935369357596]
      }
    ]
  },
  "task_ids": null,
  "uncorrected_energy_per_atom": null,
  "energy_per_atom": -4.61694648875,
  "formation_energy_per_atom": 0.7593925649999991,
  "energy_above_hull": 0.7593925649999991,
  "is_stable": false,
  "equilibrium_reaction_energy_per_atom": null,
  "decomposes_to": null,
  "xas": null,
  "grain_boundaries": null,
  "band_gap": 3.4211,
  "cbm": null,
  "vbm": null,
  "efermi": -0.89993419,
  "is_gap_direct": null,
  "is_metal": null,
  "es_source_calc_id": null,
  "bandstructure": null,
  "dos": null,
  "dos_energy_up": null,
  "dos_energy_down": null,
  "is_magnetic": null,
  "ordering": null,
  "total_magnetization": 0.0124332,
  "total_magnetization_normalized_vol": null,
  "total_magnetization_normalized_formula_units": null,
  "num_magnetic_sites": null,
  "num_unique_magnetic_sites": null,
  "types_of_magnetic_species": null,
  "bulk_modulus": null,
  "shear_modulus": null,
  "universal_anisotropy": null,
  "homogeneous_poisson": null,
  "e_total": null,
  "e_ionic": null,
  "e_electronic": null,
  "n": null,
  "e_ij_max": null,
  "weighted_surface_energy_EV_PER_ANG2": null,
  "weighted_surface_energy": null,
  "weighted_work_function": null,
  "surface_anisotropy": null,
  "shape_factor": null,
  "has_reconstructed": null,
  "possible_species": null,
  "has_props": null,
  "theoretical": null,
  "database_IDs": null,
  "fields_not_requested": [
    "builder_meta",
    "nsites",
    "elements",
    "nelements",
    "composition",
    "composition_reduced",
    "chemsys",
    "symmetry",
    "property_name",
    "deprecated",
    "deprecation_reasons",
    "last_updated",
    "origins",
    "warnings",
    "task_ids",
    "uncorrected_energy_per_atom",
    "equilibrium_reaction_energy_per_atom",
    "decomposes_to",
    "xas",
    "grain_boundaries",
    "cbm",
    "vbm",
    "is_gap_direct",
    "is_metal",
    "es_source_calc_id",
    "bandstructure",
    "dos",
    "dos_energy_up",
    "dos_energy_down",
    "is_magnetic",
    "ordering",
    "total_magnetization_normalized_vol",
    "total_magnetization_normalized_formula_units",
    "num_magnetic_sites",
    "num_unique_magnetic_sites",
    "types_of_magnetic_species",
    "bulk_modulus",
    "shear_modulus",
    "universal_anisotropy",
    "homogeneous_poisson",
    "e_total",
    "e_ionic",
    "e_electronic",
    "n",
    "e_ij_max",
    "weighted_surface_energy_EV_PER_ANG2",
    "weighted_surface_energy",
    "weighted_work_function",
    "surface_anisotropy",
    "shape_factor",
    "has_reconstructed",
    "possible_species",
    "has_props",
    "theoretical",
    "database_IDs"
  ]
}
