{"builder_meta": null, "nsites": null, "elements": null, "nelements": null, "composition": null, "composition_reduced": null, "formula_pretty": "CI2", "formula_anonymous": "AB2", "chemsys": null, "volume": 995.7008883831626, "density": 3.546477879366425, "density_atomic": 41.48753701596511, "symmetry": null, "property_name": null, "material_id": "mp-1214237", "deprecated": null, "deprecation_reasons": null, "last_updated": null, "origins": null, "warnings": null, "structure": {"@module": "pymatgen.core.structure", "@class": "Structure", "charge": 0, "lattice": {"matrix": [[0.0, -5.042429, 0.0], [-14.800540999999999, 0.0, 5.019504], [0.064632, 0.0, -13.36363]], "pbc": [true, true, true], "a": 5.042429, "b": 15.628545495301122, "c": 13.363786292526681, "alpha": 109.01112537950826, "beta": 90.0, "gamma": 90.0, "volume": 995.7008883831624}, "properties": {}, "sites": [{"species": [{"element": "C", "occu": 1}], "abc": [0.976047, 0.543667999999999, 0.505543], "properties": {"magmom": -0.0}, "label": "C", "xyz": [-8.013906269211986, -4.921647698163, -4.026945900418005]}, {"species": [{"element": "C", "occu": 1}], "abc": [0.023953, 0.456331999999999, 0.494457], "properties": {"magmom": -0.0}, "label": "C", "xyz": [-6.722002730787985, -0.120781301837, -4.317180099582004]}, {"species": [{"element": "C", "occu": 1}], "abc": [0.476047, 0.456331999999999, 0.994456999999999], "properties": {"magmom": -0.0}, "label": "C", "xyz": [-6.689686730787985, -2.4004331981630003, -10.998995099581993]}, {"species": [{"element": "C", "occu": 1}], "abc": [0.523953, 0.543667999999999, 0.005542999999999], "properties": {"magmom": -0.0}, "label": "C", "xyz": [-8.046222269211986, -2.641995801837, 2.6548690995820086]}, {"species": [{"element": "C", "occu": 1}], "abc": [0.983814, 0.955974, 0.971935999999999], "properties": {"magmom": -0.0}, "label": "C", "xyz": [-14.086114214381999, -4.960812244206, -8.190077770783986]}, {"species": [{"element": "C", "occu": 1}], "abc": [0.016186, 0.044025999999999, 0.028064], "properties": {"magmom": -0.0}, "label": "C", "xyz": [-0.6497947856179852, -0.081616755794, -0.15404822921600494]}, {"species": [{"element": "C", "occu": 1}], "abc": [0.483813999999999, 0.044025999999999, 0.528064], "properties": {"magmom": -0.0}, "label": "C", "xyz": [-0.6174787856179853, -2.439597744205995, -6.835863229216005]}, {"species": [{"element": "C", "occu": 1}], "abc": [0.516185999999999, 0.955974, 0.471935999999999], "properties": {"magmom": -0.0}, "label": "C", "xyz": [-14.118430214382, -2.6028312557939954, -1.508262770783987]}, {"species": [{"element": "I", "occu": 1}], "abc": [0.788288, 0.910756, 0.825189], "properties": {"magmom": -0.0}, "label": "I", "xyz": [-13.426347903547999, -3.974886271552, -6.455977091046]}, {"species": [{"element": "I", "occu": 1}], "abc": [0.211711999999999, 0.089243999999999, 0.174811], "properties": {"magmom": -0.0}, "label": "I", "xyz": [-1.309561096451985, -1.067542728447995, -1.8881489089540047]}, {"species": [{"element": "I", "occu": 1}], "abc": [0.288288, 0.089243999999999, 0.674810999999999], "properties": {"magmom": -0.0}, "label": "I", "xyz": [-1.2772450964519853, -1.453671771552, -8.569963908953993]}, {"species": [{"element": "I", "occu": 1}], "abc": [0.711712, 0.910756, 0.325189], "properties": {"magmom": -0.0}, "label": "I", "xyz": [-13.458663903547999, -3.5887572284480003, 0.22583790895400035]}, {"species": [{"element": "I", "occu": 1}], "abc": [0.377509, 0.850518999999999, 0.524081999999999], "properties": {"magmom": -0.0}, "label": "I", "xyz": [-12.554268862954984, -1.903562329361, -2.7344544150839916]}, {"species": [{"element": "I", "occu": 1}], "abc": [0.622491, 0.149481, 0.47591799999999906], "properties": {"magmom": -0.0}, "label": "I", "xyz": [-2.181640137045, -3.138866670639, -5.609671584915987]}, {"species": [{"element": "I", "occu": 1}], "abc": [0.877509, 0.149481, 0.975918], "properties": {"magmom": -0.0}, "label": "I", "xyz": [-2.149324137045, -4.424776829361, -12.291486584916]}, {"species": [{"element": "I", "occu": 1}], "abc": [0.122490999999999, 0.850518999999999, 0.024082], "properties": {"magmom": -0.0}, "label": "I", "xyz": [-12.586584862954984, -0.617652170638995, 3.947360584915996]}, {"species": [{"element": "I", "occu": 1}], "abc": [0.71528, 0.5860200000000001, 0.890582], "properties": {"magmom": -0.0}, "label": "I", "xyz": [-8.615852940996001, -3.6067486151200003, -8.95987859858]}, {"species": [{"element": "I", "occu": 1}], "abc": [0.28472000000000003, 0.41398, 0.109418], "properties": {"magmom": -0.0}, "label": "I", "xyz": [-6.120056059004, -1.4356803848800002, 0.6157525985800003]}, {"species": [{"element": "I", "occu": 1}], "abc": [0.21528000000000003, 0.41398, 0.609418], "properties": {"magmom": -0.0}, "label": "I", "xyz": [-6.087740059003999, -1.0855341151200002, -6.06606240142]}, {"species": [{"element": "I", "occu": 1}], "abc": [0.7847200000000001, 0.5860200000000001, 0.390582], "properties": {"magmom": -0.0}, "label": "I", "xyz": [-8.648168940996001, -3.9568948848800005, -2.278063598579999]}, {"species": [{"element": "I", "occu": 1}], "abc": [0.588785, 0.348782, 0.858553], "properties": {"magmom": -0.0}, "label": "I", "xyz": [-5.106672293566, -2.968906558765, -9.722671983262]}, {"species": [{"element": "I", "occu": 1}], "abc": [0.411215, 0.651218, 0.141447], "properties": {"magmom": -0.0}, "label": "I", "xyz": [-9.629236706434, -2.073522441235, 1.3785459832620002]}, {"species": [{"element": "I", "occu": 1}], "abc": [0.088785, 0.651218, 0.641447], "properties": {"magmom": -0.0}, "label": "I", "xyz": [-9.596920706434, -0.447692058765, -5.303269016738]}, {"species": [{"element": "I", "occu": 1}], "abc": [0.911215, 0.348782, 0.358553], "properties": {"magmom": -0.0}, "label": "I", "xyz": [-5.138988293565999, -4.594736941235, -3.0408569832620005]}]}, "task_ids": null, "uncorrected_energy_per_atom": null, "energy_per_atom": -3.8028036899999993, "formation_energy_per_atom": 0.289426550833333, "energy_above_hull": 0.289426550833333, "is_stable": false, "equilibrium_reaction_energy_per_atom": null, "decomposes_to": null, "xas": null, "grain_boundaries": null, "band_gap": 2.575, "cbm": null, "vbm": null, "efermi": 3.14728016, "is_gap_direct": null, "is_metal": null, "es_source_calc_id": null, "bandstructure": null, "dos": null, "dos_energy_up": null, "dos_energy_down": null, "is_magnetic": null, "ordering": null, "total_magnetization": 0.004171999999999, "total_magnetization_normalized_vol": null, "total_magnetization_normalized_formula_units": null, "num_magnetic_sites": null, "num_unique_magnetic_sites": null, "types_of_magnetic_species": null, "bulk_modulus": null, "shear_modulus": null, "universal_anisotropy": null, "homogeneous_poisson": null, "e_total": null, "e_ionic": null, "e_electronic": null, "n": null, "e_ij_max": null, "weighted_surface_energy_EV_PER_ANG2": null, "weighted_surface_energy": null, "weighted_work_function": null, "surface_anisotropy": null, "shape_factor": null, "has_reconstructed": null, "possible_species": null, "has_props": null, "theoretical": null, "database_IDs": null, "fields_not_requested": ["builder_meta", "nsites", "elements", "nelements", "composition", "composition_reduced", "chemsys", "symmetry", "property_name", "deprecated", "deprecation_reasons", "last_updated", "origins", "warnings", "task_ids", "uncorrected_energy_per_atom", "equilibrium_reaction_energy_per_atom", "decomposes_to", "xas", "grain_boundaries", "cbm", "vbm", "is_gap_direct", "is_metal", "es_source_calc_id", "bandstructure", "dos", "dos_energy_up", "dos_energy_down", "is_magnetic", "ordering", "total_magnetization_normalized_vol", "total_magnetization_normalized_formula_units", "num_magnetic_sites", "num_unique_magnetic_sites", "types_of_magnetic_species", "bulk_modulus", "shear_modulus", "universal_anisotropy", "homogeneous_poisson", "e_total", "e_ionic", "e_electronic", "n", "e_ij_max", "weighted_surface_energy_EV_PER_ANG2", "weighted_surface_energy", "weighted_work_function", "surface_anisotropy", "shape_factor", "has_reconstructed", "possible_species", "has_props", "theoretical", "database_IDs"]}