{
  "builder_meta": null,
  "nsites": null,
  "elements": null,
  "nelements": null,
  "composition": null,
  "composition_reduced": null,
  "formula_pretty": "CI4",
  "formula_anonymous": "AB4",
  "chemsys": null,
  "volume": 219.79398968328906,
  "density": 3.925783222986315,
  "density_atomic": 43.95879793665781,
  "symmetry": null,
  "property_name": null,
  "material_id": "mp-27962",
  "deprecated": null,
  "deprecation_reasons": null,
  "last_updated": null,
  "origins": null,
  "warnings": null,
  "structure": {
    "@module": "pymatgen.core.structure",
    "@class": "Structure",
    "charge": 0,
    "lattice": {
      "matrix": [
        [-3.343972, 3.343972, 4.9139479999999995],
        [3.343972, -3.343972, 4.9139479999999995],
        [3.343972, 3.343972, -4.9139479999999995]
      ],
      "pbc": [true, true, true],
      "a": 6.819910734039852,
      "b": 6.819910734039852,
      "c": 6.819910734039852,
      "alpha": 121.27612384899122,
      "beta": 121.27612384899122,
      "gamma": 87.80354413645794,
      "volume": 219.79398968328903
    },
    "properties": {},
    "sites": [
      {
        "species": [{ "element": "C", "occu": 1 }],
        "abc": [0.0, 0.0, 0.0],
        "properties": { "magmom": 0.0 },
        "label": "C",
        "xyz": [0.0, 0.0, 0.0]
      },
      {
        "species": [{ "element": "I", "occu": 1 }],
        "abc": [0.316838, 0.316838, 0.375276],
        "properties": { "magmom": 0.0 },
        "label": "I",
        "xyz": [1.2549124362719999, 1.2549124362719999, 1.2697641631999999]
      },
      {
        "species": [{ "element": "I", "occu": 1 }],
        "abc": [0.683161999999999, 0.058438, 0.0],
        "properties": { "magmom": 0.0 },
        "label": "I",
        "xyz": [-2.0890595637279965, 2.0890595637279965, 3.644183836799995]
      },
      {
        "species": [{ "element": "I", "occu": 1 }],
        "abc": [0.058438, 0.683161999999999, 0.0],
        "properties": { "magmom": 0.0 },
        "label": "I",
        "xyz": [2.0890595637279965, -2.0890595637279965, 3.644183836799995]
      },
      {
        "species": [{ "element": "I", "occu": 1 }],
        "abc": [0.941562, 0.941562, 0.624724],
        "properties": { "magmom": 0.0 },
        "label": "I",
        "xyz": [2.0890595637279996, 2.0890595637279996, 6.183712163199999]
      }
    ]
  },
  "task_ids": null,
  "uncorrected_energy_per_atom": null,
  "energy_per_atom": -2.835952014,
  "formation_energy_per_atom": 0.228991176499999,
  "energy_above_hull": 0.228991176499999,
  "is_stable": false,
  "equilibrium_reaction_energy_per_atom": null,
  "decomposes_to": null,
  "xas": null,
  "grain_boundaries": null,
  "band_gap": 1.1181,
  "cbm": null,
  "vbm": null,
  "efermi": 1.04029954,
  "is_gap_direct": null,
  "is_metal": null,
  "es_source_calc_id": null,
  "bandstructure": null,
  "dos": null,
  "dos_energy_up": null,
  "dos_energy_down": null,
  "is_magnetic": null,
  "ordering": null,
  "total_magnetization": 0.0005694,
  "total_magnetization_normalized_vol": null,
  "total_magnetization_normalized_formula_units": null,
  "num_magnetic_sites": null,
  "num_unique_magnetic_sites": null,
  "types_of_magnetic_species": null,
  "bulk_modulus": null,
  "shear_modulus": null,
  "universal_anisotropy": null,
  "homogeneous_poisson": null,
  "e_total": null,
  "e_ionic": null,
  "e_electronic": null,
  "n": null,
  "e_ij_max": null,
  "weighted_surface_energy_EV_PER_ANG2": null,
  "weighted_surface_energy": null,
  "weighted_work_function": null,
  "surface_anisotropy": null,
  "shape_factor": null,
  "has_reconstructed": null,
  "possible_species": null,
  "has_props": null,
  "theoretical": null,
  "database_IDs": null,
  "fields_not_requested": [
    "builder_meta",
    "nsites",
    "elements",
    "nelements",
    "composition",
    "composition_reduced",
    "chemsys",
    "symmetry",
    "property_name",
    "deprecated",
    "deprecation_reasons",
    "last_updated",
    "origins",
    "warnings",
    "task_ids",
    "uncorrected_energy_per_atom",
    "equilibrium_reaction_energy_per_atom",
    "decomposes_to",
    "xas",
    "grain_boundaries",
    "cbm",
    "vbm",
    "is_gap_direct",
    "is_metal",
    "es_source_calc_id",
    "bandstructure",
    "dos",
    "dos_energy_up",
    "dos_energy_down",
    "is_magnetic",
    "ordering",
    "total_magnetization_normalized_vol",
    "total_magnetization_normalized_formula_units",
    "num_magnetic_sites",
    "num_unique_magnetic_sites",
    "types_of_magnetic_species",
    "bulk_modulus",
    "shear_modulus",
    "universal_anisotropy",
    "homogeneous_poisson",
    "e_total",
    "e_ionic",
    "e_electronic",
    "n",
    "e_ij_max",
    "weighted_surface_energy_EV_PER_ANG2",
    "weighted_surface_energy",
    "weighted_work_function",
    "surface_anisotropy",
    "shape_factor",
    "has_reconstructed",
    "possible_species",
    "has_props",
    "theoretical",
    "database_IDs"
  ]
}
