{
  "builder_meta": null,
  "nsites": null,
  "elements": null,
  "nelements": null,
  "composition": null,
  "composition_reduced": null,
  "formula_pretty": "Cl2O",
  "formula_anonymous": "AB2",
  "chemsys": null,
  "volume": 266.61799756726697,
  "density": 2.165042316951475,
  "density_atomic": 22.218166463938914,
  "symmetry": null,
  "property_name": null,
  "material_id": "mp-29537",
  "deprecated": null,
  "deprecation_reasons": null,
  "last_updated": null,
  "origins": null,
  "warnings": null,
  "structure": {
    "@module": "pymatgen.core.structure",
    "@class": "Structure",
    "charge": 0,
    "lattice": {
      "matrix": [
        [6.42839555, 0.00866652, -2.95287056],
        [-3.78835364, 5.8590209, -1.16895863],
        [0.00609111, -0.0089706, 7.07432665]
      ],
      "pbc": [true, true, true],
      "a": 7.074163484111986,
      "b": 7.074334844138319,
      "c": 7.0743349598521,
      "alpha": 99.59893753598938,
      "beta": 114.62231386650804,
      "gamma": 114.6222919529746,
      "volume": 266.61799756726697
    },
    "properties": {},
    "sites": [
      {
        "species": [{ "element": "Cl", "occu": 1 }],
        "abc": [0.43689923, 0.63170472, 0.19479493],
        "properties": { "magmom": 0.0 },
        "label": "Cl",
        "xyz": [0.4166267078593186, 3.7032101256243695, -0.6505005934255181]
      },
      {
        "species": [{ "element": "Cl", "occu": 1 }],
        "abc": [0.56310476, 0.19480386, 0.25790121],
        "properties": { "magmom": -0.0 },
        "label": "Cl",
        "xyz": [2.883445125890011, 1.1439265172108832, -0.06601571833393116]
      },
      {
        "species": [{ "element": "Cl", "occu": 1 }],
        "abc": [0.93689923, 0.19479493, 0.63170472],
        "properties": { "magmom": 0.0 },
        "label": "Cl",
        "xyz": [5.2886545417484205, 1.1437604516375846, 1.4746361671693728]
      },
      {
        "species": [{ "element": "Cl", "occu": 1 }],
        "abc": [0.93689524, 0.74209879, 0.8051961400000001],
        "properties": { "magmom": -0.0 },
        "label": "Cl",
        "xyz": [3.2163050775564024, 4.348868849316593, 2.062207354795939]
      },
      {
        "species": [{ "element": "Cl", "occu": 1 }],
        "abc": [0.56310077, 0.36829528, 0.80520507],
        "properties": { "magmom": 0.0 },
        "label": "Cl",
        "xyz": [2.229506312140682, 2.1555066943756302, 3.6029980534255173]
      },
      {
        "species": [{ "element": "Cl", "occu": 1 }],
        "abc": [0.06310476, 0.25790121, 0.19480386],
        "properties": { "magmom": -0.0 },
        "label": "Cl",
        "xyz": [-0.5701720575564018, 1.5098479706834083, 0.8902901052040609]
      },
      {
        "species": [{ "element": "Cl", "occu": 1 }],
        "abc": [0.06310077, 0.80520507, 0.36829528],
        "properties": { "magmom": 0.0 },
        "label": "Cl",
        "xyz": [-2.6425215217484204, 4.714956368362415, 1.4778612928306267]
      },
      {
        "species": [{ "element": "Cl", "occu": 1 }],
        "abc": [0.43689524, 0.8051961400000001, 0.74209879],
        "properties": { "magmom": -0.0 },
        "label": "Cl",
        "xyz": [-0.23731210589001098, 4.714790302789118, 3.0185131783339303]
      },
      {
        "species": [{ "element": "O", "occu": 1 }],
        "abc": [0.250002, 0.34125372, 0.09125365],
        "properties": { "magmom": 0.0 },
        "label": "O",
        "xyz": [0.3148778079856107, 2.000760725023098, -0.491576898649951]
      },
      {
        "species": [{ "element": "O", "occu": 1 }],
        "abc": [0.750002, 0.09125365, 0.34125372],
        "properties": { "magmom": 0.0 },
        "label": "O",
        "xyz": [4.477687036096743, 0.5380956992636929, 0.0928097183800185]
      },
      {
        "species": [{ "element": "O", "occu": 1 }],
        "abc": [0.749997999999999, 0.65874628, 0.90874635],
        "properties": { "magmom": 0.0 },
        "label": "O",
        "xyz": [2.331255212014384, 3.8579560949769016, 3.4440743586499534]
      },
      {
        "species": [{ "element": "O", "occu": 1 }],
        "abc": [0.249998, 0.90874635, 0.65874628],
        "properties": { "magmom": 0.0 },
        "label": "O",
        "xyz": [-1.8315540160967434, 5.320621120736307, 2.8596877416199815]
      }
    ]
  },
  "task_ids": null,
  "uncorrected_energy_per_atom": null,
  "energy_per_atom": -2.8782031858333332,
  "formation_energy_per_atom": 0.0034790158333320004,
  "energy_above_hull": 0.17991395812499902,
  "is_stable": false,
  "equilibrium_reaction_energy_per_atom": null,
  "decomposes_to": null,
  "xas": null,
  "grain_boundaries": null,
  "band_gap": 1.0529,
  "cbm": null,
  "vbm": null,
  "efermi": -0.77085967,
  "is_gap_direct": null,
  "is_metal": null,
  "es_source_calc_id": null,
  "bandstructure": null,
  "dos": null,
  "dos_energy_up": null,
  "dos_energy_down": null,
  "is_magnetic": null,
  "ordering": null,
  "total_magnetization": 0.0,
  "total_magnetization_normalized_vol": null,
  "total_magnetization_normalized_formula_units": null,
  "num_magnetic_sites": null,
  "num_unique_magnetic_sites": null,
  "types_of_magnetic_species": null,
  "bulk_modulus": null,
  "shear_modulus": null,
  "universal_anisotropy": null,
  "homogeneous_poisson": null,
  "e_total": null,
  "e_ionic": null,
  "e_electronic": null,
  "n": null,
  "e_ij_max": null,
  "weighted_surface_energy_EV_PER_ANG2": null,
  "weighted_surface_energy": null,
  "weighted_work_function": null,
  "surface_anisotropy": null,
  "shape_factor": null,
  "has_reconstructed": null,
  "possible_species": null,
  "has_props": null,
  "theoretical": null,
  "database_IDs": null,
  "fields_not_requested": [
    "builder_meta",
    "nsites",
    "elements",
    "nelements",
    "composition",
    "composition_reduced",
    "chemsys",
    "symmetry",
    "property_name",
    "deprecated",
    "deprecation_reasons",
    "last_updated",
    "origins",
    "warnings",
    "task_ids",
    "uncorrected_energy_per_atom",
    "equilibrium_reaction_energy_per_atom",
    "decomposes_to",
    "xas",
    "grain_boundaries",
    "cbm",
    "vbm",
    "is_gap_direct",
    "is_metal",
    "es_source_calc_id",
    "bandstructure",
    "dos",
    "dos_energy_up",
    "dos_energy_down",
    "is_magnetic",
    "ordering",
    "total_magnetization_normalized_vol",
    "total_magnetization_normalized_formula_units",
    "num_magnetic_sites",
    "num_unique_magnetic_sites",
    "types_of_magnetic_species",
    "bulk_modulus",
    "shear_modulus",
    "universal_anisotropy",
    "homogeneous_poisson",
    "e_total",
    "e_ionic",
    "e_electronic",
    "n",
    "e_ij_max",
    "weighted_surface_energy_EV_PER_ANG2",
    "weighted_surface_energy",
    "weighted_work_function",
    "surface_anisotropy",
    "shape_factor",
    "has_reconstructed",
    "possible_species",
    "has_props",
    "theoretical",
    "database_IDs"
  ]
}
