{
  "builder_meta": null,
  "nsites": null,
  "elements": null,
  "nelements": null,
  "composition": null,
  "composition_reduced": null,
  "formula_pretty": "Cl2O7",
  "formula_anonymous": "A2B7",
  "chemsys": null,
  "volume": 257.81411610784386,
  "density": 2.356081884394688,
  "density_atomic": 14.32300645043577,
  "symmetry": null,
  "property_name": null,
  "material_id": "mp-31050",
  "deprecated": null,
  "deprecation_reasons": null,
  "last_updated": null,
  "origins": null,
  "warnings": null,
  "structure": {
    "@module": "pymatgen.core.structure",
    "@class": "Structure",
    "charge": 0,
    "lattice": {
      "matrix": [
        [4.61646247, 0.0, -0.0],
        [-2.30823123, 6.39126412, -2.54534729],
        [-0.0, 0.02208252, 8.72917693]
      ],
      "pbc": [true, true, true],
      "a": 4.61646247,
      "b": 7.256375216970042,
      "c": 8.729204861436909,
      "alpha": 110.39832708028388,
      "beta": 90.0,
      "gamma": 108.54787883650651,
      "volume": 257.81411610784386
    },
    "properties": {},
    "sites": [
      {
        "species": [{ "element": "Cl", "occu": 1 }],
        "abc": [0.48905215, 0.77650465, 0.72920352],
        "properties": { "magmom": 0.0 },
        "label": "Cl",
        "xyz": [0.46533861297759116, 4.9789489598726275, 4.388872537508894]
      },
      {
        "species": [{ "element": "Cl", "occu": 1 }],
        "abc": [0.712545499999999, 0.22349535, 0.77079648],
        "properties": { "magmom": 0.0 },
        "label": "Cl",
        "xyz": [2.7735606122876, 1.4454389401273715, 6.159545567491104]
      },
      {
        "species": [{ "element": "Cl", "occu": 1 }],
        "abc": [0.51094785, 0.22349535, 0.27079648],
        "properties": { "magmom": 0.0 },
        "label": "Cl",
        "xyz": [1.8428926270224086, 1.4343976801273717, 1.7949571024911046]
      },
      {
        "species": [{ "element": "Cl", "occu": 1 }],
        "abc": [0.2874545, 0.77650465, 0.22920352],
        "properties": { "magmom": 0.0 },
        "label": "Cl",
        "xyz": [-0.4653293722876046, 4.967907699872628, 0.02428407250889486]
      },
      {
        "species": [{ "element": "O", "occu": 1 }],
        "abc": [0.18504234, 0.63933112, 0.7063616500000001],
        "properties": { "magmom": -0.0 },
        "label": "O",
        "xyz": [-0.6214830395238979, 4.101732293318772, 4.53863608571207]
      },
      {
        "species": [{ "element": "O", "occu": 1 }],
        "abc": [0.54571221, 0.36066888, 0.79363835],
        "properties": { "magmom": -0.0 },
        "label": "O",
        "xyz": [1.6867527643806366, 2.3226556066812276, 6.00978201928793]
      },
      {
        "species": [{ "element": "O", "occu": 1 }],
        "abc": [0.81495766, 0.36066888, 0.29363835],
        "properties": { "magmom": -0.0 },
        "label": "O",
        "xyz": [2.929714279523898, 2.3116143466812273, 1.64519355428793]
      },
      {
        "species": [{ "element": "O", "occu": 1 }],
        "abc": [0.45428779, 0.63933112, 0.20636165],
        "properties": { "magmom": -0.0 },
        "label": "O",
        "xyz": [0.6214784756193636, 4.090691033318772, 0.17404762071206958]
      },
      {
        "species": [{ "element": "O", "occu": 1 }],
        "abc": [0.59584873, 0.0, 0.25],
        "properties": { "magmom": 0.0 },
        "label": "O",
        "xyz": [2.7507132998421633, 0.00552063, 2.1822942325]
      },
      {
        "species": [{ "element": "O", "occu": 1 }],
        "abc": [0.40415127, 0.0, 0.75],
        "properties": { "magmom": 0.0 },
        "label": "O",
        "xyz": [1.865749170157837, 0.016561890000000003, 6.546882697499999]
      },
      {
        "species": [{ "element": "O", "occu": 1 }],
        "abc": [0.09320603, 0.74146232, 0.09028329],
        "properties": { "magmom": -0.0 },
        "label": "O",
        "xyz": [-1.2811843434195596, 4.740875204705048, -1.0991802946166132]
      },
      {
        "species": [{ "element": "O", "occu": 1 }],
        "abc": [0.35174471, 0.25853768, 0.40971671],
        "properties": { "magmom": -0.0 },
        "label": "O",
        "xyz": [1.0270515056282874, 1.6614301752949507, 2.9184214696166126]
      },
      {
        "species": [{ "element": "O", "occu": 1 }],
        "abc": [0.9067939700000001, 0.25853768, 0.90971671],
        "properties": { "magmom": -0.0 },
        "label": "O",
        "xyz": [3.5894155834195596, 1.6724714352949506, 7.283009934616612]
      },
      {
        "species": [{ "element": "O", "occu": 1 }],
        "abc": [0.64825529, 0.74146232, 0.59028329],
        "properties": { "magmom": -0.0 },
        "label": "O",
        "xyz": [1.2811797343717128, 4.751916464705048, 3.2654081703833864]
      },
      {
        "species": [{ "element": "O", "occu": 1 }],
        "abc": [0.16280214, 0.82625062, 0.37927705],
        "properties": { "magmom": -0.0 },
        "label": "O",
        "xyz": [-1.1556075155451768, 5.289161334775921, 1.2076816984606364]
      },
      {
        "species": [{ "element": "O", "occu": 1 }],
        "abc": [0.33655052, 0.17374938, 0.12072295000000001],
        "properties": { "magmom": -0.0 },
        "label": "O",
        "xyz": [1.152619099729847, 1.1131440452240797, 0.6115594765393633]
      },
      {
        "species": [{ "element": "O", "occu": 1 }],
        "abc": [0.8371978600000001, 0.17374938, 0.62072295],
        "properties": { "magmom": -0.0 },
        "label": "O",
        "xyz": [3.463838755545177, 1.1241853052240796, 4.976147941539363]
      },
      {
        "species": [{ "element": "O", "occu": 1 }],
        "abc": [0.66344948, 0.82625062, 0.87927705],
        "properties": { "magmom": -0.0 },
        "label": "O",
        "xyz": [1.1556121402701531, 5.300202594775921, 5.572270163460637]
      }
    ]
  },
  "task_ids": null,
  "uncorrected_energy_per_atom": null,
  "energy_per_atom": -4.561787450000001,
  "formation_energy_per_atom": -0.30258604611111,
  "energy_above_hull": 0.0,
  "is_stable": true,
  "equilibrium_reaction_energy_per_atom": null,
  "decomposes_to": null,
  "xas": null,
  "grain_boundaries": null,
  "band_gap": 3.6753,
  "cbm": null,
  "vbm": null,
  "efermi": -2.23700056,
  "is_gap_direct": null,
  "is_metal": null,
  "es_source_calc_id": null,
  "bandstructure": null,
  "dos": null,
  "dos_energy_up": null,
  "dos_energy_down": null,
  "is_magnetic": null,
  "ordering": null,
  "total_magnetization": 0.0,
  "total_magnetization_normalized_vol": null,
  "total_magnetization_normalized_formula_units": null,
  "num_magnetic_sites": null,
  "num_unique_magnetic_sites": null,
  "types_of_magnetic_species": null,
  "bulk_modulus": null,
  "shear_modulus": null,
  "universal_anisotropy": null,
  "homogeneous_poisson": null,
  "e_total": null,
  "e_ionic": null,
  "e_electronic": null,
  "n": null,
  "e_ij_max": null,
  "weighted_surface_energy_EV_PER_ANG2": null,
  "weighted_surface_energy": null,
  "weighted_work_function": null,
  "surface_anisotropy": null,
  "shape_factor": null,
  "has_reconstructed": null,
  "possible_species": null,
  "has_props": null,
  "theoretical": null,
  "database_IDs": null,
  "fields_not_requested": [
    "builder_meta",
    "nsites",
    "elements",
    "nelements",
    "composition",
    "composition_reduced",
    "chemsys",
    "symmetry",
    "property_name",
    "deprecated",
    "deprecation_reasons",
    "last_updated",
    "origins",
    "warnings",
    "task_ids",
    "uncorrected_energy_per_atom",
    "equilibrium_reaction_energy_per_atom",
    "decomposes_to",
    "xas",
    "grain_boundaries",
    "cbm",
    "vbm",
    "is_gap_direct",
    "is_metal",
    "es_source_calc_id",
    "bandstructure",
    "dos",
    "dos_energy_up",
    "dos_energy_down",
    "is_magnetic",
    "ordering",
    "total_magnetization_normalized_vol",
    "total_magnetization_normalized_formula_units",
    "num_magnetic_sites",
    "num_unique_magnetic_sites",
    "types_of_magnetic_species",
    "bulk_modulus",
    "shear_modulus",
    "universal_anisotropy",
    "homogeneous_poisson",
    "e_total",
    "e_ionic",
    "e_electronic",
    "n",
    "e_ij_max",
    "weighted_surface_energy_EV_PER_ANG2",
    "weighted_surface_energy",
    "weighted_work_function",
    "surface_anisotropy",
    "shape_factor",
    "has_reconstructed",
    "possible_species",
    "has_props",
    "theoretical",
    "database_IDs"
  ]
}
