{"builder_meta": null, "nsites": null, "elements": null, "nelements": null, "composition": null, "composition_reduced": null, "formula_pretty": "ClF", "formula_anonymous": "AB", "chemsys": null, "volume": 148.7784901938438, "density": 2.430961145713511, "density_atomic": 18.597311274230474, "symmetry": null, "property_name": null, "material_id": "mp-29504", "deprecated": null, "deprecation_reasons": null, "last_updated": null, "origins": null, "warnings": null, "structure": {"@module": "pymatgen.core.structure", "@class": "Structure", "charge": 0, "lattice": {"matrix": [[3.79272931, 0.0, 0.0], [0.0, 6.03718806, -1.602133719999999], [0.0, 0.01980909, 6.49235243]], "pbc": [true, true, true], "a": 3.79272931, "b": 6.246156588540476, "c": 6.492382650104162, "alpha": 104.68761669069114, "beta": 90.0, "gamma": 90.0, "volume": 148.77849019384377}, "properties": {}, "sites": [{"species": [{"element": "Cl", "occu": 1}], "abc": [0.48989617, 0.16249374, 0.29268154], "properties": {"magmom": 0.0}, "label": "Cl", "xyz": [1.8580435628157428, 0.986803021919943, 1.6398550072922298]}, {"species": [{"element": "Cl", "occu": 1}], "abc": [0.9898961700000001, 0.8375062600000001, 0.20731846], "properties": {"magmom": 0.0}, "label": "Cl", "xyz": [3.754408217815743, 5.060289583080057, 0.004187487707771442]}, {"species": [{"element": "Cl", "occu": 1}], "abc": [0.51010383, 0.8375062600000001, 0.70731846], "properties": {"magmom": 0.0}, "label": "Cl", "xyz": [1.9346857471842573, 5.0701941280800575, 3.250363702707771]}, {"species": [{"element": "Cl", "occu": 1}], "abc": [0.01010383, 0.16249374, 0.79268154], "properties": {"magmom": 0.0}, "label": "Cl", "xyz": [0.0383210921842573, 0.996707566919943, 4.88603122229223]}, {"species": [{"element": "F", "occu": 1}], "abc": [0.22001483, 0.37907052, 0.35081091000000003], "properties": {"magmom": -0.0}, "label": "F", "xyz": [0.8344566943756673, 2.295469262131163, 1.6702664016590776]}, {"species": [{"element": "F", "occu": 1}], "abc": [0.72001483, 0.62092948, 0.14918909], "properties": {"magmom": -0.0}, "label": "F", "xyz": [2.7308213493756672, 3.7516233428688373, -0.026223906659076257]}, {"species": [{"element": "F", "occu": 1}], "abc": [0.77998517, 0.62092948, 0.64918909], "properties": {"magmom": -0.0}, "label": "F", "xyz": [2.958272615624333, 3.761527887868837, 3.2199523083409245]}, {"species": [{"element": "F", "occu": 1}], "abc": [0.27998517, 0.37907052, 0.85081091], "properties": {"magmom": -0.0}, "label": "F", "xyz": [1.0619079606243327, 2.3053738071311636, 4.916442616659078]}]}, "task_ids": null, "uncorrected_energy_per_atom": null, "energy_per_atom": -4.98019764, "formation_energy_per_atom": -0.340964216249999, "energy_above_hull": 0.07123128770833201, "is_stable": false, "equilibrium_reaction_energy_per_atom": null, "decomposes_to": null, "xas": null, "grain_boundaries": null, "band_gap": 2.0897, "cbm": null, "vbm": null, "efermi": -1.46343337, "is_gap_direct": null, "is_metal": null, "es_source_calc_id": null, "bandstructure": null, "dos": null, "dos_energy_up": null, "dos_energy_down": null, "is_magnetic": null, "ordering": null, "total_magnetization": 0.0, "total_magnetization_normalized_vol": null, "total_magnetization_normalized_formula_units": null, "num_magnetic_sites": null, "num_unique_magnetic_sites": null, "types_of_magnetic_species": null, "bulk_modulus": null, "shear_modulus": null, "universal_anisotropy": null, "homogeneous_poisson": null, "e_total": null, "e_ionic": null, "e_electronic": null, "n": null, "e_ij_max": null, "weighted_surface_energy_EV_PER_ANG2": null, "weighted_surface_energy": null, "weighted_work_function": null, "surface_anisotropy": null, "shape_factor": null, "has_reconstructed": null, "possible_species": null, "has_props": null, "theoretical": null, "database_IDs": null, "fields_not_requested": ["builder_meta", "nsites", "elements", "nelements", "composition", "composition_reduced", "chemsys", "symmetry", "property_name", "deprecated", "deprecation_reasons", "last_updated", "origins", "warnings", "task_ids", "uncorrected_energy_per_atom", "equilibrium_reaction_energy_per_atom", "decomposes_to", "xas", "grain_boundaries", "cbm", "vbm", "is_gap_direct", "is_metal", "es_source_calc_id", "bandstructure", "dos", "dos_energy_up", "dos_energy_down", "is_magnetic", "ordering", "total_magnetization_normalized_vol", "total_magnetization_normalized_formula_units", "num_magnetic_sites", "num_unique_magnetic_sites", "types_of_magnetic_species", "bulk_modulus", "shear_modulus", "universal_anisotropy", "homogeneous_poisson", "e_total", "e_ionic", "e_electronic", "n", "e_ij_max", "weighted_surface_energy_EV_PER_ANG2", "weighted_surface_energy", "weighted_work_function", "surface_anisotropy", "shape_factor", "has_reconstructed", "possible_species", "has_props", "theoretical", "database_IDs"]}