{"builder_meta": null, "nsites": null, "elements": null, "nelements": null, "composition": null, "composition_reduced": null, "formula_pretty": "ClF3", "formula_anonymous": "AB3", "chemsys": null, "volume": 491.74309619014207, "density": 2.497464466586691, "density_atomic": 15.36697175594194, "symmetry": null, "property_name": null, "material_id": "mp-619575", "deprecated": null, "deprecation_reasons": null, "last_updated": null, "origins": null, "warnings": null, "structure": {"@module": "pymatgen.core.structure", "@class": "Structure", "charge": 0, "lattice": {"matrix": [[4.25464984, 0.0, 0.0], [0.0, 7.67162182, -0.86359744], [0.0, 0.08112649, 15.05649635]], "pbc": [true, true, true], "a": 4.25464984, "b": 7.72007654673674, "c": 15.056714908802086, "alpha": 96.11405457773655, "beta": 90.0, "gamma": 90.0, "volume": 491.74309619014207}, "properties": {}, "sites": [{"species": [{"element": "Cl", "occu": 1}], "abc": [0.9281564800000001, 0.78466244, 0.58004172], "properties": {"magmom": -0.0}, "label": "Cl", "xyz": [3.9489808191269633, 6.066690244835604, 8.05576356557957]}, {"species": [{"element": "Cl", "occu": 1}], "abc": [0.99427283, 0.3840529, 0.13200002], "properties": {"magmom": -0.0}, "label": "Cl", "xyz": [4.230282737075847, 2.957017305976808, 1.6557907180653508]}, {"species": [{"element": "Cl", "occu": 1}], "abc": [0.50572717, 0.3840529, 0.63200002], "properties": {"magmom": -0.0}, "label": "Cl", "xyz": [2.151692022924153, 2.997580550976808, 9.18403889306535]}, {"species": [{"element": "Cl", "occu": 1}], "abc": [0.49427283, 0.6159471, 0.36799998], "properties": {"magmom": -0.0}, "label": "Cl", "xyz": [2.102957817075847, 4.755167759023192, 5.0088600169346496]}, {"species": [{"element": "Cl", "occu": 1}], "abc": [0.07184352000000001, 0.21533756, 0.41995828], "properties": {"magmom": -0.0}, "label": "Cl", "xyz": [0.3056690208730368, 1.6860580651643966, 6.1371353444204315]}, {"species": [{"element": "Cl", "occu": 1}], "abc": [0.42815648, 0.21533756, 0.91995828], "properties": {"magmom": -0.0}, "label": "Cl", "xyz": [1.8216558991269631, 1.7266213101643966, 13.66538351942043]}, {"species": [{"element": "Cl", "occu": 1}], "abc": [0.00572717, 0.6159471, 0.86799998], "properties": {"magmom": -0.0}, "label": "Cl", "xyz": [0.0243671029241528, 4.795731004023192, 12.537108191934648]}, {"species": [{"element": "Cl", "occu": 1}], "abc": [0.57184352, 0.78466244, 0.08004172], "properties": {"magmom": -0.0}, "label": "Cl", "xyz": [2.432993940873037, 6.026126999835604, 0.5275153905795683]}, {"species": [{"element": "F", "occu": 1}], "abc": [0.69750965, 0.59441782, 0.94974407], "properties": {"magmom": -0.0}, "label": "F", "xyz": [2.967659320770956, 4.637198120906247, 13.786480415746764]}, {"species": [{"element": "F", "occu": 1}], "abc": [0.28693323, 0.64705616, 0.7914072400000001], "properties": {"magmom": 0.0}, "label": "F", "xyz": [1.220800421110183, 5.028174247363199, 11.357024177111343]}, {"species": [{"element": "F", "occu": 1}], "abc": [0.72554644, 0.12236365, 0.97508662], "properties": {"magmom": -0.0}, "label": "F", "xyz": [3.0869460448585695, 1.0178330022414068, 14.575715200074782]}, {"species": [{"element": "F", "occu": 1}], "abc": [0.21306677000000002, 0.64705616, 0.29140724], "properties": {"magmom": 0.0}, "label": "F", "xyz": [0.9065244988898169, 4.987611002363199, 3.8287760021113435]}, {"species": [{"element": "F", "occu": 1}], "abc": [0.40501228, 0.18219004, 0.6301756900000001], "properties": {"magmom": 0.0}, "label": "F", "xyz": [1.723185432300035, 1.448817028063701, 9.330899124206235]}, {"species": [{"element": "F", "occu": 1}], "abc": [-0.01062149, 0.08970513000000001, 0.3301787], "properties": {"magmom": 0.0}, "label": "F", "xyz": [-0.0451907207290616, 0.7149700716776997, 4.893865270774878]}, {"species": [{"element": "F", "occu": 1}], "abc": [0.01062149, 0.91029487, 0.6698213], "properties": {"magmom": 0.0}, "label": "F", "xyz": [0.0451907207290616, 7.037778238322301, 9.299033639225122]}, {"species": [{"element": "F", "occu": 1}], "abc": [0.22554644000000001, 0.8776363500000001, 0.52491338], "properties": {"magmom": -0.0}, "label": "F", "xyz": [0.9596211248585697, 6.775478552758594, 7.145431884925219]}, {"species": [{"element": "F", "occu": 1}], "abc": [0.80249035, 0.59441782, 0.44974407], "properties": {"magmom": -0.0}, "label": "F", "xyz": [3.414315439229044, 4.596634875906247, 6.258232240746763]}, {"species": [{"element": "F", "occu": 1}], "abc": [0.27445356, 0.8776363500000001, 0.02491338], "properties": {"magmom": -0.0}, "label": "F", "xyz": [1.1677037951414304, 6.734915307758594, -0.38281629007478113]}, {"species": [{"element": "F", "occu": 1}], "abc": [0.59498772, 0.8178099600000001, 0.36982431], "properties": {"magmom": 0.0}, "label": "F", "xyz": [2.5314644076999646, 6.3039312819363, 4.861999785793765]}, {"species": [{"element": "F", "occu": 1}], "abc": [0.62201445, 0.69138602, 0.64293349], "properties": {"magmom": 0.0}, "label": "F", "xyz": [2.646453680170188, 5.356211014422107, 9.083246548553973]}, {"species": [{"element": "F", "occu": 1}], "abc": [0.09498772, 0.18219004, 0.13017469], "properties": {"magmom": 0.0}, "label": "F", "xyz": [0.4041394876999648, 1.408253701937211, 1.802635892709884]}, {"species": [{"element": "F", "occu": 1}], "abc": [0.71306677, 0.35294384, 0.20859276000000002], "properties": {"magmom": 0.0}, "label": "F", "xyz": [3.0338494188898166, 2.724574062636801, 2.8358747328886564]}, {"species": [{"element": "F", "occu": 1}], "abc": [0.12201445, 0.30861398, 0.85706651], "properties": {"magmom": 0.0}, "label": "F", "xyz": [0.5191287601701879, 2.4371005405778936, 12.637900536446027]}, {"species": [{"element": "F", "occu": 1}], "abc": [0.51062149, 0.08970513000000001, 0.830178699999999], "properties": {"magmom": 0.0}, "label": "F", "xyz": [2.1725156407290616, 0.7555333166776996, 12.422113445774864]}, {"species": [{"element": "F", "occu": 1}], "abc": [0.37798555, 0.30861398, 0.35706651], "properties": {"magmom": 0.0}, "label": "F", "xyz": [1.608196159829812, 2.3965372955778936, 5.109652361446027]}, {"species": [{"element": "F", "occu": 1}], "abc": [0.77445356, 0.12236365, 0.47508662], "properties": {"magmom": -0.0}, "label": "F", "xyz": [3.2950287151414304, 0.9772697572414069, 7.047467025074781]}, {"species": [{"element": "F", "occu": 1}], "abc": [0.87798555, 0.69138602, 0.14293349], "properties": {"magmom": 0.0}, "label": "F", "xyz": [3.735521079829812, 5.315647769422107, 1.5549983735539725]}, {"species": [{"element": "F", "occu": 1}], "abc": [0.19750965, 0.40558218, 0.5502559300000001], "properties": {"magmom": -0.0}, "label": "F", "xyz": [0.840334400770956, 3.1561134340937533, 7.934666669253238]}, {"species": [{"element": "F", "occu": 1}], "abc": [0.30249035, 0.40558218, 0.050255930000000004], "properties": {"magmom": -0.0}, "label": "F", "xyz": [1.286990519229044, 3.1155501890937534, 0.40641849425323634]}, {"species": [{"element": "F", "occu": 1}], "abc": [0.48937851, 0.91029487, 0.169821299999999], "properties": {"magmom": 0.0}, "label": "F", "xyz": [2.0821341992709383, 6.9972149933223005, 1.7707854642251073]}, {"species": [{"element": "F", "occu": 1}], "abc": [0.78693323, 0.35294384, 0.70859276], "properties": {"magmom": 0.0}, "label": "F", "xyz": [3.3481253411101832, 2.765137307636801, 10.364122907888657]}, {"species": [{"element": "F", "occu": 1}], "abc": [0.90501228, 0.8178099600000001, 0.86982431], "properties": {"magmom": 0.0}, "label": "F", "xyz": [3.8505103523000352, 6.3444945269363, 12.390247960793767]}]}, "task_ids": null, "uncorrected_energy_per_atom": null, "energy_per_atom": -4.5009239428125, "formation_energy_per_atom": -0.6182932559375001, "energy_above_hull": 0.0, "is_stable": true, "equilibrium_reaction_energy_per_atom": null, "decomposes_to": null, "xas": null, "grain_boundaries": null, "band_gap": 2.5175, "cbm": null, "vbm": null, "efermi": -2.01036124, "is_gap_direct": null, "is_metal": null, "es_source_calc_id": null, "bandstructure": null, "dos": null, "dos_energy_up": null, "dos_energy_down": null, "is_magnetic": null, "ordering": null, "total_magnetization": 0.0, "total_magnetization_normalized_vol": null, "total_magnetization_normalized_formula_units": null, "num_magnetic_sites": null, "num_unique_magnetic_sites": null, "types_of_magnetic_species": null, "bulk_modulus": null, "shear_modulus": null, "universal_anisotropy": null, "homogeneous_poisson": null, "e_total": null, "e_ionic": null, "e_electronic": null, "n": null, "e_ij_max": null, "weighted_surface_energy_EV_PER_ANG2": null, "weighted_surface_energy": null, "weighted_work_function": null, "surface_anisotropy": null, "shape_factor": null, "has_reconstructed": null, "possible_species": null, "has_props": null, "theoretical": null, "database_IDs": null, "fields_not_requested": ["builder_meta", "nsites", "elements", "nelements", "composition", "composition_reduced", "chemsys", "symmetry", "property_name", "deprecated", "deprecation_reasons", "last_updated", "origins", "warnings", "task_ids", "uncorrected_energy_per_atom", "equilibrium_reaction_energy_per_atom", "decomposes_to", "xas", "grain_boundaries", "cbm", "vbm", "is_gap_direct", "is_metal", "es_source_calc_id", "bandstructure", "dos", "dos_energy_up", "dos_energy_down", "is_magnetic", "ordering", "total_magnetization_normalized_vol", "total_magnetization_normalized_formula_units", "num_magnetic_sites", "num_unique_magnetic_sites", "types_of_magnetic_species", "bulk_modulus", "shear_modulus", "universal_anisotropy", "homogeneous_poisson", "e_total", "e_ionic", "e_electronic", "n", "e_ij_max", "weighted_surface_energy_EV_PER_ANG2", "weighted_surface_energy", "weighted_work_function", "surface_anisotropy", "shape_factor", "has_reconstructed", "possible_species", "has_props", "theoretical", "database_IDs"]}