{"builder_meta": null, "nsites": null, "elements": null, "nelements": null, "composition": null, "composition_reduced": null, "formula_pretty": "ClF5", "formula_anonymous": "AB5", "chemsys": null, "volume": 165.42181096408316, "density": 2.618869227085088, "density_atomic": 13.785150913673597, "symmetry": null, "property_name": null, "material_id": "mp-1213763", "deprecated": null, "deprecation_reasons": null, "last_updated": null, "origins": null, "warnings": null, "structure": {"@module": "pymatgen.core.structure", "@class": "Structure", "charge": 0, "lattice": {"matrix": [[-3.08393779, -3.55349189, 0.0], [-3.08393779, 3.55349189, 0.0], [0.0, 0.0, -7.54747769]], "pbc": [true, true, true], "a": 4.705101157773959, "b": 4.705101157773959, "c": 7.54747769, "alpha": 90.0, "beta": 90.0, "gamma": 98.0931092872488, "volume": 165.42181096408316}, "properties": {}, "sites": [{"species": [{"element": "Cl", "occu": 1}], "abc": [0.82212274, 0.17787726, 0.80995098], "properties": {"magmom": -0.0}, "label": "Cl", "xyz": [-3.0839377899999993, -2.289321088349157, -6.113086951543636]}, {"species": [{"element": "Cl", "occu": 1}], "abc": [0.17787726, 0.82212274, 0.30995098], "properties": {"magmom": -0.0}, "label": "Cl", "xyz": [-3.0839377899999993, 2.289321088349157, -2.339348106543636]}, {"species": [{"element": "F", "occu": 1}], "abc": [0.53695805, 0.91620933, 0.81867238], "properties": {"magmom": 0.0}, "label": "F", "xyz": [-4.4814777983772895, 1.3476663477521194, -6.1789115234692025]}, {"species": [{"element": "F", "occu": 1}], "abc": [0.46304195000000004, 0.08379067, 0.31867238000000003], "properties": {"magmom": 0.0}, "label": "F", "xyz": [-1.6863977816227098, -1.3476663477521194, -2.4051726784692025]}, {"species": [{"element": "F", "occu": 1}], "abc": [0.91620933, 0.53695805, 0.31867238000000003], "properties": {"magmom": 0.0}, "label": "F", "xyz": [-4.4814777983772895, -1.3476663477521194, -2.4051726784692025]}, {"species": [{"element": "F", "occu": 1}], "abc": [0.08379067, 0.46304195000000004, 0.81867238], "properties": {"magmom": 0.0}, "label": "F", "xyz": [-1.6863977816227098, 1.3476663477521194, -6.1789115234692025]}, {"species": [{"element": "F", "occu": 1}], "abc": [0.65350374, 0.34649626, 0.65426761], "properties": {"magmom": 0.0}, "label": "F", "xyz": [-3.08393779, -1.0909485903493374, -4.938070189764621]}, {"species": [{"element": "F", "occu": 1}], "abc": [0.34649626, 0.65350374, 0.15426761], "properties": {"magmom": 0.0}, "label": "F", "xyz": [-3.08393779, 1.0909485903493374, -1.1643313447646209]}, {"species": [{"element": "F", "occu": 1}], "abc": [0.65500156, 0.34499844, 0.95355945], "properties": {"magmom": -0.0}, "label": "F", "xyz": [-3.08393779, -1.1015935727946966, -7.196968674963671]}, {"species": [{"element": "F", "occu": 1}], "abc": [0.34499844, 0.65500156, 0.45355945000000003], "properties": {"magmom": -0.0}, "label": "F", "xyz": [-3.08393779, 1.1015935727946966, -3.4232298299636708]}, {"species": [{"element": "F", "occu": 1}], "abc": [0.971074099999999, 0.028925899999999, 0.98887621], "properties": {"magmom": -0.0}, "label": "F", "xyz": [-3.0839377899999936, -3.3479159878780984, -7.463521133146755]}, {"species": [{"element": "F", "occu": 1}], "abc": [0.028925899999999, 0.971074099999999, 0.48887621000000003], "properties": {"magmom": -0.0}, "label": "F", "xyz": [-3.0839377899999936, 3.3479159878780984, -3.689782288146755]}]}, "task_ids": null, "uncorrected_energy_per_atom": null, "energy_per_atom": -4.233811093333333, "formation_energy_per_atom": -0.603381318749999, "energy_above_hull": 0.0, "is_stable": true, "equilibrium_reaction_energy_per_atom": null, "decomposes_to": null, "xas": null, "grain_boundaries": null, "band_gap": 3.086799999999999, "cbm": null, "vbm": null, "efermi": -2.55046538, "is_gap_direct": null, "is_metal": null, "es_source_calc_id": null, "bandstructure": null, "dos": null, "dos_energy_up": null, "dos_energy_down": null, "is_magnetic": null, "ordering": null, "total_magnetization": 0.0, "total_magnetization_normalized_vol": null, "total_magnetization_normalized_formula_units": null, "num_magnetic_sites": null, "num_unique_magnetic_sites": null, "types_of_magnetic_species": null, "bulk_modulus": null, "shear_modulus": null, "universal_anisotropy": null, "homogeneous_poisson": null, "e_total": null, "e_ionic": null, "e_electronic": null, "n": null, "e_ij_max": null, "weighted_surface_energy_EV_PER_ANG2": null, "weighted_surface_energy": null, "weighted_work_function": null, "surface_anisotropy": null, "shape_factor": null, "has_reconstructed": null, "possible_species": null, "has_props": null, "theoretical": null, "database_IDs": null, "fields_not_requested": ["builder_meta", "nsites", "elements", "nelements", "composition", "composition_reduced", "chemsys", "symmetry", "property_name", "deprecated", "deprecation_reasons", "last_updated", "origins", "warnings", "task_ids", "uncorrected_energy_per_atom", "equilibrium_reaction_energy_per_atom", "decomposes_to", "xas", "grain_boundaries", "cbm", "vbm", "is_gap_direct", "is_metal", "es_source_calc_id", "bandstructure", "dos", "dos_energy_up", "dos_energy_down", "is_magnetic", "ordering", "total_magnetization_normalized_vol", "total_magnetization_normalized_formula_units", "num_magnetic_sites", "num_unique_magnetic_sites", "types_of_magnetic_species", "bulk_modulus", "shear_modulus", "universal_anisotropy", "homogeneous_poisson", "e_total", "e_ionic", "e_electronic", "n", "e_ij_max", "weighted_surface_energy_EV_PER_ANG2", "weighted_surface_energy", "weighted_work_function", "surface_anisotropy", "shape_factor", "has_reconstructed", "possible_species", "has_props", "theoretical", "database_IDs"]}