{"builder_meta": null, "nsites": null, "elements": null, "nelements": null, "composition": null, "composition_reduced": null, "formula_pretty": "ClO2", "formula_anonymous": "AB2", "chemsys": null, "volume": 377.6857587257459, "density": 2.372477043145755, "density_atomic": 15.736906613572748, "symmetry": null, "property_name": null, "material_id": "mp-23207", "deprecated": null, "deprecation_reasons": null, "last_updated": null, "origins": null, "warnings": null, "structure": {"@module": "pymatgen.core.structure", "@class": "Structure", "charge": 0, "lattice": {"matrix": [[5.46701659, 0.0, 0.0], [0.0, 6.52631691, 0.0], [0.0, 0.0, 10.58551663]], "pbc": [true, true, true], "a": 5.46701659, "b": 6.52631691, "c": 10.58551663, "alpha": 90.0, "beta": 90.0, "gamma": 90.0, "volume": 377.6857587257459}, "properties": {}, "sites": [{"species": [{"element": "Cl", "occu": 1}], "abc": [0.83365756, 0.00463449, 0.38590344], "properties": {"magmom": -0.0}, "label": "Cl", "xyz": [4.557619710898921, 0.0302461504562259, 4.084987281694207]}, {"species": [{"element": "Cl", "occu": 1}], "abc": [0.33365756, 0.9953655100000001, 0.11409656], "properties": {"magmom": -0.0}, "label": "Cl", "xyz": [1.8241114158989205, 6.496070759543775, 1.207771033305793]}, {"species": [{"element": "Cl", "occu": 1}], "abc": [0.66634244, 0.50463449, 0.61409656], "properties": {"magmom": -0.0}, "label": "Cl", "xyz": [3.6429051741010796, 3.2934046054562263, 6.500529348305793]}, {"species": [{"element": "Cl", "occu": 1}], "abc": [0.16634244, 0.49536551, 0.88590344], "properties": {"magmom": -0.0}, "label": "Cl", "xyz": [0.9093968791010797, 3.2329123045437744, 9.377745596694208]}, {"species": [{"element": "Cl", "occu": 1}], "abc": [0.16634244, 0.9953655100000001, 0.61409656], "properties": {"magmom": -0.0}, "label": "Cl", "xyz": [0.9093968791010797, 6.496070759543775, 6.500529348305793]}, {"species": [{"element": "Cl", "occu": 1}], "abc": [0.66634244, 0.00463449, 0.88590344], "properties": {"magmom": -0.0}, "label": "Cl", "xyz": [3.6429051741010796, 0.0302461504562259, 9.377745596694208]}, {"species": [{"element": "Cl", "occu": 1}], "abc": [0.33365756, 0.49536551, 0.38590344], "properties": {"magmom": -0.0}, "label": "Cl", "xyz": [1.8241114158989205, 3.2329123045437744, 4.084987281694207]}, {"species": [{"element": "Cl", "occu": 1}], "abc": [0.83365756, 0.50463449, 0.11409656], "properties": {"magmom": -0.0}, "label": "Cl", "xyz": [4.557619710898921, 3.2934046054562263, 1.207771033305793]}, {"species": [{"element": "O", "occu": 1}], "abc": [0.78570502, 0.09964953, 0.51097316], "properties": {"magmom": -0.0}, "label": "O", "xyz": [4.295462379186282, 0.6503444127125523, 5.408914882663652]}, {"species": [{"element": "O", "occu": 1}], "abc": [0.28570502000000003, 0.90035047, 0.9890268400000001], "properties": {"magmom": -0.0}, "label": "O", "xyz": [1.561954084186282, 5.875972497287448, 10.469360062336351]}, {"species": [{"element": "O", "occu": 1}], "abc": [0.71429498, 0.59964953, 0.48902684], "properties": {"magmom": -0.0}, "label": "O", "xyz": [3.9050625058137185, 3.9135028677125523, 5.17660174733635]}, {"species": [{"element": "O", "occu": 1}], "abc": [0.21429498, 0.40035047, 0.010973160000000001], "properties": {"magmom": -0.0}, "label": "O", "xyz": [1.1715542108137182, 2.612814042287448, 0.11615656766365082]}, {"species": [{"element": "O", "occu": 1}], "abc": [0.21429498, 0.90035047, 0.48902684], "properties": {"magmom": -0.0}, "label": "O", "xyz": [1.1715542108137182, 5.875972497287448, 5.17660174733635]}, {"species": [{"element": "O", "occu": 1}], "abc": [0.71429498, 0.09964953, 0.010973160000000001], "properties": {"magmom": -0.0}, "label": "O", "xyz": [3.9050625058137185, 0.6503444127125523, 0.11615656766365082]}, {"species": [{"element": "O", "occu": 1}], "abc": [0.28570502000000003, 0.40035047, 0.51097316], "properties": {"magmom": -0.0}, "label": "O", "xyz": [1.561954084186282, 2.612814042287448, 5.408914882663652]}, {"species": [{"element": "O", "occu": 1}], "abc": [0.78570502, 0.59964953, 0.9890268400000001], "properties": {"magmom": -0.0}, "label": "O", "xyz": [4.295462379186282, 3.9135028677125523, 10.469360062336351]}, {"species": [{"element": "O", "occu": 1}], "abc": [0.92537139, 0.64620468, 0.21107146000000002], "properties": {"magmom": 0.0}, "label": "O", "xyz": [5.05902074104136, 4.217336530405139, 2.23430044994838]}, {"species": [{"element": "O", "occu": 1}], "abc": [0.42537139, 0.35379532, 0.28892854], "properties": {"magmom": 0.0}, "label": "O", "xyz": [2.32551244604136, 2.3089803795948614, 3.0584578650516208]}, {"species": [{"element": "O", "occu": 1}], "abc": [0.57462861, 0.14620468, 0.78892854], "properties": {"magmom": 0.0}, "label": "O", "xyz": [3.14150414395864, 0.9541780754051389, 8.35121618005162]}, {"species": [{"element": "O", "occu": 1}], "abc": [0.07462861, 0.85379532, 0.71107146], "properties": {"magmom": 0.0}, "label": "O", "xyz": [0.4079958489586399, 5.5721388345948615, 7.52705876494838]}, {"species": [{"element": "O", "occu": 1}], "abc": [0.07462861, 0.35379532, 0.78892854], "properties": {"magmom": 0.0}, "label": "O", "xyz": [0.4079958489586399, 2.3089803795948614, 8.35121618005162]}, {"species": [{"element": "O", "occu": 1}], "abc": [0.57462861, 0.64620468, 0.71107146], "properties": {"magmom": 0.0}, "label": "O", "xyz": [3.14150414395864, 4.217336530405139, 7.52705876494838]}, {"species": [{"element": "O", "occu": 1}], "abc": [0.42537139, 0.85379532, 0.21107146000000002], "properties": {"magmom": 0.0}, "label": "O", "xyz": [2.32551244604136, 5.5721388345948615, 2.23430044994838]}, {"species": [{"element": "O", "occu": 1}], "abc": [0.92537139, 0.14620468, 0.28892854], "properties": {"magmom": 0.0}, "label": "O", "xyz": [5.05902074104136, 0.9541780754051389, 3.0584578650516208]}]}, "task_ids": null, "uncorrected_energy_per_atom": null, "energy_per_atom": -4.267691487916667, "formation_energy_per_atom": -0.352869884583334, "energy_above_hull": 0.0, "is_stable": true, "equilibrium_reaction_energy_per_atom": null, "decomposes_to": null, "xas": null, "grain_boundaries": null, "band_gap": 0.9646, "cbm": null, "vbm": null, "efermi": 0.017719060000000002, "is_gap_direct": null, "is_metal": null, "es_source_calc_id": null, "bandstructure": null, "dos": null, "dos_energy_up": null, "dos_energy_down": null, "is_magnetic": null, "ordering": null, "total_magnetization": 0.0, "total_magnetization_normalized_vol": null, "total_magnetization_normalized_formula_units": null, "num_magnetic_sites": null, "num_unique_magnetic_sites": null, "types_of_magnetic_species": null, "bulk_modulus": null, "shear_modulus": null, "universal_anisotropy": null, "homogeneous_poisson": null, "e_total": null, "e_ionic": null, "e_electronic": null, "n": null, "e_ij_max": null, "weighted_surface_energy_EV_PER_ANG2": null, "weighted_surface_energy": null, "weighted_work_function": null, "surface_anisotropy": null, "shape_factor": null, "has_reconstructed": null, "possible_species": null, "has_props": null, "theoretical": null, "database_IDs": null, "fields_not_requested": ["builder_meta", "nsites", "elements", "nelements", "composition", "composition_reduced", "chemsys", "symmetry", "property_name", "deprecated", "deprecation_reasons", "last_updated", "origins", "warnings", "task_ids", "uncorrected_energy_per_atom", "equilibrium_reaction_energy_per_atom", "decomposes_to", "xas", "grain_boundaries", "cbm", "vbm", "is_gap_direct", "is_metal", "es_source_calc_id", "bandstructure", "dos", "dos_energy_up", "dos_energy_down", "is_magnetic", "ordering", "total_magnetization_normalized_vol", "total_magnetization_normalized_formula_units", "num_magnetic_sites", "num_unique_magnetic_sites", "types_of_magnetic_species", "bulk_modulus", "shear_modulus", "universal_anisotropy", "homogeneous_poisson", "e_total", "e_ionic", "e_electronic", "n", "e_ij_max", "weighted_surface_energy_EV_PER_ANG2", "weighted_surface_energy", "weighted_work_function", "surface_anisotropy", "shape_factor", "has_reconstructed", "possible_species", "has_props", "theoretical", "database_IDs"]}