{"builder_meta": null, "nsites": null, "elements": null, "nelements": null, "composition": null, "composition_reduced": null, "formula_pretty": "ClO3", "formula_anonymous": "AB3", "chemsys": null, "volume": 227.7169375298868, "density": 2.434144412054772, "density_atomic": 14.232308595617924, "symmetry": null, "property_name": null, "material_id": "mp-22869", "deprecated": null, "deprecation_reasons": null, "last_updated": null, "origins": null, "warnings": null, "structure": {"@module": "pymatgen.core.structure", "@class": "Structure", "charge": 0, "lattice": {"matrix": [[5.05956047, -0.0078436, -0.55516431], [-2.15922851, 4.57569155, -0.5551642999999991], [-0.06608653, -0.10408189, 9.86866558]], "pbc": [true, true, true], "a": 5.089933308280704, "b": 5.089934019133521, "c": 9.869435687978829, "alpha": 96.64413697916108, "beta": 96.64413999178898, "gamma": 114.27853285122522, "volume": 227.7169375298868}, "properties": {}, "sites": [{"species": [{"element": "Cl", "occu": 1}], "abc": [0.8162569, 0.68278806, 0.13978007], "properties": {"magmom": -0.0}, "label": "Cl", "xyz": [2.646368119375695, 3.103276590092121, 0.5472265115294943]}, {"species": [{"element": "Cl", "occu": 1}], "abc": [0.68278806, 0.8162569, 0.63978007], "properties": {"magmom": -0.0}, "label": "Cl", "xyz": [1.6498414630103124, 3.6629947646618466, 5.481559302864183]}, {"species": [{"element": "Cl", "occu": 1}], "abc": [0.18213427000000001, 0.30735495, 0.37584334], "properties": {"magmom": 0.0}, "label": "Cl", "xyz": [0.23303159983047214, 1.3658143740343882, 3.4373252909300493]}, {"species": [{"element": "Cl", "occu": 1}], "abc": [0.30735495, 0.18213427000000001, 0.87584334], "properties": {"magmom": 0.0}, "label": "Cl", "xyz": [1.1039299996825784, 0.739820040747486, 8.371658079677841]}, {"species": [{"element": "O", "occu": 1}], "abc": [0.57813507, 0.46324088, 0.18467596], "properties": {"magmom": 0.0}, "label": "O", "xyz": [1.9126618380283753, 2.0958912970411476, 1.2443705338055215]}, {"species": [{"element": "O", "occu": 1}], "abc": [0.46324088, 0.57813507, 0.68467596], "properties": {"magmom": 0.0}, "label": "O", "xyz": [1.0502216603903491, 2.5704719104369262, 6.178703324954464]}, {"species": [{"element": "O", "occu": 1}], "abc": [0.82813557, 0.97422568, 0.18709068], "properties": {"magmom": -0.0}, "label": "O", "xyz": [2.0740619565062404, 4.431787896036367, 0.8457287240700646]}, {"species": [{"element": "O", "occu": 1}], "abc": [0.97422568, 0.82813557, 0.6870906800000001], "properties": {"magmom": -0.0}, "label": "O", "xyz": [3.095612367661228, 3.710137796784001, 5.780061512609164]}, {"species": [{"element": "O", "occu": 1}], "abc": [0.36786477, 0.97736818, 0.94387885], "properties": {"magmom": 0.0}, "label": "O", "xyz": [-0.3115048683620605, 4.37100924371588, 8.56799940598265]}, {"species": [{"element": "O", "occu": 1}], "abc": [0.97736818, 0.36786477, 0.44387885], "properties": {"magmom": 0.0}, "label": "O", "xyz": [4.121414896018361, 1.6293698849360192, 3.6336666098876167]}, {"species": [{"element": "O", "occu": 1}], "abc": [0.11548974000000001, 0.28857013, 0.92923256], "properties": {"magmom": -0.0}, "label": "O", "xyz": [-0.10017128408924529, 1.222785769004399, 8.945965764645747]}, {"species": [{"element": "O", "occu": 1}], "abc": [0.28857013, 0.11548974000000001, 0.42923256], "properties": {"magmom": -0.0}, "label": "O", "xyz": [1.1823027928968566, 0.4815066626636907, 4.011632972914943]}, {"species": [{"element": "O", "occu": 1}], "abc": [0.6342437400000001, 0.76409476, 0.48884843], "properties": {"magmom": 0.0}, "label": "O", "xyz": [1.5268330686807026, 3.4404069140142814, 4.047974054120053]}, {"species": [{"element": "O", "occu": 1}], "abc": [0.76409476, 0.6342437400000001, 0.98884843], "properties": {"magmom": 0.0}, "label": "O", "xyz": [2.431156915898461, 2.7931892545809287, 8.982306842821544]}, {"species": [{"element": "O", "occu": 1}], "abc": [0.683854, 0.09004529, 0.69224911], "properties": {"magmom": -0.0}, "label": "O", "xyz": [3.2198239667166733, 0.3346049996162816, 6.401933700200747]}, {"species": [{"element": "O", "occu": 1}], "abc": [0.09004529, 0.683854, 0.19224911], "properties": {"magmom": -0.0}, "label": "O", "xyz": [-1.0337125402593421, 3.108389039277438, 1.4676009161388346]}]}, "task_ids": null, "uncorrected_energy_per_atom": null, "energy_per_atom": -4.51232245, "formation_energy_per_atom": -0.33921599625000004, "energy_above_hull": 0.0, "is_stable": true, "equilibrium_reaction_energy_per_atom": null, "decomposes_to": null, "xas": null, "grain_boundaries": null, "band_gap": 1.2103, "cbm": null, "vbm": null, "efermi": -1.20368262, "is_gap_direct": null, "is_metal": null, "es_source_calc_id": null, "bandstructure": null, "dos": null, "dos_energy_up": null, "dos_energy_down": null, "is_magnetic": null, "ordering": null, "total_magnetization": 0.0, "total_magnetization_normalized_vol": null, "total_magnetization_normalized_formula_units": null, "num_magnetic_sites": null, "num_unique_magnetic_sites": null, "types_of_magnetic_species": null, "bulk_modulus": null, "shear_modulus": null, "universal_anisotropy": null, "homogeneous_poisson": null, "e_total": null, "e_ionic": null, "e_electronic": null, "n": null, "e_ij_max": null, "weighted_surface_energy_EV_PER_ANG2": null, "weighted_surface_energy": null, "weighted_work_function": null, "surface_anisotropy": null, "shape_factor": null, "has_reconstructed": null, "possible_species": null, "has_props": null, "theoretical": null, "database_IDs": null, "fields_not_requested": ["builder_meta", "nsites", "elements", "nelements", "composition", "composition_reduced", "chemsys", "symmetry", "property_name", "deprecated", "deprecation_reasons", "last_updated", "origins", "warnings", "task_ids", "uncorrected_energy_per_atom", "equilibrium_reaction_energy_per_atom", "decomposes_to", "xas", "grain_boundaries", "cbm", "vbm", "is_gap_direct", "is_metal", "es_source_calc_id", "bandstructure", "dos", "dos_energy_up", "dos_energy_down", "is_magnetic", "ordering", "total_magnetization_normalized_vol", "total_magnetization_normalized_formula_units", "num_magnetic_sites", "num_unique_magnetic_sites", "types_of_magnetic_species", "bulk_modulus", "shear_modulus", "universal_anisotropy", "homogeneous_poisson", "e_total", "e_ionic", "e_electronic", "n", "e_ij_max", "weighted_surface_energy_EV_PER_ANG2", "weighted_surface_energy", "weighted_work_function", "surface_anisotropy", "shape_factor", "has_reconstructed", "possible_species", "has_props", "theoretical", "database_IDs"]}