{"builder_meta": null, "nsites": null, "elements": null, "nelements": null, "composition": null, "composition_reduced": null, "formula_pretty": "ClO5", "formula_anonymous": "AB5", "chemsys": null, "volume": 374.14319937839974, "density": 2.049581396187075, "density_atomic": 15.589299974099989, "symmetry": null, "property_name": null, "material_id": "mp-1213825", "deprecated": null, "deprecation_reasons": null, "last_updated": null, "origins": null, "warnings": null, "structure": {"@module": "pymatgen.core.structure", "@class": "Structure", "charge": 0, "lattice": {"matrix": [[8.729043, 0.0, 0.0], [0.0, 5.013527, 0.0], [0.0, 3.488941, 8.549247]], "pbc": [true, true, true], "a": 8.729043, "b": 5.013527, "c": 9.233760532334049, "alpha": 67.79966721884662, "beta": 90.0, "gamma": 90.0, "volume": 374.14319937839974}, "properties": {}, "sites": [{"species": [{"element": "Cl", "occu": 1}], "abc": [0.96291, 0.407813999999999, 0.278485], "properties": {"magmom": -0.011}, "label": "Cl", "xyz": [8.40528279513, 3.016204234362995, 2.380837050795]}, {"species": [{"element": "Cl", "occu": 1}], "abc": [0.037090000000000005, 0.592186, 0.721515], "properties": {"magmom": -0.011}, "label": "Cl", "xyz": [0.32376020487000007, 5.486263765637, 6.1684099492049995]}, {"species": [{"element": "Cl", "occu": 1}], "abc": [0.46291000000000004, 0.592186, 0.221515], "properties": {"magmom": -0.011}, "label": "Cl", "xyz": [4.040761295130001, 3.741793265637, 1.8937864492049998]}, {"species": [{"element": "Cl", "occu": 1}], "abc": [0.5370900000000001, 0.407813999999999, 0.778485], "properties": {"magmom": -0.011}, "label": "Cl", "xyz": [4.688281704870001, 4.760674734362995, 6.6554605507949995]}, {"species": [{"element": "O", "occu": 1}], "abc": [0.617861, 0.724252, 0.195599], "properties": {"magmom": 0.222}, "label": "O", "xyz": [5.393335237023001, 4.3134903274630005, 1.6722241639529998]}, {"species": [{"element": "O", "occu": 1}], "abc": [0.382139, 0.275748, 0.804400999999999], "properties": {"magmom": 0.222}, "label": "O", "xyz": [3.3357077629770004, 4.188977672536996, 6.877022836046991]}, {"species": [{"element": "O", "occu": 1}], "abc": [0.117861, 0.275748, 0.304401], "properties": {"magmom": 0.222}, "label": "O", "xyz": [1.028813737023, 2.444507172537, 2.6023993360469997]}, {"species": [{"element": "O", "occu": 1}], "abc": [0.882139, 0.724252, 0.695599], "properties": {"magmom": 0.222}, "label": "O", "xyz": [7.700229262977, 6.057960827463, 5.946847663952999]}, {"species": [{"element": "O", "occu": 1}], "abc": [0.385856, 0.663683999999999, 0.07445399999999901], "properties": {"magmom": 0.085}, "label": "O", "xyz": [3.368153615808, 3.587163266681992, 0.6365256361379915]}, {"species": [{"element": "O", "occu": 1}], "abc": [0.614144, 0.336316, 0.925546], "properties": {"magmom": 0.085}, "label": "O", "xyz": [5.360889384192001, 4.915304733318, 7.9127213638619995]}, {"species": [{"element": "O", "occu": 1}], "abc": [0.885856, 0.336316, 0.425546], "properties": {"magmom": 0.085}, "label": "O", "xyz": [7.732675115808, 3.1708342333179997, 3.6380978638619994]}, {"species": [{"element": "O", "occu": 1}], "abc": [0.114144, 0.663683999999999, 0.574454], "properties": {"magmom": 0.085}, "label": "O", "xyz": [0.9963678841920001, 5.331633766681995, 4.9111491361379995]}, {"species": [{"element": "O", "occu": 1}], "abc": [0.874898, 0.302979, 0.17283], "properties": {"magmom": 0.255}, "label": "O", "xyz": [7.637022262614, 2.1219870699629997, 1.4775663590099999]}, {"species": [{"element": "O", "occu": 1}], "abc": [0.125102, 0.697021, 0.8271700000000001], "properties": {"magmom": 0.255}, "label": "O", "xyz": [1.092020737386, 6.380480930037001, 7.07168064099]}, {"species": [{"element": "O", "occu": 1}], "abc": [0.374898, 0.697021, 0.32717], "properties": {"magmom": 0.255}, "label": "O", "xyz": [3.2725007626140004, 4.636010430037, 2.79705714099]}, {"species": [{"element": "O", "occu": 1}], "abc": [0.625101999999999, 0.302979, 0.67283], "properties": {"magmom": 0.255}, "label": "O", "xyz": [5.456542237385992, 3.866457569963, 5.75218985901]}, {"species": [{"element": "O", "occu": 1}], "abc": [0.694105, 0.9943869999999991, 0.318631], "properties": {"magmom": 1.76}, "label": "O", "xyz": [6.058872391515, 6.097070832719996, 2.724055120857]}, {"species": [{"element": "O", "occu": 1}], "abc": [0.305895, 0.005613, 0.681369], "properties": {"magmom": 1.76}, "label": "O", "xyz": [2.670170608485, 2.40539716728, 5.8251918791429995]}, {"species": [{"element": "O", "occu": 1}], "abc": [0.194105, 0.005613, 0.181369], "properties": {"magmom": 1.76}, "label": "O", "xyz": [1.694350891515, 0.66092666728, 1.5505683791429998]}, {"species": [{"element": "O", "occu": 1}], "abc": [0.805894999999999, 0.9943869999999991, 0.818631], "properties": {"magmom": 1.76}, "label": "O", "xyz": [7.034692108484992, 7.841541332719995, 6.9986786208569995]}, {"species": [{"element": "O", "occu": 1}], "abc": [0.978565999999999, 0.721391, 0.196176], "properties": {"magmom": 0.213}, "label": "O", "xyz": [8.541944692337992, 4.301159745673, 1.6771570794719999]}, {"species": [{"element": "O", "occu": 1}], "abc": [0.021433999999999002, 0.278609, 0.803824], "properties": {"magmom": 0.213}, "label": "O", "xyz": [0.18709830766199131, 4.2013082543269995, 6.8720899205279995]}, {"species": [{"element": "O", "occu": 1}], "abc": [0.478566, 0.278609, 0.303824], "properties": {"magmom": 0.213}, "label": "O", "xyz": [4.177423192338, 2.456837754327, 2.597466420528]}, {"species": [{"element": "O", "occu": 1}], "abc": [0.521434, 0.721391, 0.696176], "properties": {"magmom": 0.213}, "label": "O", "xyz": [4.551619807662, 6.045630245672999, 5.951780579472]}]}, "task_ids": null, "uncorrected_energy_per_atom": null, "energy_per_atom": -4.267474905, "formation_energy_per_atom": 0.163916399166666, "energy_above_hull": 0.39085593375000005, "is_stable": false, "equilibrium_reaction_energy_per_atom": null, "decomposes_to": null, "xas": null, "grain_boundaries": null, "band_gap": 0.5363, "cbm": null, "vbm": null, "efermi": -2.03034184, "is_gap_direct": null, "is_metal": null, "es_source_calc_id": null, "bandstructure": null, "dos": null, "dos_energy_up": null, "dos_energy_down": null, "is_magnetic": null, "ordering": null, "total_magnetization": 12.0008256, "total_magnetization_normalized_vol": null, "total_magnetization_normalized_formula_units": null, "num_magnetic_sites": null, "num_unique_magnetic_sites": null, "types_of_magnetic_species": null, "bulk_modulus": null, "shear_modulus": null, "universal_anisotropy": null, "homogeneous_poisson": null, "e_total": null, "e_ionic": null, "e_electronic": null, "n": null, "e_ij_max": null, "weighted_surface_energy_EV_PER_ANG2": null, "weighted_surface_energy": null, "weighted_work_function": null, "surface_anisotropy": null, "shape_factor": null, "has_reconstructed": null, "possible_species": null, "has_props": null, "theoretical": null, "database_IDs": null, "fields_not_requested": ["builder_meta", "nsites", "elements", "nelements", "composition", "composition_reduced", "chemsys", "symmetry", "property_name", "deprecated", "deprecation_reasons", "last_updated", "origins", "warnings", "task_ids", "uncorrected_energy_per_atom", "equilibrium_reaction_energy_per_atom", "decomposes_to", "xas", "grain_boundaries", "cbm", "vbm", "is_gap_direct", "is_metal", "es_source_calc_id", "bandstructure", "dos", "dos_energy_up", "dos_energy_down", "is_magnetic", "ordering", "total_magnetization_normalized_vol", "total_magnetization_normalized_formula_units", "num_magnetic_sites", "num_unique_magnetic_sites", "types_of_magnetic_species", "bulk_modulus", "shear_modulus", "universal_anisotropy", "homogeneous_poisson", "e_total", "e_ionic", "e_electronic", "n", "e_ij_max", "weighted_surface_energy_EV_PER_ANG2", "weighted_surface_energy", "weighted_work_function", "surface_anisotropy", "shape_factor", "has_reconstructed", "possible_species", "has_props", "theoretical", "database_IDs"]}