{"builder_meta": null, "nsites": null, "elements": null, "nelements": null, "composition": null, "composition_reduced": null, "formula_pretty": "CN", "formula_anonymous": "AB", "chemsys": null, "volume": 314.1651429110382, "density": 1.100132464373173, "density_atomic": 19.635321431939886, "symmetry": null, "property_name": null, "material_id": "mp-27461", "deprecated": null, "deprecation_reasons": null, "last_updated": null, "origins": null, "warnings": null, "structure": {"@module": "pymatgen.core.structure", "@class": "Structure", "charge": 0, "lattice": {"matrix": [[6.417563, 0.0, 0.0], [0.0, 6.64336, 0.0], [0.0, 0.0, 7.368856]], "pbc": [true, true, true], "a": 6.417563, "b": 6.64336, "c": 7.368856, "alpha": 90.0, "beta": 90.0, "gamma": 90.0, "volume": 314.1651429110382}, "properties": {}, "sites": [{"species": [{"element": "C", "occu": 1}], "abc": [0.086755, 0.968675, 0.046611], "properties": {"magmom": -0.0}, "label": "C", "xyz": [0.556755678065, 6.4352567480000005, 0.343469747016]}, {"species": [{"element": "C", "occu": 1}], "abc": [0.586755, 0.031325, 0.453389], "properties": {"magmom": -0.0}, "label": "C", "xyz": [3.765537178065, 0.20810325200000002, 3.340958252984]}, {"species": [{"element": "C", "occu": 1}], "abc": [0.413245, 0.468674999999999, 0.953388999999999], "properties": {"magmom": -0.0}, "label": "C", "xyz": [2.652025821935, 3.1135767479999936, 7.025386252983993]}, {"species": [{"element": "C", "occu": 1}], "abc": [0.913245, 0.531324999999999, 0.546611], "properties": {"magmom": -0.0}, "label": "C", "xyz": [5.860807321935, 3.529783251999994, 4.027897747016]}, {"species": [{"element": "C", "occu": 1}], "abc": [0.913245, 0.031325, 0.953388999999999], "properties": {"magmom": -0.0}, "label": "C", "xyz": [5.860807321935, 0.20810325200000002, 7.025386252983993]}, {"species": [{"element": "C", "occu": 1}], "abc": [0.413245, 0.968675, 0.546611], "properties": {"magmom": -0.0}, "label": "C", "xyz": [2.652025821935, 6.4352567480000005, 4.027897747016]}, {"species": [{"element": "C", "occu": 1}], "abc": [0.586755, 0.531324999999999, 0.046611], "properties": {"magmom": -0.0}, "label": "C", "xyz": [3.765537178065, 3.529783251999994, 0.343469747016]}, {"species": [{"element": "C", "occu": 1}], "abc": [0.086755, 0.468674999999999, 0.453389], "properties": {"magmom": -0.0}, "label": "C", "xyz": [0.556755678065, 3.1135767479999936, 3.340958252984]}, {"species": [{"element": "N", "occu": 1}], "abc": [0.234503, 0.915364, 0.125751], "properties": {"magmom": -0.0}, "label": "N", "xyz": [1.504937776189, 6.08109258304, 0.926641010856]}, {"species": [{"element": "N", "occu": 1}], "abc": [0.734503, 0.084636, 0.374249], "properties": {"magmom": -0.0}, "label": "N", "xyz": [4.713719276189001, 0.56226741696, 2.757786989144]}, {"species": [{"element": "N", "occu": 1}], "abc": [0.265497, 0.415363999999999, 0.874248999999999], "properties": {"magmom": -0.0}, "label": "N", "xyz": [1.703843723811, 2.7594125830399934, 6.442214989143993]}, {"species": [{"element": "N", "occu": 1}], "abc": [0.765497, 0.584635999999999, 0.625751], "properties": {"magmom": -0.0}, "label": "N", "xyz": [4.912625223811, 3.8839474169599937, 4.611069010855999]}, {"species": [{"element": "N", "occu": 1}], "abc": [0.765497, 0.084636, 0.874248999999999], "properties": {"magmom": -0.0}, "label": "N", "xyz": [4.912625223811, 0.56226741696, 6.442214989143993]}, {"species": [{"element": "N", "occu": 1}], "abc": [0.265497, 0.915364, 0.625751], "properties": {"magmom": -0.0}, "label": "N", "xyz": [1.703843723811, 6.08109258304, 4.611069010855999]}, {"species": [{"element": "N", "occu": 1}], "abc": [0.734503, 0.584635999999999, 0.125751], "properties": {"magmom": -0.0}, "label": "N", "xyz": [4.713719276189001, 3.8839474169599937, 0.926641010856]}, {"species": [{"element": "N", "occu": 1}], "abc": [0.234503, 0.415363999999999, 0.374249], "properties": {"magmom": -0.0}, "label": "N", "xyz": [1.504937776189, 2.7594125830399934, 2.757786989144]}]}, "task_ids": null, "uncorrected_energy_per_atom": null, "energy_per_atom": -8.271470770625001, "formation_energy_per_atom": 0.512000848124998, "energy_above_hull": 0.512000848124998, "is_stable": false, "equilibrium_reaction_energy_per_atom": null, "decomposes_to": null, "xas": null, "grain_boundaries": null, "band_gap": 4.8638, "cbm": null, "vbm": null, "efermi": -4.6352458500000004, "is_gap_direct": null, "is_metal": null, "es_source_calc_id": null, "bandstructure": null, "dos": null, "dos_energy_up": null, "dos_energy_down": null, "is_magnetic": null, "ordering": null, "total_magnetization": 0.0006102, "total_magnetization_normalized_vol": null, "total_magnetization_normalized_formula_units": null, "num_magnetic_sites": null, "num_unique_magnetic_sites": null, "types_of_magnetic_species": null, "bulk_modulus": null, "shear_modulus": null, "universal_anisotropy": null, "homogeneous_poisson": null, "e_total": null, "e_ionic": null, "e_electronic": null, "n": null, "e_ij_max": null, "weighted_surface_energy_EV_PER_ANG2": null, "weighted_surface_energy": null, "weighted_work_function": null, "surface_anisotropy": null, "shape_factor": null, "has_reconstructed": null, "possible_species": null, "has_props": null, "theoretical": null, "database_IDs": null, "fields_not_requested": ["builder_meta", "nsites", "elements", "nelements", "composition", "composition_reduced", "chemsys", "symmetry", "property_name", "deprecated", "deprecation_reasons", "last_updated", "origins", "warnings", "task_ids", "uncorrected_energy_per_atom", "equilibrium_reaction_energy_per_atom", "decomposes_to", "xas", "grain_boundaries", "cbm", "vbm", "is_gap_direct", "is_metal", "es_source_calc_id", "bandstructure", "dos", "dos_energy_up", "dos_energy_down", "is_magnetic", "ordering", "total_magnetization_normalized_vol", "total_magnetization_normalized_formula_units", "num_magnetic_sites", "num_unique_magnetic_sites", "types_of_magnetic_species", "bulk_modulus", "shear_modulus", "universal_anisotropy", "homogeneous_poisson", "e_total", "e_ionic", "e_electronic", "n", "e_ij_max", "weighted_surface_energy_EV_PER_ANG2", "weighted_surface_energy", "weighted_work_function", "surface_anisotropy", "shape_factor", "has_reconstructed", "possible_species", "has_props", "theoretical", "database_IDs"]}