{"builder_meta": null, "nsites": null, "elements": null, "nelements": null, "composition": null, "composition_reduced": null, "formula_pretty": "CN2", "formula_anonymous": "AB2", "chemsys": null, "volume": 52.113900812000004, "density": 2.550627783372581, "density_atomic": 8.685650135333335, "symmetry": null, "property_name": null, "material_id": "mp-1019086", "deprecated": null, "deprecation_reasons": null, "last_updated": null, "origins": null, "warnings": null, "structure": {"@module": "pymatgen.core.structure", "@class": "Structure", "charge": 0, "lattice": {"matrix": [[3.313, 0.0, 0.0], [0.0, 3.313, 0.0], [0.0, 0.0, 4.748]], "pbc": [true, true, true], "a": 3.313, "b": 3.313, "c": 4.748, "alpha": 90.0, "beta": 90.0, "gamma": 90.0, "volume": 52.113900812000004}, "properties": {}, "sites": [{"species": [{"element": "C", "occu": 1}], "abc": [0.5, 0.5, 0.0], "properties": {"magmom": -0.0}, "label": "C", "xyz": [1.6565, 1.6565, 0.0]}, {"species": [{"element": "C", "occu": 1}], "abc": [0.0, 0.0, 0.0], "properties": {"magmom": -0.0}, "label": "C", "xyz": [0.0, 0.0, 0.0]}, {"species": [{"element": "N", "occu": 1}], "abc": [0.15442, 0.34558000000000005, 0.1608], "properties": {"magmom": -0.0}, "label": "N", "xyz": [0.51159346, 1.1449065400000003, 0.7634784]}, {"species": [{"element": "N", "occu": 1}], "abc": [0.34558000000000005, 0.8455800000000001, 0.8392000000000001], "properties": {"magmom": 0.0}, "label": "N", "xyz": [1.1449065400000003, 2.8014065400000003, 3.9845216000000003]}, {"species": [{"element": "N", "occu": 1}], "abc": [0.8455800000000001, 0.65442, 0.1608], "properties": {"magmom": -0.0}, "label": "N", "xyz": [2.8014065400000003, 2.16809346, 0.7634784]}, {"species": [{"element": "N", "occu": 1}], "abc": [0.65442, 0.15442, 0.8392000000000001], "properties": {"magmom": 0.0}, "label": "N", "xyz": [2.16809346, 0.51159346, 3.9845216000000003]}]}, "task_ids": null, "uncorrected_energy_per_atom": null, "energy_per_atom": -8.259899291666667, "formation_energy_per_atom": 0.375174369166665, "energy_above_hull": 0.375174369166666, "is_stable": false, "equilibrium_reaction_energy_per_atom": null, "decomposes_to": null, "xas": null, "grain_boundaries": null, "band_gap": 4.660499999999999, "cbm": null, "vbm": null, "efermi": 3.60516332, "is_gap_direct": null, "is_metal": null, "es_source_calc_id": null, "bandstructure": null, "dos": null, "dos_energy_up": null, "dos_energy_down": null, "is_magnetic": null, "ordering": null, "total_magnetization": 1.1000000000000001e-05, "total_magnetization_normalized_vol": null, "total_magnetization_normalized_formula_units": null, "num_magnetic_sites": null, "num_unique_magnetic_sites": null, "types_of_magnetic_species": null, "bulk_modulus": null, "shear_modulus": null, "universal_anisotropy": null, "homogeneous_poisson": null, "e_total": null, "e_ionic": null, "e_electronic": null, "n": null, "e_ij_max": null, "weighted_surface_energy_EV_PER_ANG2": null, "weighted_surface_energy": null, "weighted_work_function": null, "surface_anisotropy": null, "shape_factor": null, "has_reconstructed": null, "possible_species": null, "has_props": null, "theoretical": null, "database_IDs": null, "fields_not_requested": ["builder_meta", "nsites", "elements", "nelements", "composition", "composition_reduced", "chemsys", "symmetry", "property_name", "deprecated", "deprecation_reasons", "last_updated", "origins", "warnings", "task_ids", "uncorrected_energy_per_atom", "equilibrium_reaction_energy_per_atom", "decomposes_to", "xas", "grain_boundaries", "cbm", "vbm", "is_gap_direct", "is_metal", "es_source_calc_id", "bandstructure", "dos", "dos_energy_up", "dos_energy_down", "is_magnetic", "ordering", "total_magnetization_normalized_vol", "total_magnetization_normalized_formula_units", "num_magnetic_sites", "num_unique_magnetic_sites", "types_of_magnetic_species", "bulk_modulus", "shear_modulus", "universal_anisotropy", "homogeneous_poisson", "e_total", "e_ionic", "e_electronic", "n", "e_ij_max", "weighted_surface_energy_EV_PER_ANG2", "weighted_surface_energy", "weighted_work_function", "surface_anisotropy", "shape_factor", "has_reconstructed", "possible_species", "has_props", "theoretical", "database_IDs"]}