{"builder_meta": null, "nsites": null, "elements": null, "nelements": null, "composition": null, "composition_reduced": null, "formula_pretty": "CO", "formula_anonymous": "AB", "chemsys": null, "volume": 85.75973257692874, "density": 2.169403467654253, "density_atomic": 10.719966572116093, "symmetry": null, "property_name": null, "material_id": "mp-995183", "deprecated": null, "deprecation_reasons": null, "last_updated": null, "origins": null, "warnings": null, "structure": {"@module": "pymatgen.core.structure", "@class": "Structure", "charge": 0, "lattice": {"matrix": [[2.5573040000000002, 0.0, 0.0], [0.0, 4.347525, 0.0], [0.0, 0.0, 7.713633]], "pbc": [true, true, true], "a": 2.5573040000000002, "b": 4.347525, "c": 7.713633, "alpha": 90.0, "beta": 90.0, "gamma": 90.0, "volume": 85.75973257692876}, "properties": {}, "sites": [{"species": [{"element": "C", "occu": 1}], "abc": [0.75, 0.075725, 0.034734], "properties": {"magmom": 0.0}, "label": "C", "xyz": [1.9179780000000002, 0.329216330625, 0.267925328622]}, {"species": [{"element": "C", "occu": 1}], "abc": [0.25, 0.575724999999999, 0.465265999999999], "properties": {"magmom": 0.0}, "label": "C", "xyz": [0.6393260000000001, 2.502978830624996, 3.588891171377992]}, {"species": [{"element": "C", "occu": 1}], "abc": [0.25, 0.924275, 0.965266], "properties": {"magmom": 0.0}, "label": "C", "xyz": [0.6393260000000001, 4.018308669375, 7.445707671377999]}, {"species": [{"element": "C", "occu": 1}], "abc": [0.75, 0.424274999999999, 0.534733999999999], "properties": {"magmom": 0.0}, "label": "C", "xyz": [1.9179780000000002, 1.8445461693749958, 4.124741828621993]}, {"species": [{"element": "O", "occu": 1}], "abc": [0.75, 0.292821, 0.134911], "properties": {"magmom": 0.0}, "label": "O", "xyz": [1.9179780000000002, 1.273046618025, 1.040653941663]}, {"species": [{"element": "O", "occu": 1}], "abc": [0.25, 0.792821, 0.365089], "properties": {"magmom": 0.0}, "label": "O", "xyz": [0.6393260000000001, 3.446809118025, 2.816162558337]}, {"species": [{"element": "O", "occu": 1}], "abc": [0.25, 0.707179, 0.865089], "properties": {"magmom": 0.0}, "label": "O", "xyz": [0.6393260000000001, 3.074478381975, 6.672979058337]}, {"species": [{"element": "O", "occu": 1}], "abc": [0.75, 0.207179, 0.634911], "properties": {"magmom": 0.0}, "label": "O", "xyz": [1.9179780000000002, 0.9007158819750001, 4.897470441663]}]}, "task_ids": null, "uncorrected_energy_per_atom": null, "energy_per_atom": -7.8665868025000005, "formation_energy_per_atom": -0.7782735537500001, "energy_above_hull": 0.548848248125, "is_stable": false, "equilibrium_reaction_energy_per_atom": null, "decomposes_to": null, "xas": null, "grain_boundaries": null, "band_gap": 0.0, "cbm": null, "vbm": null, "efermi": 1.72432341, "is_gap_direct": null, "is_metal": null, "es_source_calc_id": null, "bandstructure": null, "dos": null, "dos_energy_up": null, "dos_energy_down": null, "is_magnetic": null, "ordering": null, "total_magnetization": 0.0018821999999990003, "total_magnetization_normalized_vol": null, "total_magnetization_normalized_formula_units": null, "num_magnetic_sites": null, "num_unique_magnetic_sites": null, "types_of_magnetic_species": null, "bulk_modulus": null, "shear_modulus": null, "universal_anisotropy": null, "homogeneous_poisson": null, "e_total": null, "e_ionic": null, "e_electronic": null, "n": null, "e_ij_max": null, "weighted_surface_energy_EV_PER_ANG2": null, "weighted_surface_energy": null, "weighted_work_function": null, "surface_anisotropy": null, "shape_factor": null, "has_reconstructed": null, "possible_species": null, "has_props": null, "theoretical": null, "database_IDs": null, "fields_not_requested": ["builder_meta", "nsites", "elements", "nelements", "composition", "composition_reduced", "chemsys", "symmetry", "property_name", "deprecated", "deprecation_reasons", "last_updated", "origins", "warnings", "task_ids", "uncorrected_energy_per_atom", "equilibrium_reaction_energy_per_atom", "decomposes_to", "xas", "grain_boundaries", "cbm", "vbm", "is_gap_direct", "is_metal", "es_source_calc_id", "bandstructure", "dos", "dos_energy_up", "dos_energy_down", "is_magnetic", "ordering", "total_magnetization_normalized_vol", "total_magnetization_normalized_formula_units", "num_magnetic_sites", "num_unique_magnetic_sites", "types_of_magnetic_species", "bulk_modulus", "shear_modulus", "universal_anisotropy", "homogeneous_poisson", "e_total", "e_ionic", "e_electronic", "n", "e_ij_max", "weighted_surface_energy_EV_PER_ANG2", "weighted_surface_energy", "weighted_work_function", "surface_anisotropy", "shape_factor", "has_reconstructed", "possible_species", "has_props", "theoretical", "database_IDs"]}