{"builder_meta": null, "nsites": null, "elements": null, "nelements": null, "composition": null, "composition_reduced": null, "formula_pretty": "CO2", "formula_anonymous": "AB2", "chemsys": null, "volume": 166.10954146881497, "density": 1.759790398681041, "density_atomic": 13.842461789067913, "symmetry": null, "property_name": null, "material_id": "mp-20066", "deprecated": null, "deprecation_reasons": null, "last_updated": null, "origins": null, "warnings": null, "structure": {"@module": "pymatgen.core.structure", "@class": "Structure", "charge": 0, "lattice": {"matrix": [[5.49707328, -0.0, -0.0], [0.0, 5.49707328, 0.0], [0.0, -0.0, 5.49707328]], "pbc": [true, true, true], "a": 5.49707328, "b": 5.49707328, "c": 5.49707328, "alpha": 90.0, "beta": 90.0, "gamma": 90.0, "volume": 166.10954146881497}, "properties": {}, "sites": [{"species": [{"element": "C", "occu": 1}], "abc": [-0.0, 0.0, 0.0], "properties": {"magmom": -0.0}, "label": "C", "xyz": [0.0, 0.0, 0.0]}, {"species": [{"element": "C", "occu": 1}], "abc": [0.5, 0.0, 0.5], "properties": {"magmom": -0.0}, "label": "C", "xyz": [2.74853664, 0.0, 2.74853664]}, {"species": [{"element": "C", "occu": 1}], "abc": [0.5, 0.5, 0.0], "properties": {"magmom": -0.0}, "label": "C", "xyz": [2.74853664, 2.74853664, 0.0]}, {"species": [{"element": "C", "occu": 1}], "abc": [-0.0, 0.5, 0.5], "properties": {"magmom": -0.0}, "label": "C", "xyz": [0.0, 2.74853664, 2.74853664]}, {"species": [{"element": "O", "occu": 1}], "abc": [0.12253698, 0.12253698, 0.12253698], "properties": {"magmom": 0.0}, "label": "O", "xyz": [0.6735947585698945, 0.6735947585698945, 0.6735947585698945]}, {"species": [{"element": "O", "occu": 1}], "abc": [0.37746302, 0.87746302, 0.62253698], "properties": {"magmom": 0.0}, "label": "O", "xyz": [2.0749418814301057, 4.823478521430106, 3.4221313985698947]}, {"species": [{"element": "O", "occu": 1}], "abc": [0.62253698, 0.37746302, 0.87746302], "properties": {"magmom": 0.0}, "label": "O", "xyz": [3.4221313985698947, 2.0749418814301057, 4.823478521430106]}, {"species": [{"element": "O", "occu": 1}], "abc": [0.87746302, 0.62253698, 0.37746302], "properties": {"magmom": 0.0}, "label": "O", "xyz": [4.823478521430106, 3.4221313985698947, 2.0749418814301057]}, {"species": [{"element": "O", "occu": 1}], "abc": [0.87746302, 0.87746302, 0.87746302], "properties": {"magmom": 0.0}, "label": "O", "xyz": [4.823478521430106, 4.823478521430106, 4.823478521430106]}, {"species": [{"element": "O", "occu": 1}], "abc": [0.62253698, 0.12253698, 0.37746302], "properties": {"magmom": 0.0}, "label": "O", "xyz": [3.4221313985698947, 0.6735947585698945, 2.0749418814301057]}, {"species": [{"element": "O", "occu": 1}], "abc": [0.37746302, 0.62253698, 0.12253698], "properties": {"magmom": 0.0}, "label": "O", "xyz": [2.0749418814301057, 3.4221313985698947, 0.6735947585698945]}, {"species": [{"element": "O", "occu": 1}], "abc": [0.12253698, 0.37746302, 0.62253698], "properties": {"magmom": 0.0}, "label": "O", "xyz": [0.6735947585698945, 2.0749418814301057, 3.4221313985698947]}]}, "task_ids": null, "uncorrected_energy_per_atom": null, "energy_per_atom": -8.144358236666667, "formation_energy_per_atom": -1.769495735833334, "energy_above_hull": 0.0, "is_stable": true, "equilibrium_reaction_energy_per_atom": null, "decomposes_to": null, "xas": null, "grain_boundaries": null, "band_gap": 6.6332, "cbm": null, "vbm": null, "efermi": -4.09997108, "is_gap_direct": null, "is_metal": null, "es_source_calc_id": null, "bandstructure": null, "dos": null, "dos_energy_up": null, "dos_energy_down": null, "is_magnetic": null, "ordering": null, "total_magnetization": 0.0, "total_magnetization_normalized_vol": null, "total_magnetization_normalized_formula_units": null, "num_magnetic_sites": null, "num_unique_magnetic_sites": null, "types_of_magnetic_species": null, "bulk_modulus": null, "shear_modulus": null, "universal_anisotropy": null, "homogeneous_poisson": null, "e_total": null, "e_ionic": null, "e_electronic": null, "n": null, "e_ij_max": null, "weighted_surface_energy_EV_PER_ANG2": null, "weighted_surface_energy": null, "weighted_work_function": null, "surface_anisotropy": null, "shape_factor": null, "has_reconstructed": null, "possible_species": null, "has_props": null, "theoretical": null, "database_IDs": null, "fields_not_requested": ["builder_meta", "nsites", "elements", "nelements", "composition", "composition_reduced", "chemsys", "symmetry", "property_name", "deprecated", "deprecation_reasons", "last_updated", "origins", "warnings", "task_ids", "uncorrected_energy_per_atom", "equilibrium_reaction_energy_per_atom", "decomposes_to", "xas", "grain_boundaries", "cbm", "vbm", "is_gap_direct", "is_metal", "es_source_calc_id", "bandstructure", "dos", "dos_energy_up", "dos_energy_down", "is_magnetic", "ordering", "total_magnetization_normalized_vol", "total_magnetization_normalized_formula_units", "num_magnetic_sites", "num_unique_magnetic_sites", "types_of_magnetic_species", "bulk_modulus", "shear_modulus", "universal_anisotropy", "homogeneous_poisson", "e_total", "e_ionic", "e_electronic", "n", "e_ij_max", "weighted_surface_energy_EV_PER_ANG2", "weighted_surface_energy", "weighted_work_function", "surface_anisotropy", "shape_factor", "has_reconstructed", "possible_species", "has_props", "theoretical", "database_IDs"]}