{"builder_meta": null, "nsites": null, "elements": null, "nelements": null, "composition": null, "composition_reduced": null, "formula_pretty": "Co2B", "formula_anonymous": "AB2", "chemsys": null, "volume": 52.21293365258086, "density": 8.184708965211051, "density_atomic": 8.702155608763476, "symmetry": null, "property_name": null, "material_id": "mp-493", "deprecated": null, "deprecation_reasons": null, "last_updated": null, "origins": null, "warnings": null, "structure": {"@module": "pymatgen.core.structure", "@class": "Structure", "charge": 0, "lattice": {"matrix": [[2.47346, 2.47346, 2.133577], [-2.47346, -2.47346, 2.133577], [2.47346, -2.47346, -2.133577]], "pbc": [true, true, true], "a": 4.097335665786854, "b": 4.097335665786854, "c": 4.097335665786854, "alpha": 105.73285662518225, "beta": 105.73285662518225, "gamma": 117.2384745520667, "volume": 52.21293365258086}, "properties": {}, "sites": [{"species": [{"element": "Co", "occu": 1}], "abc": [0.167968, 0.332032999999999, 0.5], "properties": {"magmom": 1.04}, "label": "Co", "xyz": [0.8309217851000025, -1.6425382148999979, 2.1335769979646813e-06]}, {"species": [{"element": "Co", "occu": 1}], "abc": [0.832032, 0.667967, 0.5], "properties": {"magmom": 1.04}, "label": "Co", "xyz": [1.6425382149, -0.8309217851000001, 2.133574866423]}, {"species": [{"element": "Co", "occu": 1}], "abc": [0.667968, 0.167968, 0.835936], "properties": {"magmom": 1.044}, "label": "Co", "xyz": [3.3043842585600003, -0.8309242585600001, -2.220446049250313e-16]}, {"species": [{"element": "Co", "occu": 1}], "abc": [0.332032, 0.832032, 0.164064], "properties": {"magmom": 1.044}, "label": "Co", "xyz": [-0.8309242585599999, -1.64253574144, 2.133577]}, {"species": [{"element": "B", "occu": 1}], "abc": [0.75, 0.75, 0.0], "properties": {"magmom": -0.049}, "label": "B", "xyz": [0.0, 0.0, 3.2003654999999998]}, {"species": [{"element": "B", "occu": 1}], "abc": [0.25, 0.25, 0.0], "properties": {"magmom": -0.049}, "label": "B", "xyz": [0.0, 0.0, 1.0667885]}]}, "task_ids": null, "uncorrected_energy_per_atom": null, "energy_per_atom": -11.4462699325, "formation_energy_per_atom": -0.174664446666665, "energy_above_hull": 0.023685056666666003, "is_stable": false, "equilibrium_reaction_energy_per_atom": null, "decomposes_to": null, "xas": null, "grain_boundaries": null, "band_gap": 0.0, "cbm": null, "vbm": null, "efermi": 6.8287012, "is_gap_direct": null, "is_metal": null, "es_source_calc_id": null, "bandstructure": null, "dos": null, "dos_energy_up": null, "dos_energy_down": null, "is_magnetic": null, "ordering": null, "total_magnetization": 4.0339395, "total_magnetization_normalized_vol": null, "total_magnetization_normalized_formula_units": null, "num_magnetic_sites": null, "num_unique_magnetic_sites": null, "types_of_magnetic_species": null, "bulk_modulus": null, "shear_modulus": null, "universal_anisotropy": null, "homogeneous_poisson": null, "e_total": null, "e_ionic": null, "e_electronic": null, "n": null, "e_ij_max": null, "weighted_surface_energy_EV_PER_ANG2": null, "weighted_surface_energy": null, "weighted_work_function": null, "surface_anisotropy": null, "shape_factor": null, "has_reconstructed": null, "possible_species": null, "has_props": null, "theoretical": null, "database_IDs": null, "fields_not_requested": ["builder_meta", "nsites", "elements", "nelements", "composition", "composition_reduced", "chemsys", "symmetry", "property_name", "deprecated", "deprecation_reasons", "last_updated", "origins", "warnings", "task_ids", "uncorrected_energy_per_atom", "equilibrium_reaction_energy_per_atom", "decomposes_to", "xas", "grain_boundaries", "cbm", "vbm", "is_gap_direct", "is_metal", "es_source_calc_id", "bandstructure", "dos", "dos_energy_up", "dos_energy_down", "is_magnetic", "ordering", "total_magnetization_normalized_vol", "total_magnetization_normalized_formula_units", "num_magnetic_sites", "num_unique_magnetic_sites", "types_of_magnetic_species", "bulk_modulus", "shear_modulus", "universal_anisotropy", "homogeneous_poisson", "e_total", "e_ionic", "e_electronic", "n", "e_ij_max", "weighted_surface_energy_EV_PER_ANG2", "weighted_surface_energy", "weighted_work_function", "surface_anisotropy", "shape_factor", "has_reconstructed", "possible_species", "has_props", "theoretical", "database_IDs"]}