{
  "builder_meta": null,
  "nsites": null,
  "elements": null,
  "nelements": null,
  "composition": null,
  "composition_reduced": null,
  "formula_pretty": "Co2Ge",
  "formula_anonymous": "AB2",
  "chemsys": null,
  "volume": 136.009828183683,
  "density": 9.30354246473159,
  "density_atomic": 11.33415234864025,
  "symmetry": null,
  "property_name": null,
  "material_id": "mp-1102616",
  "deprecated": null,
  "deprecation_reasons": null,
  "last_updated": null,
  "origins": null,
  "warnings": null,
  "structure": {
    "@module": "pymatgen.core.structure",
    "@class": "Structure",
    "charge": 0.0,
    "lattice": {
      "matrix": [
        [-0.0, -3.816331, 0.0],
        [-4.98848386, 0.0, 0.0],
        [0.0, 0.0, -7.14423424]
      ],
      "pbc": [true, true, true],
      "a": 3.816331,
      "b": 4.98848386,
      "c": 7.14423424,
      "alpha": 90.0,
      "beta": 90.0,
      "gamma": 90.0,
      "volume": 136.009828183683
    },
    "properties": {},
    "sites": [
      {
        "species": [{ "element": "Co", "occu": 1 }],
        "abc": [0.75, 0.17424203, 0.56249512],
        "properties": { "magmom": 0.659 },
        "label": "Co",
        "xyz": [-0.8692035543886357, -2.86224825, -4.018596896136909]
      },
      {
        "species": [{ "element": "Co", "occu": 1 }],
        "abc": [0.75, 0.67424203, 0.93750488],
        "properties": { "magmom": 0.659 },
        "label": "Co",
        "xyz": [-3.363445484388636, -2.86224825, -6.697754463863092]
      },
      {
        "species": [{ "element": "Co", "occu": 1 }],
        "abc": [0.25, 0.8257579700000001, 0.43750488],
        "properties": { "magmom": 0.659 },
        "label": "Co",
        "xyz": [-4.1192803056113645, -0.95408275, -3.125637343863091]
      },
      {
        "species": [{ "element": "Co", "occu": 1 }],
        "abc": [0.25, 0.32575797, 0.06249512],
        "properties": { "magmom": 0.659 },
        "label": "Co",
        "xyz": [-1.6250383756113642, -0.95408275, -0.4464797761369088]
      },
      {
        "species": [{ "element": "Co", "occu": 1 }],
        "abc": [0.75, 0.53753099, 0.27643912],
        "properties": { "magmom": 1.172 },
        "label": "Co",
        "xyz": [-2.6814646678648213, -2.86224825, -1.9749458263794688]
      },
      {
        "species": [{ "element": "Co", "occu": 1 }],
        "abc": [0.75, 0.03753099, 0.22356088000000002],
        "properties": { "magmom": 1.172 },
        "label": "Co",
        "xyz": [-0.18722273786482138, -2.86224825, -1.5971712936205313]
      },
      {
        "species": [{ "element": "Co", "occu": 1 }],
        "abc": [0.25, 0.46246901, 0.72356088],
        "properties": { "magmom": 1.172 },
        "label": "Co",
        "xyz": [-2.3070191921351784, -0.95408275, -5.1692884136205315]
      },
      {
        "species": [{ "element": "Co", "occu": 1 }],
        "abc": [0.25, 0.9624690100000001, 0.77643912],
        "properties": { "magmom": 1.172 },
        "label": "Co",
        "xyz": [-4.801261122135179, -0.95408275, -5.547062946379469]
      },
      {
        "species": [{ "element": "Ge", "occu": 1 }],
        "abc": [0.75, 0.20365207, 0.89495446],
        "properties": { "magmom": -0.075 },
        "label": "Ge",
        "xyz": [-1.01591506425059, -2.86224825, -6.39376429637271]
      },
      {
        "species": [{ "element": "Ge", "occu": 1 }],
        "abc": [0.75, 0.70365207, 0.60504554],
        "properties": { "magmom": -0.075 },
        "label": "Ge",
        "xyz": [-3.5101569942505897, -2.86224825, -4.32258706362729]
      },
      {
        "species": [{ "element": "Ge", "occu": 1 }],
        "abc": [0.25, 0.79634793, 0.10504554],
        "properties": { "magmom": -0.075 },
        "label": "Ge",
        "xyz": [-3.97256879574941, -0.95408275, -0.7504699436272897]
      },
      {
        "species": [{ "element": "Ge", "occu": 1 }],
        "abc": [0.25, 0.29634793, 0.39495446],
        "properties": { "magmom": -0.075 },
        "label": "Ge",
        "xyz": [-1.4783268657494095, -0.95408275, -2.8216471763727107]
      }
    ]
  },
  "task_ids": null,
  "uncorrected_energy_per_atom": null,
  "energy_per_atom": -13.464232539166666,
  "formation_energy_per_atom": -0.017419259166665,
  "energy_above_hull": 0.030897123333332003,
  "is_stable": false,
  "equilibrium_reaction_energy_per_atom": null,
  "decomposes_to": null,
  "xas": null,
  "grain_boundaries": null,
  "band_gap": 0.0,
  "cbm": null,
  "vbm": null,
  "efermi": 5.98095688,
  "is_gap_direct": null,
  "is_metal": null,
  "es_source_calc_id": null,
  "bandstructure": null,
  "dos": null,
  "dos_energy_up": null,
  "dos_energy_down": null,
  "is_magnetic": null,
  "ordering": null,
  "total_magnetization": 6.6205707,
  "total_magnetization_normalized_vol": null,
  "total_magnetization_normalized_formula_units": null,
  "num_magnetic_sites": null,
  "num_unique_magnetic_sites": null,
  "types_of_magnetic_species": null,
  "bulk_modulus": null,
  "shear_modulus": null,
  "universal_anisotropy": null,
  "homogeneous_poisson": null,
  "e_total": null,
  "e_ionic": null,
  "e_electronic": null,
  "n": null,
  "e_ij_max": null,
  "weighted_surface_energy_EV_PER_ANG2": null,
  "weighted_surface_energy": null,
  "weighted_work_function": null,
  "surface_anisotropy": null,
  "shape_factor": null,
  "has_reconstructed": null,
  "possible_species": null,
  "has_props": null,
  "theoretical": null,
  "database_IDs": null,
  "fields_not_requested": [
    "builder_meta",
    "nsites",
    "elements",
    "nelements",
    "composition",
    "composition_reduced",
    "chemsys",
    "symmetry",
    "property_name",
    "deprecated",
    "deprecation_reasons",
    "last_updated",
    "origins",
    "warnings",
    "task_ids",
    "uncorrected_energy_per_atom",
    "equilibrium_reaction_energy_per_atom",
    "decomposes_to",
    "xas",
    "grain_boundaries",
    "cbm",
    "vbm",
    "is_gap_direct",
    "is_metal",
    "es_source_calc_id",
    "bandstructure",
    "dos",
    "dos_energy_up",
    "dos_energy_down",
    "is_magnetic",
    "ordering",
    "total_magnetization_normalized_vol",
    "total_magnetization_normalized_formula_units",
    "num_magnetic_sites",
    "num_unique_magnetic_sites",
    "types_of_magnetic_species",
    "bulk_modulus",
    "shear_modulus",
    "universal_anisotropy",
    "homogeneous_poisson",
    "e_total",
    "e_ionic",
    "e_electronic",
    "n",
    "e_ij_max",
    "weighted_surface_energy_EV_PER_ANG2",
    "weighted_surface_energy",
    "weighted_work_function",
    "surface_anisotropy",
    "shape_factor",
    "has_reconstructed",
    "possible_species",
    "has_props",
    "theoretical",
    "database_IDs"
  ]
}
