{"builder_meta": null, "nsites": null, "elements": null, "nelements": null, "composition": null, "composition_reduced": null, "formula_pretty": "Co2Mo3", "formula_anonymous": "A2B3", "chemsys": null, "volume": 138.97269361714444, "density": 9.694826830352481, "density_atomic": 13.897269361714445, "symmetry": null, "property_name": null, "material_id": "mp-1182516", "deprecated": null, "deprecation_reasons": null, "last_updated": null, "origins": null, "warnings": null, "structure": {"@module": "pymatgen.core.structure", "@class": "Structure", "charge": 0, "lattice": {"matrix": [[4.298489, 0.0, 0.0], [0.0, 4.831381, 0.0], [0.0, 2.113821, 6.691791]], "pbc": [true, true, true], "a": 4.298489, "b": 4.831381, "c": 7.017713730818748, "alpha": 72.46957471672818, "beta": 90.0, "gamma": 90.0, "volume": 138.97269361714444}, "properties": {}, "sites": [{"species": [{"element": "Co", "occu": 1}], "abc": [0.75, 0.123950999999999, 0.908893], "properties": {"magmom": -0.0}, "label": "Co", "xyz": [3.22386675, 2.5200916164839953, 6.082121997363]}, {"species": [{"element": "Co", "occu": 1}], "abc": [0.25, 0.876049, 0.091107], "properties": {"magmom": -0.0}, "label": "Co", "xyz": [1.07462225, 4.4251103835159995, 0.609669002637]}, {"species": [{"element": "Co", "occu": 1}], "abc": [0.25, 0.671562, 0.481909], "properties": {"magmom": 0.004}, "label": "Co", "xyz": [1.07462225, 4.263241251411, 3.224834309019]}, {"species": [{"element": "Co", "occu": 1}], "abc": [0.75, 0.328438, 0.518091], "properties": {"magmom": 0.004}, "label": "Co", "xyz": [3.22386675, 2.6819607485890002, 3.466956690981]}, {"species": [{"element": "Mo", "occu": 1}], "abc": [0.75, 0.724302, 0.721445], "properties": {"magmom": -0.0}, "label": "Mo", "xyz": [3.22386675, 5.024384512407, 4.8277591579950005]}, {"species": [{"element": "Mo", "occu": 1}], "abc": [0.25, 0.275698, 0.278555], "properties": {"magmom": -0.0}, "label": "Mo", "xyz": [1.07462225, 1.9208174875930002, 1.8640318420050002]}, {"species": [{"element": "Mo", "occu": 1}], "abc": [0.25, 0.065778, 0.672298], "properties": {"magmom": -0.0}, "label": "Mo", "xyz": [1.07462225, 1.738916210076, 4.498877705718]}, {"species": [{"element": "Mo", "occu": 1}], "abc": [0.75, 0.934222, 0.327702], "properties": {"magmom": -0.0}, "label": "Mo", "xyz": [3.22386675, 5.206285789924001, 2.192913294282]}, {"species": [{"element": "Mo", "occu": 1}], "abc": [0.75, 0.57659, 0.11196], "properties": {"magmom": -0.0}, "label": "Mo", "xyz": [3.22386675, 3.022389369950001, 0.7492129203600001]}, {"species": [{"element": "Mo", "occu": 1}], "abc": [0.25, 0.42341, 0.88804], "properties": {"magmom": -0.0}, "label": "Mo", "xyz": [1.07462225, 3.92281263005, 5.9425780796400005]}]}, "task_ids": null, "uncorrected_energy_per_atom": null, "energy_per_atom": -20.709007808333332, "formation_energy_per_atom": 0.22787230766666602, "energy_above_hull": 0.22787230766666502, "is_stable": false, "equilibrium_reaction_energy_per_atom": null, "decomposes_to": null, "xas": null, "grain_boundaries": null, "band_gap": 0.0, "cbm": null, "vbm": null, "efermi": 7.1787749, "is_gap_direct": null, "is_metal": null, "es_source_calc_id": null, "bandstructure": null, "dos": null, "dos_energy_up": null, "dos_energy_down": null, "is_magnetic": null, "ordering": null, "total_magnetization": 0.0076108, "total_magnetization_normalized_vol": null, "total_magnetization_normalized_formula_units": null, "num_magnetic_sites": null, "num_unique_magnetic_sites": null, "types_of_magnetic_species": null, "bulk_modulus": null, "shear_modulus": null, "universal_anisotropy": null, "homogeneous_poisson": null, "e_total": null, "e_ionic": null, "e_electronic": null, "n": null, "e_ij_max": null, "weighted_surface_energy_EV_PER_ANG2": null, "weighted_surface_energy": null, "weighted_work_function": null, "surface_anisotropy": null, "shape_factor": null, "has_reconstructed": null, "possible_species": null, "has_props": null, "theoretical": null, "database_IDs": null, "fields_not_requested": ["builder_meta", "nsites", "elements", "nelements", "composition", "composition_reduced", "chemsys", "symmetry", "property_name", "deprecated", "deprecation_reasons", "last_updated", "origins", "warnings", "task_ids", "uncorrected_energy_per_atom", "equilibrium_reaction_energy_per_atom", "decomposes_to", "xas", "grain_boundaries", "cbm", "vbm", "is_gap_direct", "is_metal", "es_source_calc_id", "bandstructure", "dos", "dos_energy_up", "dos_energy_down", "is_magnetic", "ordering", "total_magnetization_normalized_vol", "total_magnetization_normalized_formula_units", "num_magnetic_sites", "num_unique_magnetic_sites", "types_of_magnetic_species", "bulk_modulus", "shear_modulus", "universal_anisotropy", "homogeneous_poisson", "e_total", "e_ionic", "e_electronic", "n", "e_ij_max", "weighted_surface_energy_EV_PER_ANG2", "weighted_surface_energy", "weighted_work_function", "surface_anisotropy", "shape_factor", "has_reconstructed", "possible_species", "has_props", "theoretical", "database_IDs"]}