{
  "builder_meta": null,
  "nsites": null,
  "elements": null,
  "nelements": null,
  "composition": null,
  "composition_reduced": null,
  "formula_pretty": "Co2N",
  "formula_anonymous": "AB2",
  "chemsys": null,
  "volume": 53.65453019820948,
  "density": 8.16260684677714,
  "density_atomic": 8.94242169970158,
  "symmetry": null,
  "property_name": null,
  "material_id": "mp-22631",
  "deprecated": null,
  "deprecation_reasons": null,
  "last_updated": null,
  "origins": null,
  "warnings": null,
  "structure": {
    "@module": "pymatgen.core.structure",
    "@class": "Structure",
    "charge": 0,
    "lattice": {
      "matrix": [
        [2.7980876500000003, 0.0, 0.0],
        [0.0, 4.20256858, -0.00027986],
        [0.0, -0.00029494, 4.562787829999999]
      ],
      "pbc": [true, true, true],
      "a": 2.7980876500000003,
      "b": 4.202568589318304,
      "c": 4.562787839532505,
      "alpha": 90.0075190920474,
      "beta": 90.0,
      "gamma": 90.0,
      "volume": 53.654530198209464
    },
    "properties": {},
    "sites": [
      {
        "species": [{ "element": "Co", "occu": 1 }],
        "abc": [0.5, 0.23557021, 0.828298],
        "properties": { "magmom": 0.007 },
        "label": "Co",
        "xyz": [1.3990438250000001, 0.9897556647178819, 3.7792821073343683]
      },
      {
        "species": [{ "element": "Co", "occu": 1 }],
        "abc": [0.5, 0.76443872, 0.17168806],
        "properties": { "magmom": 0.007 },
        "label": "Co",
        "xyz": [1.3990438250000001, 3.2125555083310013, 0.7831622549041305]
      },
      {
        "species": [{ "element": "Co", "occu": 1 }],
        "abc": [0.0, 0.264404, 0.32821224],
        "properties": { "magmom": 0.007 },
        "label": "Co",
        "xyz": [0.0, 1.1110791399082542, 1.4974888182255988]
      },
      {
        "species": [{ "element": "Co", "occu": 1 }],
        "abc": [0.0, 0.73558573, 0.67179818],
        "properties": { "magmom": 0.007 },
        "label": "Co",
        "xyz": [0.0, 3.0911513366391543, 3.065066698897751]
      },
      {
        "species": [{ "element": "N", "occu": 1 }],
        "abc": [0.5, 0.49996529, 0.50002242],
        "properties": { "magmom": -0.0 },
        "label": "N",
        "xyz": [1.3990438250000001, 2.1009909422320336, 2.2813562924170885]
      },
      {
        "species": [{ "element": "N", "occu": 1 }],
        "abc": [0.0, 3.805e-5, -2.089e-5],
        "properties": { "magmom": -0.0 },
        "label": "N",
        "xyz": [0.0, 0.00015991389576560004, -9.532728644169997e-5]
      }
    ]
  },
  "task_ids": null,
  "uncorrected_energy_per_atom": null,
  "energy_per_atom": -11.687872361666665,
  "formation_energy_per_atom": 0.17786528208333302,
  "energy_above_hull": 0.17786528208333502,
  "is_stable": false,
  "equilibrium_reaction_energy_per_atom": null,
  "decomposes_to": null,
  "xas": null,
  "grain_boundaries": null,
  "band_gap": 0.0,
  "cbm": null,
  "vbm": null,
  "efermi": 6.52199746,
  "is_gap_direct": null,
  "is_metal": null,
  "es_source_calc_id": null,
  "bandstructure": null,
  "dos": null,
  "dos_energy_up": null,
  "dos_energy_down": null,
  "is_magnetic": null,
  "ordering": null,
  "total_magnetization": 0.0278467,
  "total_magnetization_normalized_vol": null,
  "total_magnetization_normalized_formula_units": null,
  "num_magnetic_sites": null,
  "num_unique_magnetic_sites": null,
  "types_of_magnetic_species": null,
  "bulk_modulus": null,
  "shear_modulus": null,
  "universal_anisotropy": null,
  "homogeneous_poisson": null,
  "e_total": null,
  "e_ionic": null,
  "e_electronic": null,
  "n": null,
  "e_ij_max": null,
  "weighted_surface_energy_EV_PER_ANG2": null,
  "weighted_surface_energy": null,
  "weighted_work_function": null,
  "surface_anisotropy": null,
  "shape_factor": null,
  "has_reconstructed": null,
  "possible_species": null,
  "has_props": null,
  "theoretical": null,
  "database_IDs": null,
  "fields_not_requested": [
    "builder_meta",
    "nsites",
    "elements",
    "nelements",
    "composition",
    "composition_reduced",
    "chemsys",
    "symmetry",
    "property_name",
    "deprecated",
    "deprecation_reasons",
    "last_updated",
    "origins",
    "warnings",
    "task_ids",
    "uncorrected_energy_per_atom",
    "equilibrium_reaction_energy_per_atom",
    "decomposes_to",
    "xas",
    "grain_boundaries",
    "cbm",
    "vbm",
    "is_gap_direct",
    "is_metal",
    "es_source_calc_id",
    "bandstructure",
    "dos",
    "dos_energy_up",
    "dos_energy_down",
    "is_magnetic",
    "ordering",
    "total_magnetization_normalized_vol",
    "total_magnetization_normalized_formula_units",
    "num_magnetic_sites",
    "num_unique_magnetic_sites",
    "types_of_magnetic_species",
    "bulk_modulus",
    "shear_modulus",
    "universal_anisotropy",
    "homogeneous_poisson",
    "e_total",
    "e_ionic",
    "e_electronic",
    "n",
    "e_ij_max",
    "weighted_surface_energy_EV_PER_ANG2",
    "weighted_surface_energy",
    "weighted_work_function",
    "surface_anisotropy",
    "shape_factor",
    "has_reconstructed",
    "possible_species",
    "has_props",
    "theoretical",
    "database_IDs"
  ]
}
