{
  "builder_meta": null,
  "nsites": null,
  "elements": null,
  "nelements": null,
  "composition": null,
  "composition_reduced": null,
  "formula_pretty": "Co2O3",
  "formula_anonymous": "A2B3",
  "chemsys": null,
  "volume": 226.18613795884957,
  "density": 4.870760585879938,
  "density_atomic": 11.309306897942479,
  "symmetry": null,
  "property_name": null,
  "material_id": "mp-1043418",
  "deprecated": null,
  "deprecation_reasons": null,
  "last_updated": null,
  "origins": null,
  "warnings": null,
  "structure": {
    "@module": "pymatgen.core.structure",
    "@class": "Structure",
    "charge": 0,
    "lattice": {
      "matrix": [
        [1.509248, -4.924526, 0.0],
        [1.509248, 4.924526, 0.0],
        [0.0, 0.0, 15.216366]
      ],
      "pbc": [true, true, true],
      "a": 5.150610240561792,
      "b": 5.150610240561792,
      "c": 15.216366,
      "alpha": 90.0,
      "beta": 90.0,
      "gamma": 145.92193170156662,
      "volume": 226.18613795884957
    },
    "properties": {},
    "sites": [
      {
        "species": [{ "element": "Co", "occu": 1 }],
        "abc": [0.638035999999999, 0.361964, 0.047559],
        "properties": { "magmom": 2.278 },
        "label": "Co",
        "xyz": [1.5092479999999986, -1.3595237418719954, 0.723675150594]
      },
      {
        "species": [{ "element": "Co", "occu": 1 }],
        "abc": [0.361964, 0.638035999999999, 0.952441],
        "properties": { "magmom": 2.278 },
        "label": "Co",
        "xyz": [1.5092479999999986, 1.3595237418719954, 14.492690849406001]
      },
      {
        "species": [{ "element": "Co", "occu": 1 }],
        "abc": [0.638035999999999, 0.361964, 0.452441],
        "properties": { "magmom": 2.278 },
        "label": "Co",
        "xyz": [1.5092479999999986, -1.3595237418719954, 6.884507849406]
      },
      {
        "species": [{ "element": "Co", "occu": 1 }],
        "abc": [0.361964, 0.638035999999999, 0.547559],
        "properties": { "magmom": 2.278 },
        "label": "Co",
        "xyz": [1.5092479999999986, 1.3595237418719954, 8.331858150594]
      },
      {
        "species": [{ "element": "Co", "occu": 1 }],
        "abc": [0.091715999999999, 0.908284, 0.640046],
        "properties": { "magmom": 1.007 },
        "label": "Co",
        "xyz": [1.5092479999999984, 4.0212103467680045, 9.739174192836]
      },
      {
        "species": [{ "element": "Co", "occu": 1 }],
        "abc": [0.908284, 0.091715999999999, 0.359954],
        "properties": { "magmom": 1.007 },
        "label": "Co",
        "xyz": [1.5092479999999984, -4.0212103467680045, 5.477191807164]
      },
      {
        "species": [{ "element": "Co", "occu": 1 }],
        "abc": [0.908284, 0.091715999999999, 0.140046],
        "properties": { "magmom": 1.007 },
        "label": "Co",
        "xyz": [1.5092479999999984, -4.0212103467680045, 2.1309911928360004]
      },
      {
        "species": [{ "element": "Co", "occu": 1 }],
        "abc": [0.091715999999999, 0.908284, 0.859954],
        "properties": { "magmom": 1.007 },
        "label": "Co",
        "xyz": [1.5092479999999984, 4.0212103467680045, 13.085374807164001]
      },
      {
        "species": [{ "element": "O", "occu": 1 }],
        "abc": [0.0, 0.0, 0.5],
        "properties": { "magmom": -0.069 },
        "label": "O",
        "xyz": [0.0, 0.0, 7.608183]
      },
      {
        "species": [{ "element": "O", "occu": 1 }],
        "abc": [0.0, 0.0, 0.0],
        "properties": { "magmom": -0.069 },
        "label": "O",
        "xyz": [0.0, 0.0, 0.0]
      },
      {
        "species": [{ "element": "O", "occu": 1 }],
        "abc": [0.464433, 0.535567, 0.852819],
        "properties": { "magmom": -0.221 },
        "label": "O",
        "xyz": [1.509248, 0.350301232484, 12.976806035754]
      },
      {
        "species": [{ "element": "O", "occu": 1 }],
        "abc": [0.535567, 0.464433, 0.147181],
        "properties": { "magmom": -0.221 },
        "label": "O",
        "xyz": [1.509248, -0.350301232484, 2.2395599642460002]
      },
      {
        "species": [{ "element": "O", "occu": 1 }],
        "abc": [0.535567, 0.464433, 0.352819],
        "properties": { "magmom": -0.221 },
        "label": "O",
        "xyz": [1.509248, -0.350301232484, 5.368623035754]
      },
      {
        "species": [{ "element": "O", "occu": 1 }],
        "abc": [0.464433, 0.535567, 0.647181],
        "properties": { "magmom": -0.221 },
        "label": "O",
        "xyz": [1.509248, 0.350301232484, 9.847742964246]
      },
      {
        "species": [{ "element": "O", "occu": 1 }],
        "abc": [0.719542999999999, 0.280457, 0.9267749999999991],
        "properties": { "magmom": -0.048 },
        "label": "O",
        "xyz": [1.5092479999999986, -2.162290423235995, 14.102147599649987]
      },
      {
        "species": [{ "element": "O", "occu": 1 }],
        "abc": [0.280457, 0.719542999999999, 0.073225],
        "properties": { "magmom": -0.048 },
        "label": "O",
        "xyz": [1.5092479999999986, 2.162290423235995, 1.11421840035]
      },
      {
        "species": [{ "element": "O", "occu": 1 }],
        "abc": [0.280457, 0.719542999999999, 0.426774999999999],
        "properties": { "magmom": -0.048 },
        "label": "O",
        "xyz": [1.5092479999999986, 2.162290423235995, 6.493964599649986]
      },
      {
        "species": [{ "element": "O", "occu": 1 }],
        "abc": [0.719542999999999, 0.280457, 0.573225],
        "properties": { "magmom": -0.048 },
        "label": "O",
        "xyz": [1.5092479999999986, -2.162290423235995, 8.72240140035]
      },
      {
        "species": [{ "element": "O", "occu": 1 }],
        "abc": [0.160003, 0.839997, 0.75],
        "properties": { "magmom": 0.031 },
        "label": "O",
        "xyz": [1.509248, 3.3486481328439996, 11.4122745]
      },
      {
        "species": [{ "element": "O", "occu": 1 }],
        "abc": [0.839997, 0.160003, 0.25],
        "properties": { "magmom": 0.031 },
        "label": "O",
        "xyz": [1.509248, -3.3486481328439996, 3.8040915]
      }
    ]
  },
  "task_ids": null,
  "uncorrected_energy_per_atom": null,
  "energy_per_atom": -6.751493540999999,
  "formation_energy_per_atom": -0.929350249999999,
  "energy_above_hull": 0.300602043428572,
  "is_stable": false,
  "equilibrium_reaction_energy_per_atom": null,
  "decomposes_to": null,
  "xas": null,
  "grain_boundaries": null,
  "band_gap": 0.151899999999999,
  "cbm": null,
  "vbm": null,
  "efermi": 1.9564085100000002,
  "is_gap_direct": null,
  "is_metal": null,
  "es_source_calc_id": null,
  "bandstructure": null,
  "dos": null,
  "dos_energy_up": null,
  "dos_energy_down": null,
  "is_magnetic": null,
  "ordering": null,
  "total_magnetization": 12.0009821,
  "total_magnetization_normalized_vol": null,
  "total_magnetization_normalized_formula_units": null,
  "num_magnetic_sites": null,
  "num_unique_magnetic_sites": null,
  "types_of_magnetic_species": null,
  "bulk_modulus": null,
  "shear_modulus": null,
  "universal_anisotropy": null,
  "homogeneous_poisson": null,
  "e_total": null,
  "e_ionic": null,
  "e_electronic": null,
  "n": null,
  "e_ij_max": null,
  "weighted_surface_energy_EV_PER_ANG2": null,
  "weighted_surface_energy": null,
  "weighted_work_function": null,
  "surface_anisotropy": null,
  "shape_factor": null,
  "has_reconstructed": null,
  "possible_species": null,
  "has_props": null,
  "theoretical": null,
  "database_IDs": null,
  "fields_not_requested": [
    "builder_meta",
    "nsites",
    "elements",
    "nelements",
    "composition",
    "composition_reduced",
    "chemsys",
    "symmetry",
    "property_name",
    "deprecated",
    "deprecation_reasons",
    "last_updated",
    "origins",
    "warnings",
    "task_ids",
    "uncorrected_energy_per_atom",
    "equilibrium_reaction_energy_per_atom",
    "decomposes_to",
    "xas",
    "grain_boundaries",
    "cbm",
    "vbm",
    "is_gap_direct",
    "is_metal",
    "es_source_calc_id",
    "bandstructure",
    "dos",
    "dos_energy_up",
    "dos_energy_down",
    "is_magnetic",
    "ordering",
    "total_magnetization_normalized_vol",
    "total_magnetization_normalized_formula_units",
    "num_magnetic_sites",
    "num_unique_magnetic_sites",
    "types_of_magnetic_species",
    "bulk_modulus",
    "shear_modulus",
    "universal_anisotropy",
    "homogeneous_poisson",
    "e_total",
    "e_ionic",
    "e_electronic",
    "n",
    "e_ij_max",
    "weighted_surface_energy_EV_PER_ANG2",
    "weighted_surface_energy",
    "weighted_work_function",
    "surface_anisotropy",
    "shape_factor",
    "has_reconstructed",
    "possible_species",
    "has_props",
    "theoretical",
    "database_IDs"
  ]
}
