{"builder_meta": null, "nsites": null, "elements": null, "nelements": null, "composition": null, "composition_reduced": null, "formula_pretty": "Co2S3", "formula_anonymous": "A2B3", "chemsys": null, "volume": 139.3154050785157, "density": 5.102914506050053, "density_atomic": 13.93154050785157, "symmetry": null, "property_name": null, "material_id": "mp-1183728", "deprecated": null, "deprecation_reasons": null, "last_updated": null, "origins": null, "warnings": null, "structure": {"@module": "pymatgen.core.structure", "@class": "Structure", "charge": 0, "lattice": {"matrix": [[5.2699671200000004, -2.83335181, 0.00344948], [5.2699671200000004, 2.83335181, 0.00344948], [3.74358875, -0.0, 4.66754802]], "pbc": [true, true, true], "a": 5.98334754330915, "b": 5.98334754330915, "c": 5.983348665098205, "alpha": 56.5286008793877, "beta": 56.5286008793877, "gamma": 56.52860791958314, "volume": 139.31540507851574}, "properties": {}, "sites": [{"species": [{"element": "Co", "occu": 1}], "abc": [0.8493917400000001, 0.8493917400000001, 0.8493917400000001], "properties": {"magmom": 0.0}, "label": "Co", "xyz": [12.132306445806105, 0.0, 3.970436653879945]}, {"species": [{"element": "Co", "occu": 1}], "abc": [0.65060826, 0.65060826, 0.65060826], "properties": {"magmom": 0.0}, "label": "Co", "xyz": [9.292978039193898, 0.0, 3.041233816120055]}, {"species": [{"element": "Co", "occu": 1}], "abc": [0.34939174, 0.34939174, 0.34939174], "properties": {"magmom": 0.0}, "label": "Co", "xyz": [4.990544950806103, 0.0, 1.6332131638799452]}, {"species": [{"element": "Co", "occu": 1}], "abc": [0.15060826, 0.15060826, 0.15060826], "properties": {"magmom": 0.0}, "label": "Co", "xyz": [2.1512165441938977, 0.0, 0.7040103261200548]}, {"species": [{"element": "S", "occu": 1}], "abc": [0.55288166, 0.9471183400000001, 0.25], "properties": {"magmom": -0.0}, "label": "S", "xyz": [8.8408478675, 1.1170112108463905, 1.172061225]}, {"species": [{"element": "S", "occu": 1}], "abc": [0.9471183400000001, 0.25, 0.55288166], "properties": {"magmom": -0.0}, "label": "S", "xyz": [8.378535853006307, -1.9751815104231953, 2.5847311331987766]}, {"species": [{"element": "S", "occu": 1}], "abc": [0.25, 0.55288166, 0.9471183400000001], "properties": {"magmom": -0.0}, "label": "S", "xyz": [7.776781511993695, 0.8581702995768048, 4.423489856801224]}, {"species": [{"element": "S", "occu": 1}], "abc": [0.75, 0.44711834, 0.052881660000000004], "properties": {"magmom": -0.0}, "label": "S", "xyz": [6.506741478006306, -0.8581702995768046, 0.2509571231987764]}, {"species": [{"element": "S", "occu": 1}], "abc": [0.052881660000000004, 0.75, 0.44711834], "properties": {"magmom": -0.0}, "label": "S", "xyz": [5.904987136993695, 1.9751815104231953, 2.089715846801224]}, {"species": [{"element": "S", "occu": 1}], "abc": [0.44711834, 0.052881660000000004, 0.75], "properties": {"magmom": -0.0}, "label": "S", "xyz": [5.4426751225, -1.1170112108463908, 3.5023857549999997]}]}, "task_ids": null, "uncorrected_energy_per_atom": null, "energy_per_atom": -10.59415774, "formation_energy_per_atom": -0.47946583868750003, "energy_above_hull": 0.014933415000001001, "is_stable": false, "equilibrium_reaction_energy_per_atom": null, "decomposes_to": null, "xas": null, "grain_boundaries": null, "band_gap": 0.0, "cbm": null, "vbm": null, "efermi": 6.67736389, "is_gap_direct": null, "is_metal": null, "es_source_calc_id": null, "bandstructure": null, "dos": null, "dos_energy_up": null, "dos_energy_down": null, "is_magnetic": null, "ordering": null, "total_magnetization": 9.83e-05, "total_magnetization_normalized_vol": null, "total_magnetization_normalized_formula_units": null, "num_magnetic_sites": null, "num_unique_magnetic_sites": null, "types_of_magnetic_species": null, "bulk_modulus": null, "shear_modulus": null, "universal_anisotropy": null, "homogeneous_poisson": null, "e_total": null, "e_ionic": null, "e_electronic": null, "n": null, "e_ij_max": null, "weighted_surface_energy_EV_PER_ANG2": null, "weighted_surface_energy": null, "weighted_work_function": null, "surface_anisotropy": null, "shape_factor": null, "has_reconstructed": null, "possible_species": null, "has_props": null, "theoretical": null, "database_IDs": null, "fields_not_requested": ["builder_meta", "nsites", "elements", "nelements", "composition", "composition_reduced", "chemsys", "symmetry", "property_name", "deprecated", "deprecation_reasons", "last_updated", "origins", "warnings", "task_ids", "uncorrected_energy_per_atom", "equilibrium_reaction_energy_per_atom", "decomposes_to", "xas", "grain_boundaries", "cbm", "vbm", "is_gap_direct", "is_metal", "es_source_calc_id", "bandstructure", "dos", "dos_energy_up", "dos_energy_down", "is_magnetic", "ordering", "total_magnetization_normalized_vol", "total_magnetization_normalized_formula_units", "num_magnetic_sites", "num_unique_magnetic_sites", "types_of_magnetic_species", "bulk_modulus", "shear_modulus", "universal_anisotropy", "homogeneous_poisson", "e_total", "e_ionic", "e_electronic", "n", "e_ij_max", "weighted_surface_energy_EV_PER_ANG2", "weighted_surface_energy", "weighted_work_function", "surface_anisotropy", "shape_factor", "has_reconstructed", "possible_species", "has_props", "theoretical", "database_IDs"]}