{
  "builder_meta": null,
  "nsites": null,
  "elements": null,
  "nelements": null,
  "composition": null,
  "composition_reduced": null,
  "formula_pretty": "Co2Si",
  "formula_anonymous": "AB2",
  "chemsys": null,
  "volume": 125.322678636893,
  "density": 7.735513406677512,
  "density_atomic": 10.443556553074417,
  "symmetry": null,
  "property_name": null,
  "material_id": "mp-19905",
  "deprecated": null,
  "deprecation_reasons": null,
  "last_updated": null,
  "origins": null,
  "warnings": null,
  "structure": {
    "@module": "pymatgen.core.structure",
    "@class": "Structure",
    "charge": 0,
    "lattice": {
      "matrix": [
        [3.70480194, 0.0, 0.0],
        [0.0, 4.85567766, 1.1410000000000001e-5],
        [0.0, 1.6630000000000002e-5, 6.96650294]
      ],
      "pbc": [true, true, true],
      "a": 3.70480194,
      "b": 4.855677660013406,
      "c": 6.966502940019849,
      "alpha": 89.99972859195897,
      "beta": 90.0,
      "gamma": 90.0,
      "volume": 125.322678636893
    },
    "properties": {},
    "sites": [
      {
        "species": [{ "element": "Co", "occu": 1 }],
        "abc": [0.75, 0.82747291, 0.56358677],
        "properties": { "magmom": 0.631 },
        "label": "Co",
        "xyz": [2.778601455, 4.017951095790175, 3.926238331616007]
      },
      {
        "species": [{ "element": "Co", "occu": 1 }],
        "abc": [0.25, 0.17254552, 0.43645345],
        "properties": { "magmom": 0.631 },
        "label": "Co",
        "xyz": [0.926200485, 0.8378326850179567, 3.040556211342526]
      },
      {
        "species": [{ "element": "Co", "occu": 1 }],
        "abc": [0.75, 0.32746631, 0.93641405],
        "properties": { "magmom": 0.631 },
        "label": "Co",
        "xyz": [2.778601455, 1.5900864184352859, 6.523534968772903]
      },
      {
        "species": [{ "element": "Co", "occu": 1 }],
        "abc": [0.25, 0.67254988, 0.06354567],
        "properties": { "magmom": 0.631 },
        "label": "Co",
        "xyz": [0.926200485, 3.2656864843161726, 0.4426987706734006]
      },
      {
        "species": [{ "element": "Co", "occu": 1 }],
        "abc": [0.25, 0.53580244, 0.721401],
        "properties": { "magmom": 1.053 },
        "label": "Co",
        "xyz": [0.926200485, 2.6016959349801203, 5.02564830092478]
      },
      {
        "species": [{ "element": "Co", "occu": 1 }],
        "abc": [0.75, 0.46418917, 0.27862755],
        "properties": { "magmom": 1.053 },
        "label": "Co",
        "xyz": [2.778601455, 2.2539576163590986, 1.9410649426384265]
      },
      {
        "species": [{ "element": "Co", "occu": 1 }],
        "abc": [0.25, 0.03581643, 0.77859598],
        "properties": { "magmom": 1.053 },
        "label": "Co",
        "xyz": [0.926200485, 0.1739259870631012, 5.424091592407647]
      },
      {
        "species": [{ "element": "Co", "occu": 1 }],
        "abc": [0.75, 0.9641981900000001, 0.22137193],
        "properties": { "magmom": 1.053 },
        "label": "Co",
        "xyz": [2.778601455, 4.681839292410631, 1.5421992026798221]
      },
      {
        "species": [{ "element": "Si", "occu": 1 }],
        "abc": [0.25, 0.20087232, 0.10367987000000001],
        "properties": { "magmom": -0.039 },
        "label": "Si",
        "xyz": [0.926200485, 0.9753729609326092, 0.722288411126989]
      },
      {
        "species": [{ "element": "Si", "occu": 1 }],
        "abc": [0.75, 0.7991085800000001, 0.89629264],
        "properties": { "magmom": -0.039 },
        "label": "Si",
        "xyz": [2.778601455, 3.880228585166926, 6.244034429489259]
      },
      {
        "species": [{ "element": "Si", "occu": 1 }],
        "abc": [0.25, 0.7008803, 0.39632492],
        "properties": { "magmom": -0.039 },
        "label": "Si",
        "xyz": [0.926200485, 3.403255405927517, 2.761006717419488]
      },
      {
        "species": [{ "element": "Si", "occu": 1 }],
        "abc": [0.75, 0.29909995, 0.60370417],
        "properties": { "magmom": -0.039 },
        "label": "Si",
        "xyz": [2.778601455, 1.452342984922464, 4.205710287925689]
      }
    ]
  },
  "task_ids": null,
  "uncorrected_energy_per_atom": null,
  "energy_per_atom": -12.078465140833332,
  "formation_energy_per_atom": -0.331056189166666,
  "energy_above_hull": 0.0,
  "is_stable": true,
  "equilibrium_reaction_energy_per_atom": null,
  "decomposes_to": null,
  "xas": null,
  "grain_boundaries": null,
  "band_gap": 0.0,
  "cbm": null,
  "vbm": null,
  "efermi": 8.31134351,
  "is_gap_direct": null,
  "is_metal": null,
  "es_source_calc_id": null,
  "bandstructure": null,
  "dos": null,
  "dos_energy_up": null,
  "dos_energy_down": null,
  "is_magnetic": null,
  "ordering": null,
  "total_magnetization": 6.0605087,
  "total_magnetization_normalized_vol": null,
  "total_magnetization_normalized_formula_units": null,
  "num_magnetic_sites": null,
  "num_unique_magnetic_sites": null,
  "types_of_magnetic_species": null,
  "bulk_modulus": null,
  "shear_modulus": null,
  "universal_anisotropy": null,
  "homogeneous_poisson": null,
  "e_total": null,
  "e_ionic": null,
  "e_electronic": null,
  "n": null,
  "e_ij_max": null,
  "weighted_surface_energy_EV_PER_ANG2": null,
  "weighted_surface_energy": null,
  "weighted_work_function": null,
  "surface_anisotropy": null,
  "shape_factor": null,
  "has_reconstructed": null,
  "possible_species": null,
  "has_props": null,
  "theoretical": null,
  "database_IDs": null,
  "fields_not_requested": [
    "builder_meta",
    "nsites",
    "elements",
    "nelements",
    "composition",
    "composition_reduced",
    "chemsys",
    "symmetry",
    "property_name",
    "deprecated",
    "deprecation_reasons",
    "last_updated",
    "origins",
    "warnings",
    "task_ids",
    "uncorrected_energy_per_atom",
    "equilibrium_reaction_energy_per_atom",
    "decomposes_to",
    "xas",
    "grain_boundaries",
    "cbm",
    "vbm",
    "is_gap_direct",
    "is_metal",
    "es_source_calc_id",
    "bandstructure",
    "dos",
    "dos_energy_up",
    "dos_energy_down",
    "is_magnetic",
    "ordering",
    "total_magnetization_normalized_vol",
    "total_magnetization_normalized_formula_units",
    "num_magnetic_sites",
    "num_unique_magnetic_sites",
    "types_of_magnetic_species",
    "bulk_modulus",
    "shear_modulus",
    "universal_anisotropy",
    "homogeneous_poisson",
    "e_total",
    "e_ionic",
    "e_electronic",
    "n",
    "e_ij_max",
    "weighted_surface_energy_EV_PER_ANG2",
    "weighted_surface_energy",
    "weighted_work_function",
    "surface_anisotropy",
    "shape_factor",
    "has_reconstructed",
    "possible_species",
    "has_props",
    "theoretical",
    "database_IDs"
  ]
}
