{
  "builder_meta": null,
  "nsites": null,
  "elements": null,
  "nelements": null,
  "composition": null,
  "composition_reduced": null,
  "formula_pretty": "Co2Si3",
  "formula_anonymous": "A2B3",
  "chemsys": null,
  "volume": 245.0922040721571,
  "density": 5.47766023598664,
  "density_atomic": 12.254610203607855,
  "symmetry": null,
  "property_name": null,
  "material_id": "mp-1105498",
  "deprecated": null,
  "deprecation_reasons": null,
  "last_updated": null,
  "origins": null,
  "warnings": null,
  "structure": {
    "@module": "pymatgen.core.structure",
    "@class": "Structure",
    "charge": 0,
    "lattice": {
      "matrix": [
        [5.3914100000000005, 0.0, 0.0],
        [0.0, 5.3914100000000005, 0.0],
        [0.0, 0.0, 8.431887]
      ],
      "pbc": [true, true, true],
      "a": 5.3914100000000005,
      "b": 5.3914100000000005,
      "c": 8.431887,
      "alpha": 90.0,
      "beta": 90.0,
      "gamma": 90.0,
      "volume": 245.09220407215716
    },
    "properties": {},
    "sites": [
      {
        "species": [{ "element": "Co", "occu": 1 }],
        "abc": [0.5, 0.0, 0.130340999999999],
        "properties": { "magmom": 0.20600000000000002 },
        "label": "Co",
        "xyz": [2.6957050000000002, 0.0, 1.0990205834669917]
      },
      {
        "species": [{ "element": "Co", "occu": 1 }],
        "abc": [0.5, 0.0, 0.630340999999999],
        "properties": { "magmom": 0.20600000000000002 },
        "label": "Co",
        "xyz": [2.6957050000000002, 0.0, 5.314964083466991]
      },
      {
        "species": [{ "element": "Co", "occu": 1 }],
        "abc": [0.0, 0.5, 0.869659],
        "properties": { "magmom": 0.20600000000000002 },
        "label": "Co",
        "xyz": [0.0, 2.6957050000000002, 7.332866416532999]
      },
      {
        "species": [{ "element": "Co", "occu": 1 }],
        "abc": [0.0, 0.5, 0.369658999999999],
        "properties": { "magmom": 0.20600000000000002 },
        "label": "Co",
        "xyz": [0.0, 2.6957050000000002, 3.1169229165329915]
      },
      {
        "species": [{ "element": "Co", "occu": 1 }],
        "abc": [0.5, 0.5, 0.25],
        "properties": { "magmom": 0.195 },
        "label": "Co",
        "xyz": [2.6957050000000002, 2.6957050000000002, 2.10797175]
      },
      {
        "species": [{ "element": "Co", "occu": 1 }],
        "abc": [0.5, 0.5, 0.75],
        "properties": { "magmom": 0.195 },
        "label": "Co",
        "xyz": [2.6957050000000002, 2.6957050000000002, 6.32391525]
      },
      {
        "species": [{ "element": "Co", "occu": 1 }],
        "abc": [0.0, 0.0, 0.5],
        "properties": { "magmom": 0.201 },
        "label": "Co",
        "xyz": [0.0, 0.0, 4.2159435]
      },
      {
        "species": [{ "element": "Co", "occu": 1 }],
        "abc": [0.0, 0.0, 0.0],
        "properties": { "magmom": 0.201 },
        "label": "Co",
        "xyz": [0.0, 0.0, 0.0]
      },
      {
        "species": [{ "element": "Si", "occu": 1 }],
        "abc": [0.346045, 0.204881999999999, 0.408804],
        "properties": { "magmom": 0.007 },
        "label": "Si",
        "xyz": [1.86567047345, 1.1046028636199947, 3.446989133148]
      },
      {
        "species": [{ "element": "Si", "occu": 1 }],
        "abc": [0.653955, 0.795118, 0.408804],
        "properties": { "magmom": 0.007 },
        "label": "Si",
        "xyz": [3.5257395265500002, 4.28680713638, 3.446989133148]
      },
      {
        "species": [{ "element": "Si", "occu": 1 }],
        "abc": [0.346045, 0.795118, 0.908804],
        "properties": { "magmom": 0.007 },
        "label": "Si",
        "xyz": [1.86567047345, 4.28680713638, 7.662932633147999]
      },
      {
        "species": [{ "element": "Si", "occu": 1 }],
        "abc": [0.653955, 0.204881999999999, 0.908804],
        "properties": { "magmom": 0.007 },
        "label": "Si",
        "xyz": [3.5257395265500002, 1.1046028636199947, 7.662932633147999]
      },
      {
        "species": [{ "element": "Si", "occu": 1 }],
        "abc": [0.204881999999999, 0.653955, 0.5911959999999991],
        "properties": { "magmom": 0.007 },
        "label": "Si",
        "xyz": [1.1046028636199947, 3.5257395265500002, 4.984897866851992]
      },
      {
        "species": [{ "element": "Si", "occu": 1 }],
        "abc": [0.795118, 0.346045, 0.5911959999999991],
        "properties": { "magmom": 0.007 },
        "label": "Si",
        "xyz": [4.28680713638, 1.86567047345, 4.984897866851992]
      },
      {
        "species": [{ "element": "Si", "occu": 1 }],
        "abc": [0.795118, 0.653955, 0.091196],
        "properties": { "magmom": 0.007 },
        "label": "Si",
        "xyz": [4.28680713638, 3.5257395265500002, 0.7689543668519999]
      },
      {
        "species": [{ "element": "Si", "occu": 1 }],
        "abc": [0.204881999999999, 0.346045, 0.091196],
        "properties": { "magmom": 0.007 },
        "label": "Si",
        "xyz": [1.1046028636199947, 1.86567047345, 0.7689543668519999]
      },
      {
        "species": [{ "element": "Si", "occu": 1 }],
        "abc": [0.172419, 0.172419, 0.75],
        "properties": { "magmom": 0.011 },
        "label": "Si",
        "xyz": [0.92958152079, 0.92958152079, 6.32391525]
      },
      {
        "species": [{ "element": "Si", "occu": 1 }],
        "abc": [0.827581, 0.827581, 0.75],
        "properties": { "magmom": 0.011 },
        "label": "Si",
        "xyz": [4.46182847921, 4.46182847921, 6.32391525]
      },
      {
        "species": [{ "element": "Si", "occu": 1 }],
        "abc": [0.172419, 0.827581, 0.25],
        "properties": { "magmom": 0.011 },
        "label": "Si",
        "xyz": [0.92958152079, 4.46182847921, 2.10797175]
      },
      {
        "species": [{ "element": "Si", "occu": 1 }],
        "abc": [0.827581, 0.172419, 0.25],
        "properties": { "magmom": 0.011 },
        "label": "Si",
        "xyz": [4.46182847921, 0.92958152079, 2.10797175]
      }
    ]
  },
  "task_ids": null,
  "uncorrected_energy_per_atom": null,
  "energy_per_atom": -10.799017777,
  "formation_energy_per_atom": -0.241066568,
  "energy_above_hull": 0.202750637000001,
  "is_stable": false,
  "equilibrium_reaction_energy_per_atom": null,
  "decomposes_to": null,
  "xas": null,
  "grain_boundaries": null,
  "band_gap": 0.0,
  "cbm": null,
  "vbm": null,
  "efermi": 9.44703842,
  "is_gap_direct": null,
  "is_metal": null,
  "es_source_calc_id": null,
  "bandstructure": null,
  "dos": null,
  "dos_energy_up": null,
  "dos_energy_down": null,
  "is_magnetic": null,
  "ordering": null,
  "total_magnetization": 1.8139151,
  "total_magnetization_normalized_vol": null,
  "total_magnetization_normalized_formula_units": null,
  "num_magnetic_sites": null,
  "num_unique_magnetic_sites": null,
  "types_of_magnetic_species": null,
  "bulk_modulus": null,
  "shear_modulus": null,
  "universal_anisotropy": null,
  "homogeneous_poisson": null,
  "e_total": null,
  "e_ionic": null,
  "e_electronic": null,
  "n": null,
  "e_ij_max": null,
  "weighted_surface_energy_EV_PER_ANG2": null,
  "weighted_surface_energy": null,
  "weighted_work_function": null,
  "surface_anisotropy": null,
  "shape_factor": null,
  "has_reconstructed": null,
  "possible_species": null,
  "has_props": null,
  "theoretical": null,
  "database_IDs": null,
  "fields_not_requested": [
    "builder_meta",
    "nsites",
    "elements",
    "nelements",
    "composition",
    "composition_reduced",
    "chemsys",
    "symmetry",
    "property_name",
    "deprecated",
    "deprecation_reasons",
    "last_updated",
    "origins",
    "warnings",
    "task_ids",
    "uncorrected_energy_per_atom",
    "equilibrium_reaction_energy_per_atom",
    "decomposes_to",
    "xas",
    "grain_boundaries",
    "cbm",
    "vbm",
    "is_gap_direct",
    "is_metal",
    "es_source_calc_id",
    "bandstructure",
    "dos",
    "dos_energy_up",
    "dos_energy_down",
    "is_magnetic",
    "ordering",
    "total_magnetization_normalized_vol",
    "total_magnetization_normalized_formula_units",
    "num_magnetic_sites",
    "num_unique_magnetic_sites",
    "types_of_magnetic_species",
    "bulk_modulus",
    "shear_modulus",
    "universal_anisotropy",
    "homogeneous_poisson",
    "e_total",
    "e_ionic",
    "e_electronic",
    "n",
    "e_ij_max",
    "weighted_surface_energy_EV_PER_ANG2",
    "weighted_surface_energy",
    "weighted_work_function",
    "surface_anisotropy",
    "shape_factor",
    "has_reconstructed",
    "possible_species",
    "has_props",
    "theoretical",
    "database_IDs"
  ]
}
