{
  "builder_meta": null,
  "nsites": null,
  "elements": null,
  "nelements": null,
  "composition": null,
  "composition_reduced": null,
  "formula_pretty": "Co3B",
  "formula_anonymous": "AB3",
  "chemsys": null,
  "volume": 150.28319501255723,
  "density": 8.291937250180208,
  "density_atomic": 9.392699688284827,
  "symmetry": null,
  "property_name": null,
  "material_id": "mp-20373",
  "deprecated": null,
  "deprecation_reasons": null,
  "last_updated": null,
  "origins": null,
  "warnings": null,
  "structure": {
    "@module": "pymatgen.core.structure",
    "@class": "Structure",
    "charge": 0,
    "lattice": {
      "matrix": [
        [4.408027, 0.0, 0.0],
        [0.0, 5.150889, 0.0],
        [0.0, 0.0, 6.618872]
      ],
      "pbc": [true, true, true],
      "a": 4.408027,
      "b": 5.150889,
      "c": 6.618872,
      "alpha": 90.0,
      "beta": 90.0,
      "gamma": 90.0,
      "volume": 150.28319501255723
    },
    "properties": {},
    "sites": [
      {
        "species": [{ "element": "Co", "occu": 1 }],
        "abc": [0.650208, 0.815819, 0.940703],
        "properties": { "magmom": 1.254 },
        "label": "Co",
        "xyz": [2.866134419616, 4.202193113091, 6.226392747015999]
      },
      {
        "species": [{ "element": "Co", "occu": 1 }],
        "abc": [0.150207999999999, 0.684180999999999, 0.059296999999999],
        "properties": { "magmom": 1.254 },
        "label": "Co",
        "xyz": [0.6621209196159956, 3.524140386908995, 0.3924792529839934]
      },
      {
        "species": [{ "element": "Co", "occu": 1 }],
        "abc": [0.849792, 0.315818999999999, 0.559296999999999],
        "properties": { "magmom": 1.254 },
        "label": "Co",
        "xyz": [3.7459060803839996, 1.626748613090995, 3.7019152529839934]
      },
      {
        "species": [{ "element": "Co", "occu": 1 }],
        "abc": [0.349792, 0.184180999999999, 0.440702999999999],
        "properties": { "magmom": 1.254 },
        "label": "Co",
        "xyz": [1.5418925803839998, 0.948695886908995, 2.9169567470159934]
      },
      {
        "species": [{ "element": "Co", "occu": 1 }],
        "abc": [0.865927, 0.024246999999999002, 0.25],
        "properties": { "magmom": 1.18 },
        "label": "Co",
        "xyz": [3.8170295960289997, 0.12489360558299487, 1.654718]
      },
      {
        "species": [{ "element": "Co", "occu": 1 }],
        "abc": [0.365927, 0.475753, 0.75],
        "properties": { "magmom": 1.18 },
        "label": "Co",
        "xyz": [1.6130160960289999, 2.4505508944170002, 4.964154]
      },
      {
        "species": [{ "element": "Co", "occu": 1 }],
        "abc": [0.634073, 0.524247, 0.25],
        "properties": { "magmom": 1.18 },
        "label": "Co",
        "xyz": [2.795010903971, 2.700338105583, 1.654718]
      },
      {
        "species": [{ "element": "Co", "occu": 1 }],
        "abc": [0.134073, 0.975753, 0.75],
        "properties": { "magmom": 1.18 },
        "label": "Co",
        "xyz": [0.590997403971, 5.025995394417, 4.964154]
      },
      {
        "species": [{ "element": "Co", "occu": 1 }],
        "abc": [0.650208, 0.815819, 0.559296999999999],
        "properties": { "magmom": 1.254 },
        "label": "Co",
        "xyz": [2.866134419616, 4.202193113091, 3.7019152529839934]
      },
      {
        "species": [{ "element": "Co", "occu": 1 }],
        "abc": [0.150207999999999, 0.684180999999999, 0.440702999999999],
        "properties": { "magmom": 1.254 },
        "label": "Co",
        "xyz": [0.6621209196159956, 3.524140386908995, 2.9169567470159934]
      },
      {
        "species": [{ "element": "Co", "occu": 1 }],
        "abc": [0.849792, 0.315818999999999, 0.940703],
        "properties": { "magmom": 1.254 },
        "label": "Co",
        "xyz": [3.7459060803839996, 1.626748613090995, 6.226392747015999]
      },
      {
        "species": [{ "element": "Co", "occu": 1 }],
        "abc": [0.349792, 0.184180999999999, 0.059296999999999],
        "properties": { "magmom": 1.254 },
        "label": "Co",
        "xyz": [1.5418925803839998, 0.948695886908995, 0.3924792529839934]
      },
      {
        "species": [{ "element": "B", "occu": 1 }],
        "abc": [0.561711, 0.120352, 0.75],
        "properties": { "magmom": -0.08 },
        "label": "B",
        "xyz": [2.4760372541969997, 0.619919792928, 4.964154]
      },
      {
        "species": [{ "element": "B", "occu": 1 }],
        "abc": [0.061710999999999, 0.379648, 0.25],
        "properties": { "magmom": -0.08 },
        "label": "B",
        "xyz": [0.2720237541969956, 1.955524707072, 1.654718]
      },
      {
        "species": [{ "element": "B", "occu": 1 }],
        "abc": [0.938288999999999, 0.620352, 0.75],
        "properties": { "magmom": -0.08 },
        "label": "B",
        "xyz": [4.136003245802995, 3.195364292928, 4.964154]
      },
      {
        "species": [{ "element": "B", "occu": 1 }],
        "abc": [0.438289, 0.879648, 0.25],
        "properties": { "magmom": -0.08 },
        "label": "B",
        "xyz": [1.9319897458029998, 4.530969207072, 1.654718]
      }
    ]
  },
  "task_ids": null,
  "uncorrected_energy_per_atom": null,
  "energy_per_atom": -11.893219686875,
  "formation_energy_per_atom": -0.13095779000000002,
  "energy_above_hull": 0.017804337499999,
  "is_stable": false,
  "equilibrium_reaction_energy_per_atom": null,
  "decomposes_to": null,
  "xas": null,
  "grain_boundaries": null,
  "band_gap": 0.0,
  "cbm": null,
  "vbm": null,
  "efermi": 5.99285586,
  "is_gap_direct": null,
  "is_metal": null,
  "es_source_calc_id": null,
  "bandstructure": null,
  "dos": null,
  "dos_energy_up": null,
  "dos_energy_down": null,
  "is_magnetic": null,
  "ordering": null,
  "total_magnetization": 14.2613752,
  "total_magnetization_normalized_vol": null,
  "total_magnetization_normalized_formula_units": null,
  "num_magnetic_sites": null,
  "num_unique_magnetic_sites": null,
  "types_of_magnetic_species": null,
  "bulk_modulus": null,
  "shear_modulus": null,
  "universal_anisotropy": null,
  "homogeneous_poisson": null,
  "e_total": null,
  "e_ionic": null,
  "e_electronic": null,
  "n": null,
  "e_ij_max": null,
  "weighted_surface_energy_EV_PER_ANG2": null,
  "weighted_surface_energy": null,
  "weighted_work_function": null,
  "surface_anisotropy": null,
  "shape_factor": null,
  "has_reconstructed": null,
  "possible_species": null,
  "has_props": null,
  "theoretical": null,
  "database_IDs": null,
  "fields_not_requested": [
    "builder_meta",
    "nsites",
    "elements",
    "nelements",
    "composition",
    "composition_reduced",
    "chemsys",
    "symmetry",
    "property_name",
    "deprecated",
    "deprecation_reasons",
    "last_updated",
    "origins",
    "warnings",
    "task_ids",
    "uncorrected_energy_per_atom",
    "equilibrium_reaction_energy_per_atom",
    "decomposes_to",
    "xas",
    "grain_boundaries",
    "cbm",
    "vbm",
    "is_gap_direct",
    "is_metal",
    "es_source_calc_id",
    "bandstructure",
    "dos",
    "dos_energy_up",
    "dos_energy_down",
    "is_magnetic",
    "ordering",
    "total_magnetization_normalized_vol",
    "total_magnetization_normalized_formula_units",
    "num_magnetic_sites",
    "num_unique_magnetic_sites",
    "types_of_magnetic_species",
    "bulk_modulus",
    "shear_modulus",
    "universal_anisotropy",
    "homogeneous_poisson",
    "e_total",
    "e_ionic",
    "e_electronic",
    "n",
    "e_ij_max",
    "weighted_surface_energy_EV_PER_ANG2",
    "weighted_surface_energy",
    "weighted_work_function",
    "surface_anisotropy",
    "shape_factor",
    "has_reconstructed",
    "possible_species",
    "has_props",
    "theoretical",
    "database_IDs"
  ]
}
