{
  "builder_meta": null,
  "nsites": null,
  "elements": null,
  "nelements": null,
  "composition": null,
  "composition_reduced": null,
  "formula_pretty": "Co3C",
  "formula_anonymous": "AB3",
  "chemsys": null,
  "volume": 146.64262128903374,
  "density": 8.55213447938621,
  "density_atomic": 9.165163830564609,
  "symmetry": null,
  "property_name": null,
  "material_id": "mp-20925",
  "deprecated": null,
  "deprecation_reasons": null,
  "last_updated": null,
  "origins": null,
  "warnings": null,
  "structure": {
    "@module": "pymatgen.core.structure",
    "@class": "Structure",
    "charge": 0,
    "lattice": {
      "matrix": [
        [4.433886, 0.0, 0.0],
        [0.0, 4.938728, 0.0],
        [0.0, 0.0, 6.696696]
      ],
      "pbc": [true, true, true],
      "a": 4.433886,
      "b": 4.938728,
      "c": 6.696696,
      "alpha": 90.0,
      "beta": 90.0,
      "gamma": 90.0,
      "volume": 146.64262128903374
    },
    "properties": {},
    "sites": [
      {
        "species": [{ "element": "Co", "occu": 1 }],
        "abc": [0.670427, 0.819803, 0.930222],
        "properties": { "magmom": 1.093 },
        "label": "Co",
        "xyz": [2.9725968893220003, 4.048784030584, 6.229413946512]
      },
      {
        "species": [{ "element": "Co", "occu": 1 }],
        "abc": [0.170427, 0.680196999999999, 0.06977799999999901],
        "properties": { "magmom": 1.093 },
        "label": "Co",
        "xyz": [0.7556538893220001, 3.3593079694159953, 0.46728205348799334]
      },
      {
        "species": [{ "element": "Co", "occu": 1 }],
        "abc": [0.829573, 0.319803, 0.569778],
        "properties": { "magmom": 1.093 },
        "label": "Co",
        "xyz": [3.678232110678, 1.579420030584, 3.8156300534880003]
      },
      {
        "species": [{ "element": "Co", "occu": 1 }],
        "abc": [0.329573, 0.180197, 0.430222],
        "properties": { "magmom": 1.093 },
        "label": "Co",
        "xyz": [1.4612891106780002, 0.8899439694160001, 2.881065946512]
      },
      {
        "species": [{ "element": "Co", "occu": 1 }],
        "abc": [0.843438999999999, 0.037947999999999, 0.25],
        "properties": { "magmom": 0.986 },
        "label": "Co",
        "xyz": [3.739712373953996, 0.1874148501439951, 1.674174]
      },
      {
        "species": [{ "element": "Co", "occu": 1 }],
        "abc": [0.343439, 0.462051999999999, 0.75],
        "properties": { "magmom": 0.986 },
        "label": "Co",
        "xyz": [1.522769373954, 2.281949149855995, 5.022522]
      },
      {
        "species": [{ "element": "Co", "occu": 1 }],
        "abc": [0.656561, 0.537948, 0.25],
        "properties": { "magmom": 0.986 },
        "label": "Co",
        "xyz": [2.9111166260459997, 2.656778850144, 1.674174]
      },
      {
        "species": [{ "element": "Co", "occu": 1 }],
        "abc": [0.156561, 0.9620519999999991, 0.75],
        "properties": { "magmom": 0.986 },
        "label": "Co",
        "xyz": [0.6941736260460001, 4.751313149855996, 5.022522]
      },
      {
        "species": [{ "element": "Co", "occu": 1 }],
        "abc": [0.670427, 0.819803, 0.569778],
        "properties": { "magmom": 1.093 },
        "label": "Co",
        "xyz": [2.9725968893220003, 4.048784030584, 3.8156300534880003]
      },
      {
        "species": [{ "element": "Co", "occu": 1 }],
        "abc": [0.170427, 0.680196999999999, 0.430222],
        "properties": { "magmom": 1.093 },
        "label": "Co",
        "xyz": [0.7556538893220001, 3.3593079694159953, 2.881065946512]
      },
      {
        "species": [{ "element": "Co", "occu": 1 }],
        "abc": [0.829573, 0.319803, 0.930222],
        "properties": { "magmom": 1.093 },
        "label": "Co",
        "xyz": [3.678232110678, 1.579420030584, 6.229413946512]
      },
      {
        "species": [{ "element": "Co", "occu": 1 }],
        "abc": [0.329573, 0.180197, 0.06977799999999901],
        "properties": { "magmom": 1.093 },
        "label": "Co",
        "xyz": [1.4612891106780002, 0.8899439694160001, 0.46728205348799334]
      },
      {
        "species": [{ "element": "C", "occu": 1 }],
        "abc": [0.553462999999999, 0.119457, 0.75],
        "properties": { "magmom": -0.048 },
        "label": "C",
        "xyz": [2.453991847217996, 0.5899656306959999, 5.022522]
      },
      {
        "species": [{ "element": "C", "occu": 1 }],
        "abc": [0.053463, 0.380542999999999, 0.25],
        "properties": { "magmom": -0.048 },
        "label": "C",
        "xyz": [0.237048847218, 1.8793983693039953, 1.674174]
      },
      {
        "species": [{ "element": "C", "occu": 1 }],
        "abc": [0.946537, 0.619456999999999, 0.75],
        "properties": { "magmom": -0.048 },
        "label": "C",
        "xyz": [4.196837152782, 3.0593296306959954, 5.022522]
      },
      {
        "species": [{ "element": "C", "occu": 1 }],
        "abc": [0.446536999999999, 0.880543, 0.25],
        "properties": { "magmom": -0.048 },
        "label": "C",
        "xyz": [1.9798941527819958, 4.348762369304, 1.674174]
      }
    ]
  },
  "task_ids": null,
  "uncorrected_energy_per_atom": null,
  "energy_per_atom": -7.5074474675000005,
  "formation_energy_per_atom": 0.149781445624999,
  "energy_above_hull": 0.149781445624999,
  "is_stable": false,
  "equilibrium_reaction_energy_per_atom": null,
  "decomposes_to": null,
  "xas": null,
  "grain_boundaries": null,
  "band_gap": 0.0,
  "cbm": null,
  "vbm": null,
  "efermi": 6.4920563,
  "is_gap_direct": null,
  "is_metal": null,
  "es_source_calc_id": null,
  "bandstructure": null,
  "dos": null,
  "dos_energy_up": null,
  "dos_energy_down": null,
  "is_magnetic": null,
  "ordering": null,
  "total_magnetization": 12.334693099999999,
  "total_magnetization_normalized_vol": null,
  "total_magnetization_normalized_formula_units": null,
  "num_magnetic_sites": null,
  "num_unique_magnetic_sites": null,
  "types_of_magnetic_species": null,
  "bulk_modulus": null,
  "shear_modulus": null,
  "universal_anisotropy": null,
  "homogeneous_poisson": null,
  "e_total": null,
  "e_ionic": null,
  "e_electronic": null,
  "n": null,
  "e_ij_max": null,
  "weighted_surface_energy_EV_PER_ANG2": null,
  "weighted_surface_energy": null,
  "weighted_work_function": null,
  "surface_anisotropy": null,
  "shape_factor": null,
  "has_reconstructed": null,
  "possible_species": null,
  "has_props": null,
  "theoretical": null,
  "database_IDs": null,
  "fields_not_requested": [
    "builder_meta",
    "nsites",
    "elements",
    "nelements",
    "composition",
    "composition_reduced",
    "chemsys",
    "symmetry",
    "property_name",
    "deprecated",
    "deprecation_reasons",
    "last_updated",
    "origins",
    "warnings",
    "task_ids",
    "uncorrected_energy_per_atom",
    "equilibrium_reaction_energy_per_atom",
    "decomposes_to",
    "xas",
    "grain_boundaries",
    "cbm",
    "vbm",
    "is_gap_direct",
    "is_metal",
    "es_source_calc_id",
    "bandstructure",
    "dos",
    "dos_energy_up",
    "dos_energy_down",
    "is_magnetic",
    "ordering",
    "total_magnetization_normalized_vol",
    "total_magnetization_normalized_formula_units",
    "num_magnetic_sites",
    "num_unique_magnetic_sites",
    "types_of_magnetic_species",
    "bulk_modulus",
    "shear_modulus",
    "universal_anisotropy",
    "homogeneous_poisson",
    "e_total",
    "e_ionic",
    "e_electronic",
    "n",
    "e_ij_max",
    "weighted_surface_energy_EV_PER_ANG2",
    "weighted_surface_energy",
    "weighted_work_function",
    "surface_anisotropy",
    "shape_factor",
    "has_reconstructed",
    "possible_species",
    "has_props",
    "theoretical",
    "database_IDs"
  ]
}
