{"builder_meta": null, "nsites": null, "elements": null, "nelements": null, "composition": null, "composition_reduced": null, "formula_pretty": "Co3Ge2", "formula_anonymous": "A2B3", "chemsys": null, "volume": 63.836420630360024, "density": 8.378065815182266, "density_atomic": 12.767284126072004, "symmetry": null, "property_name": null, "material_id": "mp-1226445", "deprecated": null, "deprecation_reasons": null, "last_updated": null, "origins": null, "warnings": null, "structure": {"@module": "pymatgen.core.structure", "@class": "Structure", "charge": 0, "lattice": {"matrix": [[1.95120069, -3.3795781, -0.0], [1.95120069, 3.3795781, 0.0], [-0.0, 0.0, 4.84032033]], "pbc": [true, true, true], "a": 3.9024008336735587, "b": 3.9024008336735587, "c": 4.84032033, "alpha": 90.0, "beta": 90.0, "gamma": 119.99999073783839, "volume": 63.836420630360024}, "properties": {}, "sites": [{"species": [{"element": "Co", "occu": 1}], "abc": [0.0, 0.0, 0.24227079], "properties": {"magmom": 1.303}, "label": "Co", "xyz": [0.0, 0.0, 1.1726682302021607]}, {"species": [{"element": "Co", "occu": 1}], "abc": [0.0, -0.0, 0.7577302100000001], "properties": {"magmom": 1.303}, "label": "Co", "xyz": [0.0, 0.0, 3.6676569401181696]}, {"species": [{"element": "Co", "occu": 1}], "abc": [0.333333, 0.666667, 0.499998999999999], "properties": {"magmom": 0.5650000000000001}, "label": "Co", "xyz": [1.9512006900000003, 1.1265282863854, 2.420155324679665]}, {"species": [{"element": "Ge", "occu": 1}], "abc": [0.333333, 0.666667, 1e-06], "properties": {"magmom": -0.059000000000000004}, "label": "Ge", "xyz": [1.9512006900000003, 1.1265282863854, 4.84032033e-06]}, {"species": [{"element": "Ge", "occu": 1}], "abc": [0.666667, 0.333333, 0.499998999999999], "properties": {"magmom": -0.07}, "label": "Ge", "xyz": [1.9512006900000003, -1.1265282863854, 2.420155324679665]}]}, "task_ids": null, "uncorrected_energy_per_atom": null, "energy_per_atom": -13.489385046, "formation_energy_per_atom": -5.5336000002625965e-05, "energy_above_hull": 0.05792432299999901, "is_stable": false, "equilibrium_reaction_energy_per_atom": null, "decomposes_to": null, "xas": null, "grain_boundaries": null, "band_gap": 0.0, "cbm": null, "vbm": null, "efermi": 6.58807599, "is_gap_direct": null, "is_metal": null, "es_source_calc_id": null, "bandstructure": null, "dos": null, "dos_energy_up": null, "dos_energy_down": null, "is_magnetic": null, "ordering": null, "total_magnetization": 2.9131476, "total_magnetization_normalized_vol": null, "total_magnetization_normalized_formula_units": null, "num_magnetic_sites": null, "num_unique_magnetic_sites": null, "types_of_magnetic_species": null, "bulk_modulus": null, "shear_modulus": null, "universal_anisotropy": null, "homogeneous_poisson": null, "e_total": null, "e_ionic": null, "e_electronic": null, "n": null, "e_ij_max": null, "weighted_surface_energy_EV_PER_ANG2": null, "weighted_surface_energy": null, "weighted_work_function": null, "surface_anisotropy": null, "shape_factor": null, "has_reconstructed": null, "possible_species": null, "has_props": null, "theoretical": null, "database_IDs": null, "fields_not_requested": ["builder_meta", "nsites", "elements", "nelements", "composition", "composition_reduced", "chemsys", "symmetry", "property_name", "deprecated", "deprecation_reasons", "last_updated", "origins", "warnings", "task_ids", "uncorrected_energy_per_atom", "equilibrium_reaction_energy_per_atom", "decomposes_to", "xas", "grain_boundaries", "cbm", "vbm", "is_gap_direct", "is_metal", "es_source_calc_id", "bandstructure", "dos", "dos_energy_up", "dos_energy_down", "is_magnetic", "ordering", "total_magnetization_normalized_vol", "total_magnetization_normalized_formula_units", "num_magnetic_sites", "num_unique_magnetic_sites", "types_of_magnetic_species", "bulk_modulus", "shear_modulus", "universal_anisotropy", "homogeneous_poisson", "e_total", "e_ionic", "e_electronic", "n", "e_ij_max", "weighted_surface_energy_EV_PER_ANG2", "weighted_surface_energy", "weighted_work_function", "surface_anisotropy", "shape_factor", "has_reconstructed", "possible_species", "has_props", "theoretical", "database_IDs"]}