{
  "builder_meta": null,
  "nsites": null,
  "elements": null,
  "nelements": null,
  "composition": null,
  "composition_reduced": null,
  "formula_pretty": "Co3I",
  "formula_anonymous": "AB3",
  "chemsys": null,
  "volume": 136.96742937478967,
  "density": 7.363976243320794,
  "density_atomic": 17.12092867184871,
  "symmetry": null,
  "property_name": null,
  "material_id": "mp-1183756",
  "deprecated": null,
  "deprecation_reasons": null,
  "last_updated": null,
  "origins": null,
  "warnings": null,
  "structure": {
    "@module": "pymatgen.core.structure",
    "@class": "Structure",
    "charge": 0,
    "lattice": {
      "matrix": [
        [3.195042, -5.533974, 0.0],
        [3.195042, 5.533974, 0.0],
        [0.0, 0.0, 3.873233]
      ],
      "pbc": [true, true, true],
      "a": 6.390083067882608,
      "b": 6.390083067882608,
      "c": 3.873233,
      "alpha": 90.0,
      "beta": 90.0,
      "gamma": 119.99999034935992,
      "volume": 136.96742937478967
    },
    "properties": {},
    "sites": [
      {
        "species": [{ "element": "Co", "occu": 1 }],
        "abc": [0.126945, 0.253889, 0.25],
        "properties": { "magmom": 1.744 },
        "label": "Co",
        "xyz": [1.216780625028, 0.7025047954559999, 0.96830825]
      },
      {
        "species": [{ "element": "Co", "occu": 1 }],
        "abc": [0.746111, 0.873054999999999, 0.25],
        "properties": { "magmom": 1.742 },
        "label": "Co",
        "xyz": [5.173303374971997, 0.7025047954559946, 0.96830825]
      },
      {
        "species": [{ "element": "Co", "occu": 1 }],
        "abc": [0.126945, 0.873054999999999, 0.25],
        "properties": { "magmom": 1.742 },
        "label": "Co",
        "xyz": [3.1950419999999973, 4.128953341139995, 0.96830825]
      },
      {
        "species": [{ "element": "Co", "occu": 1 }],
        "abc": [0.873054999999999, 0.746111, 0.75],
        "properties": { "magmom": 1.738999999999999 },
        "label": "Co",
        "xyz": [5.173303374971997, -0.7025047954559946, 2.90492475]
      },
      {
        "species": [{ "element": "Co", "occu": 1 }],
        "abc": [0.253889, 0.126945, 0.75],
        "properties": { "magmom": 1.742 },
        "label": "Co",
        "xyz": [1.216780625028, -0.7025047954559999, 2.90492475]
      },
      {
        "species": [{ "element": "Co", "occu": 1 }],
        "abc": [0.873054999999999, 0.126945, 0.75],
        "properties": { "magmom": 1.741 },
        "label": "Co",
        "xyz": [3.1950419999999973, -4.128953341139995, 2.90492475]
      },
      {
        "species": [{ "element": "I", "occu": 1 }],
        "abc": [0.333333, 0.666667, 0.75],
        "properties": { "magmom": 0.066 },
        "label": "I",
        "xyz": [3.195042, 1.8446616893160002, 2.90492475]
      },
      {
        "species": [{ "element": "I", "occu": 1 }],
        "abc": [0.666667, 0.333333, 0.25],
        "properties": { "magmom": 0.066 },
        "label": "I",
        "xyz": [3.195042, -1.8446616893160002, 0.96830825]
      }
    ]
  },
  "task_ids": null,
  "uncorrected_energy_per_atom": null,
  "energy_per_atom": -5.162426062500001,
  "formation_energy_per_atom": 0.5686396312499991,
  "energy_above_hull": 0.6592717637500001,
  "is_stable": false,
  "equilibrium_reaction_energy_per_atom": null,
  "decomposes_to": null,
  "xas": null,
  "grain_boundaries": null,
  "band_gap": 0.0,
  "cbm": null,
  "vbm": null,
  "efermi": 6.22935891,
  "is_gap_direct": null,
  "is_metal": null,
  "es_source_calc_id": null,
  "bandstructure": null,
  "dos": null,
  "dos_energy_up": null,
  "dos_energy_down": null,
  "is_magnetic": null,
  "ordering": null,
  "total_magnetization": 10.5853557,
  "total_magnetization_normalized_vol": null,
  "total_magnetization_normalized_formula_units": null,
  "num_magnetic_sites": null,
  "num_unique_magnetic_sites": null,
  "types_of_magnetic_species": null,
  "bulk_modulus": null,
  "shear_modulus": null,
  "universal_anisotropy": null,
  "homogeneous_poisson": null,
  "e_total": null,
  "e_ionic": null,
  "e_electronic": null,
  "n": null,
  "e_ij_max": null,
  "weighted_surface_energy_EV_PER_ANG2": null,
  "weighted_surface_energy": null,
  "weighted_work_function": null,
  "surface_anisotropy": null,
  "shape_factor": null,
  "has_reconstructed": null,
  "possible_species": null,
  "has_props": null,
  "theoretical": null,
  "database_IDs": null,
  "fields_not_requested": [
    "builder_meta",
    "nsites",
    "elements",
    "nelements",
    "composition",
    "composition_reduced",
    "chemsys",
    "symmetry",
    "property_name",
    "deprecated",
    "deprecation_reasons",
    "last_updated",
    "origins",
    "warnings",
    "task_ids",
    "uncorrected_energy_per_atom",
    "equilibrium_reaction_energy_per_atom",
    "decomposes_to",
    "xas",
    "grain_boundaries",
    "cbm",
    "vbm",
    "is_gap_direct",
    "is_metal",
    "es_source_calc_id",
    "bandstructure",
    "dos",
    "dos_energy_up",
    "dos_energy_down",
    "is_magnetic",
    "ordering",
    "total_magnetization_normalized_vol",
    "total_magnetization_normalized_formula_units",
    "num_magnetic_sites",
    "num_unique_magnetic_sites",
    "types_of_magnetic_species",
    "bulk_modulus",
    "shear_modulus",
    "universal_anisotropy",
    "homogeneous_poisson",
    "e_total",
    "e_ionic",
    "e_electronic",
    "n",
    "e_ij_max",
    "weighted_surface_energy_EV_PER_ANG2",
    "weighted_surface_energy",
    "weighted_work_function",
    "surface_anisotropy",
    "shape_factor",
    "has_reconstructed",
    "possible_species",
    "has_props",
    "theoretical",
    "database_IDs"
  ]
}
