{"builder_meta": null, "nsites": null, "elements": null, "nelements": null, "composition": null, "composition_reduced": null, "formula_pretty": "Co3Mo", "formula_anonymous": "AB3", "chemsys": null, "volume": 90.91535868148617, "density": 9.96299728602397, "density_atomic": 11.364419835185771, "symmetry": null, "property_name": null, "material_id": "mp-1139", "deprecated": null, "deprecation_reasons": null, "last_updated": null, "origins": null, "warnings": null, "structure": {"@module": "pymatgen.core.structure", "@class": "Structure", "charge": 0, "lattice": {"matrix": [[5.04827121, 1.44e-06, 0.0], [-2.52413518, 4.37186048, 0.0], [0.0, 0.0, 4.11934544]], "pbc": [true, true, true], "a": 5.048271210000205, "b": 5.048209827602203, "c": 4.11934544, "alpha": 90.0, "beta": 90.0, "gamma": 120.00038031198166, "volume": 90.91535868148617}, "properties": {}, "sites": [{"species": [{"element": "Co", "occu": 1}], "abc": [0.8369177600000001, 0.67383114, 0.25], "properties": {"magmom": 0.8290000000000001}, "label": "Co", "xyz": [2.5241469470921847, 2.9458969363209215, 1.02983636]}, {"species": [{"element": "Co", "occu": 1}], "abc": [0.16308833, 0.83692027, 0.75], "properties": {"magmom": 0.8290000000000001}, "label": "Co", "xyz": [-1.2891857753361196, 3.6588988881711244, 3.08950908]}, {"species": [{"element": "Co", "occu": 1}], "abc": [0.67382964, 0.83692091, 0.75], "properties": {"magmom": 0.8290000000000001}, "label": "Co", "xyz": [1.289173260248051, 3.658902421629318, 3.08950908]}, {"species": [{"element": "Co", "occu": 1}], "abc": [0.32617036, 0.16307909, 0.25], "properties": {"magmom": 0.8290000000000001}, "label": "Co", "xyz": [1.2349627697519492, 0.7129594983706816, 1.02983636]}, {"species": [{"element": "Co", "occu": 1}], "abc": [0.83691167, 0.16307973, 0.25], "properties": {"magmom": 0.8290000000000001}, "label": "Co", "xyz": [3.8133218053361193, 0.7129630318288751, 1.02983636]}, {"species": [{"element": "Co", "occu": 1}], "abc": [0.16308224000000002, 0.32616886, 0.75], "properties": {"magmom": 0.8290000000000001}, "label": "Co", "xyz": [-1.0917092184259403e-05, 1.4259649836790782, 3.08950908]}, {"species": [{"element": "Mo", "occu": 1}], "abc": [0.33333723, 0.66667982, 0.25], "properties": {"magmom": -0.42}, "label": "Mo", "xyz": [-1.3246027919411318e-05, 2.914631637877125, 1.02983636]}, {"species": [{"element": "Mo", "occu": 1}], "abc": [0.66666277, 0.33332018, 0.75], "properties": {"magmom": -0.42}, "label": "Mo", "xyz": [2.524149276027919, 1.4572302821228753, 3.08950908]}]}, "task_ids": null, "uncorrected_energy_per_atom": null, "energy_per_atom": -16.31768153875, "formation_energy_per_atom": 0.125986668749998, "energy_above_hull": 0.125986668749998, "is_stable": false, "equilibrium_reaction_energy_per_atom": null, "decomposes_to": null, "xas": null, "grain_boundaries": null, "band_gap": 0.0, "cbm": null, "vbm": null, "efermi": 6.90188302, "is_gap_direct": null, "is_metal": null, "es_source_calc_id": null, "bandstructure": null, "dos": null, "dos_energy_up": null, "dos_energy_down": null, "is_magnetic": null, "ordering": null, "total_magnetization": 3.9539311, "total_magnetization_normalized_vol": null, "total_magnetization_normalized_formula_units": null, "num_magnetic_sites": null, "num_unique_magnetic_sites": null, "types_of_magnetic_species": null, "bulk_modulus": null, "shear_modulus": null, "universal_anisotropy": null, "homogeneous_poisson": null, "e_total": null, "e_ionic": null, "e_electronic": null, "n": null, "e_ij_max": null, "weighted_surface_energy_EV_PER_ANG2": null, "weighted_surface_energy": null, "weighted_work_function": null, "surface_anisotropy": null, "shape_factor": null, "has_reconstructed": null, "possible_species": null, "has_props": null, "theoretical": null, "database_IDs": null, "fields_not_requested": ["builder_meta", "nsites", "elements", "nelements", "composition", "composition_reduced", "chemsys", "symmetry", "property_name", "deprecated", "deprecation_reasons", "last_updated", "origins", "warnings", "task_ids", "uncorrected_energy_per_atom", "equilibrium_reaction_energy_per_atom", "decomposes_to", "xas", "grain_boundaries", "cbm", "vbm", "is_gap_direct", "is_metal", "es_source_calc_id", "bandstructure", "dos", "dos_energy_up", "dos_energy_down", "is_magnetic", "ordering", "total_magnetization_normalized_vol", "total_magnetization_normalized_formula_units", "num_magnetic_sites", "num_unique_magnetic_sites", "types_of_magnetic_species", "bulk_modulus", "shear_modulus", "universal_anisotropy", "homogeneous_poisson", "e_total", "e_ionic", "e_electronic", "n", "e_ij_max", "weighted_surface_energy_EV_PER_ANG2", "weighted_surface_energy", "weighted_work_function", "surface_anisotropy", "shape_factor", "has_reconstructed", "possible_species", "has_props", "theoretical", "database_IDs"]}