{
  "builder_meta": null,
  "nsites": null,
  "elements": null,
  "nelements": null,
  "composition": null,
  "composition_reduced": null,
  "formula_pretty": "Co3Ni",
  "formula_anonymous": "AB3",
  "chemsys": null,
  "volume": 84.7416530296993,
  "density": 9.229116674551973,
  "density_atomic": 10.592706628712412,
  "symmetry": null,
  "property_name": null,
  "material_id": "mp-1183837",
  "deprecated": null,
  "deprecation_reasons": null,
  "last_updated": null,
  "origins": null,
  "warnings": null,
  "structure": {
    "@module": "pymatgen.core.structure",
    "@class": "Structure",
    "charge": 0,
    "lattice": {
      "matrix": [
        [4.94588831, 2.8100000000000002e-5, 1e-8],
        [-2.47292019, 4.28328374, 6.000000000000001e-8],
        [1e-8, 6.000000000000001e-8, 4.00013232]
      ],
      "pbc": [true, true, true],
      "a": 4.945888310079824,
      "b": 4.945892625548802,
      "c": 4.0001323200000005,
      "alpha": 89.99999863227355,
      "beta": 89.99999974091514,
      "gamma": 119.99932504021785,
      "volume": 84.74165302969931
    },
    "properties": {},
    "sites": [
      {
        "species": [{ "element": "Co", "occu": 1 }],
        "abc": [0.16499813, 0.3299995, 0.249999399999999],
        "properties": { "magmom": 1.875 },
        "label": "Co",
        "xyz": [-1.0140105076787344e-7, 1.413486144005547, 1.0000307013705554]
      },
      {
        "species": [{ "element": "Co", "occu": 1 }],
        "abc": [0.83500241, 0.16500312, 0.7499995700000001],
        "properties": { "magmom": 1.875 },
        "label": "Co",
        "xyz": [3.72178911907983, 0.706778689512964, 3.0000975381933133]
      },
      {
        "species": [{ "element": "Co", "occu": 1 }],
        "abc": [0.32999554000000003, 0.16499405, 0.74999954],
        "properties": { "magmom": 1.875 },
        "label": "Co",
        "xyz": [1.2241039736632633, 0.7067256494363934, 3.000097413138731]
      },
      {
        "species": [{ "element": "Co", "occu": 1 }],
        "abc": [0.83500332, 0.67000452, 0.74999958],
        "properties": { "magmom": 1.875 },
        "label": "Co",
        "xyz": [2.472965461799926, 2.8698429748357714, 3.0000976084947295]
      },
      {
        "species": [{ "element": "Co", "occu": 1 }],
        "abc": [0.16499966, 0.83500063, 0.24999942],
        "properties": { "magmom": 1.875 },
        "label": "Co",
        "xyz": [-1.248820024541751, 3.5765492728591672, 1.0000308116732888]
      },
      {
        "species": [{ "element": "Co", "occu": 1 }],
        "abc": [0.67000431, 0.83500428, 0.24999944000000002],
        "properties": { "magmom": 1.875 },
        "label": "Co",
        "xyz": [1.248867544230197, 3.5765790974754847, 1.0000308967262006]
      },
      {
        "species": [{ "element": "Ni", "occu": 1 }],
        "abc": [0.66666568, 0.33333294, 0.24999938],
        "properties": { "magmom": 0.724 },
        "label": "Ni",
        "xyz": [2.472948238572136, 1.4277783102139665, 1.0000306265845946]
      },
      {
        "species": [{ "element": "Ni", "occu": 1 }],
        "abc": [0.33333495, 0.66666895, 0.74999967],
        "properties": { "magmom": 0.724 },
        "label": "Ni",
        "xyz": [1.8333518330658416e-5, 2.855541685209948, 3.0000979632898206]
      }
    ]
  },
  "task_ids": null,
  "uncorrected_energy_per_atom": null,
  "energy_per_atom": -12.94431631875,
  "formation_energy_per_atom": -0.023213681249998,
  "energy_above_hull": 0.0,
  "is_stable": true,
  "equilibrium_reaction_energy_per_atom": null,
  "decomposes_to": null,
  "xas": null,
  "grain_boundaries": null,
  "band_gap": 0.0,
  "cbm": null,
  "vbm": null,
  "efermi": 6.17925473,
  "is_gap_direct": null,
  "is_metal": null,
  "es_source_calc_id": null,
  "bandstructure": null,
  "dos": null,
  "dos_energy_up": null,
  "dos_energy_down": null,
  "is_magnetic": null,
  "ordering": null,
  "total_magnetization": 12.1604263,
  "total_magnetization_normalized_vol": null,
  "total_magnetization_normalized_formula_units": null,
  "num_magnetic_sites": null,
  "num_unique_magnetic_sites": null,
  "types_of_magnetic_species": null,
  "bulk_modulus": null,
  "shear_modulus": null,
  "universal_anisotropy": null,
  "homogeneous_poisson": null,
  "e_total": null,
  "e_ionic": null,
  "e_electronic": null,
  "n": null,
  "e_ij_max": null,
  "weighted_surface_energy_EV_PER_ANG2": null,
  "weighted_surface_energy": null,
  "weighted_work_function": null,
  "surface_anisotropy": null,
  "shape_factor": null,
  "has_reconstructed": null,
  "possible_species": null,
  "has_props": null,
  "theoretical": null,
  "database_IDs": null,
  "fields_not_requested": [
    "builder_meta",
    "nsites",
    "elements",
    "nelements",
    "composition",
    "composition_reduced",
    "chemsys",
    "symmetry",
    "property_name",
    "deprecated",
    "deprecation_reasons",
    "last_updated",
    "origins",
    "warnings",
    "task_ids",
    "uncorrected_energy_per_atom",
    "equilibrium_reaction_energy_per_atom",
    "decomposes_to",
    "xas",
    "grain_boundaries",
    "cbm",
    "vbm",
    "is_gap_direct",
    "is_metal",
    "es_source_calc_id",
    "bandstructure",
    "dos",
    "dos_energy_up",
    "dos_energy_down",
    "is_magnetic",
    "ordering",
    "total_magnetization_normalized_vol",
    "total_magnetization_normalized_formula_units",
    "num_magnetic_sites",
    "num_unique_magnetic_sites",
    "types_of_magnetic_species",
    "bulk_modulus",
    "shear_modulus",
    "universal_anisotropy",
    "homogeneous_poisson",
    "e_total",
    "e_ionic",
    "e_electronic",
    "n",
    "e_ij_max",
    "weighted_surface_energy_EV_PER_ANG2",
    "weighted_surface_energy",
    "weighted_work_function",
    "surface_anisotropy",
    "shape_factor",
    "has_reconstructed",
    "possible_species",
    "has_props",
    "theoretical",
    "database_IDs"
  ]
}
