{
  "builder_meta": null,
  "nsites": null,
  "elements": null,
  "nelements": null,
  "composition": null,
  "composition_reduced": null,
  "formula_pretty": "Co3N",
  "formula_anonymous": "AB3",
  "chemsys": null,
  "volume": 76.37573899932461,
  "density": 8.29690932085424,
  "density_atomic": 9.546967374915576,
  "symmetry": null,
  "property_name": null,
  "material_id": "mp-1205986",
  "deprecated": null,
  "deprecation_reasons": null,
  "last_updated": null,
  "origins": null,
  "warnings": null,
  "structure": {
    "@module": "pymatgen.core.structure",
    "@class": "Structure",
    "charge": 0,
    "lattice": {
      "matrix": [
        [2.27081569, -3.93324035, -5.56e-6],
        [2.27083512, 3.93325169, 2.8730000000000004e-5],
        [2.283e-5, 1.9600000000000002e-5, 4.27553606]
      ],
      "pbc": [true, true, true],
      "a": 4.541693907436873,
      "b": 4.541713443177441,
      "c": 4.275536060105878,
      "alpha": 89.99925712093356,
      "beta": 90.00014464196688,
      "gamma": 120.00077009229818,
      "volume": 76.37573899932461
    },
    "properties": {},
    "sites": [
      {
        "species": [{ "element": "Co", "occu": 1 }],
        "abc": [0.32366487, 6.11e-6, 6e-7],
        "properties": { "magmom": 1.292 },
        "label": "Co",
        "xyz": [0.7349971399140915, -1.2730276943819185, 7.659204990999999e-7]
      },
      {
        "species": [{ "element": "Co", "occu": 1 }],
        "abc": [1.51e-6, 0.32367026, -1.0740000000000002e-5],
        "properties": { "magmom": 1.292 },
        "label": "Co",
        "xyz": [0.7350052223940289, 1.2730706577443067, -3.6620219110200014e-5]
      },
      {
        "species": [{ "element": "Co", "occu": 1 }],
        "abc": [0.67631021, -7.44e-6, 0.49999227],
        "properties": { "magmom": 1.292 },
        "label": "Co",
        "xyz": [1.5357703559854263, -2.6601100706330554, 2.137731219607738]
      },
      {
        "species": [{ "element": "Co", "occu": 1 }],
        "abc": [0.67631953, 0.67632404, 1.3170000000000001e-5],
        "properties": { "magmom": 1.292 },
        "label": "Co",
        "xyz": [3.071617383010382, 2.540868672377772e-5, 7.197926299260001e-5]
      },
      {
        "species": [{ "element": "Co", "occu": 1 }],
        "abc": [-1.0940000000000002e-5, 0.67631209, 0.5000207],
        "properties": { "magmom": 1.292 },
        "label": "Co",
        "xyz": [1.5357798188015332, 2.660158501015081, 2.137875964103614]
      },
      {
        "species": [{ "element": "Co", "occu": 1 }],
        "abc": [0.32368098, 0.32368436, 0.49998975],
        "properties": { "magmom": 1.292 },
        "label": "Co",
        "xyz": [1.470065075187292, 2.6764732125276355e-5, 2.137731705540799]
      },
      {
        "species": [{ "element": "N", "occu": 1 }],
        "abc": [0.33335725, 0.6666685800000001, 0.2499786],
        "properties": { "magmom": -0.044 },
        "label": "N",
        "xyz": [2.2708930055512204, 1.311006031870423, 1.0688098184503094]
      },
      {
        "species": [{ "element": "N", "occu": 1 }],
        "abc": [0.66667559, 0.33334301, 0.75001565],
        "properties": { "magmom": -0.044 },
        "label": "N",
        "xyz": [2.270881526883808, -1.3110586732091298, 3.206724827367736]
      }
    ]
  },
  "task_ids": null,
  "uncorrected_energy_per_atom": null,
  "energy_per_atom": -12.04871986875,
  "formation_energy_per_atom": 0.159141146562499,
  "energy_above_hull": 0.159141146562499,
  "is_stable": false,
  "equilibrium_reaction_energy_per_atom": null,
  "decomposes_to": null,
  "xas": null,
  "grain_boundaries": null,
  "band_gap": 0.0,
  "cbm": null,
  "vbm": null,
  "efermi": 6.08898307,
  "is_gap_direct": null,
  "is_metal": null,
  "es_source_calc_id": null,
  "bandstructure": null,
  "dos": null,
  "dos_energy_up": null,
  "dos_energy_down": null,
  "is_magnetic": null,
  "ordering": null,
  "total_magnetization": 7.3738857,
  "total_magnetization_normalized_vol": null,
  "total_magnetization_normalized_formula_units": null,
  "num_magnetic_sites": null,
  "num_unique_magnetic_sites": null,
  "types_of_magnetic_species": null,
  "bulk_modulus": null,
  "shear_modulus": null,
  "universal_anisotropy": null,
  "homogeneous_poisson": null,
  "e_total": null,
  "e_ionic": null,
  "e_electronic": null,
  "n": null,
  "e_ij_max": null,
  "weighted_surface_energy_EV_PER_ANG2": null,
  "weighted_surface_energy": null,
  "weighted_work_function": null,
  "surface_anisotropy": null,
  "shape_factor": null,
  "has_reconstructed": null,
  "possible_species": null,
  "has_props": null,
  "theoretical": null,
  "database_IDs": null,
  "fields_not_requested": [
    "builder_meta",
    "nsites",
    "elements",
    "nelements",
    "composition",
    "composition_reduced",
    "chemsys",
    "symmetry",
    "property_name",
    "deprecated",
    "deprecation_reasons",
    "last_updated",
    "origins",
    "warnings",
    "task_ids",
    "uncorrected_energy_per_atom",
    "equilibrium_reaction_energy_per_atom",
    "decomposes_to",
    "xas",
    "grain_boundaries",
    "cbm",
    "vbm",
    "is_gap_direct",
    "is_metal",
    "es_source_calc_id",
    "bandstructure",
    "dos",
    "dos_energy_up",
    "dos_energy_down",
    "is_magnetic",
    "ordering",
    "total_magnetization_normalized_vol",
    "total_magnetization_normalized_formula_units",
    "num_magnetic_sites",
    "num_unique_magnetic_sites",
    "types_of_magnetic_species",
    "bulk_modulus",
    "shear_modulus",
    "universal_anisotropy",
    "homogeneous_poisson",
    "e_total",
    "e_ionic",
    "e_electronic",
    "n",
    "e_ij_max",
    "weighted_surface_energy_EV_PER_ANG2",
    "weighted_surface_energy",
    "weighted_work_function",
    "surface_anisotropy",
    "shape_factor",
    "has_reconstructed",
    "possible_species",
    "has_props",
    "theoretical",
    "database_IDs"
  ]
}
