{"builder_meta": null, "nsites": null, "elements": null, "nelements": null, "composition": null, "composition_reduced": null, "formula_pretty": "Co3O4", "formula_anonymous": "A3B4", "chemsys": null, "volume": 144.75003821314965, "density": 5.524739582189392, "density_atomic": 10.339288443796404, "symmetry": null, "property_name": null, "material_id": "mp-1271793", "deprecated": null, "deprecation_reasons": null, "last_updated": null, "origins": null, "warnings": null, "structure": {"@module": "pymatgen.core.structure", "@class": "Structure", "charge": 0, "lattice": {"matrix": [[1.71995, 4.786167, 2.948723], [-0.024395, -0.016124, 5.939464], [5.084095, 0.027319, 2.947839]], "pbc": [true, true, true], "a": 5.878825553213669, "b": 5.939535984123423, "c": 5.876948448532366, "alpha": 60.130800104733986, "beta": 59.43785376668775, "gamma": 60.12127288286948, "volume": 144.75003821314965}, "properties": {}, "sites": [{"species": [{"element": "Co", "occu": 1}], "abc": [0.625, 0.625, 0.625], "properties": {"magmom": 0.101}, "label": "Co", "xyz": [4.23728125, 2.99835125, 7.397516250000001]}, {"species": [{"element": "Co", "occu": 1}], "abc": [0.625, 0.625, 0.125], "properties": {"magmom": 0.108}, "label": "Co", "xyz": [1.6952337499999999, 2.9846917499999996, 5.923596750000001]}, {"species": [{"element": "Co", "occu": 1}], "abc": [0.125, 0.625, 0.625], "properties": {"magmom": 0.107}, "label": "Co", "xyz": [3.3773062499999997, 0.60526775, 5.92315475]}, {"species": [{"element": "Co", "occu": 1}], "abc": [0.254083, 0.24150000000000002, 0.254168], "properties": {"magmom": 2.6390000000000002}, "label": "Co", "xyz": [1.72333292131, 1.219133339453, 2.932847284961]}, {"species": [{"element": "Co", "occu": 1}], "abc": [0.995916999999999, 0.008501, 0.995830999999999], "properties": {"magmom": 2.6390000000000002}, "label": "Co", "xyz": [6.775619470199993, 4.793693117103995, 5.922724206663995]}, {"species": [{"element": "Co", "occu": 1}], "abc": [0.625, 0.125, 0.625], "properties": {"magmom": 0.089}, "label": "Co", "xyz": [4.24947875, 3.0064132499999996, 4.42778425]}, {"species": [{"element": "O", "occu": 1}], "abc": [0.389422999999999, 0.844758, 0.38997000000000004], "properties": {"magmom": 0.019}, "label": "O", "xyz": [2.6318247445899985, 1.8608762240789953, 7.3152790613709975]}, {"species": [{"element": "O", "occu": 1}], "abc": [0.403497999999999, 0.878560999999999, 0.857124999999999], "properties": {"magmom": 0.019}, "label": "O", "xyz": [5.030268816379993, 1.9404586924769953, 8.934651767232989]}, {"species": [{"element": "O", "occu": 1}], "abc": [0.392429, 0.371481, 0.846588999999999], "properties": {"magmom": 0.019}, "label": "O", "xyz": [4.970034881509995, 1.8953689348899998, 5.859170515521997]}, {"species": [{"element": "O", "occu": 1}], "abc": [0.846502, 0.371438, 0.392874], "properties": {"magmom": 0.019}, "label": "O", "xyz": [3.4442886239200003, 4.056243796327999, 5.860371845464001]}, {"species": [{"element": "O", "occu": 1}], "abc": [0.391546, 0.372928, 0.39149], "properties": {"magmom": 0.018000000000000002}, "label": "O", "xyz": [2.6547143156899997, 1.8786865684199998, 4.52360261646]}, {"species": [{"element": "O", "occu": 1}], "abc": [0.857571, 0.8785200000000001, 0.403410999999999], "properties": {"magmom": 0.019}, "label": "O", "xyz": [3.504527594094995, 4.101333548986, 8.935867923941997]}, {"species": [{"element": "O", "occu": 1}], "abc": [0.860576999999999, 0.405242999999999, 0.8600300000000001], "properties": {"magmom": 0.019}, "label": "O", "xyz": [5.842737731014998, 4.135826259796995, 7.479759378092993]}, {"species": [{"element": "O", "occu": 1}], "abc": [0.858453999999999, 0.877072, 0.8585100000000001], "properties": {"magmom": 0.018000000000000002}, "label": "O", "xyz": [5.819848184309999, 4.118015931579995, 10.271429883539998]}]}, "task_ids": null, "uncorrected_energy_per_atom": null, "energy_per_atom": -7.174923107142857, "formation_energy_per_atom": -1.290338224285714, "energy_above_hull": 0.0, "is_stable": true, "equilibrium_reaction_energy_per_atom": null, "decomposes_to": null, "xas": null, "grain_boundaries": null, "band_gap": 0.0, "cbm": null, "vbm": null, "efermi": 3.16488116, "is_gap_direct": null, "is_metal": null, "es_source_calc_id": null, "bandstructure": null, "dos": null, "dos_energy_up": null, "dos_energy_down": null, "is_magnetic": null, "ordering": null, "total_magnetization": 5.9998429, "total_magnetization_normalized_vol": null, "total_magnetization_normalized_formula_units": null, "num_magnetic_sites": null, "num_unique_magnetic_sites": null, "types_of_magnetic_species": null, "bulk_modulus": null, "shear_modulus": null, "universal_anisotropy": null, "homogeneous_poisson": null, "e_total": null, "e_ionic": null, "e_electronic": null, "n": null, "e_ij_max": null, "weighted_surface_energy_EV_PER_ANG2": null, "weighted_surface_energy": null, "weighted_work_function": null, "surface_anisotropy": null, "shape_factor": null, "has_reconstructed": null, "possible_species": null, "has_props": null, "theoretical": null, "database_IDs": null, "fields_not_requested": ["builder_meta", "nsites", "elements", "nelements", "composition", "composition_reduced", "chemsys", "symmetry", "property_name", "deprecated", "deprecation_reasons", "last_updated", "origins", "warnings", "task_ids", "uncorrected_energy_per_atom", "equilibrium_reaction_energy_per_atom", "decomposes_to", "xas", "grain_boundaries", "cbm", "vbm", "is_gap_direct", "is_metal", "es_source_calc_id", "bandstructure", "dos", "dos_energy_up", "dos_energy_down", "is_magnetic", "ordering", "total_magnetization_normalized_vol", "total_magnetization_normalized_formula_units", "num_magnetic_sites", "num_unique_magnetic_sites", "types_of_magnetic_species", "bulk_modulus", "shear_modulus", "universal_anisotropy", "homogeneous_poisson", "e_total", "e_ionic", "e_electronic", "n", "e_ij_max", "weighted_surface_energy_EV_PER_ANG2", "weighted_surface_energy", "weighted_work_function", "surface_anisotropy", "shape_factor", "has_reconstructed", "possible_species", "has_props", "theoretical", "database_IDs"]}