{
  "builder_meta": null,
  "nsites": null,
  "elements": null,
  "nelements": null,
  "composition": null,
  "composition_reduced": null,
  "formula_pretty": "Co3Pt",
  "formula_anonymous": "AB3",
  "chemsys": null,
  "volume": 96.06905639314043,
  "density": 12.855902707999423,
  "density_atomic": 12.008632049142554,
  "symmetry": null,
  "property_name": null,
  "material_id": "mp-865193",
  "deprecated": null,
  "deprecation_reasons": null,
  "last_updated": null,
  "origins": null,
  "warnings": null,
  "structure": {
    "@module": "pymatgen.core.structure",
    "@class": "Structure",
    "charge": 0,
    "lattice": {
      "matrix": [
        [5.19215023, 5.5010000000000024e-5, 3.079999999999999e-6],
        [-2.59608009, 4.49787762, 3.68e-6],
        [5.269999999999999e-6, 1.4710000000000001e-5, 4.11363718]
      ],
      "pbc": [true, true, true],
      "a": 5.192150230292325,
      "b": 5.193316369932108,
      "c": 4.113637180029676,
      "alpha": 89.99981864437412,
      "beta": 89.99989260789752,
      "gamma": 119.99202868030497,
      "volume": 96.06905639314043
    },
    "properties": {},
    "sites": [
      {
        "species": [{ "element": "Co", "occu": 1 }],
        "abc": [0.15652262, 0.31307548, 0.25000007],
        "properties": { "magmom": 1.982 },
        "label": "Co",
        "xyz": [-7.874536162168188e-5, 1.4081874826731136, 1.0284112171620385]
      },
      {
        "species": [{ "element": "Co", "occu": 1 }],
        "abc": [0.68669359, 0.84347671, 0.25000126],
        "properties": { "magmom": 1.980999999999999 },
        "label": "Co",
        "xyz": [1.375684505554962, 3.7938964694331503, 1.0284196971933965]
      },
      {
        "species": [{ "element": "Co", "occu": 1 }],
        "abc": [0.15676866, 0.84345415, 0.25000055],
        "properties": { "magmom": 1.980999999999999 },
        "label": "Co",
        "xyz": [-1.3757067740641833, 3.7937658461331996, 1.0284151442591938]
      },
      {
        "species": [{ "element": "Co", "occu": 1 }],
        "abc": [0.8434733400000001, 0.68692339, 0.74999865],
        "properties": { "magmom": 1.982 },
        "label": "Co",
        "xyz": [2.596136112638449, 3.0897547744841063, 3.085227457365769]
      },
      {
        "species": [{ "element": "Co", "occu": 1 }],
        "abc": [0.31331154, 0.1565268, 0.75000395],
        "properties": { "magmom": 1.980999999999999 },
        "label": "Co",
        "xyz": [1.2204084279620586, 0.7040666584761358, 3.085245674885028]
      },
      {
        "species": [{ "element": "Co", "occu": 1 }],
        "abc": [0.84323709, 0.15654122, 0.7500012500000001],
        "properties": { "magmom": 1.980999999999999 },
        "label": "Co",
        "xyz": [3.9718240587883087, 0.7041606690362048, 3.085236200288402]
      },
      {
        "species": [{ "element": "Pt", "occu": 1 }],
        "abc": [0.3332542, 0.6664917, 0.74999902],
        "properties": { "magmom": 0.265 },
        "label": "Pt",
        "xyz": [4.3991153048293094e-5, 2.99782746614488, 3.085227332747955]
      },
      {
        "species": [{ "element": "Pt", "occu": 1 }],
        "abc": [0.6667429500000001, 0.33351454, 0.25000625],
        "properties": { "magmom": 0.265 },
        "label": "Pt",
        "xyz": [2.596000421706808, 1.5001479405322116, 1.0284382861341679]
      }
    ]
  },
  "task_ids": null,
  "uncorrected_energy_per_atom": null,
  "energy_per_atom": -6.943582713750001,
  "formation_energy_per_atom": -0.075736843749999,
  "energy_above_hull": 0.0,
  "is_stable": true,
  "equilibrium_reaction_energy_per_atom": null,
  "decomposes_to": null,
  "xas": null,
  "grain_boundaries": null,
  "band_gap": 0.0,
  "cbm": null,
  "vbm": null,
  "efermi": 6.02744082,
  "is_gap_direct": null,
  "is_metal": null,
  "es_source_calc_id": null,
  "bandstructure": null,
  "dos": null,
  "dos_energy_up": null,
  "dos_energy_down": null,
  "is_magnetic": null,
  "ordering": null,
  "total_magnetization": 12.0642663,
  "total_magnetization_normalized_vol": null,
  "total_magnetization_normalized_formula_units": null,
  "num_magnetic_sites": null,
  "num_unique_magnetic_sites": null,
  "types_of_magnetic_species": null,
  "bulk_modulus": null,
  "shear_modulus": null,
  "universal_anisotropy": null,
  "homogeneous_poisson": null,
  "e_total": null,
  "e_ionic": null,
  "e_electronic": null,
  "n": null,
  "e_ij_max": null,
  "weighted_surface_energy_EV_PER_ANG2": null,
  "weighted_surface_energy": null,
  "weighted_work_function": null,
  "surface_anisotropy": null,
  "shape_factor": null,
  "has_reconstructed": null,
  "possible_species": null,
  "has_props": null,
  "theoretical": null,
  "database_IDs": null,
  "fields_not_requested": [
    "builder_meta",
    "nsites",
    "elements",
    "nelements",
    "composition",
    "composition_reduced",
    "chemsys",
    "symmetry",
    "property_name",
    "deprecated",
    "deprecation_reasons",
    "last_updated",
    "origins",
    "warnings",
    "task_ids",
    "uncorrected_energy_per_atom",
    "equilibrium_reaction_energy_per_atom",
    "decomposes_to",
    "xas",
    "grain_boundaries",
    "cbm",
    "vbm",
    "is_gap_direct",
    "is_metal",
    "es_source_calc_id",
    "bandstructure",
    "dos",
    "dos_energy_up",
    "dos_energy_down",
    "is_magnetic",
    "ordering",
    "total_magnetization_normalized_vol",
    "total_magnetization_normalized_formula_units",
    "num_magnetic_sites",
    "num_unique_magnetic_sites",
    "types_of_magnetic_species",
    "bulk_modulus",
    "shear_modulus",
    "universal_anisotropy",
    "homogeneous_poisson",
    "e_total",
    "e_ionic",
    "e_electronic",
    "n",
    "e_ij_max",
    "weighted_surface_energy_EV_PER_ANG2",
    "weighted_surface_energy",
    "weighted_work_function",
    "surface_anisotropy",
    "shape_factor",
    "has_reconstructed",
    "possible_species",
    "has_props",
    "theoretical",
    "database_IDs"
  ]
}
