{"builder_meta": null, "nsites": null, "elements": null, "nelements": null, "composition": null, "composition_reduced": null, "formula_pretty": "Co3P", "formula_anonymous": "AB3", "chemsys": null, "volume": 172.46138987283362, "density": 8.002156539411844, "density_atomic": 10.778836867052101, "symmetry": null, "property_name": null, "material_id": "mp-1213762", "deprecated": null, "deprecation_reasons": null, "last_updated": null, "origins": null, "warnings": null, "structure": {"@module": "pymatgen.core.structure", "@class": "Structure", "charge": 0, "lattice": {"matrix": [[-4.441724, 4.441724, 2.185389], [4.441724, -4.441724, 2.185389], [4.441724, 4.441724, -2.185389]], "pbc": [true, true, true], "a": 6.650845755666944, "b": 6.650845755666944, "c": 6.650845755666944, "alpha": 96.19831749486767, "beta": 96.19831749486767, "gamma": 141.63379320922365, "volume": 172.46138987283362}, "properties": {}, "sites": [{"species": [{"element": "Co", "occu": 1}], "abc": [0.466215999999999, 0.07968, 0.049541999999999004], "properties": {"magmom": 1.009}, "label": "Co", "xyz": [-1.496834337656, 1.9369381184719912, 1.084726571706]}, {"species": [{"element": "Co", "occu": 1}], "abc": [0.030137999999999002, 0.416674, 0.950457999999999], "properties": {"magmom": 1.008}, "label": "Co", "xyz": [5.938558337656, 2.5047858815279915, -1.1006624282939996]}, {"species": [{"element": "Co", "occu": 1}], "abc": [0.583326, 0.533783999999999, 0.613464], "properties": {"magmom": 1.007}, "label": "Co", "xyz": [2.5047858815279955, 2.9448896623440044, 1.1006624282939979]}, {"species": [{"element": "Co", "occu": 1}], "abc": [0.92032, 0.969862, 0.386536], "properties": {"magmom": 1.008}, "label": "Co", "xyz": [1.9369381184719994, 1.4968343376560003, 3.2860514282939994]}, {"species": [{"element": "Co", "occu": 1}], "abc": [0.06256, 0.665497999999999, 0.670407], "properties": {"magmom": 0.58}, "label": "Co", "xyz": [5.6558470467799955, 0.2996786765560042, 0.1259898612389978]}, {"species": [{"element": "Co", "occu": 1}], "abc": [0.99509, 0.392153, 0.329592999999999], "properties": {"magmom": 0.581}, "label": "Co", "xyz": [-1.2141186050560047, 4.142040881719996, 2.311376675850002]}, {"species": [{"element": "Co", "occu": 1}], "abc": [0.607847, 0.93744, 0.602938], "properties": {"magmom": 0.583}, "label": "Co", "xyz": [4.142045323444, 1.2141230467799993, 2.059399138761]}, {"species": [{"element": "Co", "occu": 1}], "abc": [0.334501999999999, 0.00491, 0.397061999999999], "properties": {"magmom": 0.585}, "label": "Co", "xyz": [0.29968311827999994, 3.227596511495991, -0.12598767585000004]}, {"species": [{"element": "Co", "occu": 1}], "abc": [0.661762, 0.848171999999999, 0.974858], "properties": {"magmom": 1.401}, "label": "Co", "xyz": [5.158031946031995, 3.502068404352004, 1.1693492045639977]}, {"species": [{"element": "Co", "occu": 1}], "abc": [0.873313999999999, 0.686904, 0.025141999999999002], "properties": {"magmom": 1.401}, "label": "Co", "xyz": [-0.7163079460320001, 0.9396555956479913, 3.3547382045639997]}, {"species": [{"element": "Co", "occu": 1}], "abc": [0.313096, 0.338238, 0.18641000000000002], "properties": {"magmom": 1.4020000000000001}, "label": "Co", "xyz": [0.939655595648, 0.716307946032, 1.0160397954359999]}, {"species": [{"element": "Co", "occu": 1}], "abc": [0.151828, 0.126686, 0.81359], "properties": {"magmom": 1.4020000000000001}, "label": "Co", "xyz": [3.5020684043520003, 3.725416053968, -1.169349204564]}, {"species": [{"element": "P", "occu": 1}], "abc": [0.471174999999999, 0.809479, 0.244402999999999], "properties": {"magmom": -0.02}, "label": "P", "xyz": [2.588223666868, -0.4170823253240086, 2.264611536639]}, {"species": [{"element": "P", "occu": 1}], "abc": [0.565076999999999, 0.226772, 0.755597], "properties": {"magmom": -0.02}, "label": "P", "xyz": [1.8534958914080037, 4.858810767047995, 0.07922472202799802]}, {"species": [{"element": "P", "occu": 1}], "abc": [0.773227999999999, 0.528825, 0.338304], "properties": {"magmom": -0.02}, "label": "P", "xyz": [0.41708232532400413, 2.5882236668679957, 2.1061664633609976]}, {"species": [{"element": "P", "occu": 1}], "abc": [0.190521, 0.434923, 0.661696], "properties": {"magmom": -0.02}, "label": "P", "xyz": [4.024637232951999, 1.8535047748559996, -0.0792247220279998]}]}, "task_ids": null, "uncorrected_energy_per_atom": null, "energy_per_atom": -12.433368474374998, "formation_energy_per_atom": -0.257176048869045, "energy_above_hull": 0.047578091250001, "is_stable": false, "equilibrium_reaction_energy_per_atom": null, "decomposes_to": null, "xas": null, "grain_boundaries": null, "band_gap": 0.0, "cbm": null, "vbm": null, "efermi": 7.50656281, "is_gap_direct": null, "is_metal": null, "es_source_calc_id": null, "bandstructure": null, "dos": null, "dos_energy_up": null, "dos_energy_down": null, "is_magnetic": null, "ordering": null, "total_magnetization": 11.6229131, "total_magnetization_normalized_vol": null, "total_magnetization_normalized_formula_units": null, "num_magnetic_sites": null, "num_unique_magnetic_sites": null, "types_of_magnetic_species": null, "bulk_modulus": null, "shear_modulus": null, "universal_anisotropy": null, "homogeneous_poisson": null, "e_total": null, "e_ionic": null, "e_electronic": null, "n": null, "e_ij_max": null, "weighted_surface_energy_EV_PER_ANG2": null, "weighted_surface_energy": null, "weighted_work_function": null, "surface_anisotropy": null, "shape_factor": null, "has_reconstructed": null, "possible_species": null, "has_props": null, "theoretical": null, "database_IDs": null, "fields_not_requested": ["builder_meta", "nsites", "elements", "nelements", "composition", "composition_reduced", "chemsys", "symmetry", "property_name", "deprecated", "deprecation_reasons", "last_updated", "origins", "warnings", "task_ids", "uncorrected_energy_per_atom", "equilibrium_reaction_energy_per_atom", "decomposes_to", "xas", "grain_boundaries", "cbm", "vbm", "is_gap_direct", "is_metal", "es_source_calc_id", "bandstructure", "dos", "dos_energy_up", "dos_energy_down", "is_magnetic", "ordering", "total_magnetization_normalized_vol", "total_magnetization_normalized_formula_units", "num_magnetic_sites", "num_unique_magnetic_sites", "types_of_magnetic_species", "bulk_modulus", "shear_modulus", "universal_anisotropy", "homogeneous_poisson", "e_total", "e_ionic", "e_electronic", "n", "e_ij_max", "weighted_surface_energy_EV_PER_ANG2", "weighted_surface_energy", "weighted_work_function", "surface_anisotropy", "shape_factor", "has_reconstructed", "possible_species", "has_props", "theoretical", "database_IDs"]}