{"builder_meta": null, "nsites": null, "elements": null, "nelements": null, "composition": null, "composition_reduced": null, "formula_pretty": "Co3Rh", "formula_anonymous": "AB3", "chemsys": null, "volume": 46.79984553275974, "density": 9.924417815525743, "density_atomic": 11.699961383189935, "symmetry": null, "property_name": null, "material_id": "mp-1226422", "deprecated": null, "deprecation_reasons": null, "last_updated": null, "origins": null, "warnings": null, "structure": {"@module": "pymatgen.core.structure", "@class": "Structure", "charge": 0, "lattice": {"matrix": [[1.2885135, -2.2317987, 3.0000000000000004e-08], [1.28851367, 2.231798539999999, -4e-08], [-2e-08, -1.399999999999999e-07, 8.13711432]], "pbc": [true, true, true], "a": 2.577051120370712, "b": 2.5770510668054287, "c": 8.137114320000002, "alpha": 90.00000181344902, "beta": 89.9999985497062, "gamma": 120.00061417850853, "volume": 46.799845532759726}, "properties": {}, "sites": [{"species": [{"element": "Co", "occu": 1}], "abc": [0.33333306, 0.66666694, 0.50001597], "properties": {"magmom": 1.873}, "label": "Co", "xyz": [1.2885136033330604, 0.743933943381009, 4.068687093049005]}, {"species": [{"element": "Co", "occu": 1}], "abc": [0.99999998, 1e-08, 0.26052661], "properties": {"magmom": 1.964}, "label": "Co", "xyz": [1.2885134819043347, -2.2317986695197662, 2.1199348389720543]}, {"species": [{"element": "Co", "occu": 1}], "abc": [1.00000001, 3.0000000000000004e-08, 0.73946733], "properties": {"magmom": 1.964}, "label": "Co", "xyz": [1.2885135367511986, -2.231798758889457, 6.017130230115164]}, {"species": [{"element": "Rh", "occu": 1}], "abc": [0.33333296, 0.66666702, 0.99999109], "properties": {"magmom": 0.602}, "label": "Rh", "xyz": [1.2885135675633017, 0.7439342751082454, 8.137041801644717]}]}, "task_ids": null, "uncorrected_energy_per_atom": null, "energy_per_atom": -15.90858266, "formation_energy_per_atom": 0.051147844999999005, "energy_above_hull": 0.051147844999999005, "is_stable": false, "equilibrium_reaction_energy_per_atom": null, "decomposes_to": null, "xas": null, "grain_boundaries": null, "band_gap": 0.0, "cbm": null, "vbm": null, "efermi": 5.5404146, "is_gap_direct": null, "is_metal": null, "es_source_calc_id": null, "bandstructure": null, "dos": null, "dos_energy_up": null, "dos_energy_down": null, "is_magnetic": null, "ordering": null, "total_magnetization": 6.162609, "total_magnetization_normalized_vol": null, "total_magnetization_normalized_formula_units": null, "num_magnetic_sites": null, "num_unique_magnetic_sites": null, "types_of_magnetic_species": null, "bulk_modulus": null, "shear_modulus": null, "universal_anisotropy": null, "homogeneous_poisson": null, "e_total": null, "e_ionic": null, "e_electronic": null, "n": null, "e_ij_max": null, "weighted_surface_energy_EV_PER_ANG2": null, "weighted_surface_energy": null, "weighted_work_function": null, "surface_anisotropy": null, "shape_factor": null, "has_reconstructed": null, "possible_species": null, "has_props": null, "theoretical": null, "database_IDs": null, "fields_not_requested": ["builder_meta", "nsites", "elements", "nelements", "composition", "composition_reduced", "chemsys", "symmetry", "property_name", "deprecated", "deprecation_reasons", "last_updated", "origins", "warnings", "task_ids", "uncorrected_energy_per_atom", "equilibrium_reaction_energy_per_atom", "decomposes_to", "xas", "grain_boundaries", "cbm", "vbm", "is_gap_direct", "is_metal", "es_source_calc_id", "bandstructure", "dos", "dos_energy_up", "dos_energy_down", "is_magnetic", "ordering", "total_magnetization_normalized_vol", "total_magnetization_normalized_formula_units", "num_magnetic_sites", "num_unique_magnetic_sites", "types_of_magnetic_species", "bulk_modulus", "shear_modulus", "universal_anisotropy", "homogeneous_poisson", "e_total", "e_ionic", "e_electronic", "n", "e_ij_max", "weighted_surface_energy_EV_PER_ANG2", "weighted_surface_energy", "weighted_work_function", "surface_anisotropy", "shape_factor", "has_reconstructed", "possible_species", "has_props", "theoretical", "database_IDs"]}