{
  "builder_meta": null,
  "nsites": null,
  "elements": null,
  "nelements": null,
  "composition": null,
  "composition_reduced": null,
  "formula_pretty": "Co3Ru",
  "formula_anonymous": "AB3",
  "chemsys": null,
  "volume": 92.23858152885136,
  "density": 10.004778774012337,
  "density_atomic": 11.52982269110642,
  "symmetry": null,
  "property_name": null,
  "material_id": "mp-1183807",
  "deprecated": null,
  "deprecation_reasons": null,
  "last_updated": null,
  "origins": null,
  "warnings": null,
  "structure": {
    "@module": "pymatgen.core.structure",
    "@class": "Structure",
    "charge": 0,
    "lattice": {
      "matrix": [
        [2.555306, -4.42592, 0.0],
        [2.555306, 4.42592, 0.0],
        [0.0, 0.0, 4.077896]
      ],
      "pbc": [true, true, true],
      "a": 5.110612155117623,
      "b": 5.110612155117623,
      "c": 4.077896,
      "alpha": 90.0,
      "beta": 90.0,
      "gamma": 120.00000200807635,
      "volume": 92.23858152885136
    },
    "properties": {},
    "sites": [
      {
        "species": [{ "element": "Co", "occu": 1 }],
        "abc": [0.163514, 0.327028, 0.25],
        "properties": { "magmom": 1.125 },
        "label": "Co",
        "xyz": [1.2534849158519998, 0.7236998828799999, 1.019474]
      },
      {
        "species": [{ "element": "Co", "occu": 1 }],
        "abc": [0.672972, 0.836486, 0.25],
        "properties": { "magmom": 1.127 },
        "label": "Co",
        "xyz": [3.857127084148, 0.7236998828799996, 1.019474]
      },
      {
        "species": [{ "element": "Co", "occu": 1 }],
        "abc": [0.163514, 0.836486, 0.25],
        "properties": { "magmom": 1.124 },
        "label": "Co",
        "xyz": [2.555306, 2.9785202342399995, 1.019474]
      },
      {
        "species": [{ "element": "Co", "occu": 1 }],
        "abc": [0.836486, 0.672972, 0.75],
        "properties": { "magmom": 1.124 },
        "label": "Co",
        "xyz": [3.857127084148, -0.7236998828799996, 3.058422]
      },
      {
        "species": [{ "element": "Co", "occu": 1 }],
        "abc": [0.327028, 0.163514, 0.75],
        "properties": { "magmom": 1.124 },
        "label": "Co",
        "xyz": [1.2534849158519998, -0.7236998828799999, 3.058422]
      },
      {
        "species": [{ "element": "Co", "occu": 1 }],
        "abc": [0.836486, 0.163514, 0.75],
        "properties": { "magmom": 1.121999999999999 },
        "label": "Co",
        "xyz": [2.555306, -2.9785202342399995, 3.058422]
      },
      {
        "species": [{ "element": "Ru", "occu": 1 }],
        "abc": [0.333333, 0.666667, 0.75],
        "properties": { "magmom": 0.386 },
        "label": "Ru",
        "xyz": [2.555306, 1.4753096172799998, 3.058422]
      },
      {
        "species": [{ "element": "Ru", "occu": 1 }],
        "abc": [0.666667, 0.333333, 0.25],
        "properties": { "magmom": 0.387 },
        "label": "Ru",
        "xyz": [2.555306, -1.4753096172799998, 1.019474]
      }
    ]
  },
  "task_ids": null,
  "uncorrected_energy_per_atom": null,
  "energy_per_atom": -16.1693335725,
  "formation_energy_per_atom": 0.11247359875000001,
  "energy_above_hull": 0.11247359875000001,
  "is_stable": false,
  "equilibrium_reaction_energy_per_atom": null,
  "decomposes_to": null,
  "xas": null,
  "grain_boundaries": null,
  "band_gap": 0.0,
  "cbm": null,
  "vbm": null,
  "efermi": 6.40619955,
  "is_gap_direct": null,
  "is_metal": null,
  "es_source_calc_id": null,
  "bandstructure": null,
  "dos": null,
  "dos_energy_up": null,
  "dos_energy_down": null,
  "is_magnetic": null,
  "ordering": null,
  "total_magnetization": 7.4301328,
  "total_magnetization_normalized_vol": null,
  "total_magnetization_normalized_formula_units": null,
  "num_magnetic_sites": null,
  "num_unique_magnetic_sites": null,
  "types_of_magnetic_species": null,
  "bulk_modulus": null,
  "shear_modulus": null,
  "universal_anisotropy": null,
  "homogeneous_poisson": null,
  "e_total": null,
  "e_ionic": null,
  "e_electronic": null,
  "n": null,
  "e_ij_max": null,
  "weighted_surface_energy_EV_PER_ANG2": null,
  "weighted_surface_energy": null,
  "weighted_work_function": null,
  "surface_anisotropy": null,
  "shape_factor": null,
  "has_reconstructed": null,
  "possible_species": null,
  "has_props": null,
  "theoretical": null,
  "database_IDs": null,
  "fields_not_requested": [
    "builder_meta",
    "nsites",
    "elements",
    "nelements",
    "composition",
    "composition_reduced",
    "chemsys",
    "symmetry",
    "property_name",
    "deprecated",
    "deprecation_reasons",
    "last_updated",
    "origins",
    "warnings",
    "task_ids",
    "uncorrected_energy_per_atom",
    "equilibrium_reaction_energy_per_atom",
    "decomposes_to",
    "xas",
    "grain_boundaries",
    "cbm",
    "vbm",
    "is_gap_direct",
    "is_metal",
    "es_source_calc_id",
    "bandstructure",
    "dos",
    "dos_energy_up",
    "dos_energy_down",
    "is_magnetic",
    "ordering",
    "total_magnetization_normalized_vol",
    "total_magnetization_normalized_formula_units",
    "num_magnetic_sites",
    "num_unique_magnetic_sites",
    "types_of_magnetic_species",
    "bulk_modulus",
    "shear_modulus",
    "universal_anisotropy",
    "homogeneous_poisson",
    "e_total",
    "e_ionic",
    "e_electronic",
    "n",
    "e_ij_max",
    "weighted_surface_energy_EV_PER_ANG2",
    "weighted_surface_energy",
    "weighted_work_function",
    "surface_anisotropy",
    "shape_factor",
    "has_reconstructed",
    "possible_species",
    "has_props",
    "theoretical",
    "database_IDs"
  ]
}
