{
  "builder_meta": null,
  "nsites": null,
  "elements": null,
  "nelements": null,
  "composition": null,
  "composition_reduced": null,
  "formula_pretty": "Co3Si",
  "formula_anonymous": "AB3",
  "chemsys": null,
  "volume": 85.2058699549065,
  "density": 7.985827454991447,
  "density_atomic": 10.650733744363313,
  "symmetry": null,
  "property_name": null,
  "material_id": "mp-1079393",
  "deprecated": null,
  "deprecation_reasons": null,
  "last_updated": null,
  "origins": null,
  "warnings": null,
  "structure": {
    "@module": "pymatgen.core.structure",
    "@class": "Structure",
    "charge": 0,
    "lattice": {
      "matrix": [
        [2.488235, -4.30975, 0.0],
        [2.488235, 4.30975, 0.0],
        [0.0, 0.0, 3.972794]
      ],
      "pbc": [true, true, true],
      "a": 4.976470483959993,
      "b": 4.976470483959993,
      "c": 3.972794,
      "alpha": 90.0,
      "beta": 90.0,
      "gamma": 120.00000643398468,
      "volume": 85.2058699549065
    },
    "properties": {},
    "sites": [
      {
        "species": [{ "element": "Co", "occu": 1 }],
        "abc": [0.832527999999999, 0.167471999999999, 0.25],
        "properties": { "magmom": 0.0 },
        "label": "Co",
        "xyz": [2.488234999999995, -2.8662250960000004, 0.9931985]
      },
      {
        "species": [{ "element": "Co", "occu": 1 }],
        "abc": [0.832527999999999, 0.665056, 0.25],
        "properties": { "magmom": 0.0 },
        "label": "Co",
        "xyz": [3.726340924239998, -0.7217624519999961, 0.9931985]
      },
      {
        "species": [{ "element": "Co", "occu": 1 }],
        "abc": [0.334943999999999, 0.167471999999999, 0.25],
        "properties": { "magmom": 0.0 },
        "label": "Co",
        "xyz": [1.250129075759995, -0.721762452, 0.9931985]
      },
      {
        "species": [{ "element": "Co", "occu": 1 }],
        "abc": [0.167471999999999, 0.832527999999999, 0.75],
        "properties": { "magmom": 0.0 },
        "label": "Co",
        "xyz": [2.488234999999995, 2.8662250960000004, 2.9795955]
      },
      {
        "species": [{ "element": "Co", "occu": 1 }],
        "abc": [0.167471999999999, 0.334943999999999, 0.75],
        "properties": { "magmom": 0.0 },
        "label": "Co",
        "xyz": [1.250129075759995, 0.721762452, 2.9795955]
      },
      {
        "species": [{ "element": "Co", "occu": 1 }],
        "abc": [0.665056, 0.832527999999999, 0.75],
        "properties": { "magmom": 0.0 },
        "label": "Co",
        "xyz": [3.726340924239998, 0.7217624519999961, 2.9795955]
      },
      {
        "species": [{ "element": "Si", "occu": 1 }],
        "abc": [0.333333, 0.666667, 0.25],
        "properties": { "magmom": -0.0 },
        "label": "Si",
        "xyz": [2.488235, 1.4365862065000004, 0.9931985]
      },
      {
        "species": [{ "element": "Si", "occu": 1 }],
        "abc": [0.666667, 0.333333, 0.75],
        "properties": { "magmom": -0.0 },
        "label": "Si",
        "xyz": [2.488235, -1.4365862065000004, 2.9795955]
      }
    ]
  },
  "task_ids": null,
  "uncorrected_energy_per_atom": null,
  "energy_per_atom": -12.29857157875,
  "formation_energy_per_atom": -0.1794570825,
  "energy_above_hull": 0.06883505937499901,
  "is_stable": false,
  "equilibrium_reaction_energy_per_atom": null,
  "decomposes_to": null,
  "xas": null,
  "grain_boundaries": null,
  "band_gap": 0.0,
  "cbm": null,
  "vbm": null,
  "efermi": 7.62811055,
  "is_gap_direct": null,
  "is_metal": null,
  "es_source_calc_id": null,
  "bandstructure": null,
  "dos": null,
  "dos_energy_up": null,
  "dos_energy_down": null,
  "is_magnetic": null,
  "ordering": null,
  "total_magnetization": 0.000323999999999,
  "total_magnetization_normalized_vol": null,
  "total_magnetization_normalized_formula_units": null,
  "num_magnetic_sites": null,
  "num_unique_magnetic_sites": null,
  "types_of_magnetic_species": null,
  "bulk_modulus": null,
  "shear_modulus": null,
  "universal_anisotropy": null,
  "homogeneous_poisson": null,
  "e_total": null,
  "e_ionic": null,
  "e_electronic": null,
  "n": null,
  "e_ij_max": null,
  "weighted_surface_energy_EV_PER_ANG2": null,
  "weighted_surface_energy": null,
  "weighted_work_function": null,
  "surface_anisotropy": null,
  "shape_factor": null,
  "has_reconstructed": null,
  "possible_species": null,
  "has_props": null,
  "theoretical": null,
  "database_IDs": null,
  "fields_not_requested": [
    "builder_meta",
    "nsites",
    "elements",
    "nelements",
    "composition",
    "composition_reduced",
    "chemsys",
    "symmetry",
    "property_name",
    "deprecated",
    "deprecation_reasons",
    "last_updated",
    "origins",
    "warnings",
    "task_ids",
    "uncorrected_energy_per_atom",
    "equilibrium_reaction_energy_per_atom",
    "decomposes_to",
    "xas",
    "grain_boundaries",
    "cbm",
    "vbm",
    "is_gap_direct",
    "is_metal",
    "es_source_calc_id",
    "bandstructure",
    "dos",
    "dos_energy_up",
    "dos_energy_down",
    "is_magnetic",
    "ordering",
    "total_magnetization_normalized_vol",
    "total_magnetization_normalized_formula_units",
    "num_magnetic_sites",
    "num_unique_magnetic_sites",
    "types_of_magnetic_species",
    "bulk_modulus",
    "shear_modulus",
    "universal_anisotropy",
    "homogeneous_poisson",
    "e_total",
    "e_ionic",
    "e_electronic",
    "n",
    "e_ij_max",
    "weighted_surface_energy_EV_PER_ANG2",
    "weighted_surface_energy",
    "weighted_work_function",
    "surface_anisotropy",
    "shape_factor",
    "has_reconstructed",
    "possible_species",
    "has_props",
    "theoretical",
    "database_IDs"
  ]
}
