{"builder_meta": null, "nsites": null, "elements": null, "nelements": null, "composition": null, "composition_reduced": null, "formula_pretty": "Co3Se4", "formula_anonymous": "A3B4", "chemsys": null, "volume": 247.9330902955117, "density": 6.598935831204135, "density_atomic": 17.709506449679406, "symmetry": null, "property_name": null, "material_id": "mp-20456", "deprecated": null, "deprecation_reasons": null, "last_updated": null, "origins": null, "warnings": null, "structure": {"@module": "pymatgen.core.structure", "@class": "Structure", "charge": 0, "lattice": {"matrix": [[6.0998216, -0.00793556, 3.52938932], [2.02032107, 5.75579149, 3.52960125], [0.00014717000000000002, 0.00036116, 7.05875956]], "pbc": [true, true, true], "a": 7.047302710758857, "b": 7.047617887360517, "c": 7.058759570773533, "alpha": 59.942448132919026, "beta": 59.94492713238302, "gamma": 60.130575117611, "volume": 247.9330902955117}, "properties": {}, "sites": [{"species": [{"element": "Co", "occu": 1}], "abc": [0.12478122, 0.12477082, 0.12516942], "properties": {"magmom": -2.055}, "label": "Co", "xyz": [1.013238718781071, 0.7172098212858657, 1.7643335874847508]}, {"species": [{"element": "Co", "occu": 1}], "abc": [0.87521625, 0.87523111, 0.87483993], "properties": {"magmom": 2.055}, "label": "Co", "xyz": [7.107039589265987, 5.0310184008455225, 12.353480424692568]}, {"species": [{"element": "Co", "occu": 1}], "abc": [0.50000335, 0.50000229, 0.50000629], "properties": {"magmom": 0.0}, "label": "Co", "xyz": [4.060169981863309, 2.874121701450082, 7.058939370838717]}, {"species": [{"element": "Co", "occu": 1}], "abc": [0.50000543, 0.50000425, -1.1490000000000002e-05], "properties": {"magmom": 0.0}, "label": "Co", "xyz": [4.060113041704852, 2.8739523798740136, 3.5294483452419754]}, {"species": [{"element": "Co", "occu": 1}], "abc": [-7.63e-06, 0.5000036, 0.50000518], "properties": {"magmom": 0.0}, "label": "Co", "xyz": [1.0101948522793847, 2.8780971082684954, 5.2942027466985095]}, {"species": [{"element": "Co", "occu": 1}], "abc": [0.50001595, -1.834e-05, 0.49999653], "properties": {"magmom": 0.0}, "label": "Co", "xyz": [3.0500446239554164, -0.0038928890413338, 5.294041506977056]}, {"species": [{"element": "Se", "occu": 1}], "abc": [0.26114472, 0.26116168, 0.26285079], "properties": {"magmom": 0.008}, "label": "Se", "xyz": [2.120605332313314, 1.5012147768551762, 3.698878504688543]}, {"species": [{"element": "Se", "occu": 1}], "abc": [0.7388045400000001, 0.73884004, 0.28525425], "properties": {"magmom": -0.008}, "label": "Se", "xyz": [5.9993119723096795, 4.246849409372747, 7.228880745995694]}, {"species": [{"element": "Se", "occu": 1}], "abc": [0.28526842, 0.73716921, 0.73877934], "properties": {"magmom": -0.008}, "label": "Se", "xyz": [3.229513683387595, 4.240995318491442, 8.823602408914278]}, {"species": [{"element": "Se", "occu": 1}], "abc": [0.73718181, 0.28526936, 0.7387739600000001], "properties": {"magmom": -0.008}, "label": "Se", "xyz": [5.0731219517622055, 1.6363678197649765, 8.823516449584027]}, {"species": [{"element": "Se", "occu": 1}], "abc": [0.71474275, 0.26281805, 0.26121458000000003], "properties": {"magmom": 0.008}, "label": "Se", "xyz": [4.890818551834452, 1.5071483518889173, 5.294099259986377]}, {"species": [{"element": "Se", "occu": 1}], "abc": [0.26279886, 0.714757099999999, 0.26121599], "properties": {"magmom": 0.008}, "label": "Se", "xyz": [3.0471034349027195, 4.112001718242561, 5.2941879100359115]}, {"species": [{"element": "Se", "occu": 1}], "abc": [0.26119891, 0.26114302, 0.71476691], "properties": {"magmom": 0.008}, "label": "Se", "xyz": [2.120964690950032, 1.5012701577838758, 6.888971132304576]}, {"species": [{"element": "Se", "occu": 1}], "abc": [0.73884542, 0.73884882, 0.73713934], "properties": {"magmom": -0.008}, "label": "Se", "xyz": [5.999645575364378, 4.24706282363544, 10.41880421638903]}]}, "task_ids": null, "uncorrected_energy_per_atom": null, "energy_per_atom": -14.19965990642857, "formation_energy_per_atom": -0.349812147321427, "energy_above_hull": 0.0, "is_stable": true, "equilibrium_reaction_energy_per_atom": null, "decomposes_to": null, "xas": null, "grain_boundaries": null, "band_gap": 0.0, "cbm": null, "vbm": null, "efermi": 4.85193829, "is_gap_direct": null, "is_metal": null, "es_source_calc_id": null, "bandstructure": null, "dos": null, "dos_energy_up": null, "dos_energy_down": null, "is_magnetic": null, "ordering": null, "total_magnetization": 0.0001266, "total_magnetization_normalized_vol": null, "total_magnetization_normalized_formula_units": null, "num_magnetic_sites": null, "num_unique_magnetic_sites": null, "types_of_magnetic_species": null, "bulk_modulus": null, "shear_modulus": null, "universal_anisotropy": null, "homogeneous_poisson": null, "e_total": null, "e_ionic": null, "e_electronic": null, "n": null, "e_ij_max": null, "weighted_surface_energy_EV_PER_ANG2": null, "weighted_surface_energy": null, "weighted_work_function": null, "surface_anisotropy": null, "shape_factor": null, "has_reconstructed": null, "possible_species": null, "has_props": null, "theoretical": null, "database_IDs": null, "fields_not_requested": ["builder_meta", "nsites", "elements", "nelements", "composition", "composition_reduced", "chemsys", "symmetry", "property_name", "deprecated", "deprecation_reasons", "last_updated", "origins", "warnings", "task_ids", "uncorrected_energy_per_atom", "equilibrium_reaction_energy_per_atom", "decomposes_to", "xas", "grain_boundaries", "cbm", "vbm", "is_gap_direct", "is_metal", "es_source_calc_id", "bandstructure", "dos", "dos_energy_up", "dos_energy_down", "is_magnetic", "ordering", "total_magnetization_normalized_vol", "total_magnetization_normalized_formula_units", "num_magnetic_sites", "num_unique_magnetic_sites", "types_of_magnetic_species", "bulk_modulus", "shear_modulus", "universal_anisotropy", "homogeneous_poisson", "e_total", "e_ionic", "e_electronic", "n", "e_ij_max", "weighted_surface_energy_EV_PER_ANG2", "weighted_surface_energy", "weighted_work_function", "surface_anisotropy", "shape_factor", "has_reconstructed", "possible_species", "has_props", "theoretical", "database_IDs"]}