{
  "builder_meta": null,
  "nsites": null,
  "elements": null,
  "nelements": null,
  "composition": null,
  "composition_reduced": null,
  "formula_pretty": "Co3S4",
  "formula_anonymous": "A3B4",
  "chemsys": null,
  "volume": 212.52255835244327,
  "density": 4.767149073118238,
  "density_atomic": 15.180182739460234,
  "symmetry": null,
  "property_name": null,
  "material_id": "mp-943",
  "deprecated": null,
  "deprecation_reasons": null,
  "last_updated": null,
  "origins": null,
  "warnings": null,
  "structure": {
    "@module": "pymatgen.core.structure",
    "@class": "Structure",
    "charge": 0,
    "lattice": {
      "matrix": [
        [5.80102833, 5.6680000000000006e-5, 3.34920227],
        [1.93361858, 5.46927709, 3.34919988],
        [-3.6e-7, -3.84e-6, 6.69840662]
      ],
      "pbc": [true, true, true],
      "a": 6.698439037122632,
      "b": 6.698433588258683,
      "c": 6.69840662000111,
      "alpha": 60.00019905230361,
      "beta": 60.00017344091833,
      "gamma": 60.000133466132525,
      "volume": 212.52255835244327
    },
    "properties": {},
    "sites": [
      {
        "species": [{ "element": "Co", "occu": 1 }],
        "abc": [0.50000853, 0.99997764, 0.50000645],
        "properties": { "magmom": 0.20600000000000002 },
        "label": "Co",
        "xyz": [4.834138812057883, 5.46918121742298, 8.373001210308745]
      },
      {
        "species": [{ "element": "Co", "occu": 1 }],
        "abc": [0.9999779400000001, 0.50001231, 0.50000484],
        "properties": { "magmom": 0.20600000000000002 },
        "label": "Co",
        "xyz": [6.767733272158019, 2.7347606305320316, 8.373005285536488]
      },
      {
        "species": [{ "element": "Co", "occu": 1 }],
        "abc": [0.49999829999999906, 0.49999755, 1.2980000000000001e-5],
        "properties": { "magmom": 0.20600000000000002 },
        "label": "Co",
        "xyz": [3.8673088558816398, 2.7346534851249302, 3.3492741211343597]
      },
      {
        "species": [{ "element": "Co", "occu": 1 }],
        "abc": [0.49999852, 0.49999707, 0.49999132],
        "properties": { "magmom": 0.20600000000000002 },
        "label": "Co",
        "xyz": [3.8673090239787573, 2.734648939967571, 6.69833147285553]
      },
      {
        "species": [{ "element": "Co", "occu": 1 }],
        "abc": [0.12501647, 0.12502065, 0.12497964],
        "properties": { "magmom": 2.208 },
        "label": "Co",
        "xyz": [0.9669662909176018, 0.6837791828336106, 1.6745890390301257]
      },
      {
        "species": [{ "element": "Co", "occu": 1 }],
        "abc": [0.87502521, 0.8750197, 0.87497859],
        "properties": { "magmom": 2.208 },
        "label": "Co",
        "xyz": [6.768000067467932, 4.7857714350197895, 11.722214673491129]
      },
      {
        "species": [{ "element": "S", "occu": 1 }],
        "abc": [0.73764457, 0.73765702, 0.7376647900000001],
        "properties": { "magmom": 0.043000000000000003 },
        "label": "S",
        "xyz": [5.705444102020775, 4.034489616825106, 9.882260383839242]
      },
      {
        "species": [{ "element": "S", "occu": 1 }],
        "abc": [0.26233628000000003, 0.262326499999999, 0.71298194],
        "properties": { "magmom": 0.043000000000000003 },
        "label": "S",
        "xyz": [2.0290593300196824, 1.4347484479195804, 6.533044093636615]
      },
      {
        "species": [{ "element": "S", "occu": 1 }],
        "abc": [0.2623222, 0.71299776, 0.26234036],
        "properties": { "magmom": 0.043000000000000003 },
        "label": "S",
        "xyz": [2.900404135579777, 3.8995961750246324, 5.023804524060846]
      },
      {
        "species": [{ "element": "S", "occu": 1 }],
        "abc": [0.71299319, 0.262313099999999, 0.26234653],
        "properties": { "magmom": 0.043000000000000003 },
        "label": "S",
        "xyz": [4.643307083779718, 1.4347024332802079, 5.023801146770995]
      },
      {
        "species": [{ "element": "S", "occu": 1 }],
        "abc": [0.73763627, 0.28705626, 0.73765354],
        "properties": { "magmom": 0.043000000000000003 },
        "label": "S",
        "xyz": [4.834105951791566, 1.5700292029932734, 8.373005217066018]
      },
      {
        "species": [{ "element": "S", "occu": 1 }],
        "abc": [0.28705965, 0.73763989, 0.73765019],
        "properties": { "magmom": 0.043000000000000003 },
        "label": "S",
        "xyz": [3.0915550931489726, 4.034370389011352, 8.373005178416875]
      },
      {
        "species": [{ "element": "S", "occu": 1 }],
        "abc": [0.26233606, 0.26232689, 0.26235393],
        "properties": { "magmom": 0.043000000000000003 },
        "label": "S",
        "xyz": [2.029058970130781, 1.4347523113367395, 3.5145550176586458]
      },
      {
        "species": [{ "element": "S", "occu": 1 }],
        "abc": [0.73764481, 0.73765666, 0.2870339],
        "properties": { "magmom": 0.043000000000000003 },
        "label": "S",
        "xyz": [5.705444960392007, 4.034489378321575, 6.863751045183338]
      }
    ]
  },
  "task_ids": null,
  "uncorrected_energy_per_atom": null,
  "energy_per_atom": -10.774880811428572,
  "formation_energy_per_atom": -0.5116394230357151,
  "energy_above_hull": 0.0,
  "is_stable": true,
  "equilibrium_reaction_energy_per_atom": null,
  "decomposes_to": null,
  "xas": null,
  "grain_boundaries": null,
  "band_gap": 0.0,
  "cbm": null,
  "vbm": null,
  "efermi": 6.1448687,
  "is_gap_direct": null,
  "is_metal": null,
  "es_source_calc_id": null,
  "bandstructure": null,
  "dos": null,
  "dos_energy_up": null,
  "dos_energy_down": null,
  "is_magnetic": null,
  "ordering": null,
  "total_magnetization": 5.9407159,
  "total_magnetization_normalized_vol": null,
  "total_magnetization_normalized_formula_units": null,
  "num_magnetic_sites": null,
  "num_unique_magnetic_sites": null,
  "types_of_magnetic_species": null,
  "bulk_modulus": null,
  "shear_modulus": null,
  "universal_anisotropy": null,
  "homogeneous_poisson": null,
  "e_total": null,
  "e_ionic": null,
  "e_electronic": null,
  "n": null,
  "e_ij_max": null,
  "weighted_surface_energy_EV_PER_ANG2": null,
  "weighted_surface_energy": null,
  "weighted_work_function": null,
  "surface_anisotropy": null,
  "shape_factor": null,
  "has_reconstructed": null,
  "possible_species": null,
  "has_props": null,
  "theoretical": null,
  "database_IDs": null,
  "fields_not_requested": [
    "builder_meta",
    "nsites",
    "elements",
    "nelements",
    "composition",
    "composition_reduced",
    "chemsys",
    "symmetry",
    "property_name",
    "deprecated",
    "deprecation_reasons",
    "last_updated",
    "origins",
    "warnings",
    "task_ids",
    "uncorrected_energy_per_atom",
    "equilibrium_reaction_energy_per_atom",
    "decomposes_to",
    "xas",
    "grain_boundaries",
    "cbm",
    "vbm",
    "is_gap_direct",
    "is_metal",
    "es_source_calc_id",
    "bandstructure",
    "dos",
    "dos_energy_up",
    "dos_energy_down",
    "is_magnetic",
    "ordering",
    "total_magnetization_normalized_vol",
    "total_magnetization_normalized_formula_units",
    "num_magnetic_sites",
    "num_unique_magnetic_sites",
    "types_of_magnetic_species",
    "bulk_modulus",
    "shear_modulus",
    "universal_anisotropy",
    "homogeneous_poisson",
    "e_total",
    "e_ionic",
    "e_electronic",
    "n",
    "e_ij_max",
    "weighted_surface_energy_EV_PER_ANG2",
    "weighted_surface_energy",
    "weighted_work_function",
    "surface_anisotropy",
    "shape_factor",
    "has_reconstructed",
    "possible_species",
    "has_props",
    "theoretical",
    "database_IDs"
  ]
}
