{"builder_meta": null, "nsites": null, "elements": null, "nelements": null, "composition": null, "composition_reduced": null, "formula_pretty": "Co3Sn", "formula_anonymous": "AB3", "chemsys": null, "volume": 103.6863851924636, "density": 9.465181171788405, "density_atomic": 12.96079814905795, "symmetry": null, "property_name": null, "material_id": "mp-1183774", "deprecated": null, "deprecation_reasons": null, "last_updated": null, "origins": null, "warnings": null, "structure": {"@module": "pymatgen.core.structure", "@class": "Structure", "charge": 0, "lattice": {"matrix": [[2.659691999999999, -4.606721, 0.0], [2.659691999999999, 4.606721, 0.0], [0.0, 0.0, 4.231248]], "pbc": [true, true, true], "a": 5.319383414147263, "b": 5.319383414147263, "c": 4.231248, "alpha": 90.0, "beta": 90.0, "gamma": 119.99999271349652, "volume": 103.68638519246355}, "properties": {}, "sites": [{"species": [{"element": "Co", "occu": 1}], "abc": [0.157988, 0.315977, 0.25], "properties": {"magmom": 1.11}, "label": "Co", "xyz": [1.2606009187799994, 0.7278112440690002, 1.057812]}, {"species": [{"element": "Co", "occu": 1}], "abc": [0.684022999999999, 0.842012, 0.25], "properties": {"magmom": 1.109}, "label": "Co", "xyz": [4.058783081219996, 0.7278112440690041, 1.057812]}, {"species": [{"element": "Co", "occu": 1}], "abc": [0.157988, 0.842012, 0.25], "properties": {"magmom": 1.11}, "label": "Co", "xyz": [2.659691999999999, 3.151107725304, 1.057812]}, {"species": [{"element": "Co", "occu": 1}], "abc": [0.842012, 0.684022999999999, 0.75], "properties": {"magmom": 1.104}, "label": "Co", "xyz": [4.058783081219996, -0.7278112440690041, 3.1734359999999997]}, {"species": [{"element": "Co", "occu": 1}], "abc": [0.315977, 0.157988, 0.75], "properties": {"magmom": 1.112}, "label": "Co", "xyz": [1.2606009187799994, -0.7278112440690002, 3.1734359999999997]}, {"species": [{"element": "Co", "occu": 1}], "abc": [0.842012, 0.157988, 0.75], "properties": {"magmom": 1.105}, "label": "Co", "xyz": [2.659691999999999, -3.151107725304, 3.1734359999999997]}, {"species": [{"element": "Sn", "occu": 1}], "abc": [0.333333, 0.666667, 0.75], "properties": {"magmom": -0.088}, "label": "Sn", "xyz": [2.659691999999999, 1.5355767378140002, 3.1734359999999997]}, {"species": [{"element": "Sn", "occu": 1}], "abc": [0.666667, 0.333333, 0.25], "properties": {"magmom": -0.088}, "label": "Sn", "xyz": [2.659691999999999, -1.5355767378140002, 1.057812]}]}, "task_ids": null, "uncorrected_energy_per_atom": null, "energy_per_atom": -6.23967267625, "formation_energy_per_atom": 0.1127828275, "energy_above_hull": 0.16072266541666602, "is_stable": false, "equilibrium_reaction_energy_per_atom": null, "decomposes_to": null, "xas": null, "grain_boundaries": null, "band_gap": 0.0, "cbm": null, "vbm": null, "efermi": 7.98557923, "is_gap_direct": null, "is_metal": null, "es_source_calc_id": null, "bandstructure": null, "dos": null, "dos_energy_up": null, "dos_energy_down": null, "is_magnetic": null, "ordering": null, "total_magnetization": 6.3560713, "total_magnetization_normalized_vol": null, "total_magnetization_normalized_formula_units": null, "num_magnetic_sites": null, "num_unique_magnetic_sites": null, "types_of_magnetic_species": null, "bulk_modulus": null, "shear_modulus": null, "universal_anisotropy": null, "homogeneous_poisson": null, "e_total": null, "e_ionic": null, "e_electronic": null, "n": null, "e_ij_max": null, "weighted_surface_energy_EV_PER_ANG2": null, "weighted_surface_energy": null, "weighted_work_function": null, "surface_anisotropy": null, "shape_factor": null, "has_reconstructed": null, "possible_species": null, "has_props": null, "theoretical": null, "database_IDs": null, "fields_not_requested": ["builder_meta", "nsites", "elements", "nelements", "composition", "composition_reduced", "chemsys", "symmetry", "property_name", "deprecated", "deprecation_reasons", "last_updated", "origins", "warnings", "task_ids", "uncorrected_energy_per_atom", "equilibrium_reaction_energy_per_atom", "decomposes_to", "xas", "grain_boundaries", "cbm", "vbm", "is_gap_direct", "is_metal", "es_source_calc_id", "bandstructure", "dos", "dos_energy_up", "dos_energy_down", "is_magnetic", "ordering", "total_magnetization_normalized_vol", "total_magnetization_normalized_formula_units", "num_magnetic_sites", "num_unique_magnetic_sites", "types_of_magnetic_species", "bulk_modulus", "shear_modulus", "universal_anisotropy", "homogeneous_poisson", "e_total", "e_ionic", "e_electronic", "n", "e_ij_max", "weighted_surface_energy_EV_PER_ANG2", "weighted_surface_energy", "weighted_work_function", "surface_anisotropy", "shape_factor", "has_reconstructed", "possible_species", "has_props", "theoretical", "database_IDs"]}