{
  "builder_meta": null,
  "nsites": null,
  "elements": null,
  "nelements": null,
  "composition": null,
  "composition_reduced": null,
  "formula_pretty": "Co3Sn2",
  "formula_anonymous": "A2B3",
  "chemsys": null,
  "volume": 300.6487967746747,
  "density": 9.151246376799453,
  "density_atomic": 15.032439838733733,
  "symmetry": null,
  "property_name": null,
  "material_id": "mp-1190274",
  "deprecated": null,
  "deprecation_reasons": null,
  "last_updated": null,
  "origins": null,
  "warnings": null,
  "structure": {
    "@module": "pymatgen.core.structure",
    "@class": "Structure",
    "charge": 0,
    "lattice": {
      "matrix": [
        [0.0, -5.247078, 0.0],
        [-7.009558, 0.0, 0.0],
        [0.0, 0.0, -8.174314]
      ],
      "pbc": [true, true, true],
      "a": 5.247078,
      "b": 7.009558,
      "c": 8.174314,
      "alpha": 90.0,
      "beta": 90.0,
      "gamma": 90.0,
      "volume": 300.6487967746747
    },
    "properties": {},
    "sites": [
      {
        "species": [{ "element": "Co", "occu": 1 }],
        "abc": [0.75, 0.58347, 0.374158],
        "properties": { "magmom": -0.003 },
        "label": "Co",
        "xyz": [-4.089866806260001, -3.9353085, -3.058484977612]
      },
      {
        "species": [{ "element": "Co", "occu": 1 }],
        "abc": [0.75, 0.08347, 0.125841999999999],
        "properties": { "magmom": -0.003 },
        "label": "Co",
        "xyz": [-0.58508780626, -3.9353085, -1.028672022387992]
      },
      {
        "species": [{ "element": "Co", "occu": 1 }],
        "abc": [0.25, 0.41653, 0.625842],
        "properties": { "magmom": -0.003 },
        "label": "Co",
        "xyz": [-2.9196911937400003, -1.3117695, -5.1158290223880005]
      },
      {
        "species": [{ "element": "Co", "occu": 1 }],
        "abc": [0.25, 0.9165300000000001, 0.874158],
        "properties": { "magmom": -0.003 },
        "label": "Co",
        "xyz": [-6.42447019374, -1.3117695, -7.145641977612001]
      },
      {
        "species": [{ "element": "Co", "occu": 1 }],
        "abc": [0.991155999999999, 0.266034, 0.377418],
        "properties": { "magmom": -0.003 },
        "label": "Co",
        "xyz": [-1.864780752972, -5.200672842167995, -3.085133241252]
      },
      {
        "species": [{ "element": "Co", "occu": 1 }],
        "abc": [0.508844, 0.766034, 0.122582],
        "properties": { "magmom": -0.003 },
        "label": "Co",
        "xyz": [-5.369559752972, -2.669944157832, -1.002023758748]
      },
      {
        "species": [{ "element": "Co", "occu": 1 }],
        "abc": [0.491156, 0.733966, 0.622582],
        "properties": { "magmom": -0.003 },
        "label": "Co",
        "xyz": [-5.144777247028, -2.577133842168, -5.089180758748]
      },
      {
        "species": [{ "element": "Co", "occu": 1 }],
        "abc": [0.008844, 0.233965999999999, 0.877417999999999],
        "properties": { "magmom": -0.003 },
        "label": "Co",
        "xyz": [-1.639998247027993, -0.046405157832, -7.172290241251993]
      },
      {
        "species": [{ "element": "Co", "occu": 1 }],
        "abc": [0.008844, 0.733966, 0.622582],
        "properties": { "magmom": -0.003 },
        "label": "Co",
        "xyz": [-5.144777247028, -0.046405157832, -5.089180758748]
      },
      {
        "species": [{ "element": "Co", "occu": 1 }],
        "abc": [0.491156, 0.233965999999999, 0.877417999999999],
        "properties": { "magmom": -0.003 },
        "label": "Co",
        "xyz": [-1.639998247027993, -2.577133842168, -7.172290241251993]
      },
      {
        "species": [{ "element": "Co", "occu": 1 }],
        "abc": [0.508844, 0.266034, 0.377418],
        "properties": { "magmom": -0.003 },
        "label": "Co",
        "xyz": [-1.864780752972, -2.669944157832, -3.085133241252]
      },
      {
        "species": [{ "element": "Co", "occu": 1 }],
        "abc": [0.991155999999999, 0.766034, 0.122582],
        "properties": { "magmom": -0.003 },
        "label": "Co",
        "xyz": [-5.369559752972, -5.200672842167995, -1.002023758748]
      },
      {
        "species": [{ "element": "Sn", "occu": 1 }],
        "abc": [0.75, 0.899064, 0.852248999999999],
        "properties": { "magmom": 0.0 },
        "label": "Sn",
        "xyz": [-6.302041253712, -3.9353085, -6.966550932185993]
      },
      {
        "species": [{ "element": "Sn", "occu": 1 }],
        "abc": [0.75, 0.399064, 0.647751],
        "properties": { "magmom": 0.0 },
        "label": "Sn",
        "xyz": [-2.7972622537119998, -3.9353085, -5.294920067814]
      },
      {
        "species": [{ "element": "Sn", "occu": 1 }],
        "abc": [0.25, 0.100936, 0.147751],
        "properties": { "magmom": 0.0 },
        "label": "Sn",
        "xyz": [-0.707516746288, -1.3117695, -1.2077630678140001]
      },
      {
        "species": [{ "element": "Sn", "occu": 1 }],
        "abc": [0.25, 0.600936, 0.352249],
        "properties": { "magmom": 0.0 },
        "label": "Sn",
        "xyz": [-4.212295746288, -1.3117695, -2.8793939321860003]
      },
      {
        "species": [{ "element": "Sn", "occu": 1 }],
        "abc": [0.75, 0.938487, 0.407763999999999],
        "properties": { "magmom": 0.0 },
        "label": "Sn",
        "xyz": [-6.578379058746, -3.9353085, -3.3331909738959924]
      },
      {
        "species": [{ "element": "Sn", "occu": 1 }],
        "abc": [0.75, 0.438486999999999, 0.092236],
        "properties": { "magmom": 0.0 },
        "label": "Sn",
        "xyz": [-3.0736000587459933, -3.9353085, -0.7539660261040001]
      },
      {
        "species": [{ "element": "Sn", "occu": 1 }],
        "abc": [0.25, 0.061513, 0.592236],
        "properties": { "magmom": 0.0 },
        "label": "Sn",
        "xyz": [-0.431178941254, -1.3117695, -4.841123026104]
      },
      {
        "species": [{ "element": "Sn", "occu": 1 }],
        "abc": [0.25, 0.561512999999999, 0.907763999999999],
        "properties": { "magmom": 0.0 },
        "label": "Sn",
        "xyz": [-3.9359579412539936, -1.3117695, -7.420347973895993]
      }
    ]
  },
  "task_ids": null,
  "uncorrected_energy_per_atom": null,
  "energy_per_atom": -5.886600916,
  "formation_energy_per_atom": -0.0027221419999990002,
  "energy_above_hull": 0.07398159866666601,
  "is_stable": false,
  "equilibrium_reaction_energy_per_atom": null,
  "decomposes_to": null,
  "xas": null,
  "grain_boundaries": null,
  "band_gap": 0.0,
  "cbm": null,
  "vbm": null,
  "efermi": 8.27191021,
  "is_gap_direct": null,
  "is_metal": null,
  "es_source_calc_id": null,
  "bandstructure": null,
  "dos": null,
  "dos_energy_up": null,
  "dos_energy_down": null,
  "is_magnetic": null,
  "ordering": null,
  "total_magnetization": 0.041946699999999004,
  "total_magnetization_normalized_vol": null,
  "total_magnetization_normalized_formula_units": null,
  "num_magnetic_sites": null,
  "num_unique_magnetic_sites": null,
  "types_of_magnetic_species": null,
  "bulk_modulus": null,
  "shear_modulus": null,
  "universal_anisotropy": null,
  "homogeneous_poisson": null,
  "e_total": null,
  "e_ionic": null,
  "e_electronic": null,
  "n": null,
  "e_ij_max": null,
  "weighted_surface_energy_EV_PER_ANG2": null,
  "weighted_surface_energy": null,
  "weighted_work_function": null,
  "surface_anisotropy": null,
  "shape_factor": null,
  "has_reconstructed": null,
  "possible_species": null,
  "has_props": null,
  "theoretical": null,
  "database_IDs": null,
  "fields_not_requested": [
    "builder_meta",
    "nsites",
    "elements",
    "nelements",
    "composition",
    "composition_reduced",
    "chemsys",
    "symmetry",
    "property_name",
    "deprecated",
    "deprecation_reasons",
    "last_updated",
    "origins",
    "warnings",
    "task_ids",
    "uncorrected_energy_per_atom",
    "equilibrium_reaction_energy_per_atom",
    "decomposes_to",
    "xas",
    "grain_boundaries",
    "cbm",
    "vbm",
    "is_gap_direct",
    "is_metal",
    "es_source_calc_id",
    "bandstructure",
    "dos",
    "dos_energy_up",
    "dos_energy_down",
    "is_magnetic",
    "ordering",
    "total_magnetization_normalized_vol",
    "total_magnetization_normalized_formula_units",
    "num_magnetic_sites",
    "num_unique_magnetic_sites",
    "types_of_magnetic_species",
    "bulk_modulus",
    "shear_modulus",
    "universal_anisotropy",
    "homogeneous_poisson",
    "e_total",
    "e_ionic",
    "e_electronic",
    "n",
    "e_ij_max",
    "weighted_surface_energy_EV_PER_ANG2",
    "weighted_surface_energy",
    "weighted_work_function",
    "surface_anisotropy",
    "shape_factor",
    "has_reconstructed",
    "possible_species",
    "has_props",
    "theoretical",
    "database_IDs"
  ]
}
