{
  "builder_meta": null,
  "nsites": null,
  "elements": null,
  "nelements": null,
  "composition": null,
  "composition_reduced": null,
  "formula_pretty": "Co3W",
  "formula_anonymous": "AB3",
  "chemsys": null,
  "volume": 91.11604880731495,
  "density": 13.144909764937792,
  "density_atomic": 11.38950610091437,
  "symmetry": null,
  "property_name": null,
  "material_id": "mp-2157",
  "deprecated": null,
  "deprecation_reasons": null,
  "last_updated": null,
  "origins": null,
  "warnings": null,
  "structure": {
    "@module": "pymatgen.core.structure",
    "@class": "Structure",
    "charge": 0,
    "lattice": {
      "matrix": [
        [5.05516727, 3.2e-7, -3.0000000000000004e-8],
        [-2.5275834, 4.37788704, -3.0000000000000004e-8],
        [-2e-8, -4e-8, 4.1171319]
      ],
      "pbc": [true, true, true],
      "a": 5.05516727000001,
      "b": 5.055153091544857,
      "c": 4.1171319,
      "alpha": 90.00000068293818,
      "beta": 90.00000061835169,
      "gamma": 120.0000860780366,
      "volume": 91.11604880731495
    },
    "properties": {},
    "sites": [
      {
        "species": [{ "element": "Co", "occu": 1 }],
        "abc": [0.83718288, 0.67435917, 0.24999995],
        "properties": { "magmom": -0.746 },
        "label": "Co",
        "xyz": [2.52760044525056, 2.9522685285466803, 1.0292827237971436]
      },
      {
        "species": [{ "element": "Co", "occu": 1 }],
        "abc": [0.16281693, 0.83717917, 0.75],
        "properties": { "magmom": -0.746 },
        "label": "Co",
        "xyz": [-1.292973372379897, 3.665075860602374, 3.0878488950001173]
      },
      {
        "species": [{ "element": "Co", "occu": 1 }],
        "abc": [0.67437695, 0.8372001800000001, 0.74999993],
        "properties": { "magmom": -0.746 },
        "label": "Co",
        "xyz": [1.2929949928374151, 3.6651680037082945, 3.0878485914534535]
      },
      {
        "species": [{ "element": "Co", "occu": 1 }],
        "abc": [0.325637499999999, 0.16281843000000001, 0.25000007],
        "properties": { "magmom": -0.746 },
        "label": "Co",
        "xyz": [1.2346148660025569, 0.7128007887741444, 1.0292832485455554]
      },
      {
        "species": [{ "element": "Co", "occu": 1 }],
        "abc": [0.83718288, 0.162823, 0.25],
        "properties": { "magmom": -0.746 },
        "label": "Co",
        "xyz": [3.820550777042137, 0.7128209594124415, 1.0292829449998238]
      },
      {
        "species": [{ "element": "Co", "occu": 1 }],
        "abc": [0.16280037, 0.32562305, 0.75000006],
        "properties": { "magmom": -0.746 },
        "label": "Co",
        "xyz": [-5.6328869481329065e-5, 1.425540952616388, 3.0878491573752114]
      },
      {
        "species": [{ "element": "W", "occu": 1 }],
        "abc": [0.33333285, 0.6666656400000001, 0.25000001],
        "properties": { "magmom": 0.31 },
        "label": "W",
        "xyz": [3.0332144328735824e-7, 2.9185869620358176, 1.0292829861713644]
      },
      {
        "species": [{ "element": "W", "occu": 1 }],
        "abc": [0.6666696400000001, 0.33333138, 0.7499999900000001],
        "properties": { "magmom": 0.31 },
        "label": "W",
        "xyz": [2.527603666243591, 1.4592873118616005, 3.087848853828651]
      }
    ]
  },
  "task_ids": null,
  "uncorrected_energy_per_atom": null,
  "energy_per_atom": -22.65889688375,
  "formation_energy_per_atom": 0.108725058749999,
  "energy_above_hull": 0.108725058749999,
  "is_stable": false,
  "equilibrium_reaction_energy_per_atom": null,
  "decomposes_to": null,
  "xas": null,
  "grain_boundaries": null,
  "band_gap": 0.0,
  "cbm": null,
  "vbm": null,
  "efermi": 6.51511944,
  "is_gap_direct": null,
  "is_metal": null,
  "es_source_calc_id": null,
  "bandstructure": null,
  "dos": null,
  "dos_energy_up": null,
  "dos_energy_down": null,
  "is_magnetic": null,
  "ordering": null,
  "total_magnetization": 3.5543788,
  "total_magnetization_normalized_vol": null,
  "total_magnetization_normalized_formula_units": null,
  "num_magnetic_sites": null,
  "num_unique_magnetic_sites": null,
  "types_of_magnetic_species": null,
  "bulk_modulus": null,
  "shear_modulus": null,
  "universal_anisotropy": null,
  "homogeneous_poisson": null,
  "e_total": null,
  "e_ionic": null,
  "e_electronic": null,
  "n": null,
  "e_ij_max": null,
  "weighted_surface_energy_EV_PER_ANG2": null,
  "weighted_surface_energy": null,
  "weighted_work_function": null,
  "surface_anisotropy": null,
  "shape_factor": null,
  "has_reconstructed": null,
  "possible_species": null,
  "has_props": null,
  "theoretical": null,
  "database_IDs": null,
  "fields_not_requested": [
    "builder_meta",
    "nsites",
    "elements",
    "nelements",
    "composition",
    "composition_reduced",
    "chemsys",
    "symmetry",
    "property_name",
    "deprecated",
    "deprecation_reasons",
    "last_updated",
    "origins",
    "warnings",
    "task_ids",
    "uncorrected_energy_per_atom",
    "equilibrium_reaction_energy_per_atom",
    "decomposes_to",
    "xas",
    "grain_boundaries",
    "cbm",
    "vbm",
    "is_gap_direct",
    "is_metal",
    "es_source_calc_id",
    "bandstructure",
    "dos",
    "dos_energy_up",
    "dos_energy_down",
    "is_magnetic",
    "ordering",
    "total_magnetization_normalized_vol",
    "total_magnetization_normalized_formula_units",
    "num_magnetic_sites",
    "num_unique_magnetic_sites",
    "types_of_magnetic_species",
    "bulk_modulus",
    "shear_modulus",
    "universal_anisotropy",
    "homogeneous_poisson",
    "e_total",
    "e_ionic",
    "e_electronic",
    "n",
    "e_ij_max",
    "weighted_surface_energy_EV_PER_ANG2",
    "weighted_surface_energy",
    "weighted_work_function",
    "surface_anisotropy",
    "shape_factor",
    "has_reconstructed",
    "possible_species",
    "has_props",
    "theoretical",
    "database_IDs"
  ]
}
