{
  "builder_meta": null,
  "nsites": null,
  "elements": null,
  "nelements": null,
  "composition": null,
  "composition_reduced": null,
  "formula_pretty": "Co4B",
  "formula_anonymous": "AB4",
  "chemsys": null,
  "volume": 147.08848907427625,
  "density": 8.349985390981216,
  "density_atomic": 9.805899271618417,
  "symmetry": null,
  "property_name": null,
  "material_id": "mp-1226103",
  "deprecated": null,
  "deprecation_reasons": null,
  "last_updated": null,
  "origins": null,
  "warnings": null,
  "structure": {
    "@module": "pymatgen.core.structure",
    "@class": "Structure",
    "charge": 0,
    "lattice": {
      "matrix": [
        [6.6779, 0.0, 0.0],
        [0.0, 4.37115, 0.0],
        [0.0, 0.068188, 5.038985]
      ],
      "pbc": [true, true, true],
      "a": 6.6779,
      "b": 4.37115,
      "c": 5.039446341967439,
      "alpha": 89.22471565867,
      "beta": 90.0,
      "gamma": 90.0,
      "volume": 147.08848907427625
    },
    "properties": {},
    "sites": [
      {
        "species": [{ "element": "Co", "occu": 1 }],
        "abc": [0.185057, 0.656766, 0.307288],
        "properties": { "magmom": 1.472 },
        "label": "Co",
        "xyz": [1.2357921403, 2.8917760550439997, 1.5484196226800002]
      },
      {
        "species": [{ "element": "Co", "occu": 1 }],
        "abc": [0.812987999999999, 0.844922, 0.826055],
        "properties": { "magmom": 1.456 },
        "label": "Co",
        "xyz": [5.429052565199994, 3.74960783864, 4.162478754175]
      },
      {
        "species": [{ "element": "Co", "occu": 1 }],
        "abc": [0.694033, 0.347373, 0.684485999999999],
        "properties": { "magmom": 1.17 },
        "label": "Co",
        "xyz": [4.6346829707, 1.565093220318, 3.4491146867099953]
      },
      {
        "species": [{ "element": "Co", "occu": 1 }],
        "abc": [0.310839, 0.154948, 0.185327],
        "properties": { "magmom": 1.267 },
        "label": "Co",
        "xyz": [2.0757517581, 0.689938027676, 0.933859973095]
      },
      {
        "species": [{ "element": "Co", "occu": 1 }],
        "abc": [0.305967, 0.347373, 0.684485999999999],
        "properties": { "magmom": 1.172 },
        "label": "Co",
        "xyz": [2.0432170293, 1.565093220318, 3.4491146867099953]
      },
      {
        "species": [{ "element": "Co", "occu": 1 }],
        "abc": [0.689161, 0.154948, 0.185327],
        "properties": { "magmom": 1.2650000000000001 },
        "label": "Co",
        "xyz": [4.6021482419, 0.689938027676, 0.933859973095]
      },
      {
        "species": [{ "element": "Co", "occu": 1 }],
        "abc": [0.814943, 0.656766, 0.307288],
        "properties": { "magmom": 1.466 },
        "label": "Co",
        "xyz": [5.4421078597, 2.8917760550439997, 1.5484196226800002]
      },
      {
        "species": [{ "element": "Co", "occu": 1 }],
        "abc": [0.187011999999999, 0.844922, 0.826055],
        "properties": { "magmom": 1.458 },
        "label": "Co",
        "xyz": [1.2488474347999934, 3.74960783864, 4.162478754175]
      },
      {
        "species": [{ "element": "Co", "occu": 1 }],
        "abc": [0.0, 0.136212, 0.460181],
        "properties": { "magmom": 1.55 },
        "label": "Co",
        "xyz": [0.0, 0.6267819058280001, 2.318845156285]
      },
      {
        "species": [{ "element": "Co", "occu": 1 }],
        "abc": [0.0, 0.335316, 0.977638999999999],
        "properties": { "magmom": 1.536 },
        "label": "Co",
        "xyz": [0.0, 1.532379781532, 4.926308256414996]
      },
      {
        "species": [{ "element": "Co", "occu": 1 }],
        "abc": [0.5, 0.860663, 0.531875],
        "properties": { "magmom": 1.207 },
        "label": "Co",
        "xyz": [3.33895, 3.79835456495, 2.680110146875]
      },
      {
        "species": [{ "element": "Co", "occu": 1 }],
        "abc": [0.5, 0.639822999999999, 0.026442999999999002],
        "properties": { "magmom": 1.121999999999999 },
        "label": "Co",
        "xyz": [3.33895, 2.798565401733996, 0.133245880354995]
      },
      {
        "species": [{ "element": "B", "occu": 1 }],
        "abc": [0.0, 0.565461, 0.621441],
        "properties": { "magmom": -0.093 },
        "label": "B",
        "xyz": [0.0, 2.5140896690580004, 3.1314318773850003]
      },
      {
        "species": [{ "element": "B", "occu": 1 }],
        "abc": [0.5, 0.067975, 0.881992],
        "properties": { "magmom": -0.079 },
        "label": "B",
        "xyz": [3.33895, 0.35727019174599994, 4.44434445812]
      },
      {
        "species": [{ "element": "B", "occu": 1 }],
        "abc": [0.5, 0.436532, 0.384115],
        "properties": { "magmom": -0.083 },
        "label": "B",
        "xyz": [3.33895, 1.9343388854199999, 1.935549723275]
      }
    ]
  },
  "task_ids": null,
  "uncorrected_energy_per_atom": null,
  "energy_per_atom": -12.1189603795,
  "formation_energy_per_atom": -0.062304636000000004,
  "energy_above_hull": 0.056705065999999006,
  "is_stable": false,
  "equilibrium_reaction_energy_per_atom": null,
  "decomposes_to": null,
  "xas": null,
  "grain_boundaries": null,
  "band_gap": 0.0,
  "cbm": null,
  "vbm": null,
  "efermi": 5.91872688,
  "is_gap_direct": null,
  "is_metal": null,
  "es_source_calc_id": null,
  "bandstructure": null,
  "dos": null,
  "dos_energy_up": null,
  "dos_energy_down": null,
  "is_magnetic": null,
  "ordering": null,
  "total_magnetization": 15.6448602,
  "total_magnetization_normalized_vol": null,
  "total_magnetization_normalized_formula_units": null,
  "num_magnetic_sites": null,
  "num_unique_magnetic_sites": null,
  "types_of_magnetic_species": null,
  "bulk_modulus": null,
  "shear_modulus": null,
  "universal_anisotropy": null,
  "homogeneous_poisson": null,
  "e_total": null,
  "e_ionic": null,
  "e_electronic": null,
  "n": null,
  "e_ij_max": null,
  "weighted_surface_energy_EV_PER_ANG2": null,
  "weighted_surface_energy": null,
  "weighted_work_function": null,
  "surface_anisotropy": null,
  "shape_factor": null,
  "has_reconstructed": null,
  "possible_species": null,
  "has_props": null,
  "theoretical": null,
  "database_IDs": null,
  "fields_not_requested": [
    "builder_meta",
    "nsites",
    "elements",
    "nelements",
    "composition",
    "composition_reduced",
    "chemsys",
    "symmetry",
    "property_name",
    "deprecated",
    "deprecation_reasons",
    "last_updated",
    "origins",
    "warnings",
    "task_ids",
    "uncorrected_energy_per_atom",
    "equilibrium_reaction_energy_per_atom",
    "decomposes_to",
    "xas",
    "grain_boundaries",
    "cbm",
    "vbm",
    "is_gap_direct",
    "is_metal",
    "es_source_calc_id",
    "bandstructure",
    "dos",
    "dos_energy_up",
    "dos_energy_down",
    "is_magnetic",
    "ordering",
    "total_magnetization_normalized_vol",
    "total_magnetization_normalized_formula_units",
    "num_magnetic_sites",
    "num_unique_magnetic_sites",
    "types_of_magnetic_species",
    "bulk_modulus",
    "shear_modulus",
    "universal_anisotropy",
    "homogeneous_poisson",
    "e_total",
    "e_ionic",
    "e_electronic",
    "n",
    "e_ij_max",
    "weighted_surface_energy_EV_PER_ANG2",
    "weighted_surface_energy",
    "weighted_work_function",
    "surface_anisotropy",
    "shape_factor",
    "has_reconstructed",
    "possible_species",
    "has_props",
    "theoretical",
    "database_IDs"
  ]
}
