{"builder_meta": null, "nsites": null, "elements": null, "nelements": null, "composition": null, "composition_reduced": null, "formula_pretty": "Co4Ge", "formula_anonymous": "AB4", "chemsys": null, "volume": 58.85448198242146, "density": 8.700527657672522, "density_atomic": 11.770896396484293, "symmetry": null, "property_name": null, "material_id": "mp-1226010", "deprecated": null, "deprecation_reasons": null, "last_updated": null, "origins": null, "warnings": null, "structure": {"@module": "pymatgen.core.structure", "@class": "Structure", "charge": 0, "lattice": {"matrix": [[9.891716, -1.312495, 0.0], [9.891716, 1.312495, 0.0], [9.717566, 0.0, 2.266628]], "pbc": [true, true, true], "a": 9.978411123504634, "b": 9.978411123504634, "c": 9.978411269071845, "alpha": 15.116430240435694, "beta": 15.116430240435694, "gamma": 15.116428875336966, "volume": 58.85448198242146}, "properties": {}, "sites": [{"species": [{"element": "Co", "occu": 1}], "abc": [0.59884, 0.59884, 0.59884], "properties": {"magmom": 1.341}, "label": "Co", "xyz": [17.66637764232, 0.0, 1.35734751152]}, {"species": [{"element": "Co", "occu": 1}], "abc": [0.20032000000000003, 0.20032000000000003, 0.20032000000000003], "properties": {"magmom": 1.758}, "label": "Co", "xyz": [5.909639919360001, 0.0, 0.45405092096000005]}, {"species": [{"element": "Co", "occu": 1}], "abc": [0.7996800000000001, 0.7996800000000001, 0.7996800000000001], "properties": {"magmom": 1.758}, "label": "Co", "xyz": [23.591358080640003, 0.0, 1.81257707904]}, {"species": [{"element": "Co", "occu": 1}], "abc": [0.40116, 0.40116, 0.40116], "properties": {"magmom": 1.341}, "label": "Co", "xyz": [11.83462035768, 0.0, 0.90928048848]}, {"species": [{"element": "Ge", "occu": 1}], "abc": [0.0, 0.0, 0.0], "properties": {"magmom": -0.017}, "label": "Ge", "xyz": [0.0, 0.0, 0.0]}]}, "task_ids": null, "uncorrected_energy_per_atom": null, "energy_per_atom": -13.164106964000002, "formation_energy_per_atom": 0.19767345599999803, "energy_above_hull": 0.226663285499999, "is_stable": false, "equilibrium_reaction_energy_per_atom": null, "decomposes_to": null, "xas": null, "grain_boundaries": null, "band_gap": 0.0, "cbm": null, "vbm": null, "efermi": 6.17065093, "is_gap_direct": null, "is_metal": null, "es_source_calc_id": null, "bandstructure": null, "dos": null, "dos_energy_up": null, "dos_energy_down": null, "is_magnetic": null, "ordering": null, "total_magnetization": 6.0732227, "total_magnetization_normalized_vol": null, "total_magnetization_normalized_formula_units": null, "num_magnetic_sites": null, "num_unique_magnetic_sites": null, "types_of_magnetic_species": null, "bulk_modulus": null, "shear_modulus": null, "universal_anisotropy": null, "homogeneous_poisson": null, "e_total": null, "e_ionic": null, "e_electronic": null, "n": null, "e_ij_max": null, "weighted_surface_energy_EV_PER_ANG2": null, "weighted_surface_energy": null, "weighted_work_function": null, "surface_anisotropy": null, "shape_factor": null, "has_reconstructed": null, "possible_species": null, "has_props": null, "theoretical": null, "database_IDs": null, "fields_not_requested": ["builder_meta", "nsites", "elements", "nelements", "composition", "composition_reduced", "chemsys", "symmetry", "property_name", "deprecated", "deprecation_reasons", "last_updated", "origins", "warnings", "task_ids", "uncorrected_energy_per_atom", "equilibrium_reaction_energy_per_atom", "decomposes_to", "xas", "grain_boundaries", "cbm", "vbm", "is_gap_direct", "is_metal", "es_source_calc_id", "bandstructure", "dos", "dos_energy_up", "dos_energy_down", "is_magnetic", "ordering", "total_magnetization_normalized_vol", "total_magnetization_normalized_formula_units", "num_magnetic_sites", "num_unique_magnetic_sites", "types_of_magnetic_species", "bulk_modulus", "shear_modulus", "universal_anisotropy", "homogeneous_poisson", "e_total", "e_ionic", "e_electronic", "n", "e_ij_max", "weighted_surface_energy_EV_PER_ANG2", "weighted_surface_energy", "weighted_work_function", "surface_anisotropy", "shape_factor", "has_reconstructed", "possible_species", "has_props", "theoretical", "database_IDs"]}