{
  "builder_meta": null,
  "nsites": null,
  "elements": null,
  "nelements": null,
  "composition": null,
  "composition_reduced": null,
  "formula_pretty": "Co4H",
  "formula_anonymous": "AB4",
  "chemsys": null,
  "volume": 44.41484422082324,
  "density": 8.851032151784622,
  "density_atomic": 8.882968844164647,
  "symmetry": null,
  "property_name": null,
  "material_id": "mp-1226072",
  "deprecated": null,
  "deprecation_reasons": null,
  "last_updated": null,
  "origins": null,
  "warnings": null,
  "structure": {
    "@module": "pymatgen.core.structure",
    "@class": "Structure",
    "charge": 0,
    "lattice": {
      "matrix": [
        [1.2585986, -2.17995611, -0.0],
        [1.2585986, 2.17995611, 0.0],
        [0.0, -0.0, 8.09399913]
      ],
      "pbc": [true, true, true],
      "a": 2.5171966703951227,
      "b": 2.5171966703951227,
      "c": 8.09399913,
      "alpha": 90.0,
      "beta": 90.0,
      "gamma": 119.99998608039718,
      "volume": 44.41484422082324
    },
    "properties": {},
    "sites": [
      {
        "species": [{ "element": "Co", "occu": 1 }],
        "abc": [0.333333, 0.666667, 0.86585528],
        "properties": { "magmom": 1.6520000000000001 },
        "label": "Co",
        "xyz": [1.2585986, 0.7266534899707401, 7.008231883025907]
      },
      {
        "species": [{ "element": "Co", "occu": 1 }],
        "abc": [0.333333, 0.666667, 0.37679535000000003],
        "properties": { "magmom": 1.854 },
        "label": "Co",
        "xyz": [1.2585986, 0.7266534899707401, 3.0497812350880458]
      },
      {
        "species": [{ "element": "Co", "occu": 1 }],
        "abc": [0.666667, 0.333333, 0.13414472],
        "properties": { "magmom": 1.6520000000000001 },
        "label": "Co",
        "xyz": [1.2585986, -0.7266534899707401, 1.0857672469740935]
      },
      {
        "species": [{ "element": "Co", "occu": 1 }],
        "abc": [0.666667, 0.333333, 0.62320465],
        "properties": { "magmom": 1.854 },
        "label": "Co",
        "xyz": [1.2585986, -0.7266534899707401, 5.044217894911955]
      },
      {
        "species": [{ "element": "H", "occu": 1 }],
        "abc": [0.0, -0.0, -0.0],
        "properties": { "magmom": -0.012 },
        "label": "H",
        "xyz": [0.0, 0.0, 0.0]
      }
    ]
  },
  "task_ids": null,
  "uncorrected_energy_per_atom": null,
  "energy_per_atom": -6.394256613999999,
  "formation_energy_per_atom": -0.008489950249999,
  "energy_above_hull": 0.012287146000001001,
  "is_stable": false,
  "equilibrium_reaction_energy_per_atom": null,
  "decomposes_to": null,
  "xas": null,
  "grain_boundaries": null,
  "band_gap": 0.0,
  "cbm": null,
  "vbm": null,
  "efermi": 5.41258315,
  "is_gap_direct": null,
  "is_metal": null,
  "es_source_calc_id": null,
  "bandstructure": null,
  "dos": null,
  "dos_energy_up": null,
  "dos_energy_down": null,
  "is_magnetic": null,
  "ordering": null,
  "total_magnetization": 6.7510454,
  "total_magnetization_normalized_vol": null,
  "total_magnetization_normalized_formula_units": null,
  "num_magnetic_sites": null,
  "num_unique_magnetic_sites": null,
  "types_of_magnetic_species": null,
  "bulk_modulus": null,
  "shear_modulus": null,
  "universal_anisotropy": null,
  "homogeneous_poisson": null,
  "e_total": null,
  "e_ionic": null,
  "e_electronic": null,
  "n": null,
  "e_ij_max": null,
  "weighted_surface_energy_EV_PER_ANG2": null,
  "weighted_surface_energy": null,
  "weighted_work_function": null,
  "surface_anisotropy": null,
  "shape_factor": null,
  "has_reconstructed": null,
  "possible_species": null,
  "has_props": null,
  "theoretical": null,
  "database_IDs": null,
  "fields_not_requested": [
    "builder_meta",
    "nsites",
    "elements",
    "nelements",
    "composition",
    "composition_reduced",
    "chemsys",
    "symmetry",
    "property_name",
    "deprecated",
    "deprecation_reasons",
    "last_updated",
    "origins",
    "warnings",
    "task_ids",
    "uncorrected_energy_per_atom",
    "equilibrium_reaction_energy_per_atom",
    "decomposes_to",
    "xas",
    "grain_boundaries",
    "cbm",
    "vbm",
    "is_gap_direct",
    "is_metal",
    "es_source_calc_id",
    "bandstructure",
    "dos",
    "dos_energy_up",
    "dos_energy_down",
    "is_magnetic",
    "ordering",
    "total_magnetization_normalized_vol",
    "total_magnetization_normalized_formula_units",
    "num_magnetic_sites",
    "num_unique_magnetic_sites",
    "types_of_magnetic_species",
    "bulk_modulus",
    "shear_modulus",
    "universal_anisotropy",
    "homogeneous_poisson",
    "e_total",
    "e_ionic",
    "e_electronic",
    "n",
    "e_ij_max",
    "weighted_surface_energy_EV_PER_ANG2",
    "weighted_surface_energy",
    "weighted_work_function",
    "surface_anisotropy",
    "shape_factor",
    "has_reconstructed",
    "possible_species",
    "has_props",
    "theoretical",
    "database_IDs"
  ]
}
