{
  "builder_meta": null,
  "nsites": null,
  "elements": null,
  "nelements": null,
  "composition": null,
  "composition_reduced": null,
  "formula_pretty": "Co4Os",
  "formula_anonymous": "AB4",
  "chemsys": null,
  "volume": 59.49156778923655,
  "density": 11.889547769415376,
  "density_atomic": 11.89831355784731,
  "symmetry": null,
  "property_name": null,
  "material_id": "mp-1226016",
  "deprecated": null,
  "deprecation_reasons": null,
  "last_updated": null,
  "origins": null,
  "warnings": null,
  "structure": {
    "@module": "pymatgen.core.structure",
    "@class": "Structure",
    "charge": 0,
    "lattice": {
      "matrix": [
        [10.243422, -1.296556, 0.0],
        [10.243422, 1.296556, 0.0],
        [10.079311, 0.0, 2.239696]
      ],
      "pbc": [true, true, true],
      "a": 10.325151414445216,
      "b": 10.325151414445216,
      "c": 10.325151253475031,
      "alpha": 14.427644770480805,
      "beta": 14.427644770480805,
      "gamma": 14.427646588684693,
      "volume": 59.49156778923655
    },
    "properties": {},
    "sites": [
      {
        "species": [{ "element": "Co", "occu": 1 }],
        "abc": [0.596820999999999, 0.596820999999999, 0.596820999999999],
        "properties": { "magmom": 1.472 },
        "label": "Co",
        "xyz": [18.24252319325497, 0.0, 1.3366976064159979]
      },
      {
        "species": [{ "element": "Co", "occu": 1 }],
        "abc": [0.199121, 0.199121, 0.199121],
        "properties": { "magmom": 1.78 },
        "label": "Co",
        "xyz": [6.0863633497550005, 0.0, 0.44597050721599996]
      },
      {
        "species": [{ "element": "Co", "occu": 1 }],
        "abc": [0.800879, 0.800879, 0.800879],
        "properties": { "magmom": 1.78 },
        "label": "Co",
        "xyz": [24.479791650245005, 0.0, 1.7937254927839998]
      },
      {
        "species": [{ "element": "Co", "occu": 1 }],
        "abc": [0.403178999999999, 0.403178999999999, 0.403178999999999],
        "properties": { "magmom": 1.472 },
        "label": "Co",
        "xyz": [12.32363180674497, 0.0, 0.9029983935839977]
      },
      {
        "species": [{ "element": "Os", "occu": 1 }],
        "abc": [0.0, 0.0, 0.0],
        "properties": { "magmom": -0.075 },
        "label": "Os",
        "xyz": [0.0, 0.0, 0.0]
      }
    ]
  },
  "task_ids": null,
  "uncorrected_energy_per_atom": null,
  "energy_per_atom": -21.037873656000002,
  "formation_energy_per_atom": 0.14655701799999502,
  "energy_above_hull": 0.146557017999999,
  "is_stable": false,
  "equilibrium_reaction_energy_per_atom": null,
  "decomposes_to": null,
  "xas": null,
  "grain_boundaries": null,
  "band_gap": 0.0,
  "cbm": null,
  "vbm": null,
  "efermi": 5.7510394,
  "is_gap_direct": null,
  "is_metal": null,
  "es_source_calc_id": null,
  "bandstructure": null,
  "dos": null,
  "dos_energy_up": null,
  "dos_energy_down": null,
  "is_magnetic": null,
  "ordering": null,
  "total_magnetization": 6.3451711,
  "total_magnetization_normalized_vol": null,
  "total_magnetization_normalized_formula_units": null,
  "num_magnetic_sites": null,
  "num_unique_magnetic_sites": null,
  "types_of_magnetic_species": null,
  "bulk_modulus": null,
  "shear_modulus": null,
  "universal_anisotropy": null,
  "homogeneous_poisson": null,
  "e_total": null,
  "e_ionic": null,
  "e_electronic": null,
  "n": null,
  "e_ij_max": null,
  "weighted_surface_energy_EV_PER_ANG2": null,
  "weighted_surface_energy": null,
  "weighted_work_function": null,
  "surface_anisotropy": null,
  "shape_factor": null,
  "has_reconstructed": null,
  "possible_species": null,
  "has_props": null,
  "theoretical": null,
  "database_IDs": null,
  "fields_not_requested": [
    "builder_meta",
    "nsites",
    "elements",
    "nelements",
    "composition",
    "composition_reduced",
    "chemsys",
    "symmetry",
    "property_name",
    "deprecated",
    "deprecation_reasons",
    "last_updated",
    "origins",
    "warnings",
    "task_ids",
    "uncorrected_energy_per_atom",
    "equilibrium_reaction_energy_per_atom",
    "decomposes_to",
    "xas",
    "grain_boundaries",
    "cbm",
    "vbm",
    "is_gap_direct",
    "is_metal",
    "es_source_calc_id",
    "bandstructure",
    "dos",
    "dos_energy_up",
    "dos_energy_down",
    "is_magnetic",
    "ordering",
    "total_magnetization_normalized_vol",
    "total_magnetization_normalized_formula_units",
    "num_magnetic_sites",
    "num_unique_magnetic_sites",
    "types_of_magnetic_species",
    "bulk_modulus",
    "shear_modulus",
    "universal_anisotropy",
    "homogeneous_poisson",
    "e_total",
    "e_ionic",
    "e_electronic",
    "n",
    "e_ij_max",
    "weighted_surface_energy_EV_PER_ANG2",
    "weighted_surface_energy",
    "weighted_work_function",
    "surface_anisotropy",
    "shape_factor",
    "has_reconstructed",
    "possible_species",
    "has_props",
    "theoretical",
    "database_IDs"
  ]
}
