{
  "builder_meta": null,
  "nsites": null,
  "elements": null,
  "nelements": null,
  "composition": null,
  "composition_reduced": null,
  "formula_pretty": "Co4Ru",
  "formula_anonymous": "AB4",
  "chemsys": null,
  "volume": 58.69749467257621,
  "density": 9.528075721957192,
  "density_atomic": 11.739498934515243,
  "symmetry": null,
  "property_name": null,
  "material_id": "mp-1226024",
  "deprecated": null,
  "deprecation_reasons": null,
  "last_updated": null,
  "origins": null,
  "warnings": null,
  "structure": {
    "@module": "pymatgen.core.structure",
    "@class": "Structure",
    "charge": 0,
    "lattice": {
      "matrix": [
        [10.307564, -1.283806, 0.0],
        [10.307564, 1.283806, 0.0],
        [10.147666, 0.0, 2.21786]
      ],
      "pbc": [true, true, true],
      "a": 10.38720527667245,
      "b": 10.38720527667245,
      "c": 10.387205024796419,
      "alpha": 14.199241736387558,
      "beta": 14.199241736387558,
      "gamma": 14.199245013004168,
      "volume": 58.69749467257621
    },
    "properties": {},
    "sites": [
      {
        "species": [{ "element": "Co", "occu": 1 }],
        "abc": [0.596822, 0.596822, 0.596822],
        "properties": { "magmom": 1.576 },
        "label": "Co",
        "xyz": [18.359912240667995, 0.0, 1.3236676409199999]
      },
      {
        "species": [{ "element": "Co", "occu": 1 }],
        "abc": [0.199431, 0.199431, 0.199431],
        "properties": { "magmom": 1.762 },
        "label": "Co",
        "xyz": [6.1350547702139995, 0.0, 0.44231003766]
      },
      {
        "species": [{ "element": "Co", "occu": 1 }],
        "abc": [0.800569, 0.800569, 0.800569],
        "properties": { "magmom": 1.762 },
        "label": "Co",
        "xyz": [24.627739229785995, 0.0, 1.77554996234]
      },
      {
        "species": [{ "element": "Co", "occu": 1 }],
        "abc": [0.403178, 0.403178, 0.403178],
        "properties": { "magmom": 1.576 },
        "label": "Co",
        "xyz": [12.402881759331997, 0.0, 0.8941923590799999]
      },
      {
        "species": [{ "element": "Ru", "occu": 1 }],
        "abc": [0.0, 0.0, 0.0],
        "properties": { "magmom": -0.093 },
        "label": "Ru",
        "xyz": [0.0, 0.0, 0.0]
      }
    ]
  },
  "task_ids": null,
  "uncorrected_energy_per_atom": null,
  "energy_per_atom": -15.538825438999998,
  "formation_energy_per_atom": 0.133466523999999,
  "energy_above_hull": 0.133466524000001,
  "is_stable": false,
  "equilibrium_reaction_energy_per_atom": null,
  "decomposes_to": null,
  "xas": null,
  "grain_boundaries": null,
  "band_gap": 0.0,
  "cbm": null,
  "vbm": null,
  "efermi": 5.65909656,
  "is_gap_direct": null,
  "is_metal": null,
  "es_source_calc_id": null,
  "bandstructure": null,
  "dos": null,
  "dos_energy_up": null,
  "dos_energy_down": null,
  "is_magnetic": null,
  "ordering": null,
  "total_magnetization": 6.5110513,
  "total_magnetization_normalized_vol": null,
  "total_magnetization_normalized_formula_units": null,
  "num_magnetic_sites": null,
  "num_unique_magnetic_sites": null,
  "types_of_magnetic_species": null,
  "bulk_modulus": null,
  "shear_modulus": null,
  "universal_anisotropy": null,
  "homogeneous_poisson": null,
  "e_total": null,
  "e_ionic": null,
  "e_electronic": null,
  "n": null,
  "e_ij_max": null,
  "weighted_surface_energy_EV_PER_ANG2": null,
  "weighted_surface_energy": null,
  "weighted_work_function": null,
  "surface_anisotropy": null,
  "shape_factor": null,
  "has_reconstructed": null,
  "possible_species": null,
  "has_props": null,
  "theoretical": null,
  "database_IDs": null,
  "fields_not_requested": [
    "builder_meta",
    "nsites",
    "elements",
    "nelements",
    "composition",
    "composition_reduced",
    "chemsys",
    "symmetry",
    "property_name",
    "deprecated",
    "deprecation_reasons",
    "last_updated",
    "origins",
    "warnings",
    "task_ids",
    "uncorrected_energy_per_atom",
    "equilibrium_reaction_energy_per_atom",
    "decomposes_to",
    "xas",
    "grain_boundaries",
    "cbm",
    "vbm",
    "is_gap_direct",
    "is_metal",
    "es_source_calc_id",
    "bandstructure",
    "dos",
    "dos_energy_up",
    "dos_energy_down",
    "is_magnetic",
    "ordering",
    "total_magnetization_normalized_vol",
    "total_magnetization_normalized_formula_units",
    "num_magnetic_sites",
    "num_unique_magnetic_sites",
    "types_of_magnetic_species",
    "bulk_modulus",
    "shear_modulus",
    "universal_anisotropy",
    "homogeneous_poisson",
    "e_total",
    "e_ionic",
    "e_electronic",
    "n",
    "e_ij_max",
    "weighted_surface_energy_EV_PER_ANG2",
    "weighted_surface_energy",
    "weighted_work_function",
    "surface_anisotropy",
    "shape_factor",
    "has_reconstructed",
    "possible_species",
    "has_props",
    "theoretical",
    "database_IDs"
  ]
}
