{"builder_meta": null, "nsites": null, "elements": null, "nelements": null, "composition": null, "composition_reduced": null, "formula_pretty": "Co5As2", "formula_anonymous": "A2B5", "chemsys": null, "volume": 493.80969569288357, "density": 8.968534117345886, "density_atomic": 11.757373706973418, "symmetry": null, "property_name": null, "material_id": "mp-16316", "deprecated": null, "deprecation_reasons": null, "last_updated": null, "origins": null, "warnings": null, "structure": {"@module": "pymatgen.core.structure", "@class": "Structure", "charge": 0, "lattice": {"matrix": [[3.3934, -5.877541, 0.0], [3.3934, 5.877541, 0.0], [0.0, 0.0, 12.37938]], "pbc": [true, true, true], "a": 6.786799817784594, "b": 6.786799817784594, "c": 12.37938, "alpha": 90.0, "beta": 90.0, "gamma": 119.99999822371744, "volume": 493.80969569288357}, "properties": {}, "sites": [{"species": [{"element": "Co", "occu": 1}], "abc": [0.0, 0.0, 0.947143], "properties": {"magmom": 0.6880000000000001}, "label": "Co", "xyz": [0.0, 0.0, 11.72504311134]}, {"species": [{"element": "Co", "occu": 1}], "abc": [0.0, 0.0, 0.447142999999999], "properties": {"magmom": 0.686}, "label": "Co", "xyz": [0.0, 0.0, 5.535353111339988]}, {"species": [{"element": "Co", "occu": 1}], "abc": [0.333333, 0.666667, 0.085826], "properties": {"magmom": 0.871}, "label": "Co", "xyz": [3.3934000000000006, 1.9591842516940001, 1.0624726678799998]}, {"species": [{"element": "Co", "occu": 1}], "abc": [0.666667, 0.333333, 0.585826], "properties": {"magmom": 0.871}, "label": "Co", "xyz": [3.3934000000000006, -1.9591842516940001, 7.2521626678799995]}, {"species": [{"element": "Co", "occu": 1}], "abc": [0.333333, 0.666667, 0.585826], "properties": {"magmom": 0.871}, "label": "Co", "xyz": [3.3934000000000006, 1.9591842516940001, 7.2521626678799995]}, {"species": [{"element": "Co", "occu": 1}], "abc": [0.666667, 0.333333, 0.085826], "properties": {"magmom": 0.871}, "label": "Co", "xyz": [3.3934000000000006, -1.9591842516940001, 1.0624726678799998]}, {"species": [{"element": "Co", "occu": 1}], "abc": [0.270609, 0.0, 0.117477], "properties": {"magmom": 1.074}, "label": "Co", "xyz": [0.9182845806000001, -1.590515492469, 1.45429242426]}, {"species": [{"element": "Co", "occu": 1}], "abc": [0.270609, 0.270609, 0.617476999999999], "properties": {"magmom": 1.075}, "label": "Co", "xyz": [1.8365691612000001, 0.0, 7.643982424259988]}, {"species": [{"element": "Co", "occu": 1}], "abc": [0.0, 0.729391, 0.617476999999999], "properties": {"magmom": 1.075}, "label": "Co", "xyz": [2.4751154194000002, 4.287025507531, 7.643982424259988]}, {"species": [{"element": "Co", "occu": 1}], "abc": [0.0, 0.270609, 0.117477], "properties": {"magmom": 1.074}, "label": "Co", "xyz": [0.9182845806000001, 1.590515492469, 1.45429242426]}, {"species": [{"element": "Co", "occu": 1}], "abc": [0.729391, 0.729391, 0.117477], "properties": {"magmom": 1.074}, "label": "Co", "xyz": [4.9502308388000005, 0.0, 1.45429242426]}, {"species": [{"element": "Co", "occu": 1}], "abc": [0.729391, 0.0, 0.617476999999999], "properties": {"magmom": 1.075}, "label": "Co", "xyz": [2.4751154194000002, -4.287025507531, 7.643982424259988]}, {"species": [{"element": "Co", "occu": 1}], "abc": [0.626377, 0.0, 0.21221], "properties": {"magmom": 0.786}, "label": "Co", "xyz": [2.1255477118, -3.6815564989569998, 2.6270282298]}, {"species": [{"element": "Co", "occu": 1}], "abc": [0.626377, 0.626377, 0.71221], "properties": {"magmom": 0.792}, "label": "Co", "xyz": [4.2510954236, 0.0, 8.8167182298]}, {"species": [{"element": "Co", "occu": 1}], "abc": [0.0, 0.373623, 0.71221], "properties": {"magmom": 0.792}, "label": "Co", "xyz": [1.2678522882, 2.1959845010429997, 8.8167182298]}, {"species": [{"element": "Co", "occu": 1}], "abc": [0.0, 0.626377, 0.21221], "properties": {"magmom": 0.786}, "label": "Co", "xyz": [2.1255477118, 3.6815564989569998, 2.6270282298]}, {"species": [{"element": "Co", "occu": 1}], "abc": [0.373623, 0.373623, 0.21221], "properties": {"magmom": 0.785}, "label": "Co", "xyz": [2.5357045764, 0.0, 2.6270282298]}, {"species": [{"element": "Co", "occu": 1}], "abc": [0.373623, 0.0, 0.71221], "properties": {"magmom": 0.792}, "label": "Co", "xyz": [1.2678522882, -2.1959845010429997, 8.8167182298]}, {"species": [{"element": "Co", "occu": 1}], "abc": [0.306855999999999, 0.0, 0.32233], "properties": {"magmom": 0.604}, "label": "Co", "xyz": [1.0412851503999967, -1.8035587210959942, 3.9902455554]}, {"species": [{"element": "Co", "occu": 1}], "abc": [0.306855999999999, 0.306855999999999, 0.8223300000000001], "properties": {"magmom": 0.608}, "label": "Co", "xyz": [2.0825703007999934, 0.0, 10.1799355554]}, {"species": [{"element": "Co", "occu": 1}], "abc": [0.0, 0.693144, 0.8223300000000001], "properties": {"magmom": 0.608}, "label": "Co", "xyz": [2.3521148496, 4.073982278903999, 10.1799355554]}, {"species": [{"element": "Co", "occu": 1}], "abc": [0.0, 0.306855999999999, 0.32233], "properties": {"magmom": 0.604}, "label": "Co", "xyz": [1.0412851503999967, 1.8035587210959942, 3.9902455554]}, {"species": [{"element": "Co", "occu": 1}], "abc": [0.693144, 0.693144, 0.32233], "properties": {"magmom": 0.605}, "label": "Co", "xyz": [4.7042296992, 0.0, 3.9902455554]}, {"species": [{"element": "Co", "occu": 1}], "abc": [0.693144, 0.0, 0.8223300000000001], "properties": {"magmom": 0.608}, "label": "Co", "xyz": [2.3521148496, -4.073982278903999, 10.1799355554]}, {"species": [{"element": "Co", "occu": 1}], "abc": [0.630012, 0.0, 0.423271], "properties": {"magmom": 1.125}, "label": "Co", "xyz": [2.1378827208, -3.702921360492, 5.23983255198]}, {"species": [{"element": "Co", "occu": 1}], "abc": [0.630012, 0.630012, 0.923271], "properties": {"magmom": 1.12}, "label": "Co", "xyz": [4.2757654416, 0.0, 11.429522551979998]}, {"species": [{"element": "Co", "occu": 1}], "abc": [0.0, 0.369988, 0.923271], "properties": {"magmom": 1.121}, "label": "Co", "xyz": [1.2555172792, 2.1746196395079997, 11.429522551979998]}, {"species": [{"element": "Co", "occu": 1}], "abc": [0.0, 0.630012, 0.423271], "properties": {"magmom": 1.125}, "label": "Co", "xyz": [2.1378827208, 3.702921360492, 5.23983255198]}, {"species": [{"element": "Co", "occu": 1}], "abc": [0.369988, 0.369988, 0.423271], "properties": {"magmom": 1.123}, "label": "Co", "xyz": [2.5110345584, 0.0, 5.23983255198]}, {"species": [{"element": "Co", "occu": 1}], "abc": [0.369988, 0.0, 0.923271], "properties": {"magmom": 1.121}, "label": "Co", "xyz": [1.2555172792, -2.1746196395079997, 11.429522551979998]}, {"species": [{"element": "As", "occu": 1}], "abc": [0.0, 0.0, 0.244937], "properties": {"magmom": -0.036000000000000004}, "label": "As", "xyz": [0.0, 0.0, 3.0321681990599996]}, {"species": [{"element": "As", "occu": 1}], "abc": [0.0, 0.0, 0.744937], "properties": {"magmom": -0.036000000000000004}, "label": "As", "xyz": [0.0, 0.0, 9.22185819906]}, {"species": [{"element": "As", "occu": 1}], "abc": [0.333333, 0.666667, 0.290074], "properties": {"magmom": -0.027}, "label": "As", "xyz": [3.3934000000000006, 1.9591842516940001, 3.5909362741199997]}, {"species": [{"element": "As", "occu": 1}], "abc": [0.666667, 0.333333, 0.790073999999999], "properties": {"magmom": -0.027}, "label": "As", "xyz": [3.3934000000000006, -1.9591842516940001, 9.780626274119987]}, {"species": [{"element": "As", "occu": 1}], "abc": [0.333333, 0.666667, 0.790073999999999], "properties": {"magmom": -0.027}, "label": "As", "xyz": [3.3934000000000006, 1.9591842516940001, 9.780626274119987]}, {"species": [{"element": "As", "occu": 1}], "abc": [0.666667, 0.333333, 0.290074], "properties": {"magmom": -0.027}, "label": "As", "xyz": [3.3934000000000006, -1.9591842516940001, 3.5909362741199997]}, {"species": [{"element": "As", "occu": 1}], "abc": [0.67135, 0.0, 0.016083999999999002], "properties": {"magmom": -0.022}, "label": "As", "xyz": [2.27815909, -3.94588715035, 0.19910994791998762]}, {"species": [{"element": "As", "occu": 1}], "abc": [0.67135, 0.67135, 0.516084], "properties": {"magmom": -0.022}, "label": "As", "xyz": [4.55631818, 0.0, 6.38879994792]}, {"species": [{"element": "As", "occu": 1}], "abc": [0.0, 0.32865000000000005, 0.516084], "properties": {"magmom": -0.022}, "label": "As", "xyz": [1.1152409100000003, 1.9316538496500002, 6.38879994792]}, {"species": [{"element": "As", "occu": 1}], "abc": [0.0, 0.67135, 0.016083999999999002], "properties": {"magmom": -0.022}, "label": "As", "xyz": [2.27815909, 3.94588715035, 0.19910994791998762]}, {"species": [{"element": "As", "occu": 1}], "abc": [0.32865000000000005, 0.32865000000000005, 0.016083999999999002], "properties": {"magmom": -0.022}, "label": "As", "xyz": [2.2304818200000005, 0.0, 0.19910994791998762]}, {"species": [{"element": "As", "occu": 1}], "abc": [0.32865000000000005, 0.0, 0.516084], "properties": {"magmom": -0.022}, "label": "As", "xyz": [1.1152409100000003, -1.9316538496500002, 6.38879994792]}]}, "task_ids": null, "uncorrected_energy_per_atom": null, "energy_per_atom": -13.710701364404759, "formation_energy_per_atom": -0.055527417976190006, "energy_above_hull": 0.068808741666666, "is_stable": false, "equilibrium_reaction_energy_per_atom": null, "decomposes_to": null, "xas": null, "grain_boundaries": null, "band_gap": 0.0, "cbm": null, "vbm": null, "efermi": 7.08760715, "is_gap_direct": null, "is_metal": null, "es_source_calc_id": null, "bandstructure": null, "dos": null, "dos_energy_up": null, "dos_energy_down": null, "is_magnetic": null, "ordering": null, "total_magnetization": 25.441083, "total_magnetization_normalized_vol": null, "total_magnetization_normalized_formula_units": null, "num_magnetic_sites": null, "num_unique_magnetic_sites": null, "types_of_magnetic_species": null, "bulk_modulus": null, "shear_modulus": null, "universal_anisotropy": null, "homogeneous_poisson": null, "e_total": null, "e_ionic": null, "e_electronic": null, "n": null, "e_ij_max": null, "weighted_surface_energy_EV_PER_ANG2": null, "weighted_surface_energy": null, "weighted_work_function": null, "surface_anisotropy": null, "shape_factor": null, "has_reconstructed": null, "possible_species": null, "has_props": null, "theoretical": null, "database_IDs": null, "fields_not_requested": ["builder_meta", "nsites", "elements", "nelements", "composition", "composition_reduced", "chemsys", "symmetry", "property_name", "deprecated", "deprecation_reasons", "last_updated", "origins", "warnings", "task_ids", "uncorrected_energy_per_atom", "equilibrium_reaction_energy_per_atom", "decomposes_to", "xas", "grain_boundaries", "cbm", "vbm", "is_gap_direct", "is_metal", "es_source_calc_id", "bandstructure", "dos", "dos_energy_up", "dos_energy_down", "is_magnetic", "ordering", "total_magnetization_normalized_vol", "total_magnetization_normalized_formula_units", "num_magnetic_sites", "num_unique_magnetic_sites", "types_of_magnetic_species", "bulk_modulus", "shear_modulus", "universal_anisotropy", "homogeneous_poisson", "e_total", "e_ionic", "e_electronic", "n", "e_ij_max", "weighted_surface_energy_EV_PER_ANG2", "weighted_surface_energy", "weighted_work_function", "surface_anisotropy", "shape_factor", "has_reconstructed", "possible_species", "has_props", "theoretical", "database_IDs"]}