{"builder_meta": null, "nsites": null, "elements": null, "nelements": null, "composition": null, "composition_reduced": null, "formula_pretty": "Co5Ge7", "formula_anonymous": "A5B7", "chemsys": null, "volume": 186.9034492990549, "density": 7.13553052483334, "density_atomic": 15.575287441587909, "symmetry": null, "property_name": null, "material_id": "mp-22732", "deprecated": null, "deprecation_reasons": null, "last_updated": null, "origins": null, "warnings": null, "structure": {"@module": "pymatgen.core.structure", "@class": "Structure", "charge": 0, "lattice": {"matrix": [[-3.995548, 3.995548, 2.926878], [3.995548, -3.995548, 2.926878], [3.995548, 3.995548, -2.926878]], "pbc": [true, true, true], "a": 6.363601375596369, "b": 6.363601375596369, "c": 6.363601375596369, "alpha": 102.21292403180817, "beta": 102.21292403180817, "gamma": 125.23346368264343, "volume": 186.9034492990549}, "properties": {}, "sites": [{"species": [{"element": "Co", "occu": 1}], "abc": [0.540246999999999, 0.540246999999999, 0.0], "properties": {"magmom": 0.304}, "label": "Co", "xyz": [0.0, 0.0, 3.1624741177319944]}, {"species": [{"element": "Co", "occu": 1}], "abc": [0.721677, 0.252961, 0.0], "properties": {"magmom": 0.605}, "label": "Co", "xyz": [-1.872777276368, 1.872777276368, 2.852646520164]}, {"species": [{"element": "Co", "occu": 1}], "abc": [0.252961, 0.252961, 0.531285], "properties": {"magmom": 0.603}, "label": "Co", "xyz": [2.12277471918, 2.12277471918, -0.07423440671399995]}, {"species": [{"element": "Co", "occu": 1}], "abc": [0.721677, 0.721677, 0.468715999999999], "properties": {"magmom": 0.633}, "label": "Co", "xyz": [1.872777276367996, 1.872777276367996, 2.8526465201640026]}, {"species": [{"element": "Co", "occu": 1}], "abc": [0.252961, 0.721677, 0.0], "properties": {"magmom": 0.616}, "label": "Co", "xyz": [1.872777276368, -1.872777276368, 2.852646520164]}, {"species": [{"element": "Ge", "occu": 1}], "abc": [0.159756999999999, 0.159756999999999, 0.0], "properties": {"magmom": -0.013000000000000001}, "label": "Ge", "xyz": [0.0, 0.0, 0.9351784972919942]}, {"species": [{"element": "Ge", "occu": 1}], "abc": [0.019850000000000003, 0.51985, 0.5], "properties": {"magmom": -0.006}, "label": "Ge", "xyz": [3.9955480000000003, -2.220446049250313e-16, 0.11619705660000013]}, {"species": [{"element": "Ge", "occu": 1}], "abc": [0.51985, 0.019850000000000003, 0.5], "properties": {"magmom": -0.009000000000000001}, "label": "Ge", "xyz": [-2.220446049250313e-16, 3.9955480000000003, 0.11619705660000013]}, {"species": [{"element": "Ge", "occu": 1}], "abc": [0.018302, 0.777755, 0.240546999999999], "properties": {"magmom": -0.017}, "label": "Ge", "xyz": [3.995547999999996, -2.0733138304880043, 1.6259099977800027]}, {"species": [{"element": "Ge", "occu": 1}], "abc": [0.777755, 0.537207, 0.759452999999999], "properties": {"magmom": -0.019}, "label": "Ge", "xyz": [2.0733098349399963, 3.995551995547996, 1.6259070709020023]}, {"species": [{"element": "Ge", "occu": 1}], "abc": [0.777755, 0.018302, 0.240546999999999], "properties": {"magmom": -0.018000000000000002}, "label": "Ge", "xyz": [-2.0733138304880043, 3.995547999999996, 1.6259099977800027]}, {"species": [{"element": "Ge", "occu": 1}], "abc": [0.537207, 0.777755, 0.759452999999999], "properties": {"magmom": -0.02}, "label": "Ge", "xyz": [3.995551995547996, 2.0733098349399963, 1.6259070709020023]}]}, "task_ids": null, "uncorrected_energy_per_atom": null, "energy_per_atom": -13.0988454325, "formation_energy_per_atom": 0.5074044600000011, "energy_above_hull": 0.5677999381250001, "is_stable": false, "equilibrium_reaction_energy_per_atom": null, "decomposes_to": null, "xas": null, "grain_boundaries": null, "band_gap": 0.0, "cbm": null, "vbm": null, "efermi": 6.1149359, "is_gap_direct": null, "is_metal": null, "es_source_calc_id": null, "bandstructure": null, "dos": null, "dos_energy_up": null, "dos_energy_down": null, "is_magnetic": null, "ordering": null, "total_magnetization": 2.5261294, "total_magnetization_normalized_vol": null, "total_magnetization_normalized_formula_units": null, "num_magnetic_sites": null, "num_unique_magnetic_sites": null, "types_of_magnetic_species": null, "bulk_modulus": null, "shear_modulus": null, "universal_anisotropy": null, "homogeneous_poisson": null, "e_total": null, "e_ionic": null, "e_electronic": null, "n": null, "e_ij_max": null, "weighted_surface_energy_EV_PER_ANG2": null, "weighted_surface_energy": null, "weighted_work_function": null, "surface_anisotropy": null, "shape_factor": null, "has_reconstructed": null, "possible_species": null, "has_props": null, "theoretical": null, "database_IDs": null, "fields_not_requested": ["builder_meta", "nsites", "elements", "nelements", "composition", "composition_reduced", "chemsys", "symmetry", "property_name", "deprecated", "deprecation_reasons", "last_updated", "origins", "warnings", "task_ids", "uncorrected_energy_per_atom", "equilibrium_reaction_energy_per_atom", "decomposes_to", "xas", "grain_boundaries", "cbm", "vbm", "is_gap_direct", "is_metal", "es_source_calc_id", "bandstructure", "dos", "dos_energy_up", "dos_energy_down", "is_magnetic", "ordering", "total_magnetization_normalized_vol", "total_magnetization_normalized_formula_units", "num_magnetic_sites", "num_unique_magnetic_sites", "types_of_magnetic_species", "bulk_modulus", "shear_modulus", "universal_anisotropy", "homogeneous_poisson", "e_total", "e_ionic", "e_electronic", "n", "e_ij_max", "weighted_surface_energy_EV_PER_ANG2", "weighted_surface_energy", "weighted_work_function", "surface_anisotropy", "shape_factor", "has_reconstructed", "possible_species", "has_props", "theoretical", "database_IDs"]}