{
  "builder_meta": null,
  "nsites": null,
  "elements": null,
  "nelements": null,
  "composition": null,
  "composition_reduced": null,
  "formula_pretty": "Co5O7",
  "formula_anonymous": "A5B7",
  "chemsys": null,
  "volume": 273.5798507358449,
  "density": 4.936604523060536,
  "density_atomic": 11.39916044732687,
  "symmetry": null,
  "property_name": null,
  "material_id": "mp-1046082",
  "deprecated": null,
  "deprecation_reasons": null,
  "last_updated": null,
  "origins": null,
  "warnings": null,
  "structure": {
    "@module": "pymatgen.core.structure",
    "@class": "Structure",
    "charge": 0,
    "lattice": {
      "matrix": [
        [1.475099, -4.922777, 0.0],
        [1.475099, 4.922777, 0.0],
        [0.0, 0.0, 18.837479]
      ],
      "pbc": [true, true, true],
      "a": 5.139032053950432,
      "b": 5.139032053950432,
      "c": 18.837479,
      "alpha": 90.0,
      "beta": 90.0,
      "gamma": 146.6385482247312,
      "volume": 273.5798507358449
    },
    "properties": {},
    "sites": [
      {
        "species": [{ "element": "Co", "occu": 1 }],
        "abc": [0.734584, 0.265416, 0.574975],
        "properties": { "magmom": 0.216 },
        "label": "Co",
        "xyz": [1.475099, -2.3096094395360005, 10.831079488024999]
      },
      {
        "species": [{ "element": "Co", "occu": 1 }],
        "abc": [0.0, 0.0, 0.5],
        "properties": { "magmom": 2.033 },
        "label": "Co",
        "xyz": [0.0, 0.0, 9.4187395]
      },
      {
        "species": [{ "element": "Co", "occu": 1 }],
        "abc": [0.0, 0.0, 0.0],
        "properties": { "magmom": 1.687 },
        "label": "Co",
        "xyz": [0.0, 0.0, 0.0]
      },
      {
        "species": [{ "element": "Co", "occu": 1 }],
        "abc": [0.265416, 0.734584, 0.425025],
        "properties": { "magmom": 0.9530000000000001 },
        "label": "Co",
        "xyz": [1.475099, 2.3096094395360005, 8.006399511975]
      },
      {
        "species": [{ "element": "Co", "occu": 1 }],
        "abc": [0.265416, 0.734584, 0.074975],
        "properties": { "magmom": 0.561 },
        "label": "Co",
        "xyz": [1.475099, 2.3096094395360005, 1.4123399880249998]
      },
      {
        "species": [{ "element": "Co", "occu": 1 }],
        "abc": [0.734584, 0.265416, 0.925025],
        "properties": { "magmom": 3.057 },
        "label": "Co",
        "xyz": [1.475099, -2.3096094395360005, 17.425139011975]
      },
      {
        "species": [{ "element": "Co", "occu": 1 }],
        "abc": [0.519448999999999, 0.480551, 0.159379],
        "properties": { "magmom": -2.542 },
        "label": "Co",
        "xyz": [1.4750989999999986, -0.19148617974599524, 3.0022985655409995]
      },
      {
        "species": [{ "element": "Co", "occu": 1 }],
        "abc": [0.480551, 0.519448999999999, 0.840621],
        "properties": { "magmom": -2.8890000000000002 },
        "label": "Co",
        "xyz": [1.4750989999999986, 0.19148617974599524, 15.835180434458998]
      },
      {
        "species": [{ "element": "Co", "occu": 1 }],
        "abc": [0.480551, 0.519448999999999, 0.659378999999999],
        "properties": { "magmom": -2.802 },
        "label": "Co",
        "xyz": [1.4750989999999986, 0.19148617974599524, 12.421038065540982]
      },
      {
        "species": [{ "element": "Co", "occu": 1 }],
        "abc": [0.519448999999999, 0.480551, 0.340621],
        "properties": { "magmom": -2.615 },
        "label": "Co",
        "xyz": [1.4750989999999986, -0.19148617974599524, 6.416440934459]
      },
      {
        "species": [{ "element": "O", "occu": 1 }],
        "abc": [0.356941, 0.643058999999999, 0.978568999999999],
        "properties": { "magmom": 0.066 },
        "label": "O",
        "xyz": [1.4750989999999984, 1.4084951096859952, 18.43377298755098]
      },
      {
        "species": [{ "element": "O", "occu": 1 }],
        "abc": [0.643058999999999, 0.356941, 0.021431],
        "properties": { "magmom": -0.053 },
        "label": "O",
        "xyz": [1.4750989999999984, -1.4084951096859952, 0.40370601244899995]
      },
      {
        "species": [{ "element": "O", "occu": 1 }],
        "abc": [0.643058999999999, 0.356941, 0.478568999999999],
        "properties": { "magmom": -0.07100000000000001 },
        "label": "O",
        "xyz": [1.4750989999999984, -1.4084951096859952, 9.015033487550982]
      },
      {
        "species": [{ "element": "O", "occu": 1 }],
        "abc": [0.356941, 0.643058999999999, 0.521431],
        "properties": { "magmom": -0.082 },
        "label": "O",
        "xyz": [1.4750989999999984, 1.4084951096859952, 9.822445512448999]
      },
      {
        "species": [{ "element": "O", "occu": 1 }],
        "abc": [0.847005999999999, 0.152994, 0.850224],
        "properties": { "magmom": -0.192 },
        "label": "O",
        "xyz": [1.4750989999999986, -3.4164663113239953, 16.016076745295997]
      },
      {
        "species": [{ "element": "O", "occu": 1 }],
        "abc": [0.152994, 0.847005999999999, 0.149776],
        "properties": { "magmom": -0.28300000000000003 },
        "label": "O",
        "xyz": [1.4750989999999986, 3.4164663113239953, 2.8214022547039996]
      },
      {
        "species": [{ "element": "O", "occu": 1 }],
        "abc": [0.152994, 0.847005999999999, 0.350224],
        "properties": { "magmom": -0.28700000000000003 },
        "label": "O",
        "xyz": [1.4750989999999986, 3.4164663113239953, 6.597337245295999]
      },
      {
        "species": [{ "element": "O", "occu": 1 }],
        "abc": [0.847005999999999, 0.152994, 0.649776],
        "properties": { "magmom": -0.265 },
        "label": "O",
        "xyz": [1.4750989999999986, -3.4164663113239953, 12.240141754704]
      },
      {
        "species": [{ "element": "O", "occu": 1 }],
        "abc": [0.096484, 0.903516, 0.900938999999999],
        "properties": { "magmom": 0.006 },
        "label": "O",
        "xyz": [1.475099, 3.972838567864, 16.97141949278098]
      },
      {
        "species": [{ "element": "O", "occu": 1 }],
        "abc": [0.903516, 0.096484, 0.099061],
        "properties": { "magmom": -0.163 },
        "label": "O",
        "xyz": [1.475099, -3.972838567864, 1.8660595072189998]
      },
      {
        "species": [{ "element": "O", "occu": 1 }],
        "abc": [0.903516, 0.096484, 0.400939],
        "properties": { "magmom": -0.186 },
        "label": "O",
        "xyz": [1.475099, -3.972838567864, 7.552679992780999]
      },
      {
        "species": [{ "element": "O", "occu": 1 }],
        "abc": [0.096484, 0.903516, 0.599061],
        "properties": { "magmom": -0.14400000000000002 },
        "label": "O",
        "xyz": [1.475099, 3.972838567864, 11.284799007218998]
      },
      {
        "species": [{ "element": "O", "occu": 1 }],
        "abc": [0.537858, 0.462142, 0.75],
        "properties": { "magmom": -0.6000000000000001 },
        "label": "O",
        "xyz": [1.475099, -0.3727329833319999, 14.128109249999998]
      },
      {
        "species": [{ "element": "O", "occu": 1 }],
        "abc": [0.462142, 0.537858, 0.25],
        "properties": { "magmom": -0.637 },
        "label": "O",
        "xyz": [1.475099, 0.3727329833319999, 4.70936975]
      }
    ]
  },
  "task_ids": null,
  "uncorrected_energy_per_atom": null,
  "energy_per_atom": -6.720261830416667,
  "formation_energy_per_atom": -0.861694277499999,
  "energy_above_hull": 0.40763792428571405,
  "is_stable": false,
  "equilibrium_reaction_energy_per_atom": null,
  "decomposes_to": null,
  "xas": null,
  "grain_boundaries": null,
  "band_gap": 0.0,
  "cbm": null,
  "vbm": null,
  "efermi": 1.97683545,
  "is_gap_direct": null,
  "is_metal": null,
  "es_source_calc_id": null,
  "bandstructure": null,
  "dos": null,
  "dos_energy_up": null,
  "dos_energy_down": null,
  "is_magnetic": null,
  "ordering": null,
  "total_magnetization": 7.8473579,
  "total_magnetization_normalized_vol": null,
  "total_magnetization_normalized_formula_units": null,
  "num_magnetic_sites": null,
  "num_unique_magnetic_sites": null,
  "types_of_magnetic_species": null,
  "bulk_modulus": null,
  "shear_modulus": null,
  "universal_anisotropy": null,
  "homogeneous_poisson": null,
  "e_total": null,
  "e_ionic": null,
  "e_electronic": null,
  "n": null,
  "e_ij_max": null,
  "weighted_surface_energy_EV_PER_ANG2": null,
  "weighted_surface_energy": null,
  "weighted_work_function": null,
  "surface_anisotropy": null,
  "shape_factor": null,
  "has_reconstructed": null,
  "possible_species": null,
  "has_props": null,
  "theoretical": null,
  "database_IDs": null,
  "fields_not_requested": [
    "builder_meta",
    "nsites",
    "elements",
    "nelements",
    "composition",
    "composition_reduced",
    "chemsys",
    "symmetry",
    "property_name",
    "deprecated",
    "deprecation_reasons",
    "last_updated",
    "origins",
    "warnings",
    "task_ids",
    "uncorrected_energy_per_atom",
    "equilibrium_reaction_energy_per_atom",
    "decomposes_to",
    "xas",
    "grain_boundaries",
    "cbm",
    "vbm",
    "is_gap_direct",
    "is_metal",
    "es_source_calc_id",
    "bandstructure",
    "dos",
    "dos_energy_up",
    "dos_energy_down",
    "is_magnetic",
    "ordering",
    "total_magnetization_normalized_vol",
    "total_magnetization_normalized_formula_units",
    "num_magnetic_sites",
    "num_unique_magnetic_sites",
    "types_of_magnetic_species",
    "bulk_modulus",
    "shear_modulus",
    "universal_anisotropy",
    "homogeneous_poisson",
    "e_total",
    "e_ionic",
    "e_electronic",
    "n",
    "e_ij_max",
    "weighted_surface_energy_EV_PER_ANG2",
    "weighted_surface_energy",
    "weighted_work_function",
    "surface_anisotropy",
    "shape_factor",
    "has_reconstructed",
    "possible_species",
    "has_props",
    "theoretical",
    "database_IDs"
  ]
}
