{"builder_meta": null, "nsites": null, "elements": null, "nelements": null, "composition": null, "composition_reduced": null, "formula_pretty": "Co5O8", "formula_anonymous": "A5B8", "chemsys": null, "volume": 125.70728249592105, "density": 5.583172104968004, "density_atomic": 9.669790961224695, "symmetry": null, "property_name": null, "material_id": "mp-761471", "deprecated": null, "deprecation_reasons": null, "last_updated": null, "origins": null, "warnings": null, "structure": {"@module": "pymatgen.core.structure", "@class": "Structure", "charge": 0, "lattice": {"matrix": [[-5.6273919, -0.00827312, 0.01163282], [-2.80668488, 4.86158894, 0.00033049], [-2.80657142, -1.62086834, -4.58337291]], "pbc": [true, true, true], "a": 5.627410004895796, "b": 5.613601976126788, "c": 5.613498422846223, "alpha": 90.00790706519132, "beta": 60.08574606896434, "gamma": 60.08566420853906, "volume": 125.70728249592105}, "properties": {}, "sites": [{"species": [{"element": "Co", "occu": 1}], "abc": [0.49590144, 0.49719523, 0.50203155], "properties": {"magmom": 0.274}, "label": "Co", "xyz": [-5.595089481271759, 1.5993291339913362, -2.2950647559944866]}, {"species": [{"element": "Co", "occu": 1}], "abc": [0.495899, 0.0069026600000000006, 0.5020661200000001], "properties": {"magmom": 0.274}, "label": "Co", "xyz": [-4.219076030614172, -0.7843278149169404, -2.2953852683715255]}, {"species": [{"element": "Co", "occu": 1}], "abc": [0.24999025, 0.8750171600000001, 0.12500209], "properties": {"magmom": 2.8200000000000003}, "label": "Co", "xyz": [-4.213517833875784, 4.049293617914301, -0.5697339169981684]}, {"species": [{"element": "Co", "occu": 1}], "abc": [0.00408937, 0.49797582, 0.50280043], "properties": {"magmom": 0.275}, "label": "Co", "xyz": [-2.8318190090154154, 1.6059466087253103, -2.304309723064476]}, {"species": [{"element": "Co", "occu": 1}], "abc": [0.00409661, 0.49793469999999906, 0.99310792], "properties": {"magmom": 0.275}, "label": "Co", "xyz": [-4.207827328896439, 0.8110227528848375, -4.551571719668703]}, {"species": [{"element": "O", "occu": 1}], "abc": [0.97831055, 0.73944197, 0.26083717], "properties": {"magmom": 0.149}, "label": "O", "xyz": [-8.31277560818664, 3.163986511798198, -1.1838891301901484]}, {"species": [{"element": "O", "occu": 1}], "abc": [0.97831057, 0.28225458000000003, 0.26084901], "properties": {"magmom": 0.149}, "label": "O", "xyz": [-7.029628015700428, 0.9413101618201234, -1.1840944929532673]}, {"species": [{"element": "O", "occu": 1}], "abc": [0.52172205, 0.7391367, 0.71772481], "properties": {"magmom": 0.149}, "label": "O", "xyz": [-7.024804177535421, 2.4257251153802866, -3.283287075003233]}, {"species": [{"element": "O", "occu": 1}], "abc": [0.52172965, 0.73913014, 0.26053124], "properties": {"magmom": 0.149}, "label": "O", "xyz": [-5.74168212689128, 3.1667437433457017, -1.1877983653976267]}, {"species": [{"element": "O", "occu": 1}], "abc": [0.46806671, 0.26599165, 0.73641208], "properties": {"magmom": 0.08600000000000001}, "label": "O", "xyz": [-5.447342651845656, 0.09564266604696847, -3.369718334702922]}, {"species": [{"element": "O", "occu": 1}], "abc": [0.468057699999999, 0.26593635, 0.29553338], "properties": {"magmom": 0.08600000000000001}, "label": "O", "xyz": [-4.209779180264012, 0.8099802213297557, -1.3490069676147103]}, {"species": [{"element": "O", "occu": 1}], "abc": [0.03191469, 0.7044676400000001, 0.73408038], "properties": {"magmom": 0.08600000000000001}, "label": "O", "xyz": [-4.2170641561250335, 2.2347204061946, -3.3639600501000357]}, {"species": [{"element": "O", "occu": 1}], "abc": [0.03191042, 0.26361941, 0.73402081], "properties": {"magmom": 0.08600000000000001}, "label": "O", "xyz": [-2.9795508781863687, 0.09159411746125978, -3.3638327641794614]}]}, "task_ids": null, "uncorrected_energy_per_atom": null, "energy_per_atom": -6.958135475384614, "formation_energy_per_atom": -1.169614579999998, "energy_above_hull": 0.023987028791211003, "is_stable": false, "equilibrium_reaction_energy_per_atom": null, "decomposes_to": null, "xas": null, "grain_boundaries": null, "band_gap": 0.0, "cbm": null, "vbm": null, "efermi": 2.15785943, "is_gap_direct": null, "is_metal": null, "es_source_calc_id": null, "bandstructure": null, "dos": null, "dos_energy_up": null, "dos_energy_down": null, "is_magnetic": null, "ordering": null, "total_magnetization": 4.993443, "total_magnetization_normalized_vol": null, "total_magnetization_normalized_formula_units": null, "num_magnetic_sites": null, "num_unique_magnetic_sites": null, "types_of_magnetic_species": null, "bulk_modulus": null, "shear_modulus": null, "universal_anisotropy": null, "homogeneous_poisson": null, "e_total": null, "e_ionic": null, "e_electronic": null, "n": null, "e_ij_max": null, "weighted_surface_energy_EV_PER_ANG2": null, "weighted_surface_energy": null, "weighted_work_function": null, "surface_anisotropy": null, "shape_factor": null, "has_reconstructed": null, "possible_species": null, "has_props": null, "theoretical": null, "database_IDs": null, "fields_not_requested": ["builder_meta", "nsites", "elements", "nelements", "composition", "composition_reduced", "chemsys", "symmetry", "property_name", "deprecated", "deprecation_reasons", "last_updated", "origins", "warnings", "task_ids", "uncorrected_energy_per_atom", "equilibrium_reaction_energy_per_atom", "decomposes_to", "xas", "grain_boundaries", "cbm", "vbm", "is_gap_direct", "is_metal", "es_source_calc_id", "bandstructure", "dos", "dos_energy_up", "dos_energy_down", "is_magnetic", "ordering", "total_magnetization_normalized_vol", "total_magnetization_normalized_formula_units", "num_magnetic_sites", "num_unique_magnetic_sites", "types_of_magnetic_species", "bulk_modulus", "shear_modulus", "universal_anisotropy", "homogeneous_poisson", "e_total", "e_ionic", "e_electronic", "n", "e_ij_max", "weighted_surface_energy_EV_PER_ANG2", "weighted_surface_energy", "weighted_work_function", "surface_anisotropy", "shape_factor", "has_reconstructed", "possible_species", "has_props", "theoretical", "database_IDs"]}