{
  "builder_meta": null,
  "nsites": null,
  "elements": null,
  "nelements": null,
  "composition": null,
  "composition_reduced": null,
  "formula_pretty": "Co5Te6",
  "formula_anonymous": "A5B6",
  "chemsys": null,
  "volume": 215.19290030745515,
  "density": 8.181557430374221,
  "density_atomic": 19.562990937041377,
  "symmetry": null,
  "property_name": null,
  "material_id": "mp-1226090",
  "deprecated": null,
  "deprecation_reasons": null,
  "last_updated": null,
  "origins": null,
  "warnings": null,
  "structure": {
    "@module": "pymatgen.core.structure",
    "@class": "Structure",
    "charge": 0,
    "lattice": {
      "matrix": [
        [5.70525694, -3.40574407, -0.01289766],
        [5.70528764, 3.40569232, -0.01298186],
        [3.6848248200000002, 5.1740000000000016e-5, 5.5291314400000005]
      ],
      "pbc": [true, true, true],
      "a": 6.6444876229391685,
      "b": 6.6444876222574765,
      "c": 6.64448857607277,
      "alpha": 61.66939993432604,
      "beta": 61.669399930084346,
      "gamma": 61.66939607236146,
      "volume": 215.1929003074552
    },
    "properties": {},
    "sites": [
      {
        "species": [{ "element": "Co", "occu": 1 }],
        "abc": [0.8372455, 0.8372455, 0.8372455],
        "properties": { "magmom": 0.9410000000000001 },
        "label": "Co",
        "xyz": [12.638530100987701, -8.372454986202177e-9, 4.607572905386361]
      },
      {
        "species": [{ "element": "Co", "occu": 1 }],
        "abc": [0.5, 0.5, 0.5],
        "properties": { "magmom": -1.343 },
        "label": "Co",
        "xyz": [7.5476847, -4.999999953010799e-9, 2.75162596]
      },
      {
        "species": [{ "element": "Co", "occu": 1 }],
        "abc": [0.1627545, 0.1627545, 0.1627545],
        "properties": { "magmom": 0.9410000000000001 },
        "label": "Co",
        "xyz": [2.4568392990123, -1.6275449198177274e-9, 0.8956790146136401]
      },
      {
        "species": [{ "element": "Co", "occu": 1 }],
        "abc": [0.66592609, 0.66592609, 0.66592609],
        "properties": { "magmom": 1.427 },
        "label": "Co",
        "xyz": [10.052400321647646, -6.659260926617937e-9, 3.6647590333705935]
      },
      {
        "species": [{ "element": "Co", "occu": 1 }],
        "abc": [0.33407391000000003, 0.33407391000000003, 0.33407391000000003],
        "properties": { "magmom": 1.427 },
        "label": "Co",
        "xyz": [5.042969078352354, -3.340739201448267e-9, 1.8384928866294075]
      },
      {
        "species": [{ "element": "Te", "occu": 1 }],
        "abc": [0.07873193, 0.42312192, 0.75559149],
        "properties": { "magmom": -0.042 },
        "label": "Te",
        "xyz": [5.6474404265539455, 1.1729213639541918, 4.171256295962791]
      },
      {
        "species": [{ "element": "Te", "occu": 1 }],
        "abc": [0.75559149, 0.07873193, 0.42312192],
        "properties": { "magmom": -0.042 },
        "label": "Te",
        "xyz": [6.31916205193184, -2.3051926147420456, 2.328729261795462]
      },
      {
        "species": [{ "element": "Te", "occu": 1 }],
        "abc": [0.42312192, 0.75559149, 0.07873193],
        "properties": { "magmom": -0.042 },
        "label": "Te",
        "xyz": [7.0149994291228115, 1.132271238213401, 0.42005292389180066]
      },
      {
        "species": [{ "element": "Te", "occu": 1 }],
        "abc": [0.92126807, 0.57687808, 0.24440851],
        "properties": { "magmom": -0.042 },
        "label": "Te",
        "xyz": [9.447928973446055, -1.1729213739541917, 1.3319956240372095]
      },
      {
        "species": [{ "element": "Te", "occu": 1 }],
        "abc": [0.57687808, 0.24440851, 0.92126807],
        "properties": { "magmom": -0.042 },
        "label": "Te",
        "xyz": [8.08036997087719, -1.1322712482134003, 5.0831989961082]
      },
      {
        "species": [{ "element": "Te", "occu": 1 }],
        "abc": [0.24440851, 0.92126807, 0.57687808],
        "properties": { "magmom": -0.042 },
        "label": "Te",
        "xyz": [8.77620734806816, 2.3051926047420457, 3.174522658204538]
      }
    ]
  },
  "task_ids": null,
  "uncorrected_energy_per_atom": null,
  "energy_per_atom": -19.951443813636363,
  "formation_energy_per_atom": -0.07194367636363701,
  "energy_above_hull": 0.07932191045454201,
  "is_stable": false,
  "equilibrium_reaction_energy_per_atom": null,
  "decomposes_to": null,
  "xas": null,
  "grain_boundaries": null,
  "band_gap": 0.0,
  "cbm": null,
  "vbm": null,
  "efermi": 8.26314572,
  "is_gap_direct": null,
  "is_metal": null,
  "es_source_calc_id": null,
  "bandstructure": null,
  "dos": null,
  "dos_energy_up": null,
  "dos_energy_down": null,
  "is_magnetic": null,
  "ordering": null,
  "total_magnetization": 2.9695361,
  "total_magnetization_normalized_vol": null,
  "total_magnetization_normalized_formula_units": null,
  "num_magnetic_sites": null,
  "num_unique_magnetic_sites": null,
  "types_of_magnetic_species": null,
  "bulk_modulus": null,
  "shear_modulus": null,
  "universal_anisotropy": null,
  "homogeneous_poisson": null,
  "e_total": null,
  "e_ionic": null,
  "e_electronic": null,
  "n": null,
  "e_ij_max": null,
  "weighted_surface_energy_EV_PER_ANG2": null,
  "weighted_surface_energy": null,
  "weighted_work_function": null,
  "surface_anisotropy": null,
  "shape_factor": null,
  "has_reconstructed": null,
  "possible_species": null,
  "has_props": null,
  "theoretical": null,
  "database_IDs": null,
  "fields_not_requested": [
    "builder_meta",
    "nsites",
    "elements",
    "nelements",
    "composition",
    "composition_reduced",
    "chemsys",
    "symmetry",
    "property_name",
    "deprecated",
    "deprecation_reasons",
    "last_updated",
    "origins",
    "warnings",
    "task_ids",
    "uncorrected_energy_per_atom",
    "equilibrium_reaction_energy_per_atom",
    "decomposes_to",
    "xas",
    "grain_boundaries",
    "cbm",
    "vbm",
    "is_gap_direct",
    "is_metal",
    "es_source_calc_id",
    "bandstructure",
    "dos",
    "dos_energy_up",
    "dos_energy_down",
    "is_magnetic",
    "ordering",
    "total_magnetization_normalized_vol",
    "total_magnetization_normalized_formula_units",
    "num_magnetic_sites",
    "num_unique_magnetic_sites",
    "types_of_magnetic_species",
    "bulk_modulus",
    "shear_modulus",
    "universal_anisotropy",
    "homogeneous_poisson",
    "e_total",
    "e_ionic",
    "e_electronic",
    "n",
    "e_ij_max",
    "weighted_surface_energy_EV_PER_ANG2",
    "weighted_surface_energy",
    "weighted_work_function",
    "surface_anisotropy",
    "shape_factor",
    "has_reconstructed",
    "possible_species",
    "has_props",
    "theoretical",
    "database_IDs"
  ]
}
