{"builder_meta": null, "nsites": null, "elements": null, "nelements": null, "composition": null, "composition_reduced": null, "formula_pretty": "Co7Ge4", "formula_anonymous": "A4B7", "chemsys": null, "volume": 134.43886618511928, "density": 8.684336402413928, "density_atomic": 12.221715107738117, "symmetry": null, "property_name": null, "material_id": "mp-1226096", "deprecated": null, "deprecation_reasons": null, "last_updated": null, "origins": null, "warnings": null, "structure": {"@module": "pymatgen.core.structure", "@class": "Structure", "charge": 0, "lattice": {"matrix": [[1.9747393500000001, -3.42034924, 0.0], [1.9747393500000001, 3.42034924, 0.0], [0.0, 0.0, 9.95209728]], "pbc": [true, true, true], "a": 3.949479006654802, "b": 3.949479006654802, "c": 9.95209728, "alpha": 90.0, "beta": 90.0, "gamma": 120.00000513690999, "volume": 134.4388661851193}, "properties": {}, "sites": [{"species": [{"element": "Co", "occu": 1}], "abc": [-0.0, 0.0, 0.88177311], "properties": {"magmom": 1.7890000000000001}, "label": "Co", "xyz": [0.0, 0.0, 8.775491769608141]}, {"species": [{"element": "Co", "occu": 1}], "abc": [0.0, 0.0, 0.37103682], "properties": {"magmom": 1.057}, "label": "Co", "xyz": [0.0, 0.0, 3.6925945271018494]}, {"species": [{"element": "Co", "occu": 1}], "abc": [-0.0, 0.0, 0.11817139], "properties": {"magmom": 1.792}, "label": "Co", "xyz": [0.0, 0.0, 1.1760531689928193]}, {"species": [{"element": "Co", "occu": 1}], "abc": [-0.0, 0.0, 0.62898248], "properties": {"magmom": 1.057}, "label": "Co", "xyz": [0.0, 0.0, 6.259694828375655]}, {"species": [{"element": "Co", "occu": 1}], "abc": [0.666667, 0.333333, 0.5000340600000001], "properties": {"magmom": 0.04}, "label": "Co", "xyz": [1.9747393500000001, -1.1401186935661602, 4.976387608433358]}, {"species": [{"element": "Co", "occu": 1}], "abc": [0.333333, 0.666667, 0.76776553], "properties": {"magmom": 0.5640000000000001}, "label": "Co", "xyz": [1.9747393500000001, 1.1401186935661602, 7.640877242790759]}, {"species": [{"element": "Co", "occu": 1}], "abc": [0.333333, 0.666667, 0.23207194], "properties": {"magmom": 0.5690000000000001}, "label": "Co", "xyz": [1.9747393500000001, 1.1401186935661602, 2.3096025228383232]}, {"species": [{"element": "Ge", "occu": 1}], "abc": [0.666667, 0.333333, 0.73948064], "properties": {"magmom": -0.059000000000000004}, "label": "Ge", "xyz": [1.9747393500000001, -1.1401186935661602, 7.35938326595666]}, {"species": [{"element": "Ge", "occu": 1}], "abc": [0.666667, 0.333333, 0.26069425], "properties": {"magmom": -0.06}, "label": "Ge", "xyz": [1.9747393500000001, -1.1401186935661602, 2.5944545363366402]}, {"species": [{"element": "Ge", "occu": 1}], "abc": [0.333333, 0.666667, 0.99989964], "properties": {"magmom": -0.10300000000000001}, "label": "Ge", "xyz": [1.9747393500000001, 1.1401186935661602, 9.95109848751698]}, {"species": [{"element": "Ge", "occu": 1}], "abc": [0.333333, 0.666667, 0.50009014], "properties": {"magmom": -0.035}, "label": "Ge", "xyz": [1.9747393500000001, 1.1401186935661602, 4.976945722048819]}]}, "task_ids": null, "uncorrected_energy_per_atom": null, "energy_per_atom": -13.444967306363635, "formation_energy_per_atom": 0.021171623636364, "energy_above_hull": 0.07388040454545701, "is_stable": false, "equilibrium_reaction_energy_per_atom": null, "decomposes_to": null, "xas": null, "grain_boundaries": null, "band_gap": 0.0, "cbm": null, "vbm": null, "efermi": 6.80435521, "is_gap_direct": null, "is_metal": null, "es_source_calc_id": null, "bandstructure": null, "dos": null, "dos_energy_up": null, "dos_energy_down": null, "is_magnetic": null, "ordering": null, "total_magnetization": 6.3114854, "total_magnetization_normalized_vol": null, "total_magnetization_normalized_formula_units": null, "num_magnetic_sites": null, "num_unique_magnetic_sites": null, "types_of_magnetic_species": null, "bulk_modulus": null, "shear_modulus": null, "universal_anisotropy": null, "homogeneous_poisson": null, "e_total": null, "e_ionic": null, "e_electronic": null, "n": null, "e_ij_max": null, "weighted_surface_energy_EV_PER_ANG2": null, "weighted_surface_energy": null, "weighted_work_function": null, "surface_anisotropy": null, "shape_factor": null, "has_reconstructed": null, "possible_species": null, "has_props": null, "theoretical": null, "database_IDs": null, "fields_not_requested": ["builder_meta", "nsites", "elements", "nelements", "composition", "composition_reduced", "chemsys", "symmetry", "property_name", "deprecated", "deprecation_reasons", "last_updated", "origins", "warnings", "task_ids", "uncorrected_energy_per_atom", "equilibrium_reaction_energy_per_atom", "decomposes_to", "xas", "grain_boundaries", "cbm", "vbm", "is_gap_direct", "is_metal", "es_source_calc_id", "bandstructure", "dos", "dos_energy_up", "dos_energy_down", "is_magnetic", "ordering", "total_magnetization_normalized_vol", "total_magnetization_normalized_formula_units", "num_magnetic_sites", "num_unique_magnetic_sites", "types_of_magnetic_species", "bulk_modulus", "shear_modulus", "universal_anisotropy", "homogeneous_poisson", "e_total", "e_ionic", "e_electronic", "n", "e_ij_max", "weighted_surface_energy_EV_PER_ANG2", "weighted_surface_energy", "weighted_work_function", "surface_anisotropy", "shape_factor", "has_reconstructed", "possible_species", "has_props", "theoretical", "database_IDs"]}