{"builder_meta": null, "nsites": null, "elements": null, "nelements": null, "composition": null, "composition_reduced": null, "formula_pretty": "Co7Mo6", "formula_anonymous": "A6B7", "chemsys": null, "volume": 166.2776296627167, "density": 9.86842800168291, "density_atomic": 12.790586897132053, "symmetry": null, "property_name": null, "material_id": "mp-567747", "deprecated": null, "deprecation_reasons": null, "last_updated": null, "origins": null, "warnings": null, "structure": {"@module": "pymatgen.core.structure", "@class": "Structure", "charge": 0, "lattice": {"matrix": [[8.620388, -2.374873, 0.0], [8.620388, 2.374873, 0.0], [7.966123, 0.0, 4.061034]], "pbc": [true, true, true], "a": 8.941538516199156, "b": 8.941538516199156, "c": 8.941538614818201, "alpha": 30.80521679698149, "beta": 30.80521679698149, "gamma": 30.805220790597996, "volume": 166.2776296627167}, "properties": {}, "sites": [{"species": [{"element": "Co", "occu": 1}], "abc": [0.089946, 0.089946, 0.589058], "properties": {"magmom": 0.045}, "label": "Co", "xyz": [6.243247320229999, 0.0, 2.3921845659720002]}, {"species": [{"element": "Co", "occu": 1}], "abc": [0.410942, 0.910053999999999, 0.910053999999999], "properties": {"magmom": 0.043000000000000003}, "label": "Co", "xyz": [18.637100167089983, 1.1853276127759975, 3.6957602358359964]}, {"species": [{"element": "Co", "occu": 1}], "abc": [0.0, 0.0, 0.0], "properties": {"magmom": 1.074}, "label": "Co", "xyz": [0.0, 0.0, 0.0]}, {"species": [{"element": "Co", "occu": 1}], "abc": [0.589058, 0.089946, 0.089946], "properties": {"magmom": 0.043000000000000003}, "label": "Co", "xyz": [6.56979883291, -1.185327612776, 0.36527376416400004]}, {"species": [{"element": "Co", "occu": 1}], "abc": [0.910053999999999, 0.910053999999999, 0.410942], "properties": {"magmom": 0.045}, "label": "Co", "xyz": [18.963651679769985, 0.0, 1.668849434028]}, {"species": [{"element": "Co", "occu": 1}], "abc": [0.910053999999999, 0.410942, 0.910053999999999], "properties": {"magmom": 0.057}, "label": "Co", "xyz": [18.637100167089983, -1.1853276127759975, 3.6957602358359964]}, {"species": [{"element": "Co", "occu": 1}], "abc": [0.089946, 0.589058, 0.089946], "properties": {"magmom": 0.057}, "label": "Co", "xyz": [6.56979883291, 1.185327612776, 0.36527376416400004]}, {"species": [{"element": "Mo", "occu": 1}], "abc": [0.8342900000000001, 0.8342900000000001, 0.8342900000000001], "properties": {"magmom": -0.044}, "label": "Mo", "xyz": [21.02986376671, 0.0, 3.3880800558600006]}, {"species": [{"element": "Mo", "occu": 1}], "abc": [0.652689, 0.652689, 0.652689], "properties": {"magmom": 0.052000000000000005}, "label": "Mo", "xyz": [16.452265701411, 0.0, 2.650592220426]}, {"species": [{"element": "Mo", "occu": 1}], "abc": [0.450341, 0.450341, 0.450341], "properties": {"magmom": -0.019}, "label": "Mo", "xyz": [11.351700102559, 0.0, 1.828850112594]}, {"species": [{"element": "Mo", "occu": 1}], "abc": [0.549659, 0.549659, 0.549659], "properties": {"magmom": -0.019}, "label": "Mo", "xyz": [13.855198897441001, 0.0, 2.2321838874060003]}, {"species": [{"element": "Mo", "occu": 1}], "abc": [0.16571000000000002, 0.16571000000000002, 0.16571000000000002], "properties": {"magmom": -0.044}, "label": "Mo", "xyz": [4.177035233290001, 0.0, 0.6729539441400001]}, {"species": [{"element": "Mo", "occu": 1}], "abc": [0.347311, 0.347311, 0.347311], "properties": {"magmom": 0.052000000000000005}, "label": "Mo", "xyz": [8.754633298588999, 0.0, 1.410441779574]}]}, "task_ids": null, "uncorrected_energy_per_atom": null, "energy_per_atom": -19.147812815256408, "formation_energy_per_atom": 0.011532919358971001, "energy_above_hull": 0.011532919358973001, "is_stable": false, "equilibrium_reaction_energy_per_atom": null, "decomposes_to": null, "xas": null, "grain_boundaries": null, "band_gap": 0.0, "cbm": null, "vbm": null, "efermi": 7.25000713, "is_gap_direct": null, "is_metal": null, "es_source_calc_id": null, "bandstructure": null, "dos": null, "dos_energy_up": null, "dos_energy_down": null, "is_magnetic": null, "ordering": null, "total_magnetization": 1.3353657, "total_magnetization_normalized_vol": null, "total_magnetization_normalized_formula_units": null, "num_magnetic_sites": null, "num_unique_magnetic_sites": null, "types_of_magnetic_species": null, "bulk_modulus": null, "shear_modulus": null, "universal_anisotropy": null, "homogeneous_poisson": null, "e_total": null, "e_ionic": null, "e_electronic": null, "n": null, "e_ij_max": null, "weighted_surface_energy_EV_PER_ANG2": null, "weighted_surface_energy": null, "weighted_work_function": null, "surface_anisotropy": null, "shape_factor": null, "has_reconstructed": null, "possible_species": null, "has_props": null, "theoretical": null, "database_IDs": null, "fields_not_requested": ["builder_meta", "nsites", "elements", "nelements", "composition", "composition_reduced", "chemsys", "symmetry", "property_name", "deprecated", "deprecation_reasons", "last_updated", "origins", "warnings", "task_ids", "uncorrected_energy_per_atom", "equilibrium_reaction_energy_per_atom", "decomposes_to", "xas", "grain_boundaries", "cbm", "vbm", "is_gap_direct", "is_metal", "es_source_calc_id", "bandstructure", "dos", "dos_energy_up", "dos_energy_down", "is_magnetic", "ordering", "total_magnetization_normalized_vol", "total_magnetization_normalized_formula_units", "num_magnetic_sites", "num_unique_magnetic_sites", "types_of_magnetic_species", "bulk_modulus", "shear_modulus", "universal_anisotropy", "homogeneous_poisson", "e_total", "e_ionic", "e_electronic", "n", "e_ij_max", "weighted_surface_energy_EV_PER_ANG2", "weighted_surface_energy", "weighted_work_function", "surface_anisotropy", "shape_factor", "has_reconstructed", "possible_species", "has_props", "theoretical", "database_IDs"]}