{"builder_meta": null, "nsites": null, "elements": null, "nelements": null, "composition": null, "composition_reduced": null, "formula_pretty": "Co7W6", "formula_anonymous": "A6B7", "chemsys": null, "volume": 309.19988986343543, "density": 8.139288540669897, "density_atomic": 23.784606912571956, "symmetry": null, "property_name": null, "material_id": "mp-1105377", "deprecated": null, "deprecation_reasons": null, "last_updated": null, "origins": null, "warnings": null, "structure": {"@module": "pymatgen.core.structure", "@class": "Structure", "charge": 0, "lattice": {"matrix": [[-2.292495, -3.970717999999999, 0.0], [-4.584991, 0.0, 0.0], [-2.292495, -1.323573, -16.98368]], "pbc": [true, true, true], "a": 4.584990159264139, "b": 4.584991, "c": 17.188739487052388, "alpha": 82.3355141937824, "beta": 82.33551313358043, "gamma": 60.00000114905705, "volume": 309.1998898634353}, "properties": {}, "sites": [{"species": [{"element": "Co", "occu": 1}], "abc": [0.0, 0.0, 0.0], "properties": {"magmom": -0.9410000000000001}, "label": "Co", "xyz": [0.0, 0.0, 0.0]}, {"species": [{"element": "Co", "occu": 1}], "abc": [0.453980999999999, 0.953210999999999, 0.639597], "properties": {"magmom": 0.419}, "label": "Co", "xyz": [-6.877485953210993, -2.6491838484389953, -10.862710776959998]}, {"species": [{"element": "Co", "occu": 1}], "abc": [0.953210999999999, 0.453980999999999, 0.639597], "properties": {"magmom": 0.419}, "label": "Co", "xyz": [-5.7330031751309924, -4.631485395578995, -10.862710776959998]}, {"species": [{"element": "Co", "occu": 1}], "abc": [0.953210999999999, 0.953210999999999, 0.639597], "properties": {"magmom": 0.419}, "label": "Co", "xyz": [-8.021968232060994, -4.631485395578995, -10.862710776959998]}, {"species": [{"element": "Co", "occu": 1}], "abc": [0.546018999999999, 0.046789, 0.360403], "properties": {"magmom": 0.419}, "label": "Co", "xyz": [-2.292495046788998, -2.6451071515609956, -6.1209692230399995]}, {"species": [{"element": "Co", "occu": 1}], "abc": [0.046789, 0.546018999999999, 0.360403], "properties": {"magmom": 0.419}, "label": "Co", "xyz": [-3.4369778248689955, -0.662805604421, -6.1209692230399995]}, {"species": [{"element": "Co", "occu": 1}], "abc": [0.046789, 0.046789, 0.360403], "properties": {"magmom": 0.419}, "label": "Co", "xyz": [-1.148012767939, -0.662805604421, -6.1209692230399995]}, {"species": [{"element": "W", "occu": 1}], "abc": [0.827512999999999, 0.827512999999999, 0.517461], "properties": {"magmom": 0.096}, "label": "W", "xyz": [-6.877485827512994, -3.9707181724869955, -8.78839203648]}, {"species": [{"element": "W", "occu": 1}], "abc": [0.172487, 0.172487, 0.482539], "properties": {"magmom": 0.096}, "label": "W", "xyz": [-2.292495172487, -1.3235728275129999, -8.19528796352]}, {"species": [{"element": "W", "occu": 1}], "abc": [0.6666500000000001, 0.6666500000000001, 5e-05], "properties": {"magmom": 0.894}, "label": "W", "xyz": [-4.58499066665, -2.6471453333499997, -0.000849184]}, {"species": [{"element": "W", "occu": 1}], "abc": [0.33335000000000004, 0.33335000000000004, 0.9999500000000001], "properties": {"magmom": 0.894}, "label": "W", "xyz": [-4.58499033335, -2.64714566665, -16.982830816]}, {"species": [{"element": "W", "occu": 1}], "abc": [0.527845999999999, 0.527845999999999, 0.41646299999999903], "properties": {"magmom": 0.334}, "label": "W", "xyz": [-4.584992820340991, -2.6471467957269943, -7.073074323839983]}, {"species": [{"element": "W", "occu": 1}], "abc": [0.472153999999999, 0.472153999999999, 0.583537], "properties": {"magmom": 0.334}, "label": "W", "xyz": [-4.584988179658993, -2.6471442042729953, -9.91060567616]}]}, "task_ids": null, "uncorrected_energy_per_atom": null, "energy_per_atom": -28.565328077435897, "formation_energy_per_atom": 2.269009167948717, "energy_above_hull": 2.26900916794872, "is_stable": false, "equilibrium_reaction_energy_per_atom": null, "decomposes_to": null, "xas": null, "grain_boundaries": null, "band_gap": 0.0, "cbm": null, "vbm": null, "efermi": 2.00467852, "is_gap_direct": null, "is_metal": null, "es_source_calc_id": null, "bandstructure": null, "dos": null, "dos_energy_up": null, "dos_energy_down": null, "is_magnetic": null, "ordering": null, "total_magnetization": 13.0114466, "total_magnetization_normalized_vol": null, "total_magnetization_normalized_formula_units": null, "num_magnetic_sites": null, "num_unique_magnetic_sites": null, "types_of_magnetic_species": null, "bulk_modulus": null, "shear_modulus": null, "universal_anisotropy": null, "homogeneous_poisson": null, "e_total": null, "e_ionic": null, "e_electronic": null, "n": null, "e_ij_max": null, "weighted_surface_energy_EV_PER_ANG2": null, "weighted_surface_energy": null, "weighted_work_function": null, "surface_anisotropy": null, "shape_factor": null, "has_reconstructed": null, "possible_species": null, "has_props": null, "theoretical": null, "database_IDs": null, "fields_not_requested": ["builder_meta", "nsites", "elements", "nelements", "composition", "composition_reduced", "chemsys", "symmetry", "property_name", "deprecated", "deprecation_reasons", "last_updated", "origins", "warnings", "task_ids", "uncorrected_energy_per_atom", "equilibrium_reaction_energy_per_atom", "decomposes_to", "xas", "grain_boundaries", "cbm", "vbm", "is_gap_direct", "is_metal", "es_source_calc_id", "bandstructure", "dos", "dos_energy_up", "dos_energy_down", "is_magnetic", "ordering", "total_magnetization_normalized_vol", "total_magnetization_normalized_formula_units", "num_magnetic_sites", "num_unique_magnetic_sites", "types_of_magnetic_species", "bulk_modulus", "shear_modulus", "universal_anisotropy", "homogeneous_poisson", "e_total", "e_ionic", "e_electronic", "n", "e_ij_max", "weighted_surface_energy_EV_PER_ANG2", "weighted_surface_energy", "weighted_work_function", "surface_anisotropy", "shape_factor", "has_reconstructed", "possible_species", "has_props", "theoretical", "database_IDs"]}