{"builder_meta": null, "nsites": null, "elements": null, "nelements": null, "composition": null, "composition_reduced": null, "formula_pretty": "CoAs", "formula_anonymous": "AB", "chemsys": null, "volume": 105.57543281069009, "density": 8.421319635896511, "density_atomic": 13.196929101336261, "symmetry": null, "property_name": null, "material_id": "mp-583", "deprecated": null, "deprecation_reasons": null, "last_updated": null, "origins": null, "warnings": null, "structure": {"@module": "pymatgen.core.structure", "@class": "Structure", "charge": 0, "lattice": {"matrix": [[3.45630823, -6.99e-06, -0.0], [-1.1100000000000002e-05, 5.21903758, -5.335e-05], [-0.0, -6.0940000000000016e-05, 5.8527501]], "pbc": [true, true, true], "a": 3.4563082300070684, "b": 5.219037580284481, "c": 5.85275010031726, "alpha": 90.00118226348334, "beta": 89.99999999879348, "gamma": 90.00023773267866, "volume": 105.57543281069007}, "properties": {}, "sites": [{"species": [{"element": "Co", "occu": 1}], "abc": [0.760801, 0.50126553, 0.70467711], "properties": {"magmom": 0.372}, "label": "Co", "xyz": [2.629557193644847, 2.6160753776065437, 4.124272283504185]}, {"species": [{"element": "Co", "occu": 1}], "abc": [0.760801, 0.0012688, 0.79531622], "properties": {"magmom": 0.372}, "label": "Co", "xyz": [2.62956274360855, 0.006568130312067201, 4.654787018446142]}, {"species": [{"element": "Co", "occu": 1}], "abc": [0.260799, 0.49873441, 0.29534804000000003], "properties": {"magmom": 0.372}, "label": "Co", "xyz": [0.901396194123819, 2.6028938067345604, 1.7285716631640307]}, {"species": [{"element": "Co", "occu": 1}], "abc": [0.260799, -0.00126343, 0.20466227], "properties": {"magmom": 0.372}, "label": "Co", "xyz": [0.901401744099843, -0.0066081837534432, 1.1978371886127175]}, {"species": [{"element": "As", "occu": 1}], "abc": [0.760799, 0.7968550600000001, 0.41403924000000003], "properties": {"magmom": -0.008}, "label": "As", "xyz": [2.629546999984604, 4.15878595441686, 2.423225691096473]}, {"species": [{"element": "As", "occu": 1}], "abc": [0.260801, 0.70311229, 0.91400049], "properties": {"magmom": -0.008}, "label": "As", "xyz": [0.901400838145811, 3.6695119422810074, 5.349378948206877]}, {"species": [{"element": "As", "occu": 1}], "abc": [0.260801, 0.20314108, 0.58599784], "properties": {"magmom": -0.008}, "label": "As", "xyz": [0.9014063878262419, 1.060163396854427, 3.429688079083166]}, {"species": [{"element": "As", "occu": 1}], "abc": [0.760799, 0.29688726, 0.08595879000000001], "properties": {"magmom": -0.008}, "label": "As", "xyz": [2.629552549627184, 1.5494552106495583, 0.5030794778330581]}]}, "task_ids": null, "uncorrected_energy_per_atom": null, "energy_per_atom": -14.1844252325, "formation_energy_per_atom": -0.213544173750001, "energy_above_hull": 0.0040441056249980005, "is_stable": false, "equilibrium_reaction_energy_per_atom": null, "decomposes_to": null, "xas": null, "grain_boundaries": null, "band_gap": 0.0, "cbm": null, "vbm": null, "efermi": 7.42646398, "is_gap_direct": null, "is_metal": null, "es_source_calc_id": null, "bandstructure": null, "dos": null, "dos_energy_up": null, "dos_energy_down": null, "is_magnetic": null, "ordering": null, "total_magnetization": 1.368862099999999, "total_magnetization_normalized_vol": null, "total_magnetization_normalized_formula_units": null, "num_magnetic_sites": null, "num_unique_magnetic_sites": null, "types_of_magnetic_species": null, "bulk_modulus": null, "shear_modulus": null, "universal_anisotropy": null, "homogeneous_poisson": null, "e_total": null, "e_ionic": null, "e_electronic": null, "n": null, "e_ij_max": null, "weighted_surface_energy_EV_PER_ANG2": null, "weighted_surface_energy": null, "weighted_work_function": null, "surface_anisotropy": null, "shape_factor": null, "has_reconstructed": null, "possible_species": null, "has_props": null, "theoretical": null, "database_IDs": null, "fields_not_requested": ["builder_meta", "nsites", "elements", "nelements", "composition", "composition_reduced", "chemsys", "symmetry", "property_name", "deprecated", "deprecation_reasons", "last_updated", "origins", "warnings", "task_ids", "uncorrected_energy_per_atom", "equilibrium_reaction_energy_per_atom", "decomposes_to", "xas", "grain_boundaries", "cbm", "vbm", "is_gap_direct", "is_metal", "es_source_calc_id", "bandstructure", "dos", "dos_energy_up", "dos_energy_down", "is_magnetic", "ordering", "total_magnetization_normalized_vol", "total_magnetization_normalized_formula_units", "num_magnetic_sites", "num_unique_magnetic_sites", "types_of_magnetic_species", "bulk_modulus", "shear_modulus", "universal_anisotropy", "homogeneous_poisson", "e_total", "e_ionic", "e_electronic", "n", "e_ij_max", "weighted_surface_energy_EV_PER_ANG2", "weighted_surface_energy", "weighted_work_function", "surface_anisotropy", "shape_factor", "has_reconstructed", "possible_species", "has_props", "theoretical", "database_IDs"]}