{
  "builder_meta": null,
  "nsites": null,
  "elements": null,
  "nelements": null,
  "composition": null,
  "composition_reduced": null,
  "formula_pretty": "CoAs2",
  "formula_anonymous": "AB2",
  "chemsys": null,
  "volume": 183.76838977981774,
  "density": 7.546049905466102,
  "density_atomic": 15.314032481651479,
  "symmetry": null,
  "property_name": null,
  "material_id": "mp-2715",
  "deprecated": null,
  "deprecation_reasons": null,
  "last_updated": null,
  "origins": null,
  "warnings": null,
  "structure": {
    "@module": "pymatgen.core.structure",
    "@class": "Structure",
    "charge": 0,
    "lattice": {
      "matrix": [
        [5.84491764, 0.0, 0.0],
        [0.0, 5.28268049, -2.5902024],
        [0.0, 0.03398218, 5.93499727]
      ],
      "pbc": [true, true, true],
      "a": 5.84491764,
      "b": 5.883524592656378,
      "c": 5.935094555562279,
      "alpha": 115.79156739427587,
      "beta": 90.0,
      "gamma": 90.0,
      "volume": 183.76838977981774
    },
    "properties": {},
    "sites": [
      {
        "species": [{ "element": "Co", "occu": 1 }],
        "abc": [0.99852842, 0.72900566, 0.71559599],
        "properties": { "magmom": 0.0 },
        "label": "Co",
        "xyz": [5.836316376099329, 3.8754214889210314, 2.358788036927363]
      },
      {
        "species": [{ "element": "Co", "occu": 1 }],
        "abc": [0.49852842, 0.27099434, 0.78440401],
        "properties": { "magmom": 0.0 },
        "label": "Co",
        "xyz": [2.913857556099329, 1.4582322710789684, 3.953505468072637]
      },
      {
        "species": [{ "element": "Co", "occu": 1 }],
        "abc": [0.0014715800000000001, 0.27099434, 0.28440401],
        "properties": { "magmom": 0.0 },
        "label": "Co",
        "xyz": [0.0086012639006712, 1.4412411810789685, 0.9860068330726367]
      },
      {
        "species": [{ "element": "Co", "occu": 1 }],
        "abc": [0.50147158, 0.72900566, 0.21559599000000002],
        "properties": { "magmom": 0.0 },
        "label": "Co",
        "xyz": [2.9310600839006713, 3.8584303989210316, -0.6087105980726366]
      },
      {
        "species": [{ "element": "As", "occu": 1 }],
        "abc": [0.63403656, 0.65671541, 0.82571458],
        "properties": { "magmom": -0.0 },
        "label": "As",
        "xyz": [3.7058914739489186, 3.4972772653755353, 3.1995879470002127]
      },
      {
        "species": [{ "element": "As", "occu": 1 }],
        "abc": [0.13403656, 0.34328459, 0.67428542],
        "properties": { "magmom": -0.0 },
        "label": "As",
        "xyz": [0.7834326539489185, 1.8363764946244647, 3.1127055579997878]
      },
      {
        "species": [{ "element": "As", "occu": 1 }],
        "abc": [0.36596344000000003, 0.34328459, 0.17428542],
        "properties": { "magmom": -0.0 },
        "label": "As",
        "xyz": [2.1390261660510816, 1.8193854046244646, 0.14520692299978755]
      },
      {
        "species": [{ "element": "As", "occu": 1 }],
        "abc": [0.86596344, 0.65671541, 0.32571458000000003],
        "properties": { "magmom": -0.0 },
        "label": "As",
        "xyz": [5.061484986051082, 3.4802861753755354, 0.232089312000213]
      },
      {
        "species": [{ "element": "As", "occu": 1 }],
        "abc": [0.36688529000000003, 0.84588408, 0.632931599999999],
        "properties": { "magmom": -0.0 },
        "label": "As",
        "xyz": [2.144414303377516, 4.490043721776487, 1.5654363439589343]
      },
      {
        "species": [{ "element": "As", "occu": 1 }],
        "abc": [0.86688529, 0.15411592, 0.8670684],
        "properties": { "magmom": -0.0 },
        "label": "As",
        "xyz": [5.066873123377516, 0.8436100382235127, 4.74685716104106]
      },
      {
        "species": [{ "element": "As", "occu": 1 }],
        "abc": [0.63311471, 0.15411592, 0.367068399999999],
        "properties": { "magmom": -0.0 },
        "label": "As",
        "xyz": [3.7005033366224844, 0.8266189482235126, 1.7793585260410543]
      },
      {
        "species": [{ "element": "As", "occu": 1 }],
        "abc": [0.13311471, 0.84588408, 0.132931599999999],
        "properties": { "magmom": -0.0 },
        "label": "As",
        "xyz": [0.7780445166224844, 4.473052631776487, -1.4020622910410658]
      }
    ]
  },
  "task_ids": null,
  "uncorrected_energy_per_atom": null,
  "energy_per_atom": -14.506548740833333,
  "formation_energy_per_atom": -0.290117705833334,
  "energy_above_hull": 0.0,
  "is_stable": true,
  "equilibrium_reaction_energy_per_atom": null,
  "decomposes_to": null,
  "xas": null,
  "grain_boundaries": null,
  "band_gap": 0.172299999999999,
  "cbm": null,
  "vbm": null,
  "efermi": 6.28072553,
  "is_gap_direct": null,
  "is_metal": null,
  "es_source_calc_id": null,
  "bandstructure": null,
  "dos": null,
  "dos_energy_up": null,
  "dos_energy_down": null,
  "is_magnetic": null,
  "ordering": null,
  "total_magnetization": 0.0,
  "total_magnetization_normalized_vol": null,
  "total_magnetization_normalized_formula_units": null,
  "num_magnetic_sites": null,
  "num_unique_magnetic_sites": null,
  "types_of_magnetic_species": null,
  "bulk_modulus": null,
  "shear_modulus": null,
  "universal_anisotropy": null,
  "homogeneous_poisson": null,
  "e_total": null,
  "e_ionic": null,
  "e_electronic": null,
  "n": null,
  "e_ij_max": null,
  "weighted_surface_energy_EV_PER_ANG2": null,
  "weighted_surface_energy": null,
  "weighted_work_function": null,
  "surface_anisotropy": null,
  "shape_factor": null,
  "has_reconstructed": null,
  "possible_species": null,
  "has_props": null,
  "theoretical": null,
  "database_IDs": null,
  "fields_not_requested": [
    "builder_meta",
    "nsites",
    "elements",
    "nelements",
    "composition",
    "composition_reduced",
    "chemsys",
    "symmetry",
    "property_name",
    "deprecated",
    "deprecation_reasons",
    "last_updated",
    "origins",
    "warnings",
    "task_ids",
    "uncorrected_energy_per_atom",
    "equilibrium_reaction_energy_per_atom",
    "decomposes_to",
    "xas",
    "grain_boundaries",
    "cbm",
    "vbm",
    "is_gap_direct",
    "is_metal",
    "es_source_calc_id",
    "bandstructure",
    "dos",
    "dos_energy_up",
    "dos_energy_down",
    "is_magnetic",
    "ordering",
    "total_magnetization_normalized_vol",
    "total_magnetization_normalized_formula_units",
    "num_magnetic_sites",
    "num_unique_magnetic_sites",
    "types_of_magnetic_species",
    "bulk_modulus",
    "shear_modulus",
    "universal_anisotropy",
    "homogeneous_poisson",
    "e_total",
    "e_ionic",
    "e_electronic",
    "n",
    "e_ij_max",
    "weighted_surface_energy_EV_PER_ANG2",
    "weighted_surface_energy",
    "weighted_work_function",
    "surface_anisotropy",
    "shape_factor",
    "has_reconstructed",
    "possible_species",
    "has_props",
    "theoretical",
    "database_IDs"
  ]
}
