{
  "builder_meta": null,
  "nsites": null,
  "elements": null,
  "nelements": null,
  "composition": null,
  "composition_reduced": null,
  "formula_pretty": "CoAs3",
  "formula_anonymous": "AB3",
  "chemsys": null,
  "volume": 275.5006481481551,
  "density": 6.839789408557092,
  "density_atomic": 17.218790509259694,
  "symmetry": null,
  "property_name": null,
  "material_id": "mp-452",
  "deprecated": null,
  "deprecation_reasons": null,
  "last_updated": null,
  "origins": null,
  "warnings": null,
  "structure": {
    "@module": "pymatgen.core.structure",
    "@class": "Structure",
    "charge": 0,
    "lattice": {
      "matrix": [
        [6.69378715, 0.0, -2.36661055],
        [-3.34689307, 5.79699001, -2.36661055],
        [0.0, 0.0, 7.09983367]
      ],
      "pbc": [true, true, true],
      "a": 7.099833230779187,
      "b": 7.099833229972739,
      "c": 7.09983367,
      "alpha": 109.47121612654081,
      "beta": 109.47121612423987,
      "gamma": 109.47122107168299,
      "volume": 275.5006481481551
    },
    "properties": {},
    "sites": [
      {
        "species": [{ "element": "Co", "occu": 1 }],
        "abc": [0.5, 0.0, -0.0],
        "properties": { "magmom": 0.0 },
        "label": "Co",
        "xyz": [3.346893575, 0.0, -1.183305275]
      },
      {
        "species": [{ "element": "Co", "occu": 1 }],
        "abc": [-0.0, 0.0, 0.5],
        "properties": { "magmom": 0.0 },
        "label": "Co",
        "xyz": [0.0, 0.0, 3.549916835]
      },
      {
        "species": [{ "element": "Co", "occu": 1 }],
        "abc": [-0.0, 0.5, -0.0],
        "properties": { "magmom": 0.0 },
        "label": "Co",
        "xyz": [-1.673446535, 2.898495005, -1.183305275]
      },
      {
        "species": [{ "element": "Co", "occu": 1 }],
        "abc": [0.5, 0.5, 0.5],
        "properties": { "magmom": 0.0 },
        "label": "Co",
        "xyz": [1.67344704, 2.898495005, 1.183306285]
      },
      {
        "species": [{ "element": "As", "occu": 1 }],
        "abc": [0.65854771, 0.80936263, 0.15081592],
        "properties": { "magmom": -0.0 },
        "label": "As",
        "xyz": [1.699328021395953, 4.691867080577326, -2.4032041503100605]
      },
      {
        "species": [{ "element": "As", "occu": 1 }],
        "abc": [0.84918408, 0.34145229, 0.19063737],
        "properties": { "magmom": -0.0 },
        "label": "As",
        "xyz": [4.541453179551942, 1.9793955140216228, -1.4642789761694552]
      },
      {
        "species": [{ "element": "As", "occu": 1 }],
        "abc": [0.65854771, 0.50773278, 0.84918408],
        "properties": { "magmom": -0.0 },
        "label": "As",
        "xyz": [2.7088508760660925, 2.9433218534095276, 3.2689340113188035]
      },
      {
        "species": [{ "element": "As", "occu": 1 }],
        "abc": [0.34145229, 0.49226722, 0.15081592],
        "properties": { "magmom": -0.0 },
        "label": "As",
        "xyz": [0.6380432039339081, 2.8536681565904725, -0.9023214413188041]
      },
      {
        "species": [{ "element": "As", "occu": 1 }],
        "abc": [0.15081592, 0.34145229, 0.49226722],
        "properties": { "magmom": -0.0 },
        "label": "As",
        "xyz": [-0.13327463582520238, 1.9793955140216228, 2.330008243977682]
      },
      {
        "species": [{ "element": "As", "occu": 1 }],
        "abc": [0.80936263, 0.15081592, 0.65854771],
        "properties": { "magmom": -0.0 },
        "label": "As",
        "xyz": [4.91293641489053, 0.8742783815889592, 2.403210518445694]
      },
      {
        "species": [{ "element": "As", "occu": 1 }],
        "abc": [0.19063737, 0.84918408, 0.34145229],
        "properties": { "magmom": -0.0 },
        "label": "As",
        "xyz": [-1.5660423348905304, 4.922711628411041, -0.036597948445693085]
      },
      {
        "species": [{ "element": "As", "occu": 1 }],
        "abc": [0.50773278, 0.84918408, 0.65854771],
        "properties": { "magmom": -0.0 },
        "label": "As",
        "xyz": [0.5565268458914514, 4.922711628411041, 1.4642854484105232]
      },
      {
        "species": [{ "element": "As", "occu": 1 }],
        "abc": [0.84918408, 0.65854771, 0.50773278],
        "properties": { "magmom": -0.0 },
        "label": "As",
        "xyz": [3.4801687158252026, 3.817594495978377, 0.03660432602231767]
      },
      {
        "species": [{ "element": "As", "occu": 1 }],
        "abc": [0.34145229, 0.19063737, 0.84918408],
        "properties": { "magmom": -0.0 },
        "label": "As",
        "xyz": [1.6475660586040477, 1.1051229294226736, 4.76981672031006]
      },
      {
        "species": [{ "element": "As", "occu": 1 }],
        "abc": [0.15081592, 0.65854771, 0.80936263],
        "properties": { "magmom": -0.0 },
        "label": "As",
        "xyz": [-1.1945590995519417, 3.817594495978377, 3.830891546169455]
      },
      {
        "species": [{ "element": "As", "occu": 1 }],
        "abc": [0.49226722, 0.15081592, 0.34145229],
        "properties": { "magmom": -0.0 },
        "label": "As",
        "xyz": [2.7903672341085484, 0.8742783815889592, 0.9023271215894773]
      }
    ]
  },
  "task_ids": null,
  "uncorrected_energy_per_atom": null,
  "energy_per_atom": -14.634240028125,
  "formation_energy_per_atom": -0.29503400499999904,
  "energy_above_hull": 0.0,
  "is_stable": true,
  "equilibrium_reaction_energy_per_atom": null,
  "decomposes_to": null,
  "xas": null,
  "grain_boundaries": null,
  "band_gap": 0.0,
  "cbm": null,
  "vbm": null,
  "efermi": 5.88720277,
  "is_gap_direct": null,
  "is_metal": null,
  "es_source_calc_id": null,
  "bandstructure": null,
  "dos": null,
  "dos_energy_up": null,
  "dos_energy_down": null,
  "is_magnetic": null,
  "ordering": null,
  "total_magnetization": 4e-7,
  "total_magnetization_normalized_vol": null,
  "total_magnetization_normalized_formula_units": null,
  "num_magnetic_sites": null,
  "num_unique_magnetic_sites": null,
  "types_of_magnetic_species": null,
  "bulk_modulus": null,
  "shear_modulus": null,
  "universal_anisotropy": null,
  "homogeneous_poisson": null,
  "e_total": null,
  "e_ionic": null,
  "e_electronic": null,
  "n": null,
  "e_ij_max": null,
  "weighted_surface_energy_EV_PER_ANG2": null,
  "weighted_surface_energy": null,
  "weighted_work_function": null,
  "surface_anisotropy": null,
  "shape_factor": null,
  "has_reconstructed": null,
  "possible_species": null,
  "has_props": null,
  "theoretical": null,
  "database_IDs": null,
  "fields_not_requested": [
    "builder_meta",
    "nsites",
    "elements",
    "nelements",
    "composition",
    "composition_reduced",
    "chemsys",
    "symmetry",
    "property_name",
    "deprecated",
    "deprecation_reasons",
    "last_updated",
    "origins",
    "warnings",
    "task_ids",
    "uncorrected_energy_per_atom",
    "equilibrium_reaction_energy_per_atom",
    "decomposes_to",
    "xas",
    "grain_boundaries",
    "cbm",
    "vbm",
    "is_gap_direct",
    "is_metal",
    "es_source_calc_id",
    "bandstructure",
    "dos",
    "dos_energy_up",
    "dos_energy_down",
    "is_magnetic",
    "ordering",
    "total_magnetization_normalized_vol",
    "total_magnetization_normalized_formula_units",
    "num_magnetic_sites",
    "num_unique_magnetic_sites",
    "types_of_magnetic_species",
    "bulk_modulus",
    "shear_modulus",
    "universal_anisotropy",
    "homogeneous_poisson",
    "e_total",
    "e_ionic",
    "e_electronic",
    "n",
    "e_ij_max",
    "weighted_surface_energy_EV_PER_ANG2",
    "weighted_surface_energy",
    "weighted_work_function",
    "surface_anisotropy",
    "shape_factor",
    "has_reconstructed",
    "possible_species",
    "has_props",
    "theoretical",
    "database_IDs"
  ]
}
