{"builder_meta": null, "nsites": null, "elements": null, "nelements": null, "composition": null, "composition_reduced": null, "formula_pretty": "CoB", "formula_anonymous": "AB", "chemsys": null, "volume": 60.524275067720765, "density": 7.653984146789693, "density_atomic": 7.565534383465096, "symmetry": null, "property_name": null, "material_id": "mp-20857", "deprecated": null, "deprecation_reasons": null, "last_updated": null, "origins": null, "warnings": null, "structure": {"@module": "pymatgen.core.structure", "@class": "Structure", "charge": 0, "lattice": {"matrix": [[3.04722352, -0.0, 0.0], [0.0, 3.88778294, 0.0], [0.0, 0.0, 5.10885145]], "pbc": [true, true, true], "a": 3.04722352, "b": 3.88778294, "c": 5.10885145, "alpha": 90.0, "beta": 90.0, "gamma": 90.0, "volume": 60.524275067720765}, "properties": {}, "sites": [{"species": [{"element": "Co", "occu": 1}], "abc": [0.25, 0.37190893, 0.67682875], "properties": {"magmom": -0.0}, "label": "Co", "xyz": [0.76180588, 1.4459011932876544, 3.4578175408391876]}, {"species": [{"element": "Co", "occu": 1}], "abc": [0.75, 0.62809107, 0.32317125], "properties": {"magmom": -0.0}, "label": "Co", "xyz": [2.2854176400000004, 2.4418817467123457, 1.6510339091608128]}, {"species": [{"element": "Co", "occu": 1}], "abc": [0.75, 0.87190893, 0.82317125], "properties": {"magmom": -0.0}, "label": "Co", "xyz": [2.2854176400000004, 3.3897926632876545, 4.205459634160813]}, {"species": [{"element": "Co", "occu": 1}], "abc": [0.25, 0.12809107, 0.17682875], "properties": {"magmom": -0.0}, "label": "Co", "xyz": [0.76180588, 0.4979902767123458, 0.9033918158391876]}, {"species": [{"element": "B", "occu": 1}], "abc": [0.25, 0.87454871, 0.53206609], "properties": {"magmom": 0.0}, "label": "B", "xyz": [0.76180588, 3.4000555549370075, 2.718246615392331]}, {"species": [{"element": "B", "occu": 1}], "abc": [0.75, 0.12545129, 0.46793391], "properties": {"magmom": 0.0}, "label": "B", "xyz": [2.2854176400000004, 0.48772738506299257, 2.39060483460767]}, {"species": [{"element": "B", "occu": 1}], "abc": [0.75, 0.37454871, 0.9679339100000001], "properties": {"magmom": 0.0}, "label": "B", "xyz": [2.2854176400000004, 1.4561640849370074, 4.9450305596076705]}, {"species": [{"element": "B", "occu": 1}], "abc": [0.25, 0.62545129, 0.03206609], "properties": {"magmom": 0.0}, "label": "B", "xyz": [0.76180588, 2.4316188550629927, 0.1638208903923305]}]}, "task_ids": null, "uncorrected_energy_per_atom": null, "energy_per_atom": -10.58781691875, "formation_energy_per_atom": -0.297524255, "energy_above_hull": 0.0, "is_stable": true, "equilibrium_reaction_energy_per_atom": null, "decomposes_to": null, "xas": null, "grain_boundaries": null, "band_gap": 0.0, "cbm": null, "vbm": null, "efermi": 7.45021879, "is_gap_direct": null, "is_metal": null, "es_source_calc_id": null, "bandstructure": null, "dos": null, "dos_energy_up": null, "dos_energy_down": null, "is_magnetic": null, "ordering": null, "total_magnetization": 0.0, "total_magnetization_normalized_vol": null, "total_magnetization_normalized_formula_units": null, "num_magnetic_sites": null, "num_unique_magnetic_sites": null, "types_of_magnetic_species": null, "bulk_modulus": null, "shear_modulus": null, "universal_anisotropy": null, "homogeneous_poisson": null, "e_total": null, "e_ionic": null, "e_electronic": null, "n": null, "e_ij_max": null, "weighted_surface_energy_EV_PER_ANG2": null, "weighted_surface_energy": null, "weighted_work_function": null, "surface_anisotropy": null, "shape_factor": null, "has_reconstructed": null, "possible_species": null, "has_props": null, "theoretical": null, "database_IDs": null, "fields_not_requested": ["builder_meta", "nsites", "elements", "nelements", "composition", "composition_reduced", "chemsys", "symmetry", "property_name", "deprecated", "deprecation_reasons", "last_updated", "origins", "warnings", "task_ids", "uncorrected_energy_per_atom", "equilibrium_reaction_energy_per_atom", "decomposes_to", "xas", "grain_boundaries", "cbm", "vbm", "is_gap_direct", "is_metal", "es_source_calc_id", "bandstructure", "dos", "dos_energy_up", "dos_energy_down", "is_magnetic", "ordering", "total_magnetization_normalized_vol", "total_magnetization_normalized_formula_units", "num_magnetic_sites", "num_unique_magnetic_sites", "types_of_magnetic_species", "bulk_modulus", "shear_modulus", "universal_anisotropy", "homogeneous_poisson", "e_total", "e_ionic", "e_electronic", "n", "e_ij_max", "weighted_surface_energy_EV_PER_ANG2", "weighted_surface_energy", "weighted_work_function", "surface_anisotropy", "shape_factor", "has_reconstructed", "possible_species", "has_props", "theoretical", "database_IDs"]}