{"builder_meta": null, "nsites": null, "elements": null, "nelements": null, "composition": null, "composition_reduced": null, "formula_pretty": "CoBi3", "formula_anonymous": "AB3", "chemsys": null, "volume": 429.75799928164946, "density": 10.600581998072151, "density_atomic": 26.85987495510309, "symmetry": null, "property_name": null, "material_id": "mp-1105522", "deprecated": null, "deprecation_reasons": null, "last_updated": null, "origins": null, "warnings": null, "structure": {"@module": "pymatgen.core.structure", "@class": "Structure", "charge": 0, "lattice": {"matrix": [[9.180909, 0.0, 0.0], [0.0, 4.146519, 0.0], [0.0, 0.0, 11.288978]], "pbc": [true, true, true], "a": 9.180909, "b": 4.146519, "c": 11.288978, "alpha": 90.0, "beta": 90.0, "gamma": 90.0, "volume": 429.75799928164946}, "properties": {}, "sites": [{"species": [{"element": "Co", "occu": 1}], "abc": [0.087923, 0.25, 0.478328], "properties": {"magmom": 0.008}, "label": "Co", "xyz": [0.8072130620069999, 1.03662975, 5.399834268784]}, {"species": [{"element": "Co", "occu": 1}], "abc": [0.587923, 0.25, 0.021672], "properties": {"magmom": 0.008}, "label": "Co", "xyz": [5.397667562006999, 1.03662975, 0.244654731216]}, {"species": [{"element": "Co", "occu": 1}], "abc": [0.912076999999999, 0.75, 0.521672], "properties": {"magmom": 0.008}, "label": "Co", "xyz": [8.373695937992991, 3.1098892499999997, 5.889143731216]}, {"species": [{"element": "Co", "occu": 1}], "abc": [0.412076999999999, 0.75, 0.978328], "properties": {"magmom": 0.008}, "label": "Co", "xyz": [3.783241437992991, 3.1098892499999997, 11.044323268784]}, {"species": [{"element": "Bi", "occu": 1}], "abc": [0.410032, 0.25, 0.823040999999999], "properties": {"magmom": -0.0}, "label": "Bi", "xyz": [3.764466479088, 1.03662975, 9.29129174209799]}, {"species": [{"element": "Bi", "occu": 1}], "abc": [0.910032, 0.25, 0.676959], "properties": {"magmom": -0.0}, "label": "Bi", "xyz": [8.354920979088, 1.03662975, 7.642175257902]}, {"species": [{"element": "Bi", "occu": 1}], "abc": [0.589967999999999, 0.75, 0.176959], "properties": {"magmom": -0.0}, "label": "Bi", "xyz": [5.416442520911991, 3.1098892499999997, 1.997686257902]}, {"species": [{"element": "Bi", "occu": 1}], "abc": [0.08996799999999901, 0.75, 0.323040999999999], "properties": {"magmom": -0.0}, "label": "Bi", "xyz": [0.8259880209119909, 3.1098892499999997, 3.646802742097989]}, {"species": [{"element": "Bi", "occu": 1}], "abc": [0.304267, 0.25, 0.10517699999999901], "properties": {"magmom": 0.0}, "label": "Bi", "xyz": [2.793447638703, 1.03662975, 1.1873408391059888]}, {"species": [{"element": "Bi", "occu": 1}], "abc": [0.804267, 0.25, 0.394823], "properties": {"magmom": 0.0}, "label": "Bi", "xyz": [7.383902138702999, 1.03662975, 4.457148160894]}, {"species": [{"element": "Bi", "occu": 1}], "abc": [0.695732999999999, 0.75, 0.894822999999999], "properties": {"magmom": 0.0}, "label": "Bi", "xyz": [6.3874613612969915, 3.1098892499999997, 10.10163716089399]}, {"species": [{"element": "Bi", "occu": 1}], "abc": [0.195733, 0.75, 0.605177], "properties": {"magmom": 0.0}, "label": "Bi", "xyz": [1.7970068612969998, 3.1098892499999997, 6.831829839106]}, {"species": [{"element": "Bi", "occu": 1}], "abc": [0.378166, 0.25, 0.412226999999999], "properties": {"magmom": 0.0}, "label": "Bi", "xyz": [3.4719076328939997, 1.03662975, 4.653621534005989]}, {"species": [{"element": "Bi", "occu": 1}], "abc": [0.878166, 0.25, 0.087772999999999], "properties": {"magmom": 0.0}, "label": "Bi", "xyz": [8.062362132894, 1.03662975, 0.9908674659939888]}, {"species": [{"element": "Bi", "occu": 1}], "abc": [0.621834, 0.75, 0.587773], "properties": {"magmom": 0.0}, "label": "Bi", "xyz": [5.709001367106, 3.1098892499999997, 6.635356465994]}, {"species": [{"element": "Bi", "occu": 1}], "abc": [0.121834, 0.75, 0.912227], "properties": {"magmom": 0.0}, "label": "Bi", "xyz": [1.118546867106, 3.1098892499999997, 10.298110534006]}]}, "task_ids": null, "uncorrected_energy_per_atom": null, "energy_per_atom": -47.13784115, "formation_energy_per_atom": 0.047421941249999, "energy_above_hull": 0.047421941249999, "is_stable": false, "equilibrium_reaction_energy_per_atom": null, "decomposes_to": null, "xas": null, "grain_boundaries": null, "band_gap": 0.0, "cbm": null, "vbm": null, "efermi": 6.10556899, "is_gap_direct": null, "is_metal": null, "es_source_calc_id": null, "bandstructure": null, "dos": null, "dos_energy_up": null, "dos_energy_down": null, "is_magnetic": null, "ordering": null, "total_magnetization": 0.0810026, "total_magnetization_normalized_vol": null, "total_magnetization_normalized_formula_units": null, "num_magnetic_sites": null, "num_unique_magnetic_sites": null, "types_of_magnetic_species": null, "bulk_modulus": null, "shear_modulus": null, "universal_anisotropy": null, "homogeneous_poisson": null, "e_total": null, "e_ionic": null, "e_electronic": null, "n": null, "e_ij_max": null, "weighted_surface_energy_EV_PER_ANG2": null, "weighted_surface_energy": null, "weighted_work_function": null, "surface_anisotropy": null, "shape_factor": null, "has_reconstructed": null, "possible_species": null, "has_props": null, "theoretical": null, "database_IDs": null, "fields_not_requested": ["builder_meta", "nsites", "elements", "nelements", "composition", "composition_reduced", "chemsys", "symmetry", "property_name", "deprecated", "deprecation_reasons", "last_updated", "origins", "warnings", "task_ids", "uncorrected_energy_per_atom", "equilibrium_reaction_energy_per_atom", "decomposes_to", "xas", "grain_boundaries", "cbm", "vbm", "is_gap_direct", "is_metal", "es_source_calc_id", "bandstructure", "dos", "dos_energy_up", "dos_energy_down", "is_magnetic", "ordering", "total_magnetization_normalized_vol", "total_magnetization_normalized_formula_units", "num_magnetic_sites", "num_unique_magnetic_sites", "types_of_magnetic_species", "bulk_modulus", "shear_modulus", "universal_anisotropy", "homogeneous_poisson", "e_total", "e_ionic", "e_electronic", "n", "e_ij_max", "weighted_surface_energy_EV_PER_ANG2", "weighted_surface_energy", "weighted_work_function", "surface_anisotropy", "shape_factor", "has_reconstructed", "possible_species", "has_props", "theoretical", "database_IDs"]}