{"builder_meta": null, "nsites": null, "elements": null, "nelements": null, "composition": null, "composition_reduced": null, "formula_pretty": "CoBr2", "formula_anonymous": "AB2", "chemsys": null, "volume": 77.81513086815478, "density": 4.667836392740899, "density_atomic": 25.938376956051595, "symmetry": null, "property_name": null, "material_id": "mp-30033", "deprecated": null, "deprecation_reasons": null, "last_updated": null, "origins": null, "warnings": null, "structure": {"@module": "pymatgen.core.structure", "@class": "Structure", "charge": 0, "lattice": {"matrix": [[3.74318756, -4e-08, -0.0], [-1.8715948500000001, 3.24169697, 0.0], [-0.0, 0.0, 6.41283478]], "pbc": [true, true, true], "a": 3.74318756, "b": 3.7431893523910467, "c": 6.41283478, "alpha": 90.0, "beta": 90.0, "gamma": 120.00000368419624, "volume": 77.81513086815478}, "properties": {}, "sites": [{"species": [{"element": "Co", "occu": 1}], "abc": [-0.0, 0.0, 0.0], "properties": {"magmom": 2.592}, "label": "Co", "xyz": [0.0, 0.0, 0.0]}, {"species": [{"element": "Br", "occu": 1}], "abc": [0.333333, 0.666667, 0.22196437], "properties": {"magmom": 0.148}, "label": "Br", "xyz": [-2.584927470072884e-06, 2.1611323805656704, 1.4234208318567885]}, {"species": [{"element": "Br", "occu": 1}], "abc": [0.666667, 0.333333, 0.77803563], "properties": {"magmom": 0.148}, "label": "Br", "xyz": [1.87159529492747, 1.08056454943433, 4.989413948143211]}]}, "task_ids": null, "uncorrected_energy_per_atom": null, "energy_per_atom": -4.136869076666667, "formation_energy_per_atom": -0.6677658133333331, "energy_above_hull": 0.0, "is_stable": true, "equilibrium_reaction_energy_per_atom": null, "decomposes_to": null, "xas": null, "grain_boundaries": null, "band_gap": 0.1072, "cbm": null, "vbm": null, "efermi": 0.88435531, "is_gap_direct": null, "is_metal": null, "es_source_calc_id": null, "bandstructure": null, "dos": null, "dos_energy_up": null, "dos_energy_down": null, "is_magnetic": null, "ordering": null, "total_magnetization": 3.0043052, "total_magnetization_normalized_vol": null, "total_magnetization_normalized_formula_units": null, "num_magnetic_sites": null, "num_unique_magnetic_sites": null, "types_of_magnetic_species": null, "bulk_modulus": null, "shear_modulus": null, "universal_anisotropy": null, "homogeneous_poisson": null, "e_total": null, "e_ionic": null, "e_electronic": null, "n": null, "e_ij_max": null, "weighted_surface_energy_EV_PER_ANG2": null, "weighted_surface_energy": null, "weighted_work_function": null, "surface_anisotropy": null, "shape_factor": null, "has_reconstructed": null, "possible_species": null, "has_props": null, "theoretical": null, "database_IDs": null, "fields_not_requested": ["builder_meta", "nsites", "elements", "nelements", "composition", "composition_reduced", "chemsys", "symmetry", "property_name", "deprecated", "deprecation_reasons", "last_updated", "origins", "warnings", "task_ids", "uncorrected_energy_per_atom", "equilibrium_reaction_energy_per_atom", "decomposes_to", "xas", "grain_boundaries", "cbm", "vbm", "is_gap_direct", "is_metal", "es_source_calc_id", "bandstructure", "dos", "dos_energy_up", "dos_energy_down", "is_magnetic", "ordering", "total_magnetization_normalized_vol", "total_magnetization_normalized_formula_units", "num_magnetic_sites", "num_unique_magnetic_sites", "types_of_magnetic_species", "bulk_modulus", "shear_modulus", "universal_anisotropy", "homogeneous_poisson", "e_total", "e_ionic", "e_electronic", "n", "e_ij_max", "weighted_surface_energy_EV_PER_ANG2", "weighted_surface_energy", "weighted_work_function", "surface_anisotropy", "shape_factor", "has_reconstructed", "possible_species", "has_props", "theoretical", "database_IDs"]}