{"builder_meta": null, "nsites": null, "elements": null, "nelements": null, "composition": null, "composition_reduced": null, "formula_pretty": "CoCl2", "formula_anonymous": "AB2", "chemsys": null, "volume": 64.59071594564031, "density": 3.337988324124591, "density_atomic": 21.53023864854677, "symmetry": null, "property_name": null, "material_id": "mp-23240", "deprecated": null, "deprecation_reasons": null, "last_updated": null, "origins": null, "warnings": null, "structure": {"@module": "pymatgen.core.structure", "@class": "Structure", "charge": 0, "lattice": {"matrix": [[3.42838598, 0.01860084, 5.24866219], [1.57617129, 3.04464451, 5.2486622], [0.030389160000000002, 0.01860088, 6.26907918]], "pbc": [true, true, true], "a": 6.269181063252589, "b": 6.269181048382814, "c": 6.269180429600966, "alpha": 32.874376176165875, "beta": 32.87437608913631, "gamma": 32.874382918890625, "volume": 64.59071594564031}, "properties": {}, "sites": [{"species": [{"element": "Co", "occu": 1}], "abc": [-0.0, 0.0, -0.0], "properties": {"magmom": 2.629}, "label": "Co", "xyz": [0.0, 0.0, 0.0]}, {"species": [{"element": "Cl", "occu": 1}], "abc": [0.74081789, 0.74081789, 0.74081789], "properties": {"magmom": 0.14200000000000002}, "label": "Cl", "xyz": [3.7299783905356323, 2.2830868214130544, 12.420851715615868]}, {"species": [{"element": "Cl", "occu": 1}], "abc": [0.25918211, 0.25918211, 0.25918211], "properties": {"magmom": 0.14200000000000002}, "label": "Cl", "xyz": [1.3049680394643672, 0.7987594085869454, 4.345551854384134]}]}, "task_ids": null, "uncorrected_energy_per_atom": null, "energy_per_atom": -9.455805333333332, "formation_energy_per_atom": -0.942769024999999, "energy_above_hull": 0.0, "is_stable": true, "equilibrium_reaction_energy_per_atom": null, "decomposes_to": null, "xas": null, "grain_boundaries": null, "band_gap": 0.0843, "cbm": null, "vbm": null, "efermi": 1.92073856, "is_gap_direct": null, "is_metal": null, "es_source_calc_id": null, "bandstructure": null, "dos": null, "dos_energy_up": null, "dos_energy_down": null, "is_magnetic": null, "ordering": null, "total_magnetization": 2.9979683, "total_magnetization_normalized_vol": null, "total_magnetization_normalized_formula_units": null, "num_magnetic_sites": null, "num_unique_magnetic_sites": null, "types_of_magnetic_species": null, "bulk_modulus": null, "shear_modulus": null, "universal_anisotropy": null, "homogeneous_poisson": null, "e_total": null, "e_ionic": null, "e_electronic": null, "n": null, "e_ij_max": null, "weighted_surface_energy_EV_PER_ANG2": null, "weighted_surface_energy": null, "weighted_work_function": null, "surface_anisotropy": null, "shape_factor": null, "has_reconstructed": null, "possible_species": null, "has_props": null, "theoretical": null, "database_IDs": null, "fields_not_requested": ["builder_meta", "nsites", "elements", "nelements", "composition", "composition_reduced", "chemsys", "symmetry", "property_name", "deprecated", "deprecation_reasons", "last_updated", "origins", "warnings", "task_ids", "uncorrected_energy_per_atom", "equilibrium_reaction_energy_per_atom", "decomposes_to", "xas", "grain_boundaries", "cbm", "vbm", "is_gap_direct", "is_metal", "es_source_calc_id", "bandstructure", "dos", "dos_energy_up", "dos_energy_down", "is_magnetic", "ordering", "total_magnetization_normalized_vol", "total_magnetization_normalized_formula_units", "num_magnetic_sites", "num_unique_magnetic_sites", "types_of_magnetic_species", "bulk_modulus", "shear_modulus", "universal_anisotropy", "homogeneous_poisson", "e_total", "e_ionic", "e_electronic", "n", "e_ij_max", "weighted_surface_energy_EV_PER_ANG2", "weighted_surface_energy", "weighted_work_function", "surface_anisotropy", "shape_factor", "has_reconstructed", "possible_species", "has_props", "theoretical", "database_IDs"]}