{"builder_meta": null, "nsites": null, "elements": null, "nelements": null, "composition": null, "composition_reduced": null, "formula_pretty": "CoCl6", "formula_anonymous": "AB6", "chemsys": null, "volume": 2806.0975839465764, "density": 0.16075257837314802, "density_atomic": 400.8710834209395, "symmetry": null, "property_name": null, "material_id": "mp-1206633", "deprecated": null, "deprecation_reasons": null, "last_updated": null, "origins": null, "warnings": null, "structure": {"@module": "pymatgen.core.structure", "@class": "Structure", "charge": 0, "lattice": {"matrix": [[5.030051, -6.425302999999999, 0.0], [5.030051, 6.425302999999999, 0.0], [0.0, 0.0, 43.411698]], "pbc": [true, true, true], "a": 8.16002032499981, "b": 8.16002032499981, "c": 43.411698, "alpha": 90.0, "beta": 90.0, "gamma": 103.88874035476343, "volume": 2806.097583946575}, "properties": {}, "sites": [{"species": [{"element": "Co", "occu": 1}], "abc": [0.0, 0.0, 0.0], "properties": {"magmom": 2.121}, "label": "Co", "xyz": [0.0, 0.0, 0.0]}, {"species": [{"element": "Cl", "occu": 1}], "abc": [0.0, 0.0, 0.24998], "properties": {"magmom": 0.32}, "label": "Cl", "xyz": [0.0, 0.0, 10.85205626604]}, {"species": [{"element": "Cl", "occu": 1}], "abc": [0.0, 0.0, 0.75002], "properties": {"magmom": 0.32}, "label": "Cl", "xyz": [0.0, 0.0, 32.55964173396]}, {"species": [{"element": "Cl", "occu": 1}], "abc": [0.267684, 0.035593, 0.0], "properties": {"magmom": 0.298}, "label": "Cl", "xyz": [1.525498777127, -1.4912549985729995, 0.0]}, {"species": [{"element": "Cl", "occu": 1}], "abc": [0.732316, 0.9644069999999991, 0.0], "properties": {"magmom": 0.298}, "label": "Cl", "xyz": [8.534603222872995, 1.4912549985729937, 0.0]}, {"species": [{"element": "Cl", "occu": 1}], "abc": [0.035593, 0.267684, 0.0], "properties": {"magmom": 0.302}, "label": "Cl", "xyz": [1.525498777127, 1.4912549985729995, 0.0]}, {"species": [{"element": "Cl", "occu": 1}], "abc": [0.9644069999999991, 0.732316, 0.0], "properties": {"magmom": 0.302}, "label": "Cl", "xyz": [8.534603222872995, -1.4912549985729937, 0.0]}]}, "task_ids": null, "uncorrected_energy_per_atom": null, "energy_per_atom": -7.427663802857142, "formation_energy_per_atom": -0.263540300714284, "energy_above_hull": 0.140503567142858, "is_stable": false, "equilibrium_reaction_energy_per_atom": null, "decomposes_to": null, "xas": null, "grain_boundaries": null, "band_gap": 0.261599999999999, "cbm": null, "vbm": null, "efermi": -7.38788021, "is_gap_direct": null, "is_metal": null, "es_source_calc_id": null, "bandstructure": null, "dos": null, "dos_energy_up": null, "dos_energy_down": null, "is_magnetic": null, "ordering": null, "total_magnetization": 5.0649422, "total_magnetization_normalized_vol": null, "total_magnetization_normalized_formula_units": null, "num_magnetic_sites": null, "num_unique_magnetic_sites": null, "types_of_magnetic_species": null, "bulk_modulus": null, "shear_modulus": null, "universal_anisotropy": null, "homogeneous_poisson": null, "e_total": null, "e_ionic": null, "e_electronic": null, "n": null, "e_ij_max": null, "weighted_surface_energy_EV_PER_ANG2": null, "weighted_surface_energy": null, "weighted_work_function": null, "surface_anisotropy": null, "shape_factor": null, "has_reconstructed": null, "possible_species": null, "has_props": null, "theoretical": null, "database_IDs": null, "fields_not_requested": ["builder_meta", "nsites", "elements", "nelements", "composition", "composition_reduced", "chemsys", "symmetry", "property_name", "deprecated", "deprecation_reasons", "last_updated", "origins", "warnings", "task_ids", "uncorrected_energy_per_atom", "equilibrium_reaction_energy_per_atom", "decomposes_to", "xas", "grain_boundaries", "cbm", "vbm", "is_gap_direct", "is_metal", "es_source_calc_id", "bandstructure", "dos", "dos_energy_up", "dos_energy_down", "is_magnetic", "ordering", "total_magnetization_normalized_vol", "total_magnetization_normalized_formula_units", "num_magnetic_sites", "num_unique_magnetic_sites", "types_of_magnetic_species", "bulk_modulus", "shear_modulus", "universal_anisotropy", "homogeneous_poisson", "e_total", "e_ionic", "e_electronic", "n", "e_ij_max", "weighted_surface_energy_EV_PER_ANG2", "weighted_surface_energy", "weighted_work_function", "surface_anisotropy", "shape_factor", "has_reconstructed", "possible_species", "has_props", "theoretical", "database_IDs"]}