{
  "builder_meta": null,
  "nsites": null,
  "elements": null,
  "nelements": null,
  "composition": null,
  "composition_reduced": null,
  "formula_pretty": "CoF2",
  "formula_anonymous": "AB2",
  "chemsys": null,
  "volume": 68.98126085349506,
  "density": 4.666660251169866,
  "density_atomic": 11.496876808915843,
  "symmetry": null,
  "property_name": null,
  "material_id": "mp-555908",
  "deprecated": null,
  "deprecation_reasons": null,
  "last_updated": null,
  "origins": null,
  "warnings": null,
  "structure": {
    "@module": "pymatgen.core.structure",
    "@class": "Structure",
    "charge": 0,
    "lattice": {
      "matrix": [
        [3.19916469, 0.0, 0.0],
        [0.0, 4.64351941, -1.02e-6],
        [0.0, -1.02e-6, 4.64351941]
      ],
      "pbc": [true, true, true],
      "a": 3.19916469,
      "b": 4.643519410000112,
      "c": 4.643519410000112,
      "alpha": 90.00002517129354,
      "beta": 90.0,
      "gamma": 90.0,
      "volume": 68.98126085349506
    },
    "properties": {},
    "sites": [
      {
        "species": [{ "element": "Co", "occu": 1 }],
        "abc": [-0.0, -0.0, -0.0],
        "properties": { "magmom": 2.774 },
        "label": "Co",
        "xyz": [0.0, 0.0, 0.0]
      },
      {
        "species": [{ "element": "Co", "occu": 1 }],
        "abc": [0.5, 0.5, 0.5],
        "properties": { "magmom": 2.774 },
        "label": "Co",
        "xyz": [1.599582345, 2.321759195, 2.321759195]
      },
      {
        "species": [{ "element": "F", "occu": 1 }],
        "abc": [0.0, 0.30433674, 0.30433674],
        "properties": { "magmom": 0.099 },
        "label": "F",
        "xyz": [0.0, 1.4131932489426486, 1.4131932489426486]
      },
      {
        "species": [{ "element": "F", "occu": 1 }],
        "abc": [0.0, 0.69566326, 0.69566326],
        "properties": { "magmom": 0.099 },
        "label": "F",
        "xyz": [0.0, 3.2303251410573512, 3.2303251410573512]
      },
      {
        "species": [{ "element": "F", "occu": 1 }],
        "abc": [0.5, 0.19566326, 0.80433674],
        "properties": { "magmom": 0.099 },
        "label": "F",
        "xyz": [1.599582345, 0.9085653252104018, 3.734953064789598]
      },
      {
        "species": [{ "element": "F", "occu": 1 }],
        "abc": [0.5, 0.80433674, 0.19566326],
        "properties": { "magmom": 0.099 },
        "label": "F",
        "xyz": [1.599582345, 3.734953064789598, 0.9085653252104018]
      }
    ]
  },
  "task_ids": null,
  "uncorrected_energy_per_atom": null,
  "energy_per_atom": -5.99539223,
  "formation_energy_per_atom": -2.341685073333334,
  "energy_above_hull": 0.0,
  "is_stable": true,
  "equilibrium_reaction_energy_per_atom": null,
  "decomposes_to": null,
  "xas": null,
  "grain_boundaries": null,
  "band_gap": 2.2721,
  "cbm": null,
  "vbm": null,
  "efermi": 0.52860275,
  "is_gap_direct": null,
  "is_metal": null,
  "es_source_calc_id": null,
  "bandstructure": null,
  "dos": null,
  "dos_energy_up": null,
  "dos_energy_down": null,
  "is_magnetic": null,
  "ordering": null,
  "total_magnetization": 6.0000001,
  "total_magnetization_normalized_vol": null,
  "total_magnetization_normalized_formula_units": null,
  "num_magnetic_sites": null,
  "num_unique_magnetic_sites": null,
  "types_of_magnetic_species": null,
  "bulk_modulus": null,
  "shear_modulus": null,
  "universal_anisotropy": null,
  "homogeneous_poisson": null,
  "e_total": null,
  "e_ionic": null,
  "e_electronic": null,
  "n": null,
  "e_ij_max": null,
  "weighted_surface_energy_EV_PER_ANG2": null,
  "weighted_surface_energy": null,
  "weighted_work_function": null,
  "surface_anisotropy": null,
  "shape_factor": null,
  "has_reconstructed": null,
  "possible_species": null,
  "has_props": null,
  "theoretical": null,
  "database_IDs": null,
  "fields_not_requested": [
    "builder_meta",
    "nsites",
    "elements",
    "nelements",
    "composition",
    "composition_reduced",
    "chemsys",
    "symmetry",
    "property_name",
    "deprecated",
    "deprecation_reasons",
    "last_updated",
    "origins",
    "warnings",
    "task_ids",
    "uncorrected_energy_per_atom",
    "equilibrium_reaction_energy_per_atom",
    "decomposes_to",
    "xas",
    "grain_boundaries",
    "cbm",
    "vbm",
    "is_gap_direct",
    "is_metal",
    "es_source_calc_id",
    "bandstructure",
    "dos",
    "dos_energy_up",
    "dos_energy_down",
    "is_magnetic",
    "ordering",
    "total_magnetization_normalized_vol",
    "total_magnetization_normalized_formula_units",
    "num_magnetic_sites",
    "num_unique_magnetic_sites",
    "types_of_magnetic_species",
    "bulk_modulus",
    "shear_modulus",
    "universal_anisotropy",
    "homogeneous_poisson",
    "e_total",
    "e_ionic",
    "e_electronic",
    "n",
    "e_ij_max",
    "weighted_surface_energy_EV_PER_ANG2",
    "weighted_surface_energy",
    "weighted_work_function",
    "surface_anisotropy",
    "shape_factor",
    "has_reconstructed",
    "possible_species",
    "has_props",
    "theoretical",
    "database_IDs"
  ]
}
