{
  "builder_meta": null,
  "nsites": null,
  "elements": null,
  "nelements": null,
  "composition": null,
  "composition_reduced": null,
  "formula_pretty": "CoF3",
  "formula_anonymous": "AB3",
  "chemsys": null,
  "volume": 226.68760093708212,
  "density": 3.396809423561567,
  "density_atomic": 14.167975058567633,
  "symmetry": null,
  "property_name": null,
  "material_id": "mp-1271079",
  "deprecated": null,
  "deprecation_reasons": null,
  "last_updated": null,
  "origins": null,
  "warnings": null,
  "structure": {
    "@module": "pymatgen.core.structure",
    "@class": "Structure",
    "charge": 0,
    "lattice": {
      "matrix": [
        [2.724508, -1.572895, 4.412258],
        [-2.713604, -4.700064, -8.7e-5],
        [2.746316, -4.719092, -6.632077]
      ],
      "pbc": [true, true, true],
      "a": 5.418944840248238,
      "b": 5.4271768241398775,
      "c": 8.590490452252945,
      "alpha": 71.58449244234527,
      "beta": 107.9641128701429,
      "gamma": 90.0017777496842,
      "volume": 226.68760093708212
    },
    "properties": {},
    "sites": [
      {
        "species": [{ "element": "Co", "occu": 1 }],
        "abc": [0.499770999999999, 0.500236999999999, 0.999586],
        "properties": { "magmom": -3.21 },
        "label": "Co",
        "xyz": [2.7493639886960004, -7.854371518124994, -4.4242562478230045]
      },
      {
        "species": [{ "element": "Co", "occu": 1 }],
        "abc": [0.750217999999999, 0.24983000000000002, 0.50041],
        "properties": { "magmom": -3.21 },
        "label": "Co",
        "xyz": [2.7403192449839975, -4.715711957949999, -0.008624014536004143]
      },
      {
        "species": [{ "element": "Co", "occu": 1 }],
        "abc": [0.999772999999999, 0.000179, 0.9995700000000001],
        "properties": { "magmom": 3.21 },
        "label": "Co",
        "xyz": [5.468538885687998, -6.290442054730998, -2.2179688050290043]
      },
      {
        "species": [{ "element": "Co", "occu": 1 }],
        "abc": [0.25022, 0.749751, 0.50043],
        "properties": { "magmom": 3.21 },
        "label": "Co",
        "xyz": [0.0215379950360004, -6.279022680524, -2.214920324687]
      },
      {
        "species": [{ "element": "F", "occu": 1 }],
        "abc": [0.742015, 0.25792000000000004, 0.99987],
        "properties": { "magmom": -0.078 },
        "label": "F",
        "xyz": [4.067692038860001, -7.0978307083450005, -3.3572756491600004]
      },
      {
        "species": [{ "element": "F", "occu": 1 }],
        "abc": [0.007868, 0.991919, 0.500157],
        "properties": { "magmom": 0.078 },
        "label": "F",
        "xyz": [-1.2966497655200004, -7.034745218119999, -3.2824503870979997]
      },
      {
        "species": [{ "element": "F", "occu": 1 }],
        "abc": [0.257229, 0.742904, 0.998444999999999],
        "properties": { "magmom": -0.079 },
        "label": "F",
        "xyz": [1.4269206809359973, -8.608044365750995, -5.486868039830993]
      },
      {
        "species": [{ "element": "F", "occu": 1 }],
        "abc": [0.492932999999999, 0.507189, 0.501632],
        "properties": { "magmom": 0.079 },
        "label": "F",
        "xyz": [1.3443297905199973, -5.526400169274998, -1.1519586023930044]
      },
      {
        "species": [{ "element": "F", "occu": 1 }],
        "abc": [0.125003, 0.874556999999999, 0.249998],
        "properties": { "magmom": 0.152 },
        "label": "F",
        "xyz": [-1.3460561925359973, -5.486854027148996, -1.1065365855309999]
      },
      {
        "species": [{ "element": "F", "occu": 1 }],
        "abc": [0.375003, 0.625000999999999, 0.750007],
        "properties": { "magmom": -0.0 },
        "label": "F",
        "xyz": [1.3854496841320028, -7.066737077392995, -3.319548562852]
      },
      {
        "species": [{ "element": "F", "occu": 1 }],
        "abc": [0.624996, 0.375342, 0.250011],
        "properties": { "magmom": -0.152 },
        "label": "F",
        "xyz": [1.3708862588760002, -3.92700941532, 1.099518743367]
      },
      {
        "species": [{ "element": "F", "occu": 1 }],
        "abc": [0.875007, 0.125089, 0.749991],
        "properties": { "magmom": -0.0 },
        "label": "F",
        "xyz": [4.104233843956, -5.503496969133, -1.1132523082439998]
      },
      {
        "species": [{ "element": "F", "occu": 1 }],
        "abc": [0.507814, 0.007889, 0.500115],
        "properties": { "magmom": -0.078 },
        "label": "F",
        "xyz": [2.7356095098960003, -3.195905602006, -1.076195491186]
      },
      {
        "species": [{ "element": "F", "occu": 1 }],
        "abc": [0.757286999999999, 0.758722999999999, 0.998448],
        "properties": { "magmom": 0.079 },
        "label": "F",
        "xyz": [2.7464144396720003, -9.468947563352994, -3.2805044013510045]
      },
      {
        "species": [{ "element": "F", "occu": 1 }],
        "abc": [0.992896, 0.491220999999999, 0.50155],
        "properties": { "magmom": -0.079 },
        "label": "F",
        "xyz": [2.7495886144840034, -6.237351884663996, 1.0545523635909992]
      },
      {
        "species": [{ "element": "F", "occu": 1 }],
        "abc": [0.241967, 0.24225000000000002, 0.999782],
        "properties": { "magmom": 0.078 },
        "label": "F",
        "xyz": [2.747587761348, -6.237242426409, -5.5630314514779995]
      }
    ]
  },
  "task_ids": null,
  "uncorrected_energy_per_atom": null,
  "energy_per_atom": -5.369672344375,
  "formation_energy_per_atom": -2.150928883125,
  "energy_above_hull": 0.0,
  "is_stable": true,
  "equilibrium_reaction_energy_per_atom": null,
  "decomposes_to": null,
  "xas": null,
  "grain_boundaries": null,
  "band_gap": 1.6435,
  "cbm": null,
  "vbm": null,
  "efermi": -3.01188664,
  "is_gap_direct": null,
  "is_metal": null,
  "es_source_calc_id": null,
  "bandstructure": null,
  "dos": null,
  "dos_energy_up": null,
  "dos_energy_down": null,
  "is_magnetic": null,
  "ordering": null,
  "total_magnetization": 0.0,
  "total_magnetization_normalized_vol": null,
  "total_magnetization_normalized_formula_units": null,
  "num_magnetic_sites": null,
  "num_unique_magnetic_sites": null,
  "types_of_magnetic_species": null,
  "bulk_modulus": null,
  "shear_modulus": null,
  "universal_anisotropy": null,
  "homogeneous_poisson": null,
  "e_total": null,
  "e_ionic": null,
  "e_electronic": null,
  "n": null,
  "e_ij_max": null,
  "weighted_surface_energy_EV_PER_ANG2": null,
  "weighted_surface_energy": null,
  "weighted_work_function": null,
  "surface_anisotropy": null,
  "shape_factor": null,
  "has_reconstructed": null,
  "possible_species": null,
  "has_props": null,
  "theoretical": null,
  "database_IDs": null,
  "fields_not_requested": [
    "builder_meta",
    "nsites",
    "elements",
    "nelements",
    "composition",
    "composition_reduced",
    "chemsys",
    "symmetry",
    "property_name",
    "deprecated",
    "deprecation_reasons",
    "last_updated",
    "origins",
    "warnings",
    "task_ids",
    "uncorrected_energy_per_atom",
    "equilibrium_reaction_energy_per_atom",
    "decomposes_to",
    "xas",
    "grain_boundaries",
    "cbm",
    "vbm",
    "is_gap_direct",
    "is_metal",
    "es_source_calc_id",
    "bandstructure",
    "dos",
    "dos_energy_up",
    "dos_energy_down",
    "is_magnetic",
    "ordering",
    "total_magnetization_normalized_vol",
    "total_magnetization_normalized_formula_units",
    "num_magnetic_sites",
    "num_unique_magnetic_sites",
    "types_of_magnetic_species",
    "bulk_modulus",
    "shear_modulus",
    "universal_anisotropy",
    "homogeneous_poisson",
    "e_total",
    "e_ionic",
    "e_electronic",
    "n",
    "e_ij_max",
    "weighted_surface_energy_EV_PER_ANG2",
    "weighted_surface_energy",
    "weighted_work_function",
    "surface_anisotropy",
    "shape_factor",
    "has_reconstructed",
    "possible_species",
    "has_props",
    "theoretical",
    "database_IDs"
  ]
}
