{"builder_meta": null, "nsites": null, "elements": null, "nelements": null, "composition": null, "composition_reduced": null, "formula_pretty": "CoF4", "formula_anonymous": "AB4", "chemsys": null, "volume": 141.74310160587123, "density": 3.16137057740592, "density_atomic": 14.174310160587122, "symmetry": null, "property_name": null, "material_id": "mp-1397055", "deprecated": null, "deprecation_reasons": null, "last_updated": null, "origins": null, "warnings": null, "structure": {"@module": "pymatgen.core.structure", "@class": "Structure", "charge": 0, "lattice": {"matrix": [[-2.69840262, 2.69827985, 4.86803241], [2.69829647, -2.69843417, 4.86805948], [2.69771743, 2.69774835, -4.86811509]], "pbc": [true, true, true], "a": 6.18545312756869, "b": 6.185495445852007, "c": 6.1849874714132795, "alpha": 128.27655181093857, "beta": 128.27621454177066, "gamma": 76.18559924685157, "volume": 141.74310160587123}, "properties": {}, "sites": [{"species": [{"element": "Co", "occu": 1}], "abc": [0.50006194, 1.0440000000000002e-05, 0.50007371], "properties": {"magmom": -2.307}, "label": "Co", "xyz": [-0.0002827150913708998, 2.698351910832053, -4.782029483729744e-05]}, {"species": [{"element": "Co", "occu": 1}], "abc": [-6.537e-05, 0.50000964, 0.49994352000000003], "properties": {"magmom": -2.307}, "label": "Co", "xyz": [2.698056989076794, -0.0006976782860013131, -2.414904497127779e-05]}, {"species": [{"element": "F", "occu": 1}], "abc": [0.46217053, 0.962164799999999, 0.17912293], "properties": {"magmom": -0.156}, "label": "F", "xyz": [1.8323067647331344, -0.8660443562737272, 6.061745556451163]}, {"species": [{"element": "F", "occu": 1}], "abc": [0.21694815, 0.71693977, 0.17911795], "properties": {"magmom": -0.156}, "label": "F", "xyz": [1.8323122099703273, -0.8660127974922809, 3.6742492741421953]}, {"species": [{"element": "F", "occu": 1}], "abc": [0.53783482, 0.03779827, 0.820903899999999], "properties": {"magmom": -0.156}, "label": "F", "xyz": [0.8652628104828528, 3.5638248558330536, -1.1940531014422304]}, {"species": [{"element": "F", "occu": 1}], "abc": [0.03784015, 0.21696761, 0.50000214], "properties": {"magmom": -0.156}, "label": "F", "xyz": [1.8321994643814439, 0.8655104498402126, -1.1936496554535885]}, {"species": [{"element": "F", "occu": 1}], "abc": [0.7831155200000001, 0.28307658, 0.82090882], "properties": {"magmom": -0.156}, "label": "F", "xyz": [0.8652435977777424, 3.5638067262949806, 1.1939867468128882]}, {"species": [{"element": "F", "occu": 1}], "abc": [0.28302673, 0.46216161, 0.49998879], "properties": {"magmom": -0.156}, "label": "F", "xyz": [1.8321574446580937, 0.8654165753251732, 1.193610527959041]}, {"species": [{"element": "F", "occu": 1}], "abc": [0.96215227, 0.78305621, 0.49994545], "properties": {"magmom": -0.156}, "label": "F", "xyz": [0.8653551555618249, 1.8318574615055712, 6.061960650856601]}, {"species": [{"element": "F", "occu": 1}], "abc": [0.71691527, 0.5378150700000001, 0.49999279], "properties": {"magmom": -0.156}, "label": "F", "xyz": [0.8654977264651253, 1.8320341894037637, 3.6740600736940636]}]}, "task_ids": null, "uncorrected_energy_per_atom": null, "energy_per_atom": -4.670773533, "formation_energy_per_atom": -1.713008289, "energy_above_hull": 0.007734817499999, "is_stable": false, "equilibrium_reaction_energy_per_atom": null, "decomposes_to": null, "xas": null, "grain_boundaries": null, "band_gap": 1.613999999999999, "cbm": null, "vbm": null, "efermi": -4.47033817, "is_gap_direct": null, "is_metal": null, "es_source_calc_id": null, "bandstructure": null, "dos": null, "dos_energy_up": null, "dos_energy_down": null, "is_magnetic": null, "ordering": null, "total_magnetization": 5.9999999, "total_magnetization_normalized_vol": null, "total_magnetization_normalized_formula_units": null, "num_magnetic_sites": null, "num_unique_magnetic_sites": null, "types_of_magnetic_species": null, "bulk_modulus": null, "shear_modulus": null, "universal_anisotropy": null, "homogeneous_poisson": null, "e_total": null, "e_ionic": null, "e_electronic": null, "n": null, "e_ij_max": null, "weighted_surface_energy_EV_PER_ANG2": null, "weighted_surface_energy": null, "weighted_work_function": null, "surface_anisotropy": null, "shape_factor": null, "has_reconstructed": null, "possible_species": null, "has_props": null, "theoretical": null, "database_IDs": null, "fields_not_requested": ["builder_meta", "nsites", "elements", "nelements", "composition", "composition_reduced", "chemsys", "symmetry", "property_name", "deprecated", "deprecation_reasons", "last_updated", "origins", "warnings", "task_ids", "uncorrected_energy_per_atom", "equilibrium_reaction_energy_per_atom", "decomposes_to", "xas", "grain_boundaries", "cbm", "vbm", "is_gap_direct", "is_metal", "es_source_calc_id", "bandstructure", "dos", "dos_energy_up", "dos_energy_down", "is_magnetic", "ordering", "total_magnetization_normalized_vol", "total_magnetization_normalized_formula_units", "num_magnetic_sites", "num_unique_magnetic_sites", "types_of_magnetic_species", "bulk_modulus", "shear_modulus", "universal_anisotropy", "homogeneous_poisson", "e_total", "e_ionic", "e_electronic", "n", "e_ij_max", "weighted_surface_energy_EV_PER_ANG2", "weighted_surface_energy", "weighted_work_function", "surface_anisotropy", "shape_factor", "has_reconstructed", "possible_species", "has_props", "theoretical", "database_IDs"]}