{
  "builder_meta": null,
  "nsites": null,
  "elements": null,
  "nelements": null,
  "composition": null,
  "composition_reduced": null,
  "formula_pretty": "CoGe",
  "formula_anonymous": "AB",
  "chemsys": null,
  "volume": 103.63940110076324,
  "density": 8.432408064668786,
  "density_atomic": 12.954925137595405,
  "symmetry": null,
  "property_name": null,
  "material_id": "mp-21237",
  "deprecated": null,
  "deprecation_reasons": null,
  "last_updated": null,
  "origins": null,
  "warnings": null,
  "structure": {
    "@module": "pymatgen.core.structure",
    "@class": "Structure",
    "charge": 0,
    "lattice": {
      "matrix": [
        [3.52674352, 0.0, -1.15267156],
        [-0.27217499, 4.79259059, -0.83275645],
        [0.04230065, 0.08763934, 6.10101674]
      ],
      "pbc": [true, true, true],
      "a": 3.7103330822306,
      "b": 4.872010580197322,
      "c": 6.1017927907022775,
      "alpha": 99.04229059428772,
      "beta": 107.70019291902742,
      "gamma": 89.99998955930387,
      "volume": 103.63940110076325
    },
    "properties": {},
    "sites": [
      {
        "species": [{ "element": "Co", "occu": 1 }],
        "abc": [-0.0, 0.0, 0.0],
        "properties": { "magmom": 0.0 },
        "label": "Co",
        "xyz": [0.0, 0.0, 0.0]
      },
      {
        "species": [{ "element": "Co", "occu": 1 }],
        "abc": [-0.0, 0.5, 0.0],
        "properties": { "magmom": -0.0 },
        "label": "Co",
        "xyz": [-0.136087495, 2.396295295, -0.416378225]
      },
      {
        "species": [{ "element": "Co", "occu": 1 }],
        "abc": [0.80444649, 0.67455549, 0.60889397],
        "properties": { "magmom": -0.0 },
        "label": "Co",
        "xyz": [2.67923592276113, 3.286231359467619, 2.2258692781098235]
      },
      {
        "species": [{ "element": "Co", "occu": 1 }],
        "abc": [0.19555351, 0.32544451, 0.39110603],
        "properties": { "magmom": -0.0 },
        "label": "Co",
        "xyz": [0.6176332572388699, 1.5939985705323811, 1.8897194518901772]
      },
      {
        "species": [{ "element": "Ge", "occu": 1 }],
        "abc": [0.8163355, 0.18169507000000001, 0.63266901],
        "properties": { "magmom": 0.0 },
        "label": "Ge",
        "xyz": [2.856315391268517, 0.9262367772062448, 2.767649765145146]
      },
      {
        "species": [{ "element": "Ge", "occu": 1 }],
        "abc": [0.183664499999999, 0.81830493, 0.36733099],
        "properties": { "magmom": 0.0 },
        "label": "Ge",
        "xyz": [0.4405537887314794, 3.953993152793755, 1.3479389648548552]
      },
      {
        "species": [{ "element": "Ge", "occu": 1 }],
        "abc": [0.56983794, 0.28241055, 0.13967488],
        "properties": { "magmom": 0.0 },
        "label": "Ge",
        "xyz": [1.9387155119356763, 1.3657191587445034, -0.039856413270042634]
      },
      {
        "species": [{ "element": "Ge", "occu": 1 }],
        "abc": [0.43016206, 0.71758945, 0.86032512],
        "properties": { "magmom": 0.0 },
        "label": "Ge",
        "xyz": [1.3581536680643238, 3.5145107712554955, 4.155445143270043]
      }
    ]
  },
  "task_ids": null,
  "uncorrected_energy_per_atom": null,
  "energy_per_atom": -13.62557892875,
  "formation_energy_per_atom": -0.072474573750001,
  "energy_above_hull": 0.0,
  "is_stable": true,
  "equilibrium_reaction_energy_per_atom": null,
  "decomposes_to": null,
  "xas": null,
  "grain_boundaries": null,
  "band_gap": 0.0,
  "cbm": null,
  "vbm": null,
  "efermi": 7.09818629,
  "is_gap_direct": null,
  "is_metal": null,
  "es_source_calc_id": null,
  "bandstructure": null,
  "dos": null,
  "dos_energy_up": null,
  "dos_energy_down": null,
  "is_magnetic": null,
  "ordering": null,
  "total_magnetization": 1e-7,
  "total_magnetization_normalized_vol": null,
  "total_magnetization_normalized_formula_units": null,
  "num_magnetic_sites": null,
  "num_unique_magnetic_sites": null,
  "types_of_magnetic_species": null,
  "bulk_modulus": null,
  "shear_modulus": null,
  "universal_anisotropy": null,
  "homogeneous_poisson": null,
  "e_total": null,
  "e_ionic": null,
  "e_electronic": null,
  "n": null,
  "e_ij_max": null,
  "weighted_surface_energy_EV_PER_ANG2": null,
  "weighted_surface_energy": null,
  "weighted_work_function": null,
  "surface_anisotropy": null,
  "shape_factor": null,
  "has_reconstructed": null,
  "possible_species": null,
  "has_props": null,
  "theoretical": null,
  "database_IDs": null,
  "fields_not_requested": [
    "builder_meta",
    "nsites",
    "elements",
    "nelements",
    "composition",
    "composition_reduced",
    "chemsys",
    "symmetry",
    "property_name",
    "deprecated",
    "deprecation_reasons",
    "last_updated",
    "origins",
    "warnings",
    "task_ids",
    "uncorrected_energy_per_atom",
    "equilibrium_reaction_energy_per_atom",
    "decomposes_to",
    "xas",
    "grain_boundaries",
    "cbm",
    "vbm",
    "is_gap_direct",
    "is_metal",
    "es_source_calc_id",
    "bandstructure",
    "dos",
    "dos_energy_up",
    "dos_energy_down",
    "is_magnetic",
    "ordering",
    "total_magnetization_normalized_vol",
    "total_magnetization_normalized_formula_units",
    "num_magnetic_sites",
    "num_unique_magnetic_sites",
    "types_of_magnetic_species",
    "bulk_modulus",
    "shear_modulus",
    "universal_anisotropy",
    "homogeneous_poisson",
    "e_total",
    "e_ionic",
    "e_electronic",
    "n",
    "e_ij_max",
    "weighted_surface_energy_EV_PER_ANG2",
    "weighted_surface_energy",
    "weighted_work_function",
    "surface_anisotropy",
    "shape_factor",
    "has_reconstructed",
    "possible_species",
    "has_props",
    "theoretical",
    "database_IDs"
  ]
}
