{"builder_meta": null, "nsites": null, "elements": null, "nelements": null, "composition": null, "composition_reduced": null, "formula_pretty": "CoGe2", "formula_anonymous": "AB2", "chemsys": null, "volume": 169.3037058626698, "density": 8.011732205974674, "density_atomic": 14.108642155222483, "symmetry": null, "property_name": null, "material_id": "mp-30045", "deprecated": null, "deprecation_reasons": null, "last_updated": null, "origins": null, "warnings": null, "structure": {"@module": "pymatgen.core.structure", "@class": "Structure", "charge": 0, "lattice": {"matrix": [[4.95564528, 0.0, -2.60267825], [-0.0, 5.5999184, -0.0], [0.03355691, 0.0, 6.0831447]], "pbc": [true, true, true], "a": 5.597531082022622, "b": 5.5999184, "c": 6.083237255552905, "alpha": 90.0, "beta": 117.39215189903197, "gamma": 90.0, "volume": 169.3037058626698}, "properties": {}, "sites": [{"species": [{"element": "Co", "occu": 1}], "abc": [0.99190207, 0.0, 0.98380414], "properties": {"magmom": 0.0}, "label": "Co", "xyz": [4.9485282384013365, 0.0, 3.403020996360081]}, {"species": [{"element": "Co", "occu": 1}], "abc": [0.49190207, 0.5, 0.98380414], "properties": {"magmom": 0.0}, "label": "Co", "xyz": [2.470705598401337, 2.7999592, 4.7043601213600805]}, {"species": [{"element": "Co", "occu": 1}], "abc": [0.75809793, 0.0, 0.5161958600000001], "properties": {"magmom": 0.0}, "label": "Co", "xyz": [3.774186366598663, 0.0, 1.16700911613992]}, {"species": [{"element": "Co", "occu": 1}], "abc": [0.25809793000000003, 0.5, 0.5161958600000001], "properties": {"magmom": 0.0}, "label": "Co", "xyz": [1.2963637265986632, 2.7999592, 2.4683482411399202]}, {"species": [{"element": "Ge", "occu": 1}], "abc": [0.71606307, 0.65893907, 0.75], "properties": {"magmom": -0.0}, "label": "Ge", "xyz": [3.573722255527809, 3.6900050225718877, 2.6986767470827733]}, {"species": [{"element": "Ge", "occu": 1}], "abc": [0.033936930000000004, 0.34106093, 0.75], "properties": {"magmom": -0.0}, "label": "Ge", "xyz": [0.1933470694721904, 1.9099133774281118, 4.474031615417228]}, {"species": [{"element": "Ge", "occu": 1}], "abc": [0.53393693, 0.15893907000000002, 0.75], "properties": {"magmom": -0.0}, "label": "Ge", "xyz": [2.67116970947219, 0.8900458225718881, 3.1726924904172282]}, {"species": [{"element": "Ge", "occu": 1}], "abc": [0.21606307, 0.84106093, 0.75], "properties": {"magmom": -0.0}, "label": "Ge", "xyz": [1.0958996155278096, 4.709872577428112, 4.000015872082773]}, {"species": [{"element": "Ge", "occu": 1}], "abc": [0.87666064, 0.75, 0.25], "properties": {"magmom": -0.0}, "label": "Ge", "xyz": [4.352808390277779, 4.1999388, -0.7608794053590797]}, {"species": [{"element": "Ge", "occu": 1}], "abc": [0.37333936, 0.25, 0.25], "properties": {"magmom": -0.0}, "label": "Ge", "xyz": [1.8585266647222207, 1.3999796, 0.54910394285908]}, {"species": [{"element": "Ge", "occu": 1}], "abc": [0.87333936, 0.25, 0.25], "properties": {"magmom": -0.0}, "label": "Ge", "xyz": [4.336349304722221, 1.3999796, -0.7522351821409199]}, {"species": [{"element": "Ge", "occu": 1}], "abc": [0.37666064, 0.75, 0.25], "properties": {"magmom": -0.0}, "label": "Ge", "xyz": [1.874985750277779, 4.1999388, 0.5404597196409201]}]}, "task_ids": null, "uncorrected_energy_per_atom": null, "energy_per_atom": -13.689836184166666, "formation_energy_per_atom": -0.030440754166666, "energy_above_hull": 0.017875628333333, "is_stable": false, "equilibrium_reaction_energy_per_atom": null, "decomposes_to": null, "xas": null, "grain_boundaries": null, "band_gap": 0.0, "cbm": null, "vbm": null, "efermi": 7.09384198, "is_gap_direct": null, "is_metal": null, "es_source_calc_id": null, "bandstructure": null, "dos": null, "dos_energy_up": null, "dos_energy_down": null, "is_magnetic": null, "ordering": null, "total_magnetization": 1e-07, "total_magnetization_normalized_vol": null, "total_magnetization_normalized_formula_units": null, "num_magnetic_sites": null, "num_unique_magnetic_sites": null, "types_of_magnetic_species": null, "bulk_modulus": null, "shear_modulus": null, "universal_anisotropy": null, "homogeneous_poisson": null, "e_total": null, "e_ionic": null, "e_electronic": null, "n": null, "e_ij_max": null, "weighted_surface_energy_EV_PER_ANG2": null, "weighted_surface_energy": null, "weighted_work_function": null, "surface_anisotropy": null, "shape_factor": null, "has_reconstructed": null, "possible_species": null, "has_props": null, "theoretical": null, "database_IDs": null, "fields_not_requested": ["builder_meta", "nsites", "elements", "nelements", "composition", "composition_reduced", "chemsys", "symmetry", "property_name", "deprecated", "deprecation_reasons", "last_updated", "origins", "warnings", "task_ids", "uncorrected_energy_per_atom", "equilibrium_reaction_energy_per_atom", "decomposes_to", "xas", "grain_boundaries", "cbm", "vbm", "is_gap_direct", "is_metal", "es_source_calc_id", "bandstructure", "dos", "dos_energy_up", "dos_energy_down", "is_magnetic", "ordering", "total_magnetization_normalized_vol", "total_magnetization_normalized_formula_units", "num_magnetic_sites", "num_unique_magnetic_sites", "types_of_magnetic_species", "bulk_modulus", "shear_modulus", "universal_anisotropy", "homogeneous_poisson", "e_total", "e_ionic", "e_electronic", "n", "e_ij_max", "weighted_surface_energy_EV_PER_ANG2", "weighted_surface_energy", "weighted_work_function", "surface_anisotropy", "shape_factor", "has_reconstructed", "possible_species", "has_props", "theoretical", "database_IDs"]}