{"builder_meta": null, "nsites": null, "elements": null, "nelements": null, "composition": null, "composition_reduced": null, "formula_pretty": "CoMo", "formula_anonymous": "AB", "chemsys": null, "volume": 338.81265483533014, "density": 9.867544293147681, "density_atomic": 13.031255955205005, "symmetry": null, "property_name": null, "material_id": "mp-1226395", "deprecated": null, "deprecation_reasons": null, "last_updated": null, "origins": null, "warnings": null, "structure": {"@module": "pymatgen.core.structure", "@class": "Structure", "charge": 0, "lattice": {"matrix": [[17.196239, -2.388737, 0.0], [17.196239, 2.388737, 0.0], [16.864418, 0.0, 4.124087]], "pbc": [true, true, true], "a": 17.361356519589418, "b": 17.361356519589418, "c": 17.36135617002004, "alpha": 15.81674945592233, "beta": 15.81674945592233, "gamma": 15.8167474147069, "volume": 338.81265483533014}, "properties": {}, "sites": [{"species": [{"element": "Co", "occu": 1}], "abc": [0.199902, 0.709349, 0.709349], "properties": {"magmom": -0.009000000000000001}, "label": "Co", "xyz": [27.598455550870998, 1.2169348984389998, 2.925416989363]}, {"species": [{"element": "Co", "occu": 1}], "abc": [0.703992, 0.205421, 0.205421], "properties": {"magmom": -0.128}, "label": "Co", "xyz": [19.102788907684996, -1.1909549948269997, 0.847174075627]}, {"species": [{"element": "Co", "occu": 1}], "abc": [0.709349, 0.199902, 0.709349], "properties": {"magmom": -0.003}, "label": "Co", "xyz": [27.598455550870998, -1.2169348984389998, 2.925416989363]}, {"species": [{"element": "Co", "occu": 1}], "abc": [0.205421, 0.703992, 0.205421], "properties": {"magmom": -0.14400000000000002}, "label": "Co", "xyz": [19.102788907684996, 1.1909549948269997, 0.847174075627]}, {"species": [{"element": "Co", "occu": 1}], "abc": [0.709349, 0.709349, 0.199902], "properties": {"magmom": -0.003}, "label": "Co", "xyz": [27.767500763857996, 0.0, 0.824413239474]}, {"species": [{"element": "Co", "occu": 1}], "abc": [0.205421, 0.205421, 0.703992], "properties": {"magmom": -0.149}, "label": "Co", "xyz": [18.937352579893997, 0.0, 2.903324255304]}, {"species": [{"element": "Co", "occu": 1}], "abc": [0.296008, 0.794578999999999, 0.794578999999999], "properties": {"magmom": -0.128}, "label": "Co", "xyz": [32.154107092314966, 1.1909549948269977, 3.276912924372996]}, {"species": [{"element": "Co", "occu": 1}], "abc": [0.800098, 0.290651, 0.290651], "properties": {"magmom": -0.009000000000000001}, "label": "Co", "xyz": [23.658440449128996, -1.2169348984389998, 1.198670010637]}, {"species": [{"element": "Co", "occu": 1}], "abc": [0.794578999999999, 0.296008, 0.794578999999999], "properties": {"magmom": -0.14400000000000002}, "label": "Co", "xyz": [32.154107092314966, -1.1909549948269977, 3.276912924372996]}, {"species": [{"element": "Co", "occu": 1}], "abc": [0.290651, 0.800098, 0.290651], "properties": {"magmom": -0.003}, "label": "Co", "xyz": [23.658440449128996, 1.2169348984389998, 1.198670010637]}, {"species": [{"element": "Co", "occu": 1}], "abc": [0.794578999999999, 0.794578999999999, 0.296008], "properties": {"magmom": -0.149}, "label": "Co", "xyz": [32.319543420105965, 0.0, 1.220762744696]}, {"species": [{"element": "Co", "occu": 1}], "abc": [0.290651, 0.290651, 0.800098], "properties": {"magmom": -0.003}, "label": "Co", "xyz": [23.489395236142, 0.0, 3.2996737605260003]}, {"species": [{"element": "Co", "occu": 1}], "abc": [0.0, 0.0, 0.0], "properties": {"magmom": -1.174}, "label": "Co", "xyz": [0.0, 0.0, 0.0]}, {"species": [{"element": "Mo", "occu": 1}], "abc": [0.326453999999999, 0.326453999999999, 0.326453999999999], "properties": {"magmom": -0.07}, "label": "Mo", "xyz": [16.73301872678395, 0.0, 1.346324697497996]}, {"species": [{"element": "Mo", "occu": 1}], "abc": [0.826201, 0.826201, 0.826201], "properties": {"magmom": -0.011}, "label": "Mo", "xyz": [42.348498732096, 0.0, 3.407324803487]}, {"species": [{"element": "Mo", "occu": 1}], "abc": [0.173798999999999, 0.173798999999999, 0.173798999999999], "properties": {"magmom": -0.011}, "label": "Mo", "xyz": [8.908397267903949, 0.0, 0.716762196512996]}, {"species": [{"element": "Mo", "occu": 1}], "abc": [0.673546, 0.673546, 0.673546], "properties": {"magmom": -0.07}, "label": "Mo", "xyz": [34.523877273215994, 0.0, 2.777762302502]}, {"species": [{"element": "Mo", "occu": 1}], "abc": [0.274965, 0.274965, 0.274965], "properties": {"magmom": 0.043000000000000003}, "label": "Mo", "xyz": [14.09385240864, 0.0, 1.133979581955]}, {"species": [{"element": "Mo", "occu": 1}], "abc": [0.773953, 0.773953, 0.773953], "properties": {"magmom": 0.002}, "label": "Mo", "xyz": [39.670428429888, 0.0, 3.191849505911]}, {"species": [{"element": "Mo", "occu": 1}], "abc": [0.226047, 0.226047, 0.226047], "properties": {"magmom": 0.002}, "label": "Mo", "xyz": [11.586467570112, 0.0, 0.932237494089]}, {"species": [{"element": "Mo", "occu": 1}], "abc": [0.725035, 0.725035, 0.725035], "properties": {"magmom": 0.043000000000000003}, "label": "Mo", "xyz": [37.16304359136, 0.0, 2.990107418045]}, {"species": [{"element": "Mo", "occu": 1}], "abc": [0.918152, 0.918152, 0.918152], "properties": {"magmom": 0.065}, "label": "Mo", "xyz": [47.061621576191996, 0.0, 3.7865387272240003]}, {"species": [{"element": "Mo", "occu": 1}], "abc": [0.416666999999999, 0.416666999999999, 0.416666999999999], "properties": {"magmom": 0.005}, "label": "Mo", "xyz": [21.35705708563195, 0.0, 1.718370958028996]}, {"species": [{"element": "Mo", "occu": 1}], "abc": [0.583333, 0.583333, 0.583333], "properties": {"magmom": 0.005}, "label": "Mo", "xyz": [29.899838914367997, 0.0, 2.405716041971]}, {"species": [{"element": "Mo", "occu": 1}], "abc": [0.081847999999999, 0.081847999999999, 0.081847999999999], "properties": {"magmom": 0.065}, "label": "Mo", "xyz": [4.195274423807948, 0.0, 0.3375482727759959]}, {"species": [{"element": "Mo", "occu": 1}], "abc": [0.5, 0.5, 0.5], "properties": {"magmom": 0.008}, "label": "Mo", "xyz": [25.628448, 0.0, 2.0620435]}]}, "task_ids": null, "uncorrected_energy_per_atom": null, "energy_per_atom": -19.643718478397435, "formation_energy_per_atom": 0.009386806602564001, "energy_above_hull": 0.009386806602563, "is_stable": false, "equilibrium_reaction_energy_per_atom": null, "decomposes_to": null, "xas": null, "grain_boundaries": null, "band_gap": 0.0, "cbm": null, "vbm": null, "efermi": 7.33462161, "is_gap_direct": null, "is_metal": null, "es_source_calc_id": null, "bandstructure": null, "dos": null, "dos_energy_up": null, "dos_energy_down": null, "is_magnetic": null, "ordering": null, "total_magnetization": 1.969071, "total_magnetization_normalized_vol": null, "total_magnetization_normalized_formula_units": null, "num_magnetic_sites": null, "num_unique_magnetic_sites": null, "types_of_magnetic_species": null, "bulk_modulus": null, "shear_modulus": null, "universal_anisotropy": null, "homogeneous_poisson": null, "e_total": null, "e_ionic": null, "e_electronic": null, "n": null, "e_ij_max": null, "weighted_surface_energy_EV_PER_ANG2": null, "weighted_surface_energy": null, "weighted_work_function": null, "surface_anisotropy": null, "shape_factor": null, "has_reconstructed": null, "possible_species": null, "has_props": null, "theoretical": null, "database_IDs": null, "fields_not_requested": ["builder_meta", "nsites", "elements", "nelements", "composition", "composition_reduced", "chemsys", "symmetry", "property_name", "deprecated", "deprecation_reasons", "last_updated", "origins", "warnings", "task_ids", "uncorrected_energy_per_atom", "equilibrium_reaction_energy_per_atom", "decomposes_to", "xas", "grain_boundaries", "cbm", "vbm", "is_gap_direct", "is_metal", "es_source_calc_id", "bandstructure", "dos", "dos_energy_up", "dos_energy_down", "is_magnetic", "ordering", "total_magnetization_normalized_vol", "total_magnetization_normalized_formula_units", "num_magnetic_sites", "num_unique_magnetic_sites", "types_of_magnetic_species", "bulk_modulus", "shear_modulus", "universal_anisotropy", "homogeneous_poisson", "e_total", "e_ionic", "e_electronic", "n", "e_ij_max", "weighted_surface_energy_EV_PER_ANG2", "weighted_surface_energy", "weighted_work_function", "surface_anisotropy", "shape_factor", "has_reconstructed", "possible_species", "has_props", "theoretical", "database_IDs"]}