{"builder_meta": null, "nsites": null, "elements": null, "nelements": null, "composition": null, "composition_reduced": null, "formula_pretty": "CoN", "formula_anonymous": "AB", "chemsys": null, "volume": 18.78955470500436, "density": 6.446110462050669, "density_atomic": 9.39477735250218, "symmetry": null, "property_name": null, "material_id": "mp-448", "deprecated": null, "deprecation_reasons": null, "last_updated": null, "origins": null, "warnings": null, "structure": {"@module": "pymatgen.core.structure", "@class": "Structure", "charge": 0, "lattice": {"matrix": [[2.58428937, 0.0, 1.49203935], [0.86143046, 2.43649081, 1.49203935], [-1e-08, -0.0, 2.98408073]], "pbc": [true, true, true], "a": 2.9840799201501658, "b": 2.984079644811561, "c": 2.98408073, "alpha": 60.00001053762063, "beta": 60.000013717862316, "gamma": 59.99999310067016, "volume": 18.78955470500436}, "properties": {}, "sites": [{"species": [{"element": "Co", "occu": 1}], "abc": [0.0, 0.0, -0.0], "properties": {"magmom": -0.0}, "label": "Co", "xyz": [0.0, 0.0, 0.0]}, {"species": [{"element": "N", "occu": 1}], "abc": [0.25, 0.25, 0.25], "properties": {"magmom": 0.0}, "label": "N", "xyz": [0.861429955, 0.6091227025, 1.4920398575]}]}, "task_ids": null, "uncorrected_energy_per_atom": null, "energy_per_atom": -11.07862944, "formation_energy_per_atom": 0.10286146062500001, "energy_above_hull": 0.10286146062500001, "is_stable": false, "equilibrium_reaction_energy_per_atom": null, "decomposes_to": null, "xas": null, "grain_boundaries": null, "band_gap": 0.0, "cbm": null, "vbm": null, "efermi": 5.22901013, "is_gap_direct": null, "is_metal": null, "es_source_calc_id": null, "bandstructure": null, "dos": null, "dos_energy_up": null, "dos_energy_down": null, "is_magnetic": null, "ordering": null, "total_magnetization": 1.83e-05, "total_magnetization_normalized_vol": null, "total_magnetization_normalized_formula_units": null, "num_magnetic_sites": null, "num_unique_magnetic_sites": null, "types_of_magnetic_species": null, "bulk_modulus": null, "shear_modulus": null, "universal_anisotropy": null, "homogeneous_poisson": null, "e_total": null, "e_ionic": null, "e_electronic": null, "n": null, "e_ij_max": null, "weighted_surface_energy_EV_PER_ANG2": null, "weighted_surface_energy": null, "weighted_work_function": null, "surface_anisotropy": null, "shape_factor": null, "has_reconstructed": null, "possible_species": null, "has_props": null, "theoretical": null, "database_IDs": null, "fields_not_requested": ["builder_meta", "nsites", "elements", "nelements", "composition", "composition_reduced", "chemsys", "symmetry", "property_name", "deprecated", "deprecation_reasons", "last_updated", "origins", "warnings", "task_ids", "uncorrected_energy_per_atom", "equilibrium_reaction_energy_per_atom", "decomposes_to", "xas", "grain_boundaries", "cbm", "vbm", "is_gap_direct", "is_metal", "es_source_calc_id", "bandstructure", "dos", "dos_energy_up", "dos_energy_down", "is_magnetic", "ordering", "total_magnetization_normalized_vol", "total_magnetization_normalized_formula_units", "num_magnetic_sites", "num_unique_magnetic_sites", "types_of_magnetic_species", "bulk_modulus", "shear_modulus", "universal_anisotropy", "homogeneous_poisson", "e_total", "e_ionic", "e_electronic", "n", "e_ij_max", "weighted_surface_energy_EV_PER_ANG2", "weighted_surface_energy", "weighted_work_function", "surface_anisotropy", "shape_factor", "has_reconstructed", "possible_species", "has_props", "theoretical", "database_IDs"]}