{"builder_meta": null, "nsites": null, "elements": null, "nelements": null, "composition": null, "composition_reduced": null, "formula_pretty": "CoN3", "formula_anonymous": "AB3", "chemsys": null, "volume": 122.51428716632716, "density": 5.4732192996204, "density_atomic": 7.657142947895448, "symmetry": null, "property_name": null, "material_id": "mp-22762", "deprecated": null, "deprecation_reasons": null, "last_updated": null, "origins": null, "warnings": null, "structure": {"@module": "pymatgen.core.structure", "@class": "Structure", "charge": 0, "lattice": {"matrix": [[-3.128784, 3.128784, 3.128784], [3.128784, -3.128784, 3.128784], [3.128784, 3.128784, -3.128784]], "pbc": [true, true, true], "a": 5.419212853908582, "b": 5.419212853908582, "c": 5.419212853908582, "alpha": 109.47122063449069, "beta": 109.47122063449069, "gamma": 109.47122063449069, "volume": 122.51428716632716}, "properties": {}, "sites": [{"species": [{"element": "Co", "occu": 1}], "abc": [0.5, 0.0, 0.0], "properties": {"magmom": 0.001}, "label": "Co", "xyz": [-1.564392, 1.564392, 1.564392]}, {"species": [{"element": "Co", "occu": 1}], "abc": [0.5, 0.5, 0.5], "properties": {"magmom": 0.001}, "label": "Co", "xyz": [1.564392, 1.564392, 1.564392]}, {"species": [{"element": "Co", "occu": 1}], "abc": [0.0, 0.5, 0.0], "properties": {"magmom": 0.001}, "label": "Co", "xyz": [1.564392, -1.564392, 1.564392]}, {"species": [{"element": "Co", "occu": 1}], "abc": [0.0, 0.0, 0.5], "properties": {"magmom": 0.001}, "label": "Co", "xyz": [1.564392, 1.564392, -1.564392]}, {"species": [{"element": "N", "occu": 1}], "abc": [0.115968999999999, 0.74099, 0.625020999999999], "properties": {"magmom": -0.0}, "label": "N", "xyz": [3.9111114089280004, -6.217248937900877e-15, 0.7256839033920002]}, {"species": [{"element": "N", "occu": 1}], "abc": [0.115968999999999, 0.490948, 0.374979], "properties": {"magmom": -0.0}, "label": "N", "xyz": [2.346456591072003, -3.1086244689504383e-15, 0.7256839033919968]}, {"species": [{"element": "N", "occu": 1}], "abc": [0.884031, 0.509052, 0.625020999999999], "properties": {"magmom": -0.0}, "label": "N", "xyz": [0.7823274089279966, 3.128783999999998, 2.4031000966080036]}, {"species": [{"element": "N", "occu": 1}], "abc": [0.374979, 0.115968999999999, 0.490948], "properties": {"magmom": -0.0}, "label": "N", "xyz": [0.7256839033919968, 2.346456591072003, -3.1086244689504383e-15]}, {"species": [{"element": "N", "occu": 1}], "abc": [0.884031, 0.25901, 0.374979], "properties": {"magmom": -0.0}, "label": "N", "xyz": [-0.7823274089280001, 3.1287840000000005, 2.403100096608]}, {"species": [{"element": "N", "occu": 1}], "abc": [0.625020999999999, 0.115968999999999, 0.74099], "properties": {"magmom": -0.0}, "label": "N", "xyz": [0.725683903392, 3.9111114089280004, -6.217248937900877e-15]}, {"species": [{"element": "N", "occu": 1}], "abc": [0.509052, 0.625020999999999, 0.884031], "properties": {"magmom": -0.0}, "label": "N", "xyz": [3.128783999999998, 2.4031000966080027, 0.7823274089279963]}, {"species": [{"element": "N", "occu": 1}], "abc": [0.625020999999999, 0.884031, 0.509052], "properties": {"magmom": -0.0}, "label": "N", "xyz": [2.4031000966080027, 0.7823274089279966, 3.128783999999998]}, {"species": [{"element": "N", "occu": 1}], "abc": [0.490948, 0.374979, 0.115968999999999], "properties": {"magmom": -0.0}, "label": "N", "xyz": [-3.1086244689504383e-15, 0.7256839033919968, 2.3464565910720028]}, {"species": [{"element": "N", "occu": 1}], "abc": [0.374979, 0.884031, 0.25901], "properties": {"magmom": -0.0}, "label": "N", "xyz": [2.403100096608, -0.7823274089280001, 3.1287840000000005]}, {"species": [{"element": "N", "occu": 1}], "abc": [0.25901, 0.374979, 0.884031], "properties": {"magmom": -0.0}, "label": "N", "xyz": [3.1287840000000005, 2.403100096608, -0.7823274089280001]}, {"species": [{"element": "N", "occu": 1}], "abc": [0.74099, 0.625020999999999, 0.115968999999999], "properties": {"magmom": -0.0}, "label": "N", "xyz": [-6.217248937900877e-15, 0.725683903392, 3.911111408928]}]}, "task_ids": null, "uncorrected_energy_per_atom": null, "energy_per_atom": -9.771152855937501, "formation_energy_per_atom": 0.383967929999998, "energy_above_hull": 0.383967929999998, "is_stable": false, "equilibrium_reaction_energy_per_atom": null, "decomposes_to": null, "xas": null, "grain_boundaries": null, "band_gap": 0.0, "cbm": null, "vbm": null, "efermi": 7.81510057, "is_gap_direct": null, "is_metal": null, "es_source_calc_id": null, "bandstructure": null, "dos": null, "dos_energy_up": null, "dos_energy_down": null, "is_magnetic": null, "ordering": null, "total_magnetization": 0.0276351, "total_magnetization_normalized_vol": null, "total_magnetization_normalized_formula_units": null, "num_magnetic_sites": null, "num_unique_magnetic_sites": null, "types_of_magnetic_species": null, "bulk_modulus": null, "shear_modulus": null, "universal_anisotropy": null, "homogeneous_poisson": null, "e_total": null, "e_ionic": null, "e_electronic": null, "n": null, "e_ij_max": null, "weighted_surface_energy_EV_PER_ANG2": null, "weighted_surface_energy": null, "weighted_work_function": null, "surface_anisotropy": null, "shape_factor": null, "has_reconstructed": null, "possible_species": null, "has_props": null, "theoretical": null, "database_IDs": null, "fields_not_requested": ["builder_meta", "nsites", "elements", "nelements", "composition", "composition_reduced", "chemsys", "symmetry", "property_name", "deprecated", "deprecation_reasons", "last_updated", "origins", "warnings", "task_ids", "uncorrected_energy_per_atom", "equilibrium_reaction_energy_per_atom", "decomposes_to", "xas", "grain_boundaries", "cbm", "vbm", "is_gap_direct", "is_metal", "es_source_calc_id", "bandstructure", "dos", "dos_energy_up", "dos_energy_down", "is_magnetic", "ordering", "total_magnetization_normalized_vol", "total_magnetization_normalized_formula_units", "num_magnetic_sites", "num_unique_magnetic_sites", "types_of_magnetic_species", "bulk_modulus", "shear_modulus", "universal_anisotropy", "homogeneous_poisson", "e_total", "e_ionic", "e_electronic", "n", "e_ij_max", "weighted_surface_energy_EV_PER_ANG2", "weighted_surface_energy", "weighted_work_function", "surface_anisotropy", "shape_factor", "has_reconstructed", "possible_species", "has_props", "theoretical", "database_IDs"]}