{"builder_meta": null, "nsites": null, "elements": null, "nelements": null, "composition": null, "composition_reduced": null, "formula_pretty": "CoO", "formula_anonymous": "AB", "chemsys": null, "volume": 45.6458388279094, "density": 5.451909946417111, "density_atomic": 11.41145970697735, "symmetry": null, "property_name": null, "material_id": "mp-22408", "deprecated": null, "deprecation_reasons": null, "last_updated": null, "origins": null, "warnings": null, "structure": {"@module": "pymatgen.core.structure", "@class": "Structure", "charge": 0, "lattice": {"matrix": [[2.7751261, 3.0000000000000004e-08, 1.6022204], [0.9250430900000001, 2.6164141, 1.60222039], [-0.87795565, -2.58311912, 4.72510264]], "pbc": [true, true, true], "a": 3.2044399013052765, "b": 3.2044403004529998, "c": 5.4561804836361, "alpha": 90.00000098394996, "beta": 72.9232570005647, "gamma": 59.99997863974215, "volume": 45.6458388279094}, "properties": {}, "sites": [{"species": [{"element": "Co", "occu": 1}], "abc": [0.00102455, 0.99948773, 0.99846318], "properties": {"magmom": -2.483}, "label": "Co", "xyz": [0.05080608342407389, 0.03592445870572769, 6.32088218323243]}, {"species": [{"element": "Co", "occu": 1}], "abc": [0.00101816, 0.49949092, 0.49847177000000004], "properties": {"magmom": 2.483}, "label": "Co", "xyz": [0.027240039616718392, 0.019263126073274295, 3.157256129758796]}, {"species": [{"element": "O", "occu": 1}], "abc": [0.24900828, 0.37549586, 0.12648658000000002], "properties": {"magmom": -0.116}, "label": "O", "xyz": [0.9273296200005385, 0.6557227668444647, 1.5982553423200687]}, {"species": [{"element": "O", "occu": 1}], "abc": [0.24894901, 0.87552549, 0.62657648], "properties": {"magmom": 0.116}, "label": "O", "xyz": [0.9506573390904133, 0.6722155587835816, 4.762294154234453]}]}, "task_ids": null, "uncorrected_energy_per_atom": null, "energy_per_atom": -7.312520008750001, "formation_energy_per_atom": -1.2718311462500012, "energy_above_hull": 0.0, "is_stable": true, "equilibrium_reaction_energy_per_atom": null, "decomposes_to": null, "xas": null, "grain_boundaries": null, "band_gap": 0.5880000000000001, "cbm": null, "vbm": null, "efermi": 2.80576017, "is_gap_direct": null, "is_metal": null, "es_source_calc_id": null, "bandstructure": null, "dos": null, "dos_energy_up": null, "dos_energy_down": null, "is_magnetic": null, "ordering": null, "total_magnetization": 7e-07, "total_magnetization_normalized_vol": null, "total_magnetization_normalized_formula_units": null, "num_magnetic_sites": null, "num_unique_magnetic_sites": null, "types_of_magnetic_species": null, "bulk_modulus": null, "shear_modulus": null, "universal_anisotropy": null, "homogeneous_poisson": null, "e_total": null, "e_ionic": null, "e_electronic": null, "n": null, "e_ij_max": null, "weighted_surface_energy_EV_PER_ANG2": null, "weighted_surface_energy": null, "weighted_work_function": null, "surface_anisotropy": null, "shape_factor": null, "has_reconstructed": null, "possible_species": null, "has_props": null, "theoretical": null, "database_IDs": null, "fields_not_requested": ["builder_meta", "nsites", "elements", "nelements", "composition", "composition_reduced", "chemsys", "symmetry", "property_name", "deprecated", "deprecation_reasons", "last_updated", "origins", "warnings", "task_ids", "uncorrected_energy_per_atom", "equilibrium_reaction_energy_per_atom", "decomposes_to", "xas", "grain_boundaries", "cbm", "vbm", "is_gap_direct", "is_metal", "es_source_calc_id", "bandstructure", "dos", "dos_energy_up", "dos_energy_down", "is_magnetic", "ordering", "total_magnetization_normalized_vol", "total_magnetization_normalized_formula_units", "num_magnetic_sites", "num_unique_magnetic_sites", "types_of_magnetic_species", "bulk_modulus", "shear_modulus", "universal_anisotropy", "homogeneous_poisson", "e_total", "e_ionic", "e_electronic", "n", "e_ij_max", "weighted_surface_energy_EV_PER_ANG2", "weighted_surface_energy", "weighted_work_function", "surface_anisotropy", "shape_factor", "has_reconstructed", "possible_species", "has_props", "theoretical", "database_IDs"]}