{"builder_meta": null, "nsites": null, "elements": null, "nelements": null, "composition": null, "composition_reduced": null, "formula_pretty": "CoO2", "formula_anonymous": "AB2", "chemsys": null, "volume": 124.58651702114541, "density": 4.847912397318181, "density_atomic": 10.382209751762117, "symmetry": null, "property_name": null, "material_id": "mp-1400906", "deprecated": null, "deprecation_reasons": null, "last_updated": null, "origins": null, "warnings": null, "structure": {"@module": "pymatgen.core.structure", "@class": "Structure", "charge": 0, "lattice": {"matrix": [[2.76071322, -0.00030602, 0.57133318], [1.38220194, 6.65280816, 0.28085373], [0.03457511, -0.01937581, 6.79037245]], "pbc": [true, true, true], "a": 2.819212510489396, "b": 6.800677718754011, "c": 6.790488117209518, "alpha": 87.73389245243247, "beta": 78.01591919794005, "gamma": 78.03638529717627, "volume": 124.58651702114541}, "properties": {}, "sites": [{"species": [{"element": "Co", "occu": 1}], "abc": [0.653100599999999, 0.18249009, 0.51650157], "properties": {"magmom": 0.646}, "label": "Co", "xyz": [2.0731197154366265, 1.2038640617405008, 3.9316290964321894]}, {"species": [{"element": "Co", "occu": 1}], "abc": [0.16881834, 0.48356056000000003, 0.18347231], "properties": {"magmom": 0.646}, "label": "Co", "xyz": [1.1407809424561455, 3.2134290530149423, 1.4781066251532695]}, {"species": [{"element": "Co", "occu": 1}], "abc": [0.83474304, 0.5168372, 0.81867934], "properties": {"magmom": 0.646}, "label": "Co", "xyz": [3.047165454570384, 3.422300718143686, 6.181209686669005]}, {"species": [{"element": "Co", "occu": 1}], "abc": [0.35096374, 0.81785301, 0.4856367], "properties": {"magmom": 0.646}, "label": "Co", "xyz": [2.1161391961380196, 5.43150217225662, 3.727868366478035]}, {"species": [{"element": "O", "occu": 1}], "abc": [0.83976785, 0.70450283, 0.6211645100000001], "properties": {"magmom": 0.279}, "label": "O", "xyz": [3.3136002148488135, 4.674629624885133, 4.895587859425069]}, {"species": [{"element": "O", "occu": 1}], "abc": [0.45973854000000003, 0.38215957, 0.70334295], "properties": {"magmom": 0.28}, "label": "O", "xyz": [1.8217461240290391, 2.528665777166041, 5.14595541329818]}, {"species": [{"element": "O", "occu": 1}], "abc": [0.54387922, 0.6182079500000001, 0.29880106], "properties": {"magmom": 0.28}, "label": "O", "xyz": [2.366313860068328, 4.10686294385161, 2.5133327388264703]}, {"species": [{"element": "O", "occu": 1}], "abc": [0.16415146, 0.29582786, 0.38094278], "properties": {"magmom": 0.279}, "label": "O", "xyz": [0.8752400862245553, 1.9606546924073966, 2.763612891900771]}, {"species": [{"element": "O", "occu": 1}], "abc": [0.15635734, 0.04834121, 0.64422777], "properties": {"magmom": 0.024}, "label": "O", "xyz": [0.5207493358387869, 0.30907451301084315, 4.47745544635269]}, {"species": [{"element": "O", "occu": 1}], "abc": [0.80025603, 0.35690146, 0.04734071], "properties": {"magmom": 0.023}, "label": "O", "xyz": [2.7042241020622773, 2.373234786451388, 0.8789109816649607]}, {"species": [{"element": "O", "occu": 1}], "abc": [0.84774434, 0.95198344, 0.35791759], "properties": {"magmom": 0.024}, "label": "O", "xyz": [3.6685874042792332, 6.3261688278744455, 3.1821063121278277]}, {"species": [{"element": "O", "occu": 1}], "abc": [0.20333251, 0.64351082, 0.95478772], "properties": {"magmom": 0.023}, "label": "O", "xyz": [1.4838165426734222, 4.262592025076528, 6.780267253114354]}]}, "task_ids": null, "uncorrected_energy_per_atom": null, "energy_per_atom": -6.748878903333335, "formation_energy_per_atom": -1.072432660000001, "energy_above_hull": 0.0, "is_stable": true, "equilibrium_reaction_energy_per_atom": null, "decomposes_to": null, "xas": null, "grain_boundaries": null, "band_gap": 0.5904, "cbm": null, "vbm": null, "efermi": 0.85252144, "is_gap_direct": null, "is_metal": null, "es_source_calc_id": null, "bandstructure": null, "dos": null, "dos_energy_up": null, "dos_energy_down": null, "is_magnetic": null, "ordering": null, "total_magnetization": 3.9896383, "total_magnetization_normalized_vol": null, "total_magnetization_normalized_formula_units": null, "num_magnetic_sites": null, "num_unique_magnetic_sites": null, "types_of_magnetic_species": null, "bulk_modulus": null, "shear_modulus": null, "universal_anisotropy": null, "homogeneous_poisson": null, "e_total": null, "e_ionic": null, "e_electronic": null, "n": null, "e_ij_max": null, "weighted_surface_energy_EV_PER_ANG2": null, "weighted_surface_energy": null, "weighted_work_function": null, "surface_anisotropy": null, "shape_factor": null, "has_reconstructed": null, "possible_species": null, "has_props": null, "theoretical": null, "database_IDs": null, "fields_not_requested": ["builder_meta", "nsites", "elements", "nelements", "composition", "composition_reduced", "chemsys", "symmetry", "property_name", "deprecated", "deprecation_reasons", "last_updated", "origins", "warnings", "task_ids", "uncorrected_energy_per_atom", "equilibrium_reaction_energy_per_atom", "decomposes_to", "xas", "grain_boundaries", "cbm", "vbm", "is_gap_direct", "is_metal", "es_source_calc_id", "bandstructure", "dos", "dos_energy_up", "dos_energy_down", "is_magnetic", "ordering", "total_magnetization_normalized_vol", "total_magnetization_normalized_formula_units", "num_magnetic_sites", "num_unique_magnetic_sites", "types_of_magnetic_species", "bulk_modulus", "shear_modulus", "universal_anisotropy", "homogeneous_poisson", "e_total", "e_ionic", "e_electronic", "n", "e_ij_max", "weighted_surface_energy_EV_PER_ANG2", "weighted_surface_energy", "weighted_work_function", "surface_anisotropy", "shape_factor", "has_reconstructed", "possible_species", "has_props", "theoretical", "database_IDs"]}