{"builder_meta": null, "nsites": null, "elements": null, "nelements": null, "composition": null, "composition_reduced": null, "formula_pretty": "CoO4", "formula_anonymous": "AB4", "chemsys": null, "volume": 196.48956487420548, "density": 2.077783496710197, "density_atomic": 19.64895648742055, "symmetry": null, "property_name": null, "material_id": "mp-1079523", "deprecated": null, "deprecation_reasons": null, "last_updated": null, "origins": null, "warnings": null, "structure": {"@module": "pymatgen.core.structure", "@class": "Structure", "charge": 0, "lattice": {"matrix": [[6.476655, 0.0, 0.0], [0.0, 5.5002130000000005, 0.0], [0.0, 0.056701999999999, 5.515809]], "pbc": [true, true, true], "a": 6.476655, "b": 5.5002130000000005, "c": 5.516100437925782, "alpha": 89.41102549831811, "beta": 90.0, "gamma": 90.0, "volume": 196.48956487420548}, "properties": {}, "sites": [{"species": [{"element": "Co", "occu": 1}], "abc": [0.25, 0.675389, 0.667964999999999], "properties": {"magmom": 0.486}, "label": "Co", "xyz": [1.61916375, 3.7526583092869994, 3.6843673586849945]}, {"species": [{"element": "Co", "occu": 1}], "abc": [0.75, 0.324611, 0.332034999999999], "properties": {"magmom": 0.486}, "label": "Co", "xyz": [4.85749125, 1.8042566907129995, 1.8314416413149945]}, {"species": [{"element": "O", "occu": 1}], "abc": [0.455362, 0.808292, 0.762065], "properties": {"magmom": 0.464}, "label": "O", "xyz": [2.9492225741099998, 4.488988775826, 4.203404985585]}, {"species": [{"element": "O", "occu": 1}], "abc": [0.955361999999999, 0.191708, 0.237934999999999], "properties": {"magmom": 0.463}, "label": "O", "xyz": [6.187550074109994, 1.0679262241739997, 1.3124040144149944]}, {"species": [{"element": "O", "occu": 1}], "abc": [0.544638, 0.191708, 0.237934999999999], "properties": {"magmom": 0.464}, "label": "O", "xyz": [3.52743242589, 1.0679262241739997, 1.3124040144149944]}, {"species": [{"element": "O", "occu": 1}], "abc": [0.044638, 0.808292, 0.762065], "properties": {"magmom": 0.463}, "label": "O", "xyz": [0.28910492589, 4.488988775826, 4.203404985585]}, {"species": [{"element": "O", "occu": 1}], "abc": [0.25, 0.679, 0.372104], "properties": {"magmom": -0.34400000000000003}, "label": "O", "xyz": [1.61916375, 3.7557436680080003, 2.052454592136]}, {"species": [{"element": "O", "occu": 1}], "abc": [0.75, 0.321, 0.627896], "properties": {"magmom": -0.34400000000000003}, "label": "O", "xyz": [4.85749125, 1.8011713319919995, 3.463354407864]}, {"species": [{"element": "O", "occu": 1}], "abc": [0.25, 0.396578999999999, 0.756478], "properties": {"magmom": -0.189}, "label": "O", "xyz": [1.61916375, 2.224162786882994, 4.1725881607019994]}, {"species": [{"element": "O", "occu": 1}], "abc": [0.75, 0.603421, 0.243522], "properties": {"magmom": -0.189}, "label": "O", "xyz": [4.85749125, 3.3327522131169998, 1.3432208392979998]}]}, "task_ids": null, "uncorrected_energy_per_atom": null, "energy_per_atom": -5.429403329, "formation_energy_per_atom": -0.044351181, "energy_above_hull": 0.599108415, "is_stable": false, "equilibrium_reaction_energy_per_atom": null, "decomposes_to": null, "xas": null, "grain_boundaries": null, "band_gap": 0.0161, "cbm": null, "vbm": null, "efermi": -3.63643375, "is_gap_direct": null, "is_metal": null, "es_source_calc_id": null, "bandstructure": null, "dos": null, "dos_energy_up": null, "dos_energy_down": null, "is_magnetic": null, "ordering": null, "total_magnetization": 1.9991075, "total_magnetization_normalized_vol": null, "total_magnetization_normalized_formula_units": null, "num_magnetic_sites": null, "num_unique_magnetic_sites": null, "types_of_magnetic_species": null, "bulk_modulus": null, "shear_modulus": null, "universal_anisotropy": null, "homogeneous_poisson": null, "e_total": null, "e_ionic": null, "e_electronic": null, "n": null, "e_ij_max": null, "weighted_surface_energy_EV_PER_ANG2": null, "weighted_surface_energy": null, "weighted_work_function": null, "surface_anisotropy": null, "shape_factor": null, "has_reconstructed": null, "possible_species": null, "has_props": null, "theoretical": null, "database_IDs": null, "fields_not_requested": ["builder_meta", "nsites", "elements", "nelements", "composition", "composition_reduced", "chemsys", "symmetry", "property_name", "deprecated", "deprecation_reasons", "last_updated", "origins", "warnings", "task_ids", "uncorrected_energy_per_atom", "equilibrium_reaction_energy_per_atom", "decomposes_to", "xas", "grain_boundaries", "cbm", "vbm", "is_gap_direct", "is_metal", "es_source_calc_id", "bandstructure", "dos", "dos_energy_up", "dos_energy_down", "is_magnetic", "ordering", "total_magnetization_normalized_vol", "total_magnetization_normalized_formula_units", "num_magnetic_sites", "num_unique_magnetic_sites", "types_of_magnetic_species", "bulk_modulus", "shear_modulus", "universal_anisotropy", "homogeneous_poisson", "e_total", "e_ionic", "e_electronic", "n", "e_ij_max", "weighted_surface_energy_EV_PER_ANG2", "weighted_surface_energy", "weighted_work_function", "surface_anisotropy", "shape_factor", "has_reconstructed", "possible_species", "has_props", "theoretical", "database_IDs"]}