{"builder_meta": null, "nsites": null, "elements": null, "nelements": null, "composition": null, "composition_reduced": null, "formula_pretty": "CoP", "formula_anonymous": "AB", "chemsys": null, "volume": 89.8432138222804, "density": 6.6468688332074155, "density_atomic": 11.23040172778505, "symmetry": null, "property_name": null, "material_id": "mp-22270", "deprecated": null, "deprecation_reasons": null, "last_updated": null, "origins": null, "warnings": null, "structure": {"@module": "pymatgen.core.structure", "@class": "Structure", "charge": 0, "lattice": {"matrix": [[3.24873588, 0.0, 0.0], [-0.0, 5.02574598, 0.0], [0.0, 0.0, 5.50263036]], "pbc": [true, true, true], "a": 3.24873588, "b": 5.02574598, "c": 5.50263036, "alpha": 90.0, "beta": 90.0, "gamma": 90.0, "volume": 89.8432138222804}, "properties": {}, "sites": [{"species": [{"element": "Co", "occu": 1}], "abc": [0.25, 0.49891464, 0.30251141], "properties": {"magmom": 0.0}, "label": "Co", "xyz": [0.81218397, 2.507418246343147, 1.6646084689124077]}, {"species": [{"element": "Co", "occu": 1}], "abc": [0.75, 0.50108536, 0.69748859], "properties": {"magmom": 0.0}, "label": "Co", "xyz": [2.43655191, 2.518327733656853, 3.8380218910875925]}, {"species": [{"element": "Co", "occu": 1}], "abc": [0.25, -0.00108536, 0.19748859], "properties": {"magmom": 0.0}, "label": "Co", "xyz": [0.81218397, -0.0054547436568528, 1.0867067110875925]}, {"species": [{"element": "Co", "occu": 1}], "abc": [0.75, 0.00108536, 0.80251141], "properties": {"magmom": 0.0}, "label": "Co", "xyz": [2.43655191, 0.0054547436568528, 4.4159236489124085]}, {"species": [{"element": "P", "occu": 1}], "abc": [0.25, 0.69165177, 0.91838087], "properties": {"magmom": -0.0}, "label": "P", "xyz": [0.81218397, 3.4760661026373847, 5.053510457305213]}, {"species": [{"element": "P", "occu": 1}], "abc": [0.75, 0.30834823, 0.08161913], "properties": {"magmom": -0.0}, "label": "P", "xyz": [2.43655191, 1.5496798773626155, 0.4491199026947868]}, {"species": [{"element": "P", "occu": 1}], "abc": [0.25, 0.19165177, 0.58161913], "properties": {"magmom": -0.0}, "label": "P", "xyz": [0.81218397, 0.9631931126373846, 3.200435082694787]}, {"species": [{"element": "P", "occu": 1}], "abc": [0.75, 0.80834823, 0.41838087], "properties": {"magmom": -0.0}, "label": "P", "xyz": [2.43655191, 4.062552867362616, 2.3021952773052132]}]}, "task_ids": null, "uncorrected_energy_per_atom": null, "energy_per_atom": -11.61853397625, "formation_energy_per_atom": -0.500380255238095, "energy_above_hull": 0.0, "is_stable": true, "equilibrium_reaction_energy_per_atom": null, "decomposes_to": null, "xas": null, "grain_boundaries": null, "band_gap": 0.0, "cbm": null, "vbm": null, "efermi": 9.389885079999999, "is_gap_direct": null, "is_metal": null, "es_source_calc_id": null, "bandstructure": null, "dos": null, "dos_energy_up": null, "dos_energy_down": null, "is_magnetic": null, "ordering": null, "total_magnetization": 2e-07, "total_magnetization_normalized_vol": null, "total_magnetization_normalized_formula_units": null, "num_magnetic_sites": null, "num_unique_magnetic_sites": null, "types_of_magnetic_species": null, "bulk_modulus": null, "shear_modulus": null, "universal_anisotropy": null, "homogeneous_poisson": null, "e_total": null, "e_ionic": null, "e_electronic": null, "n": null, "e_ij_max": null, "weighted_surface_energy_EV_PER_ANG2": null, "weighted_surface_energy": null, "weighted_work_function": null, "surface_anisotropy": null, "shape_factor": null, "has_reconstructed": null, "possible_species": null, "has_props": null, "theoretical": null, "database_IDs": null, "fields_not_requested": ["builder_meta", "nsites", "elements", "nelements", "composition", "composition_reduced", "chemsys", "symmetry", "property_name", "deprecated", "deprecation_reasons", "last_updated", "origins", "warnings", "task_ids", "uncorrected_energy_per_atom", "equilibrium_reaction_energy_per_atom", "decomposes_to", "xas", "grain_boundaries", "cbm", "vbm", "is_gap_direct", "is_metal", "es_source_calc_id", "bandstructure", "dos", "dos_energy_up", "dos_energy_down", "is_magnetic", "ordering", "total_magnetization_normalized_vol", "total_magnetization_normalized_formula_units", "num_magnetic_sites", "num_unique_magnetic_sites", "types_of_magnetic_species", "bulk_modulus", "shear_modulus", "universal_anisotropy", "homogeneous_poisson", "e_total", "e_ionic", "e_electronic", "n", "e_ij_max", "weighted_surface_energy_EV_PER_ANG2", "weighted_surface_energy", "weighted_work_function", "surface_anisotropy", "shape_factor", "has_reconstructed", "possible_species", "has_props", "theoretical", "database_IDs"]}