{"builder_meta": null, "nsites": null, "elements": null, "nelements": null, "composition": null, "composition_reduced": null, "formula_pretty": "CoP2", "formula_anonymous": "AB2", "chemsys": null, "volume": 154.83268856077132, "density": 5.185653188975327, "density_atomic": 12.902724046730944, "symmetry": null, "property_name": null, "material_id": "mp-14285", "deprecated": null, "deprecation_reasons": null, "last_updated": null, "origins": null, "warnings": null, "structure": {"@module": "pymatgen.core.structure", "@class": "Structure", "charge": 0, "lattice": {"matrix": [[5.5196042, 0.0, 0.0], [0.0, 5.01654399, -2.2897029], [0.0, 0.02018004, 5.58256944]], "pbc": [true, true, true], "a": 5.5196042, "b": 5.514386001530318, "c": 5.582605913588771, "alpha": 114.32628131176045, "beta": 90.0, "gamma": 90.0, "volume": 154.83268856077132}, "properties": {}, "sites": [{"species": [{"element": "Co", "occu": 1}], "abc": [0.50187793, 0.72820852, 0.21218813], "properties": {"magmom": 0.0}, "label": "Co", "xyz": [2.770167530315306, 3.65737203942372, -0.48282618997996085]}, {"species": [{"element": "Co", "occu": 1}], "abc": [0.00187793, 0.27179148000000003, 0.28781187], "properties": {"magmom": 0.0}, "label": "Co", "xyz": [0.010365430315306, 1.36926197057628, 0.9844080099799609]}, {"species": [{"element": "Co", "occu": 1}], "abc": [0.49812207000000003, 0.27179148000000003, 0.78781187], "properties": {"magmom": 0.0}, "label": "Co", "xyz": [2.749436669684694, 1.3793519905762799, 3.7756927299799607]}, {"species": [{"element": "Co", "occu": 1}], "abc": [0.99812207, 0.72820852, 0.71218813], "properties": {"magmom": 0.0}, "label": "Co", "xyz": [5.509238769684694, 3.66746205942372, 2.3084585300200393]}, {"species": [{"element": "P", "occu": 1}], "abc": [0.12622864, 0.84202058, 0.13237232000000002], "properties": {"magmom": -0.0}, "label": "P", "xyz": [0.696732131504288, 4.226704558767807, -1.1889992955517812]}, {"species": [{"element": "P", "occu": 1}], "abc": [0.62622864, 0.15797942, 0.36762768], "properties": {"magmom": -0.0}, "label": "P", "xyz": [3.4565342315042877, 0.799929451232193, 1.6905811155517814]}, {"species": [{"element": "P", "occu": 1}], "abc": [0.87377136, 0.15797942, 0.86762768], "properties": {"magmom": -0.0}, "label": "P", "xyz": [4.822872068495712, 0.810019471232193, 4.4818658355517815]}, {"species": [{"element": "P", "occu": 1}], "abc": [0.37377136, 0.84202058, 0.63237232], "properties": {"magmom": -0.0}, "label": "P", "xyz": [2.063069968495712, 4.236794578767808, 1.602285424448219]}, {"species": [{"element": "P", "occu": 1}], "abc": [0.62736817, 0.66063136, 0.8182266300000001], "properties": {"magmom": -0.0}, "label": "P", "xyz": [3.462823986078314, 3.3305981247359915, 3.055157438809244]}, {"species": [{"element": "P", "occu": 1}], "abc": [0.12736817, 0.33936864, 0.68177337], "properties": {"magmom": -0.0}, "label": "P", "xyz": [0.703021886078314, 1.7162159252640083, 3.028993821190757]}, {"species": [{"element": "P", "occu": 1}], "abc": [0.37263183, 0.33936864, 0.18177337000000002], "properties": {"magmom": -0.0}, "label": "P", "xyz": [2.056780213921686, 1.7061259052640083, 0.23770910119075694]}, {"species": [{"element": "P", "occu": 1}], "abc": [0.87263183, 0.66063136, 0.31822663], "properties": {"magmom": -0.0}, "label": "P", "xyz": [4.8165823139216855, 3.3205081047359912, 0.26387271880924357]}]}, "task_ids": null, "uncorrected_energy_per_atom": null, "energy_per_atom": -10.919083457500001, "formation_energy_per_atom": -0.506288872817461, "energy_above_hull": 0.0, "is_stable": true, "equilibrium_reaction_energy_per_atom": null, "decomposes_to": null, "xas": null, "grain_boundaries": null, "band_gap": 0.437799999999999, "cbm": null, "vbm": null, "efermi": 8.23318112, "is_gap_direct": null, "is_metal": null, "es_source_calc_id": null, "bandstructure": null, "dos": null, "dos_energy_up": null, "dos_energy_down": null, "is_magnetic": null, "ordering": null, "total_magnetization": 0.0, "total_magnetization_normalized_vol": null, "total_magnetization_normalized_formula_units": null, "num_magnetic_sites": null, "num_unique_magnetic_sites": null, "types_of_magnetic_species": null, "bulk_modulus": null, "shear_modulus": null, "universal_anisotropy": null, "homogeneous_poisson": null, "e_total": null, "e_ionic": null, "e_electronic": null, "n": null, "e_ij_max": null, "weighted_surface_energy_EV_PER_ANG2": null, "weighted_surface_energy": null, "weighted_work_function": null, "surface_anisotropy": null, "shape_factor": null, "has_reconstructed": null, "possible_species": null, "has_props": null, "theoretical": null, "database_IDs": null, "fields_not_requested": ["builder_meta", "nsites", "elements", "nelements", "composition", "composition_reduced", "chemsys", "symmetry", "property_name", "deprecated", "deprecation_reasons", "last_updated", "origins", "warnings", "task_ids", "uncorrected_energy_per_atom", "equilibrium_reaction_energy_per_atom", "decomposes_to", "xas", "grain_boundaries", "cbm", "vbm", "is_gap_direct", "is_metal", "es_source_calc_id", "bandstructure", "dos", "dos_energy_up", "dos_energy_down", "is_magnetic", "ordering", "total_magnetization_normalized_vol", "total_magnetization_normalized_formula_units", "num_magnetic_sites", "num_unique_magnetic_sites", "types_of_magnetic_species", "bulk_modulus", "shear_modulus", "universal_anisotropy", "homogeneous_poisson", "e_total", "e_ionic", "e_electronic", "n", "e_ij_max", "weighted_surface_energy_EV_PER_ANG2", "weighted_surface_energy", "weighted_work_function", "surface_anisotropy", "shape_factor", "has_reconstructed", "possible_species", "has_props", "theoretical", "database_IDs"]}