{
  "builder_meta": null,
  "nsites": null,
  "elements": null,
  "nelements": null,
  "composition": null,
  "composition_reduced": null,
  "formula_pretty": "CoP3",
  "formula_anonymous": "AB3",
  "chemsys": null,
  "volume": 226.76869221354147,
  "density": 4.44788556440261,
  "density_atomic": 14.173043263346342,
  "symmetry": null,
  "property_name": null,
  "material_id": "mp-1944",
  "deprecated": null,
  "deprecation_reasons": null,
  "last_updated": null,
  "origins": null,
  "warnings": null,
  "structure": {
    "@module": "pymatgen.core.structure",
    "@class": "Structure",
    "charge": 0,
    "lattice": {
      "matrix": [
        [6.27324229, -0.0, -2.21792536],
        [-3.13662115, 5.43278669, -2.21792536],
        [1e-8, 1e-8, 6.65377912]
      ],
      "pbc": [true, true, true],
      "a": 6.653778004380336,
      "b": 6.653777600746783,
      "c": 6.65377912,
      "alpha": 109.47121597312926,
      "beta": 109.47121468969439,
      "gamma": 109.47122776507533,
      "volume": 226.76869221354147
    },
    "properties": {},
    "sites": [
      {
        "species": [{ "element": "Co", "occu": 1 }],
        "abc": [0.5, -0.0, -0.0],
        "properties": { "magmom": 0.0 },
        "label": "Co",
        "xyz": [3.136621145, 0.0, -1.10896268]
      },
      {
        "species": [{ "element": "Co", "occu": 1 }],
        "abc": [-0.0, -0.0, 0.5],
        "properties": { "magmom": 0.0 },
        "label": "Co",
        "xyz": [5e-9, 5e-9, 3.32688956]
      },
      {
        "species": [{ "element": "Co", "occu": 1 }],
        "abc": [-0.0, 0.5, -0.0],
        "properties": { "magmom": 0.0 },
        "label": "Co",
        "xyz": [-1.568310575, 2.716393345, -1.10896268]
      },
      {
        "species": [{ "element": "Co", "occu": 1 }],
        "abc": [0.5, 0.5, 0.5],
        "properties": { "magmom": 0.0 },
        "label": "Co",
        "xyz": [1.568310575, 2.71639335, 1.1089642]
      },
      {
        "species": [{ "element": "P", "occu": 1 }],
        "abc": [0.50677732, 0.85478845, 0.65198988],
        "properties": { "magmom": -0.0 },
        "label": "P",
        "xyz": [0.49798939091104394, 4.64388332044563, 1.318345399404378]
      },
      {
        "species": [{ "element": "P", "occu": 1 }],
        "abc": [0.20279857, 0.85478845, 0.34801012000000003],
        "properties": { "magmom": -0.0 },
        "label": "P",
        "xyz": [-1.4089429618900908, 4.643883317405833, -0.030066602060132563]
      },
      {
        "species": [{ "element": "P", "occu": 1 }],
        "abc": [0.79720143, 0.14521155, 0.65198988],
        "properties": { "magmom": -0.0 },
        "label": "P",
        "xyz": [4.545564111890091, 0.7889033825941684, 2.2479950020601325]
      },
      {
        "species": [{ "element": "P", "occu": 1 }],
        "abc": [0.14521155, 0.34801012000000003, 0.49322268],
        "properties": { "magmom": -0.0 },
        "label": "P",
        "xyz": [-0.18062866141736184, 1.8906647528535299, 2.187865919699891]
      },
      {
        "species": [{ "element": "P", "occu": 1 }],
        "abc": [0.49322268, 0.14521155, 0.34801012000000003],
        "properties": { "magmom": -0.0 },
        "label": "P",
        "xyz": [2.638631759088956, 0.7889033795543707, 0.8995830005956218]
      },
      {
        "species": [{ "element": "P", "occu": 1 }],
        "abc": [0.14521155, 0.65198988, 0.79720143],
        "properties": { "magmom": -0.0 },
        "label": "P",
        "xyz": [-1.1340980027654983, 3.5421219500507117, 3.536268960742877]
      },
      {
        "species": [{ "element": "P", "occu": 1 }],
        "abc": [0.34801012000000003, 0.20279857, 0.85478845],
        "properties": { "magmom": -0.0 },
        "label": "P",
        "xyz": [1.547049526828104, 1.1017613803949178, 4.4659209785677865]
      },
      {
        "species": [{ "element": "P", "occu": 1 }],
        "abc": [0.85478845, 0.65198988, 0.50677732],
        "properties": { "magmom": -0.0 },
        "label": "P",
        "xyz": [3.3172498114173616, 3.542121947146471, 0.03006248030010905]
      },
      {
        "species": [{ "element": "P", "occu": 1 }],
        "abc": [0.65198988, 0.79720143, 0.14521155],
        "properties": { "magmom": -0.0 },
        "label": "P",
        "xyz": [1.5895716231718964, 4.331025319605082, -2.247992578567786]
      },
      {
        "species": [{ "element": "P", "occu": 1 }],
        "abc": [0.85478845, 0.34801012000000003, 0.20279857],
        "properties": { "magmom": -0.0 },
        "label": "P",
        "xyz": [4.270719152765499, 1.8906647499492888, -1.3183405607428769]
      },
      {
        "species": [{ "element": "P", "occu": 1 }],
        "abc": [0.65198988, 0.50677732, 0.85478845],
        "properties": { "magmom": -0.0 },
        "label": "P",
        "xyz": [2.500522036163592, 2.7532130874377554, 3.117514381410973]
      },
      {
        "species": [{ "element": "P", "occu": 1 }],
        "abc": [0.34801012000000003, 0.49322268, 0.14521155],
        "properties": { "magmom": -0.0 },
        "label": "P",
        "xyz": [0.6360991138364087, 2.679573612562245, -0.8995859814109725]
      }
    ]
  },
  "task_ids": null,
  "uncorrected_energy_per_atom": null,
  "energy_per_atom": -10.555359314375,
  "formation_energy_per_atom": -0.495244297857142,
  "energy_above_hull": 0.0,
  "is_stable": true,
  "equilibrium_reaction_energy_per_atom": null,
  "decomposes_to": null,
  "xas": null,
  "grain_boundaries": null,
  "band_gap": 0.0,
  "cbm": null,
  "vbm": null,
  "efermi": 8.32784956,
  "is_gap_direct": null,
  "is_metal": null,
  "es_source_calc_id": null,
  "bandstructure": null,
  "dos": null,
  "dos_energy_up": null,
  "dos_energy_down": null,
  "is_magnetic": null,
  "ordering": null,
  "total_magnetization": 0.0,
  "total_magnetization_normalized_vol": null,
  "total_magnetization_normalized_formula_units": null,
  "num_magnetic_sites": null,
  "num_unique_magnetic_sites": null,
  "types_of_magnetic_species": null,
  "bulk_modulus": null,
  "shear_modulus": null,
  "universal_anisotropy": null,
  "homogeneous_poisson": null,
  "e_total": null,
  "e_ionic": null,
  "e_electronic": null,
  "n": null,
  "e_ij_max": null,
  "weighted_surface_energy_EV_PER_ANG2": null,
  "weighted_surface_energy": null,
  "weighted_work_function": null,
  "surface_anisotropy": null,
  "shape_factor": null,
  "has_reconstructed": null,
  "possible_species": null,
  "has_props": null,
  "theoretical": null,
  "database_IDs": null,
  "fields_not_requested": [
    "builder_meta",
    "nsites",
    "elements",
    "nelements",
    "composition",
    "composition_reduced",
    "chemsys",
    "symmetry",
    "property_name",
    "deprecated",
    "deprecation_reasons",
    "last_updated",
    "origins",
    "warnings",
    "task_ids",
    "uncorrected_energy_per_atom",
    "equilibrium_reaction_energy_per_atom",
    "decomposes_to",
    "xas",
    "grain_boundaries",
    "cbm",
    "vbm",
    "is_gap_direct",
    "is_metal",
    "es_source_calc_id",
    "bandstructure",
    "dos",
    "dos_energy_up",
    "dos_energy_down",
    "is_magnetic",
    "ordering",
    "total_magnetization_normalized_vol",
    "total_magnetization_normalized_formula_units",
    "num_magnetic_sites",
    "num_unique_magnetic_sites",
    "types_of_magnetic_species",
    "bulk_modulus",
    "shear_modulus",
    "universal_anisotropy",
    "homogeneous_poisson",
    "e_total",
    "e_ionic",
    "e_electronic",
    "n",
    "e_ij_max",
    "weighted_surface_energy_EV_PER_ANG2",
    "weighted_surface_energy",
    "weighted_work_function",
    "surface_anisotropy",
    "shape_factor",
    "has_reconstructed",
    "possible_species",
    "has_props",
    "theoretical",
    "database_IDs"
  ]
}
