{
  "builder_meta": null,
  "nsites": null,
  "elements": null,
  "nelements": null,
  "composition": null,
  "composition_reduced": null,
  "formula_pretty": "CoPb3",
  "formula_anonymous": "AB3",
  "chemsys": null,
  "volume": 222.5644600620639,
  "density": 10.154828458240738,
  "density_atomic": 27.820557507757986,
  "symmetry": null,
  "property_name": null,
  "material_id": "mp-1184465",
  "deprecated": null,
  "deprecation_reasons": null,
  "last_updated": null,
  "origins": null,
  "warnings": null,
  "structure": {
    "@module": "pymatgen.core.structure",
    "@class": "Structure",
    "charge": 0,
    "lattice": {
      "matrix": [
        [8.589771, 0.059744, -0.001323999999999],
        [-4.242867, 7.26575, 0.004510999999999],
        [0.0018579999999990002, -0.001037, 3.551676]
      ],
      "pbc": [true, true, true],
      "a": 8.589978866734947,
      "b": 8.413861407897684,
      "c": 3.5516766373797317,
      "alpha": 89.99884236097628,
      "beta": 89.97897492485616,
      "gamma": 119.88448227494139,
      "volume": 222.5644600620639
    },
    "properties": {},
    "sites": [
      {
        "species": [{ "element": "Co", "occu": 1 }],
        "abc": [0.334779, 0.666748, 0.749595],
        "properties": { "magmom": 0.23600000000000002 },
        "label": "Co",
        "xyz": [0.04814460660299909, 4.863647987561, 2.6648830240519996]
      },
      {
        "species": [{ "element": "Co", "occu": 1 }],
        "abc": [0.665037, 0.333109, 0.250409],
        "properties": { "magmom": 0.242 },
        "label": "Co",
        "xyz": [4.299643612946, 2.459759013145, 0.8899937811950003]
      },
      {
        "species": [{ "element": "Pb", "occu": 1 }],
        "abc": [0.192266, 0.385903, 0.249558],
        "properties": { "magmom": -0.009000000000000001 },
        "label": "Pb",
        "xyz": [0.014649485948999594, 2.815102670508, 0.8878354074569998]
      },
      {
        "species": [{ "element": "Pb", "occu": 1 }],
        "abc": [0.607375, 0.803315, 0.249586],
        "properties": { "magmom": -0.01 },
        "label": "Pb",
        "xyz": [1.8093171878079999, 5.872714152567999, 0.8892681956009999]
      },
      {
        "species": [{ "element": "Pb", "occu": 1 }],
        "abc": [0.193418999999999, 0.803921, 0.24975000000000003],
        "properties": { "magmom": -0.009000000000000001 },
        "label": "Pb",
        "xyz": [-1.7490409289580087, 5.852385639736, 0.8904014818749996]
      },
      {
        "species": [{ "element": "Pb", "occu": 1 }],
        "abc": [0.807047, 0.612489, 0.750228],
        "properties": { "magmom": -0.009000000000000001 },
        "label": "Pb",
        "xyz": [4.335033473897999, 4.497630181281999, 2.666261189779]
      },
      {
        "species": [{ "element": "Pb", "occu": 1 }],
        "abc": [0.394046, 0.197505, 0.750366],
        "properties": { "magmom": -0.011 },
        "label": "Pb",
        "xyz": [2.5481716366589993, 1.4577857084319998, 2.6654261415670004]
      },
      {
        "species": [{ "element": "Pb", "occu": 1 }],
        "abc": [0.806028, 0.19700499999999901, 0.750498999999999],
        "properties": { "magmom": -0.01 },
        "label": "Pb",
        "xyz": [6.089124353395004, 1.4787661481189929, 2.665350794806997]
      }
    ]
  },
  "task_ids": null,
  "uncorrected_energy_per_atom": null,
  "energy_per_atom": -45.160100955000004,
  "formation_energy_per_atom": 0.36230740999999905,
  "energy_above_hull": 0.36230740999999905,
  "is_stable": false,
  "equilibrium_reaction_energy_per_atom": null,
  "decomposes_to": null,
  "xas": null,
  "grain_boundaries": null,
  "band_gap": 0.0,
  "cbm": null,
  "vbm": null,
  "efermi": 5.83101208,
  "is_gap_direct": null,
  "is_metal": null,
  "es_source_calc_id": null,
  "bandstructure": null,
  "dos": null,
  "dos_energy_up": null,
  "dos_energy_down": null,
  "is_magnetic": null,
  "ordering": null,
  "total_magnetization": 0.3638515,
  "total_magnetization_normalized_vol": null,
  "total_magnetization_normalized_formula_units": null,
  "num_magnetic_sites": null,
  "num_unique_magnetic_sites": null,
  "types_of_magnetic_species": null,
  "bulk_modulus": null,
  "shear_modulus": null,
  "universal_anisotropy": null,
  "homogeneous_poisson": null,
  "e_total": null,
  "e_ionic": null,
  "e_electronic": null,
  "n": null,
  "e_ij_max": null,
  "weighted_surface_energy_EV_PER_ANG2": null,
  "weighted_surface_energy": null,
  "weighted_work_function": null,
  "surface_anisotropy": null,
  "shape_factor": null,
  "has_reconstructed": null,
  "possible_species": null,
  "has_props": null,
  "theoretical": null,
  "database_IDs": null,
  "fields_not_requested": [
    "builder_meta",
    "nsites",
    "elements",
    "nelements",
    "composition",
    "composition_reduced",
    "chemsys",
    "symmetry",
    "property_name",
    "deprecated",
    "deprecation_reasons",
    "last_updated",
    "origins",
    "warnings",
    "task_ids",
    "uncorrected_energy_per_atom",
    "equilibrium_reaction_energy_per_atom",
    "decomposes_to",
    "xas",
    "grain_boundaries",
    "cbm",
    "vbm",
    "is_gap_direct",
    "is_metal",
    "es_source_calc_id",
    "bandstructure",
    "dos",
    "dos_energy_up",
    "dos_energy_down",
    "is_magnetic",
    "ordering",
    "total_magnetization_normalized_vol",
    "total_magnetization_normalized_formula_units",
    "num_magnetic_sites",
    "num_unique_magnetic_sites",
    "types_of_magnetic_species",
    "bulk_modulus",
    "shear_modulus",
    "universal_anisotropy",
    "homogeneous_poisson",
    "e_total",
    "e_ionic",
    "e_electronic",
    "n",
    "e_ij_max",
    "weighted_surface_energy_EV_PER_ANG2",
    "weighted_surface_energy",
    "weighted_work_function",
    "surface_anisotropy",
    "shape_factor",
    "has_reconstructed",
    "possible_species",
    "has_props",
    "theoretical",
    "database_IDs"
  ]
}
