{
  "builder_meta": null,
  "nsites": null,
  "elements": null,
  "nelements": null,
  "composition": null,
  "composition_reduced": null,
  "formula_pretty": "CoPt2",
  "formula_anonymous": "AB2",
  "chemsys": null,
  "volume": 196.36640488064114,
  "density": 15.190991139396568,
  "density_atomic": 16.36386707338676,
  "symmetry": null,
  "property_name": null,
  "material_id": "mp-1245822",
  "deprecated": null,
  "deprecation_reasons": null,
  "last_updated": null,
  "origins": null,
  "warnings": null,
  "structure": {
    "@module": "pymatgen.core.structure",
    "@class": "Structure",
    "charge": 0,
    "lattice": {
      "matrix": [
        [5.8127569999999995, -0.002045, -0.002139],
        [-0.002044, 5.812391, 0.000294],
        [-0.002137999999999, 0.000292999999999, 5.812063]
      ],
      "pbc": [true, true, true],
      "a": 5.81275775328673,
      "b": 5.812391366834567,
      "c": 5.812063400623052,
      "alpha": 89.9942060597604,
      "beta": 90.0421615003686,
      "gamma": 90.04030720536203,
      "volume": 196.3664048806411
    },
    "properties": {},
    "sites": [
      {
        "species": [{ "element": "Co", "occu": 1 }],
        "abc": [0.999999, 0.500001, 0.5],
        "properties": { "magmom": 1.944 },
        "label": "Co",
        "xyz": [5.810660185199, 2.9043028144359995, 2.904039502433]
      },
      {
        "species": [{ "element": "Co", "occu": 1 }],
        "abc": [0.500001, 0.499998999999999, 0.999997999999999],
        "properties": { "magmom": 1.943 },
        "label": "Co",
        "xyz": [2.903224319077001, 2.905460184977993, 5.811128873440994]
      },
      {
        "species": [{ "element": "Co", "occu": 1 }],
        "abc": [0.5, 0.999999, 0.500001],
        "properties": { "magmom": 1.944 },
        "label": "Co",
        "xyz": [2.9032654999060004, 5.811509187901999, 2.9052618117690003]
      },
      {
        "species": [{ "element": "Co", "occu": 1 }],
        "abc": [1e-6, 1e-6, 0.0],
        "properties": { "magmom": 1.952 },
        "label": "Co",
        "xyz": [5.810713e-6, 5.810346e-6, -1.8449999999999997e-9]
      },
      {
        "species": [{ "element": "Pt", "occu": 1 }],
        "abc": [0.370646, 0.130942, 0.869745],
        "properties": { "magmom": 0.435 },
        "label": "Pt",
        "xyz": [2.1523479707640005, 0.7605829665369992, 5.054258419089001]
      },
      {
        "species": [{ "element": "Pt", "occu": 1 }],
        "abc": [0.130878, 0.869779, 0.37069],
        "properties": { "magmom": 0.436 },
        "label": "Pt",
        "xyz": [0.7581916471500002, 5.055336598248999, 2.1544494004540002]
      },
      {
        "species": [{ "element": "Pt", "occu": 1 }],
        "abc": [0.869738999999999, 0.37055000000000005, 0.130986],
        "properties": { "magmom": 0.436 },
        "label": "Pt",
        "xyz": [5.054544008154994, 2.152041247693, 0.759547454097]
      },
      {
        "species": [{ "element": "Pt", "occu": 1 }],
        "abc": [0.630437, 0.630475, 0.630516],
        "properties": { "magmom": 0.433 },
        "label": "Pt",
        "xyz": [3.661940350701, 3.6634627132479993, 3.6634355694150003]
      },
      {
        "species": [{ "element": "Pt", "occu": 1 }],
        "abc": [0.369564, 0.369525999999999, 0.369485],
        "properties": { "magmom": 0.433 },
        "label": "Pt",
        "xyz": [2.146640457874, 2.147182097390994, 2.146788240803]
      },
      {
        "species": [{ "element": "Pt", "occu": 1 }],
        "abc": [0.13026000000000001, 0.6294500000000001, 0.869014],
        "properties": { "magmom": 0.436 },
        "label": "Pt",
        "xyz": [0.7540251790880009, 3.6585977543519994, 5.050670548042]
      },
      {
        "species": [{ "element": "Pt", "occu": 1 }],
        "abc": [0.869122, 0.130221, 0.62931],
        "properties": { "magmom": 0.436 },
        "label": "Pt",
        "xyz": [5.05038335285, 0.7553024017509994, 3.6557685995460005]
      },
      {
        "species": [{ "element": "Pt", "occu": 1 }],
        "abc": [0.629354, 0.869058999999999, 0.130253999999999],
        "properties": { "magmom": 0.435 },
        "label": "Pt",
        "xyz": [3.6562270293299997, 5.050061845560993, 0.7559537691419943]
      }
    ]
  },
  "task_ids": null,
  "uncorrected_energy_per_atom": null,
  "energy_per_atom": -5.863273393333333,
  "formation_energy_per_atom": 0.5619543933333341,
  "energy_above_hull": 0.6180246649999981,
  "is_stable": false,
  "equilibrium_reaction_energy_per_atom": null,
  "decomposes_to": null,
  "xas": null,
  "grain_boundaries": null,
  "band_gap": 0.0,
  "cbm": null,
  "vbm": null,
  "efermi": 5.15356722,
  "is_gap_direct": null,
  "is_metal": null,
  "es_source_calc_id": null,
  "bandstructure": null,
  "dos": null,
  "dos_energy_up": null,
  "dos_energy_down": null,
  "is_magnetic": null,
  "ordering": null,
  "total_magnetization": 11.4014393,
  "total_magnetization_normalized_vol": null,
  "total_magnetization_normalized_formula_units": null,
  "num_magnetic_sites": null,
  "num_unique_magnetic_sites": null,
  "types_of_magnetic_species": null,
  "bulk_modulus": null,
  "shear_modulus": null,
  "universal_anisotropy": null,
  "homogeneous_poisson": null,
  "e_total": null,
  "e_ionic": null,
  "e_electronic": null,
  "n": null,
  "e_ij_max": null,
  "weighted_surface_energy_EV_PER_ANG2": null,
  "weighted_surface_energy": null,
  "weighted_work_function": null,
  "surface_anisotropy": null,
  "shape_factor": null,
  "has_reconstructed": null,
  "possible_species": null,
  "has_props": null,
  "theoretical": null,
  "database_IDs": null,
  "fields_not_requested": [
    "builder_meta",
    "nsites",
    "elements",
    "nelements",
    "composition",
    "composition_reduced",
    "chemsys",
    "symmetry",
    "property_name",
    "deprecated",
    "deprecation_reasons",
    "last_updated",
    "origins",
    "warnings",
    "task_ids",
    "uncorrected_energy_per_atom",
    "equilibrium_reaction_energy_per_atom",
    "decomposes_to",
    "xas",
    "grain_boundaries",
    "cbm",
    "vbm",
    "is_gap_direct",
    "is_metal",
    "es_source_calc_id",
    "bandstructure",
    "dos",
    "dos_energy_up",
    "dos_energy_down",
    "is_magnetic",
    "ordering",
    "total_magnetization_normalized_vol",
    "total_magnetization_normalized_formula_units",
    "num_magnetic_sites",
    "num_unique_magnetic_sites",
    "types_of_magnetic_species",
    "bulk_modulus",
    "shear_modulus",
    "universal_anisotropy",
    "homogeneous_poisson",
    "e_total",
    "e_ionic",
    "e_electronic",
    "n",
    "e_ij_max",
    "weighted_surface_energy_EV_PER_ANG2",
    "weighted_surface_energy",
    "weighted_work_function",
    "surface_anisotropy",
    "shape_factor",
    "has_reconstructed",
    "possible_species",
    "has_props",
    "theoretical",
    "database_IDs"
  ]
}
