{"builder_meta": null, "nsites": null, "elements": null, "nelements": null, "composition": null, "composition_reduced": null, "formula_pretty": "CoRe3", "formula_anonymous": "AB3", "chemsys": null, "volume": 109.15735816844204, "density": 18.788891262058478, "density_atomic": 13.644669771055256, "symmetry": null, "property_name": null, "material_id": "mp-865960", "deprecated": null, "deprecation_reasons": null, "last_updated": null, "origins": null, "warnings": null, "structure": {"@module": "pymatgen.core.structure", "@class": "Structure", "charge": 0, "lattice": {"matrix": [[5.38915222, 7.53e-06, 4e-08], [-2.69456996, 4.66714144, 5.2e-07], [3.0000000000000004e-08, 5e-07, 4.33991529]], "pbc": [true, true, true], "a": 5.38915222000526, "b": 5.389148030097146, "c": 4.33991529000003, "alpha": 89.99998895289063, "beta": 89.9999991786618, "gamma": 119.99987016191288, "volume": 109.15735816844203}, "properties": {}, "sites": [{"species": [{"element": "Co", "occu": 1}], "abc": [0.33335002, 0.6666762900000001, 0.74999881], "properties": {"magmom": 0.8320000000000001}, "label": "Co", "xyz": [6.811874176012308e-05, 3.1114754252495134, 3.254931663006477]}, {"species": [{"element": "Co", "occu": 1}], "abc": [0.66664838, 0.33332286, 0.24999876000000001], "properties": {"magmom": 0.8320000000000001}, "label": "Co", "xyz": [2.694507838999081, 1.5556700776669998, 1.084973640998863]}, {"species": [{"element": "Re", "occu": 1}], "abc": [0.16682687000000002, 0.33364393000000003, 0.24999849000000002], "properties": {"magmom": -0.051000000000000004}, "label": "Re", "xyz": [2.8493201763278234e-05, 1.5571647931130355, 1.0849724493958306]}, {"species": [{"element": "Re", "occu": 1}], "abc": [0.66635033, 0.8331754, 0.24999873], "properties": {"magmom": -0.051000000000000004}, "label": "Re", "xyz": [1.34601396346621, 3.888552578745926, 1.084973770712803]}, {"species": [{"element": "Re", "occu": 1}], "abc": [0.1668247, 0.8331820400000001, 0.24999915], "properties": {"magmom": -0.051000000000000004}, "label": "Re", "xyz": [-1.3460235863397103, 3.888579807137304, 1.0849755734996525]}, {"species": [{"element": "Re", "occu": 1}], "abc": [0.83316483, 0.66633231, 0.74999861], "properties": {"magmom": -0.051000000000000004}, "label": "Re", "xyz": [2.6945730898169726, 3.1098737855424012, 3.254930814837142]}, {"species": [{"element": "Re", "occu": 1}], "abc": [0.33366888, 0.16683293, 0.7499982900000001], "properties": {"magmom": -0.051000000000000004}, "label": "Re", "xyz": [1.3486494063800796, 0.7786357686854305, 3.2549291463447334]}, {"species": [{"element": "Re", "occu": 1}], "abc": [0.83316399, 0.16683323, 0.74999815], "properties": {"magmom": -0.051000000000000004}, "label": "Re", "xyz": [4.040503778944731, 0.7786409300259709, 3.2549285587365535]}]}, "task_ids": null, "uncorrected_energy_per_atom": null, "energy_per_atom": -42.62142181375, "formation_energy_per_atom": -0.004903000624992, "energy_above_hull": 0.0, "is_stable": true, "equilibrium_reaction_energy_per_atom": null, "decomposes_to": null, "xas": null, "grain_boundaries": null, "band_gap": 0.0, "cbm": null, "vbm": null, "efermi": 7.05780333, "is_gap_direct": null, "is_metal": null, "es_source_calc_id": null, "bandstructure": null, "dos": null, "dos_energy_up": null, "dos_energy_down": null, "is_magnetic": null, "ordering": null, "total_magnetization": 1.2474986, "total_magnetization_normalized_vol": null, "total_magnetization_normalized_formula_units": null, "num_magnetic_sites": null, "num_unique_magnetic_sites": null, "types_of_magnetic_species": null, "bulk_modulus": null, "shear_modulus": null, "universal_anisotropy": null, "homogeneous_poisson": null, "e_total": null, "e_ionic": null, "e_electronic": null, "n": null, "e_ij_max": null, "weighted_surface_energy_EV_PER_ANG2": null, "weighted_surface_energy": null, "weighted_work_function": null, "surface_anisotropy": null, "shape_factor": null, "has_reconstructed": null, "possible_species": null, "has_props": null, "theoretical": null, "database_IDs": null, "fields_not_requested": ["builder_meta", "nsites", "elements", "nelements", "composition", "composition_reduced", "chemsys", "symmetry", "property_name", "deprecated", "deprecation_reasons", "last_updated", "origins", "warnings", "task_ids", "uncorrected_energy_per_atom", "equilibrium_reaction_energy_per_atom", "decomposes_to", "xas", "grain_boundaries", "cbm", "vbm", "is_gap_direct", "is_metal", "es_source_calc_id", "bandstructure", "dos", "dos_energy_up", "dos_energy_down", "is_magnetic", "ordering", "total_magnetization_normalized_vol", "total_magnetization_normalized_formula_units", "num_magnetic_sites", "num_unique_magnetic_sites", "types_of_magnetic_species", "bulk_modulus", "shear_modulus", "universal_anisotropy", "homogeneous_poisson", "e_total", "e_ionic", "e_electronic", "n", "e_ij_max", "weighted_surface_energy_EV_PER_ANG2", "weighted_surface_energy", "weighted_work_function", "surface_anisotropy", "shape_factor", "has_reconstructed", "possible_species", "has_props", "theoretical", "database_IDs"]}