{
  "builder_meta": null,
  "nsites": null,
  "elements": null,
  "nelements": null,
  "composition": null,
  "composition_reduced": null,
  "formula_pretty": "CoS2",
  "formula_anonymous": "AB2",
  "chemsys": null,
  "volume": 168.5685481851701,
  "density": 4.849095401441955,
  "density_atomic": 14.047379015430842,
  "symmetry": null,
  "property_name": null,
  "material_id": "mp-2070",
  "deprecated": null,
  "deprecation_reasons": null,
  "last_updated": null,
  "origins": null,
  "warnings": null,
  "structure": {
    "@module": "pymatgen.core.structure",
    "@class": "Structure",
    "charge": 0,
    "lattice": {
      "matrix": [
        [5.52406223, -4.7e-7, 2.7e-7],
        [-2.509999999999999e-6, 5.5240537100000005, 4.48e-6],
        [-1.78e-6, 4.48e-6, 5.52408168]
      ],
      "pbc": [true, true, true],
      "a": 5.524062230000027,
      "b": 5.524053710002387,
      "c": 5.524081680002103,
      "alpha": 89.99990706662932,
      "beta": 90.00001566171528,
      "gamma": 90.00003090870904,
      "volume": 168.56854818517013
    },
    "properties": {},
    "sites": [
      {
        "species": [{ "element": "Co", "occu": 1 }],
        "abc": [-0.0, 0.5, 0.5],
        "properties": { "magmom": 1.049 },
        "label": "Co",
        "xyz": [-2.1449999999999994e-6, 2.7620290950000004, 2.76204308]
      },
      {
        "species": [{ "element": "Co", "occu": 1 }],
        "abc": [0.5, 0.5, 0.0],
        "properties": { "magmom": 1.05 },
        "label": "Co",
        "xyz": [2.76202986, 2.7620266200000003, 2.375e-6]
      },
      {
        "species": [{ "element": "Co", "occu": 1 }],
        "abc": [0.5, -0.0, 0.5],
        "properties": { "magmom": 1.05 },
        "label": "Co",
        "xyz": [2.762030225, 2.0050000000000003e-6, 2.762040975]
      },
      {
        "species": [{ "element": "Co", "occu": 1 }],
        "abc": [-0.0, -0.0, 0.0],
        "properties": { "magmom": 1.049 },
        "label": "Co",
        "xyz": [0.0, 0.0, 0.0]
      },
      {
        "species": [{ "element": "S", "occu": 1 }],
        "abc": [0.39087318, 0.10912395, 0.89087839],
        "properties": { "magmom": -0.018000000000000002 },
        "label": "S",
        "xyz": [2.1592059106933426, 0.6028103682721472, 4.92128558771795]
      },
      {
        "species": [{ "element": "S", "occu": 1 }],
        "abc": [0.10911566, 0.89086725, 0.39087647000000003],
        "properties": { "magmom": -0.018000000000000002 },
        "label": "S",
        "xyz": [0.6027587642706077, 4.921200237322224, 2.159237567616578]
      },
      {
        "species": [{ "element": "S", "occu": 1 }],
        "abc": [0.89088166, 0.39087675, 0.10913108],
        "properties": { "magmom": -0.018000000000000002 },
        "label": "S",
        "xyz": [4.921284554051737, 2.1592242311831007, 0.6028509914125026]
      },
      {
        "species": [{ "element": "S", "occu": 1 }],
        "abc": [0.60913083, 0.6091163900000001, 0.60912365],
        "properties": { "magmom": -0.018000000000000002 },
        "label": "S",
        "xyz": [3.364873998009315, 3.3647940965837697, 3.3648516891264837]
      },
      {
        "species": [{ "element": "S", "occu": 1 }],
        "abc": [0.39086917, 0.39088361, 0.39087635],
        "properties": { "magmom": -0.018000000000000002 },
        "label": "S",
        "xyz": [2.159183941990685, 2.1592636234162317, 2.1592347408735164]
      },
      {
        "species": [{ "element": "S", "occu": 1 }],
        "abc": [0.10911834000000001, 0.60912325, 0.8908689200000001],
        "properties": { "magmom": -0.018000000000000002 },
        "label": "S",
        "xyz": [0.6027733859482631, 3.3648334888169, 4.921235438587498]
      },
      {
        "species": [{ "element": "S", "occu": 1 }],
        "abc": [0.89088434, 0.10913275, 0.60912353],
        "properties": { "magmom": -0.018000000000000002 },
        "label": "S",
        "xyz": [4.921299175729392, 0.6028574826777771, 3.3648488623834223]
      },
      {
        "species": [{ "element": "S", "occu": 1 }],
        "abc": [0.60912682, 0.89087605, 0.10912161000000001],
        "properties": { "magmom": -0.018000000000000002 },
        "label": "S",
        "xyz": [3.3648520293066575, 4.921247351727853, 0.6028008422820502]
      }
    ]
  },
  "task_ids": null,
  "uncorrected_energy_per_atom": null,
  "energy_per_atom": -10.222248623333334,
  "formation_energy_per_atom": -0.454172191874999,
  "energy_above_hull": 0.0,
  "is_stable": true,
  "equilibrium_reaction_energy_per_atom": null,
  "decomposes_to": null,
  "xas": null,
  "grain_boundaries": null,
  "band_gap": 0.0,
  "cbm": null,
  "vbm": null,
  "efermi": 8.01407251,
  "is_gap_direct": null,
  "is_metal": null,
  "es_source_calc_id": null,
  "bandstructure": null,
  "dos": null,
  "dos_energy_up": null,
  "dos_energy_down": null,
  "is_magnetic": null,
  "ordering": null,
  "total_magnetization": 4.0000004,
  "total_magnetization_normalized_vol": null,
  "total_magnetization_normalized_formula_units": null,
  "num_magnetic_sites": null,
  "num_unique_magnetic_sites": null,
  "types_of_magnetic_species": null,
  "bulk_modulus": null,
  "shear_modulus": null,
  "universal_anisotropy": null,
  "homogeneous_poisson": null,
  "e_total": null,
  "e_ionic": null,
  "e_electronic": null,
  "n": null,
  "e_ij_max": null,
  "weighted_surface_energy_EV_PER_ANG2": null,
  "weighted_surface_energy": null,
  "weighted_work_function": null,
  "surface_anisotropy": null,
  "shape_factor": null,
  "has_reconstructed": null,
  "possible_species": null,
  "has_props": null,
  "theoretical": null,
  "database_IDs": null,
  "fields_not_requested": [
    "builder_meta",
    "nsites",
    "elements",
    "nelements",
    "composition",
    "composition_reduced",
    "chemsys",
    "symmetry",
    "property_name",
    "deprecated",
    "deprecation_reasons",
    "last_updated",
    "origins",
    "warnings",
    "task_ids",
    "uncorrected_energy_per_atom",
    "equilibrium_reaction_energy_per_atom",
    "decomposes_to",
    "xas",
    "grain_boundaries",
    "cbm",
    "vbm",
    "is_gap_direct",
    "is_metal",
    "es_source_calc_id",
    "bandstructure",
    "dos",
    "dos_energy_up",
    "dos_energy_down",
    "is_magnetic",
    "ordering",
    "total_magnetization_normalized_vol",
    "total_magnetization_normalized_formula_units",
    "num_magnetic_sites",
    "num_unique_magnetic_sites",
    "types_of_magnetic_species",
    "bulk_modulus",
    "shear_modulus",
    "universal_anisotropy",
    "homogeneous_poisson",
    "e_total",
    "e_ionic",
    "e_electronic",
    "n",
    "e_ij_max",
    "weighted_surface_energy_EV_PER_ANG2",
    "weighted_surface_energy",
    "weighted_work_function",
    "surface_anisotropy",
    "shape_factor",
    "has_reconstructed",
    "possible_species",
    "has_props",
    "theoretical",
    "database_IDs"
  ]
}
