{"builder_meta": null, "nsites": null, "elements": null, "nelements": null, "composition": null, "composition_reduced": null, "formula_pretty": "CoSb2", "formula_anonymous": "AB2", "chemsys": null, "volume": 240.51946891339605, "density": 8.352510478830764, "density_atomic": 20.043289076116338, "symmetry": null, "property_name": null, "material_id": "mp-755", "deprecated": null, "deprecation_reasons": null, "last_updated": null, "origins": null, "warnings": null, "structure": {"@module": "pymatgen.core.structure", "@class": "Structure", "charge": 0, "lattice": {"matrix": [[6.37691843, 0.0, 0.0], [0.0, 5.81369767, -2.95892161], [0.0, 0.00504383, 6.48507572]], "pbc": [true, true, true], "a": 6.37691843, "b": 6.523365518832164, "c": 6.485077681443345, "alpha": 116.92957079900114, "beta": 90.0, "gamma": 90.0, "volume": 240.51946891339603}, "properties": {}, "sites": [{"species": [{"element": "Co", "occu": 1}], "abc": [0.99995047, 0.28030369, 0.26922128], "properties": {"magmom": -0.0}, "label": "Co", "xyz": [6.376602581230162, 1.6309588158141046, 0.9165237405315808]}, {"species": [{"element": "Co", "occu": 1}], "abc": [0.49995147, 0.21969631, 0.73077872], "properties": {"magmom": -0.0}, "label": "Co", "xyz": [3.188149743148592, 1.2809338491858953, 4.089091174468419]}, {"species": [{"element": "Co", "occu": 1}], "abc": [4.9530000000000015e-05, 0.71969631, 0.73077872], "properties": {"magmom": -0.0}, "label": "Co", "xyz": [0.0003158487698379001, 4.187782684185895, 2.609630369468419]}, {"species": [{"element": "Co", "occu": 1}], "abc": [0.50004953, 0.78030369, 0.26922128], "properties": {"magmom": -0.0}, "label": "Co", "xyz": [3.1887750637698375, 4.537807650814105, -0.5629370644684191]}, {"species": [{"element": "Sb", "occu": 1}], "abc": [0.356848699999999, 0.16531757, 0.34865439], "properties": {"magmom": -0.0}, "label": "Sb", "xyz": [2.2755950517515346, 0.9628649249909755, 1.7718883888747232]}, {"species": [{"element": "Sb", "occu": 1}], "abc": [0.856848699999999, 0.33468243000000003, 0.65134561], "properties": {"magmom": -0.0}, "label": "Sb", "xyz": [5.464054266751535, 1.9490277400090243, 3.2337265261252774]}, {"species": [{"element": "Sb", "occu": 1}], "abc": [0.6431513, 0.8346814300000001, 0.65134561], "properties": {"magmom": -0.0}, "label": "Sb", "xyz": [4.101323378248459, 4.855870761311355, 1.7542686800468874]}, {"species": [{"element": "Sb", "occu": 1}], "abc": [0.143151299999999, 0.66531857, 0.34865439], "properties": {"magmom": -0.0}, "label": "Sb", "xyz": [0.9128641632484527, 3.869719573688646, 0.29242462495311305]}, {"species": [{"element": "Sb", "occu": 1}], "abc": [0.63982731, 0.36883503, 0.14715548], "properties": {"magmom": 0.0}, "label": "Sb", "xyz": [4.080126565156323, 2.1450375817500684, -0.1370395103790527]}, {"species": [{"element": "Sb", "occu": 1}], "abc": [0.13982731, 0.13116497, 0.85284452], "properties": {"magmom": 0.0}, "label": "Sb", "xyz": [0.8916673501563234, 0.7668550832499313, 5.142654425379053]}, {"species": [{"element": "Sb", "occu": 1}], "abc": [0.36017269, 0.63116497, 0.85284452], "properties": {"magmom": 0.0}, "label": "Sb", "xyz": [2.296791864843677, 3.673703918249932, 3.6631936203790527]}, {"species": [{"element": "Sb", "occu": 1}], "abc": [0.8601726900000001, 0.8688350300000001, 0.14715548], "properties": {"magmom": 0.0}, "label": "Sb", "xyz": [5.485251079843677, 5.051886416750069, -1.6165003153790527]}]}, "task_ids": null, "uncorrected_energy_per_atom": null, "energy_per_atom": -21.64977773, "formation_energy_per_atom": -0.100823533333335, "energy_above_hull": 0.030628977777777, "is_stable": false, "equilibrium_reaction_energy_per_atom": null, "decomposes_to": null, "xas": null, "grain_boundaries": null, "band_gap": 0.0, "cbm": null, "vbm": null, "efermi": 8.27366279, "is_gap_direct": null, "is_metal": null, "es_source_calc_id": null, "bandstructure": null, "dos": null, "dos_energy_up": null, "dos_energy_down": null, "is_magnetic": null, "ordering": null, "total_magnetization": 0.0, "total_magnetization_normalized_vol": null, "total_magnetization_normalized_formula_units": null, "num_magnetic_sites": null, "num_unique_magnetic_sites": null, "types_of_magnetic_species": null, "bulk_modulus": null, "shear_modulus": null, "universal_anisotropy": null, "homogeneous_poisson": null, "e_total": null, "e_ionic": null, "e_electronic": null, "n": null, "e_ij_max": null, "weighted_surface_energy_EV_PER_ANG2": null, "weighted_surface_energy": null, "weighted_work_function": null, "surface_anisotropy": null, "shape_factor": null, "has_reconstructed": null, "possible_species": null, "has_props": null, "theoretical": null, "database_IDs": null, "fields_not_requested": ["builder_meta", "nsites", "elements", "nelements", "composition", "composition_reduced", "chemsys", "symmetry", "property_name", "deprecated", "deprecation_reasons", "last_updated", "origins", "warnings", "task_ids", "uncorrected_energy_per_atom", "equilibrium_reaction_energy_per_atom", "decomposes_to", "xas", "grain_boundaries", "cbm", "vbm", "is_gap_direct", "is_metal", "es_source_calc_id", "bandstructure", "dos", "dos_energy_up", "dos_energy_down", "is_magnetic", "ordering", "total_magnetization_normalized_vol", "total_magnetization_normalized_formula_units", "num_magnetic_sites", "num_unique_magnetic_sites", "types_of_magnetic_species", "bulk_modulus", "shear_modulus", "universal_anisotropy", "homogeneous_poisson", "e_total", "e_ionic", "e_electronic", "n", "e_ij_max", "weighted_surface_energy_EV_PER_ANG2", "weighted_surface_energy", "weighted_work_function", "surface_anisotropy", "shape_factor", "has_reconstructed", "possible_species", "has_props", "theoretical", "database_IDs"]}