{
  "builder_meta": null,
  "nsites": null,
  "elements": null,
  "nelements": null,
  "composition": null,
  "composition_reduced": null,
  "formula_pretty": "CoSb3",
  "formula_anonymous": "AB3",
  "chemsys": null,
  "volume": 371.0008899393585,
  "density": 7.594834427268833,
  "density_atomic": 23.187555621209906,
  "symmetry": null,
  "property_name": null,
  "material_id": "mp-1317",
  "deprecated": null,
  "deprecation_reasons": null,
  "last_updated": null,
  "origins": null,
  "warnings": null,
  "structure": {
    "@module": "pymatgen.core.structure",
    "@class": "Structure",
    "charge": 0,
    "lattice": {
      "matrix": [
        [7.39186059, -2.508e-5, -2.61340979],
        [-3.69594978, 6.40161738, -2.61345101],
        [2.347e-5, -1.232e-5, 7.84029276]
      ],
      "pbc": [true, true, true],
      "a": 7.840249595076167,
      "b": 7.840336474786661,
      "c": 7.840292760044808,
      "alpha": 109.47142713644983,
      "beta": 109.47099686243064,
      "gamma": 109.47124303836763,
      "volume": 371.00088993935856
    },
    "properties": {},
    "sites": [
      {
        "species": [{ "element": "Co", "occu": 1 }],
        "abc": [0.49999822, 0.49999926, 0.49999902],
        "properties": { "magmom": 0.0 },
        "label": "Co",
        "xyz": [1.8479567174679865, 3.200785252859855, 1.3067148823362689]
      },
      {
        "species": [{ "element": "Co", "occu": 1 }],
        "abc": [4.9e-7, 0.50000182, 7.599999999999997e-7],
        "properties": { "magmom": -0.0 },
        "label": "Co",
        "xyz": [-1.8479779945990733, 3.2008203409219793, -1.3067255834291378]
      },
      {
        "species": [{ "element": "Co", "occu": 1 }],
        "abc": [-6.000000000000001e-8, -3.799999999999998e-7, 0.50000115],
        "properties": { "magmom": 0.0 },
        "label": "Co",
        "xyz": [1.26959762715e-5, -8.592627267599999e-6, 3.9201565462526453]
      },
      {
        "species": [{ "element": "Co", "occu": 1 }],
        "abc": [0.5000009400000001, 0.9999996600000001, 2.6e-7],
        "properties": { "magmom": -0.0 },
        "label": "Co",
        "xyz": [-1.1280022017808723e-5, 6.401602663423313, -3.920155434555742]
      },
      {
        "species": [{ "element": "Sb", "occu": 1 }],
        "abc": [0.49259228, 0.15874925, 0.33386421],
        "properties": { "magmom": 0.0 },
        "label": "Sb",
        "xyz": [3.054452041650589, 1.0162354904405155, 0.9153642737064556]
      },
      {
        "species": [{ "element": "Sb", "occu": 1 }],
        "abc": [0.15872563, 0.6661346, 0.82488878],
        "properties": { "magmom": -0.0 },
        "label": "Sb",
        "xyz": [-1.2887029391607996, 4.264324689310778, 4.311644271107369]
      },
      {
        "species": [{ "element": "Sb", "occu": 1 }],
        "abc": [0.33384006, 0.17510957, 0.84124738],
        "properties": { "magmom": -0.0 },
        "label": "Sb",
        "xyz": [1.8205227502358496, 1.1209657298399003, 5.265524579107615]
      },
      {
        "species": [{ "element": "Sb", "occu": 1 }],
        "abc": [0.84125538, 0.66615262, 0.50740537],
        "properties": { "magmom": -0.0 },
        "label": "Sb",
        "xyz": [3.7563877690160847, 4.264426840005446, 0.038704365260804785]
      },
      {
        "species": [{ "element": "Sb", "occu": 1 }],
        "abc": [0.66615986, 0.8248872700000001, 0.15875306],
        "properties": { "magmom": 0.0 },
        "label": "Sb",
        "xyz": [1.875422617626936, 5.280594021045765, -2.652080701800827]
      },
      {
        "species": [{ "element": "Sb", "occu": 1 }],
        "abc": [0.84127439, 0.33386662, 0.17510996],
        "properties": { "magmom": -0.0 },
        "label": "Sb",
        "xyz": [4.984632857909708, 2.137263100677447, -1.6982254305546747]
      },
      {
        "species": [{ "element": "Sb", "occu": 1 }],
        "abc": [0.66615767, 0.50740536, 0.84126026],
        "properties": { "magmom": -0.0 },
        "label": "Sb",
        "xyz": [3.0488196433147072, 3.2481878997203903, 3.5287046987207145]
      },
      {
        "species": [{ "element": "Sb", "occu": 1 }],
        "abc": [0.33384019, 0.49259228, 0.15873665],
        "properties": { "magmom": 0.0 },
        "label": "Sb",
        "xyz": [0.6471075404725891, 3.1533769725543332, -0.9152852047840088]
      },
      {
        "species": [{ "element": "Sb", "occu": 1 }],
        "abc": [0.1587419, 0.33384632000000003, 0.49259472],
        "properties": { "magmom": 0.0 },
        "label": "Sb",
        "xyz": [-0.06046967716801025, 2.1371463543472395, 2.5747381790982424]
      },
      {
        "species": [{ "element": "Sb", "occu": 1 }],
        "abc": [0.82490346, 0.15875423, 0.66615766],
        "properties": { "magmom": -0.0 },
        "label": "Sb",
        "xyz": [5.510839349806353, 1.0162549422753693, 2.6521638978123954]
      },
      {
        "species": [{ "element": "Sb", "occu": 1 }],
        "abc": [0.17509919000000002, 0.84124991, 0.33384479],
        "properties": { "magmom": -0.0 },
        "label": "Sb",
        "xyz": [-1.8149007825503762, 5.3853515403239385, -0.038730474318259045]
      },
      {
        "species": [{ "element": "Sb", "occu": 1 }],
        "abc": [0.5074094, 0.8412526, 0.66613498],
        "properties": { "magmom": 0.0 },
        "label": "Sb",
        "xyz": [0.6414878191490988, 5.385356332519483, 1.6980521102435926]
      }
    ]
  },
  "task_ids": null,
  "uncorrected_energy_per_atom": null,
  "energy_per_atom": -22.736178655,
  "formation_energy_per_atom": -0.147884075,
  "energy_above_hull": 0.0,
  "is_stable": true,
  "equilibrium_reaction_energy_per_atom": null,
  "decomposes_to": null,
  "xas": null,
  "grain_boundaries": null,
  "band_gap": 0.1633,
  "cbm": null,
  "vbm": null,
  "efermi": 7.52693137,
  "is_gap_direct": null,
  "is_metal": null,
  "es_source_calc_id": null,
  "bandstructure": null,
  "dos": null,
  "dos_energy_up": null,
  "dos_energy_down": null,
  "is_magnetic": null,
  "ordering": null,
  "total_magnetization": 0.0,
  "total_magnetization_normalized_vol": null,
  "total_magnetization_normalized_formula_units": null,
  "num_magnetic_sites": null,
  "num_unique_magnetic_sites": null,
  "types_of_magnetic_species": null,
  "bulk_modulus": null,
  "shear_modulus": null,
  "universal_anisotropy": null,
  "homogeneous_poisson": null,
  "e_total": null,
  "e_ionic": null,
  "e_electronic": null,
  "n": null,
  "e_ij_max": null,
  "weighted_surface_energy_EV_PER_ANG2": null,
  "weighted_surface_energy": null,
  "weighted_work_function": null,
  "surface_anisotropy": null,
  "shape_factor": null,
  "has_reconstructed": null,
  "possible_species": null,
  "has_props": null,
  "theoretical": null,
  "database_IDs": null,
  "fields_not_requested": [
    "builder_meta",
    "nsites",
    "elements",
    "nelements",
    "composition",
    "composition_reduced",
    "chemsys",
    "symmetry",
    "property_name",
    "deprecated",
    "deprecation_reasons",
    "last_updated",
    "origins",
    "warnings",
    "task_ids",
    "uncorrected_energy_per_atom",
    "equilibrium_reaction_energy_per_atom",
    "decomposes_to",
    "xas",
    "grain_boundaries",
    "cbm",
    "vbm",
    "is_gap_direct",
    "is_metal",
    "es_source_calc_id",
    "bandstructure",
    "dos",
    "dos_energy_up",
    "dos_energy_down",
    "is_magnetic",
    "ordering",
    "total_magnetization_normalized_vol",
    "total_magnetization_normalized_formula_units",
    "num_magnetic_sites",
    "num_unique_magnetic_sites",
    "types_of_magnetic_species",
    "bulk_modulus",
    "shear_modulus",
    "universal_anisotropy",
    "homogeneous_poisson",
    "e_total",
    "e_ionic",
    "e_electronic",
    "n",
    "e_ij_max",
    "weighted_surface_energy_EV_PER_ANG2",
    "weighted_surface_energy",
    "weighted_work_function",
    "surface_anisotropy",
    "shape_factor",
    "has_reconstructed",
    "possible_species",
    "has_props",
    "theoretical",
    "database_IDs"
  ]
}
