{"builder_meta": null, "nsites": null, "elements": null, "nelements": null, "composition": null, "composition_reduced": null, "formula_pretty": "CoSe2", "formula_anonymous": "AB2", "chemsys": null, "volume": 104.36753164439513, "density": 6.900483250700044, "density_atomic": 17.39458860739919, "symmetry": null, "property_name": null, "material_id": "mp-20862", "deprecated": null, "deprecation_reasons": null, "last_updated": null, "origins": null, "warnings": null, "structure": {"@module": "pymatgen.core.structure", "@class": "Structure", "charge": 0, "lattice": {"matrix": [[3.6559414, 3.0000000000000004e-08, -2e-08], [3.0000000000000004e-08, 4.8553543900000005, -7.478e-05], [-4e-08, -0.00010955, 5.87956576]], "pbc": [true, true, true], "a": 3.6559414000000006, "b": 4.855354390575864, "c": 5.879565761020586, "alpha": 90.00194999778755, "beta": 90.00000070324403, "gamma": 89.99999917582021, "volume": 104.36753164439516}, "properties": {}, "sites": [{"species": [{"element": "Co", "occu": 1}], "abc": [-3.28e-06, -0.0, -0.0], "properties": {"magmom": 1.124}, "label": "Co", "xyz": [-1.1991487792e-05, -9.840000000000001e-14, 6.56e-14]}, {"species": [{"element": "Co", "occu": 1}], "abc": [0.50000032, 0.5, 0.5], "properties": {"magmom": 1.124}, "label": "Co", "xyz": [1.827971864901248, 2.4276224350000097, 2.939745479999994]}, {"species": [{"element": "Se", "occu": 1}], "abc": [7.699999999999999e-07, 0.20549618, 0.37509483], "properties": {"magmom": -0.044}, "label": "Se", "xyz": [2.8062359701999995e-06, 0.9977156880526269, 2.205379352216665]}, {"species": [{"element": "Se", "occu": 1}], "abc": [7.799999999999997e-07, 0.79450382, 0.62490517], "properties": {"magmom": -0.044}, "label": "Se", "xyz": [2.850473199799999e-06, 3.85752915194742, 3.6741116277833044]}, {"species": [{"element": "Se", "occu": 1}], "abc": [0.50000071, 0.70547307, 0.12485973], "properties": {"magmom": -0.044}, "label": "Se", "xyz": [1.8279733118881971, 3.4253081040678777, 0.734068228034656]}, {"species": [{"element": "Se", "occu": 1}], "abc": [0.50000071, 0.29452693, 0.87514027], "properties": {"magmom": -0.044}, "label": "Se", "xyz": [1.827973269548591, 1.4299367659321658, 5.145422731965317]}]}, "task_ids": null, "uncorrected_energy_per_atom": null, "energy_per_atom": -14.29812912, "formation_energy_per_atom": -0.345678589375, "energy_above_hull": 0.0, "is_stable": true, "equilibrium_reaction_energy_per_atom": null, "decomposes_to": null, "xas": null, "grain_boundaries": null, "band_gap": 0.0, "cbm": null, "vbm": null, "efermi": 5.8075456899999995, "is_gap_direct": null, "is_metal": null, "es_source_calc_id": null, "bandstructure": null, "dos": null, "dos_energy_up": null, "dos_energy_down": null, "is_magnetic": null, "ordering": null, "total_magnetization": 1.9999991, "total_magnetization_normalized_vol": null, "total_magnetization_normalized_formula_units": null, "num_magnetic_sites": null, "num_unique_magnetic_sites": null, "types_of_magnetic_species": null, "bulk_modulus": null, "shear_modulus": null, "universal_anisotropy": null, "homogeneous_poisson": null, "e_total": null, "e_ionic": null, "e_electronic": null, "n": null, "e_ij_max": null, "weighted_surface_energy_EV_PER_ANG2": null, "weighted_surface_energy": null, "weighted_work_function": null, "surface_anisotropy": null, "shape_factor": null, "has_reconstructed": null, "possible_species": null, "has_props": null, "theoretical": null, "database_IDs": null, "fields_not_requested": ["builder_meta", "nsites", "elements", "nelements", "composition", "composition_reduced", "chemsys", "symmetry", "property_name", "deprecated", "deprecation_reasons", "last_updated", "origins", "warnings", "task_ids", "uncorrected_energy_per_atom", "equilibrium_reaction_energy_per_atom", "decomposes_to", "xas", "grain_boundaries", "cbm", "vbm", "is_gap_direct", "is_metal", "es_source_calc_id", "bandstructure", "dos", "dos_energy_up", "dos_energy_down", "is_magnetic", "ordering", "total_magnetization_normalized_vol", "total_magnetization_normalized_formula_units", "num_magnetic_sites", "num_unique_magnetic_sites", "types_of_magnetic_species", "bulk_modulus", "shear_modulus", "universal_anisotropy", "homogeneous_poisson", "e_total", "e_ionic", "e_electronic", "n", "e_ij_max", "weighted_surface_energy_EV_PER_ANG2", "weighted_surface_energy", "weighted_work_function", "surface_anisotropy", "shape_factor", "has_reconstructed", "possible_species", "has_props", "theoretical", "database_IDs"]}