{
  "builder_meta": null,
  "nsites": null,
  "elements": null,
  "nelements": null,
  "composition": null,
  "composition_reduced": null,
  "formula_pretty": "CoSn",
  "formula_anonymous": "AB",
  "chemsys": null,
  "volume": 99.80698048320899,
  "density": 8.866618260115631,
  "density_atomic": 16.6344967472015,
  "symmetry": null,
  "property_name": null,
  "material_id": "mp-20536",
  "deprecated": null,
  "deprecation_reasons": null,
  "last_updated": null,
  "origins": null,
  "warnings": null,
  "structure": {
    "@module": "pymatgen.core.structure",
    "@class": "Structure",
    "charge": 0,
    "lattice": {
      "matrix": [
        [5.24599465, 4.059999999999997e-6, 1.1160000000000002e-5],
        [-2.6229932700000003, 4.54327154, -1.0140000000000001e-5],
        [9.13e-6, -4.059999999999997e-6, 4.1875903]
      ],
      "pbc": [true, true, true],
      "a": 5.245994650013442,
      "b": 5.246085205249919,
      "c": 4.187590300011921,
      "alpha": 90.0002213117743,
      "beta": 89.99975319338635,
      "gamma": 119.99933351562666,
      "volume": 99.806980483209
    },
    "properties": {},
    "sites": [
      {
        "species": [{ "element": "Co", "occu": 1 }],
        "abc": [-0.0, 0.5, 0.0],
        "properties": { "magmom": -0.0 },
        "label": "Co",
        "xyz": [-1.3114966350000001, 2.27163577, -5.070000000000001e-6]
      },
      {
        "species": [{ "element": "Co", "occu": 1 }],
        "abc": [0.5, 0.5, 0.0],
        "properties": { "magmom": -0.0 },
        "label": "Co",
        "xyz": [1.31150069, 2.2716378, 5.100000000000002e-7]
      },
      {
        "species": [{ "element": "Co", "occu": 1 }],
        "abc": [0.5, 0.0, 0.0],
        "properties": { "magmom": 0.0 },
        "label": "Co",
        "xyz": [2.622997325, 2.0299999999999984e-6, 5.580000000000001e-6]
      },
      {
        "species": [{ "element": "Sn", "occu": 1 }],
        "abc": [0.6666573, 0.333318599999999, 0.5],
        "properties": { "magmom": 0.0 },
        "label": "Sn",
        "xyz": [2.6229927496176253, 1.5143575857612777, 2.093799210044864]
      },
      {
        "species": [{ "element": "Sn", "occu": 1 }],
        "abc": [0.3333427, 0.6666814, 0.5],
        "properties": { "magmom": 0.0 },
        "label": "Sn",
        "xyz": [1.776038237698481e-5, 3.028913954238718, 2.093792109955136]
      },
      {
        "species": [{ "element": "Sn", "occu": 1 }],
        "abc": [-0.0, 0.0, 0.0],
        "properties": { "magmom": -0.0 },
        "label": "Sn",
        "xyz": [0.0, 0.0, 0.0]
      }
    ]
  },
  "task_ids": null,
  "uncorrected_energy_per_atom": null,
  "energy_per_atom": -5.667373963333333,
  "formation_energy_per_atom": -0.09587967583333301,
  "energy_above_hull": 0.0,
  "is_stable": true,
  "equilibrium_reaction_energy_per_atom": null,
  "decomposes_to": null,
  "xas": null,
  "grain_boundaries": null,
  "band_gap": 0.0,
  "cbm": null,
  "vbm": null,
  "efermi": 8.02196766,
  "is_gap_direct": null,
  "is_metal": null,
  "es_source_calc_id": null,
  "bandstructure": null,
  "dos": null,
  "dos_energy_up": null,
  "dos_energy_down": null,
  "is_magnetic": null,
  "ordering": null,
  "total_magnetization": 2e-7,
  "total_magnetization_normalized_vol": null,
  "total_magnetization_normalized_formula_units": null,
  "num_magnetic_sites": null,
  "num_unique_magnetic_sites": null,
  "types_of_magnetic_species": null,
  "bulk_modulus": null,
  "shear_modulus": null,
  "universal_anisotropy": null,
  "homogeneous_poisson": null,
  "e_total": null,
  "e_ionic": null,
  "e_electronic": null,
  "n": null,
  "e_ij_max": null,
  "weighted_surface_energy_EV_PER_ANG2": null,
  "weighted_surface_energy": null,
  "weighted_work_function": null,
  "surface_anisotropy": null,
  "shape_factor": null,
  "has_reconstructed": null,
  "possible_species": null,
  "has_props": null,
  "theoretical": null,
  "database_IDs": null,
  "fields_not_requested": [
    "builder_meta",
    "nsites",
    "elements",
    "nelements",
    "composition",
    "composition_reduced",
    "chemsys",
    "symmetry",
    "property_name",
    "deprecated",
    "deprecation_reasons",
    "last_updated",
    "origins",
    "warnings",
    "task_ids",
    "uncorrected_energy_per_atom",
    "equilibrium_reaction_energy_per_atom",
    "decomposes_to",
    "xas",
    "grain_boundaries",
    "cbm",
    "vbm",
    "is_gap_direct",
    "is_metal",
    "es_source_calc_id",
    "bandstructure",
    "dos",
    "dos_energy_up",
    "dos_energy_down",
    "is_magnetic",
    "ordering",
    "total_magnetization_normalized_vol",
    "total_magnetization_normalized_formula_units",
    "num_magnetic_sites",
    "num_unique_magnetic_sites",
    "types_of_magnetic_species",
    "bulk_modulus",
    "shear_modulus",
    "universal_anisotropy",
    "homogeneous_poisson",
    "e_total",
    "e_ionic",
    "e_electronic",
    "n",
    "e_ij_max",
    "weighted_surface_energy_EV_PER_ANG2",
    "weighted_surface_energy",
    "weighted_work_function",
    "surface_anisotropy",
    "shape_factor",
    "has_reconstructed",
    "possible_species",
    "has_props",
    "theoretical",
    "database_IDs"
  ]
}
