{"builder_meta": null, "nsites": null, "elements": null, "nelements": null, "composition": null, "composition_reduced": null, "formula_pretty": "CoSn2", "formula_anonymous": "AB2", "chemsys": null, "volume": 108.31883826652756, "density": 9.086250659342552, "density_atomic": 18.053139711087926, "symmetry": null, "property_name": null, "material_id": "mp-20155", "deprecated": null, "deprecation_reasons": null, "last_updated": null, "origins": null, "warnings": null, "structure": {"@module": "pymatgen.core.structure", "@class": "Structure", "charge": 0, "lattice": {"matrix": [[5.03008891, 0.0157613, -1.41354797], [-2.88446777, 4.12090878, -1.41354797], [-0.00817494, -0.01576131, 5.22492561]], "pbc": [true, true, true], "a": 5.2249555715406615, "b": 5.224955631652865, "c": 5.2249557776665245, "alpha": 105.78638723973245, "beta": 105.78638420685017, "gamma": 117.1226614836586, "volume": 108.31883826652756}, "properties": {}, "sites": [{"species": [{"element": "Co", "occu": 1}], "abc": [0.75, 0.75, -0.0], "properties": {"magmom": 0.0}, "label": "Co", "xyz": [1.609215855, 3.1025025599999996, -2.120321955]}, {"species": [{"element": "Co", "occu": 1}], "abc": [0.25, 0.25, -0.0], "properties": {"magmom": 0.0}, "label": "Co", "xyz": [0.536405285, 1.03416752, -0.706773985]}, {"species": [{"element": "Sn", "occu": 1}], "abc": [0.33337084, 0.16662916, 0.5], "properties": {"magmom": 0.0}, "label": "Sn", "xyz": [1.1921610536392113, 0.6840372712685168, 1.90568882]}, {"species": [{"element": "Sn", "occu": 1}], "abc": [0.8333708400000001, 0.33337084, 0.16673968], "properties": {"magmom": 0.0}, "label": "Sn", "xyz": [3.228968889883939, 1.3842977935866863, -0.7780429090431848]}, {"species": [{"element": "Sn", "occu": 1}], "abc": [0.66662916, 0.8333708400000001, 0.5], "properties": {"magmom": 0.0}, "label": "Sn", "xyz": [0.945285146360789, 3.4368714987314832, 0.49214084999999974]}, {"species": [{"element": "Sn", "occu": 1}], "abc": [0.16662916, 0.66662916, 0.83326032], "properties": {"magmom": 0.0}, "label": "Sn", "xyz": [-1.0915226898839387, 2.7366109764133135, 3.175872579043185]}]}, "task_ids": null, "uncorrected_energy_per_atom": null, "energy_per_atom": -5.102654606666668, "formation_energy_per_atom": -0.05180113000000101, "energy_above_hull": 0.01292766986111, "is_stable": false, "equilibrium_reaction_energy_per_atom": null, "decomposes_to": null, "xas": null, "grain_boundaries": null, "band_gap": 0.0, "cbm": null, "vbm": null, "efermi": 9.34953051, "is_gap_direct": null, "is_metal": null, "es_source_calc_id": null, "bandstructure": null, "dos": null, "dos_energy_up": null, "dos_energy_down": null, "is_magnetic": null, "ordering": null, "total_magnetization": 0.0, "total_magnetization_normalized_vol": null, "total_magnetization_normalized_formula_units": null, "num_magnetic_sites": null, "num_unique_magnetic_sites": null, "types_of_magnetic_species": null, "bulk_modulus": null, "shear_modulus": null, "universal_anisotropy": null, "homogeneous_poisson": null, "e_total": null, "e_ionic": null, "e_electronic": null, "n": null, "e_ij_max": null, "weighted_surface_energy_EV_PER_ANG2": null, "weighted_surface_energy": null, "weighted_work_function": null, "surface_anisotropy": null, "shape_factor": null, "has_reconstructed": null, "possible_species": null, "has_props": null, "theoretical": null, "database_IDs": null, "fields_not_requested": ["builder_meta", "nsites", "elements", "nelements", "composition", "composition_reduced", "chemsys", "symmetry", "property_name", "deprecated", "deprecation_reasons", "last_updated", "origins", "warnings", "task_ids", "uncorrected_energy_per_atom", "equilibrium_reaction_energy_per_atom", "decomposes_to", "xas", "grain_boundaries", "cbm", "vbm", "is_gap_direct", "is_metal", "es_source_calc_id", "bandstructure", "dos", "dos_energy_up", "dos_energy_down", "is_magnetic", "ordering", "total_magnetization_normalized_vol", "total_magnetization_normalized_formula_units", "num_magnetic_sites", "num_unique_magnetic_sites", "types_of_magnetic_species", "bulk_modulus", "shear_modulus", "universal_anisotropy", "homogeneous_poisson", "e_total", "e_ionic", "e_electronic", "n", "e_ij_max", "weighted_surface_energy_EV_PER_ANG2", "weighted_surface_energy", "weighted_work_function", "surface_anisotropy", "shape_factor", "has_reconstructed", "possible_species", "has_props", "theoretical", "database_IDs"]}