{"builder_meta": null, "nsites": null, "elements": null, "nelements": null, "composition": null, "composition_reduced": null, "formula_pretty": "CoTc3", "formula_anonymous": "AB3", "chemsys": null, "volume": 105.31368390397253, "density": 11.129785541104768, "density_atomic": 13.164210487996566, "symmetry": null, "property_name": null, "material_id": "mp-865733", "deprecated": null, "deprecation_reasons": null, "last_updated": null, "origins": null, "warnings": null, "structure": {"@module": "pymatgen.core.structure", "@class": "Structure", "charge": 0, "lattice": {"matrix": [[5.33001604, 6.026e-05, 0.0], [-2.66504238, 4.6156938400000005, 0.0], [0.0, 0.0, 4.28071643]], "pbc": [true, true, true], "a": 5.330016040340643, "b": 5.329829313571872, "c": 4.28071643, "alpha": 90.0, "beta": 90.0, "gamma": 120.00093767441956, "volume": 105.31368390397256}, "properties": {}, "sites": [{"species": [{"element": "Co", "occu": 1}], "abc": [0.33331575, 0.66668618, 0.749999], "properties": {"magmom": 0.766}, "label": "Co", "xyz": [-0.00016862997567823612, 3.0772393798462265, 3.21053304178357]}, {"species": [{"element": "Co", "occu": 1}], "abc": [0.66667043, 0.33329966, 0.249999], "properties": {"magmom": 0.765}, "label": "Co", "xyz": [2.665106366154107, 1.5384493610962064, 1.07017482678357]}, {"species": [{"element": "Tc", "occu": 1}], "abc": [0.16697712, 0.333978899999999, 0.249999], "properties": {"magmom": -0.093}, "label": "Tc", "xyz": [-7.719461277444495e-05, 1.5415544134612227, 1.07017482678357]}, {"species": [{"element": "Tc", "occu": 1}], "abc": [0.6659273, 0.832942099999999, 0.249999], "properties": {"magmom": -0.093}, "label": "Tc", "xyz": [1.3295771938876966, 3.8446458488257576, 1.07017482678357]}, {"species": [{"element": "Tc", "occu": 1}], "abc": [0.16700643, 0.83296593, 0.249999], "properties": {"magmom": -0.093}, "label": "Tc", "xyz": [-1.3297425538629764, 3.8447257758383433, 1.07017482678357]}, {"species": [{"element": "Tc", "occu": 1}], "abc": [0.83301581, 0.6660053300000001, 0.749999], "properties": {"magmom": -0.093}, "label": "Tc", "xyz": [2.665055199117707, 3.074126896620878, 3.21053304178357]}, {"species": [{"element": "Tc", "occu": 1}], "abc": [0.33411423, 0.16707652, 0.749999], "properties": {"magmom": -0.093}, "label": "Tc", "xyz": [1.3355681985893317, 0.7711941978961367, 3.21053304178357]}, {"species": [{"element": "Tc", "occu": 1}], "abc": [0.8329769300000001, 0.16704737, 0.749999], "properties": {"magmom": -0.093}, "label": "Tc", "xyz": [3.9945920773324177, 0.7710897118870026, 3.21053304178357]}]}, "task_ids": null, "uncorrected_energy_per_atom": null, "energy_per_atom": -22.789409965, "formation_energy_per_atom": -0.007355645000000001, "energy_above_hull": 0.0, "is_stable": true, "equilibrium_reaction_energy_per_atom": null, "decomposes_to": null, "xas": null, "grain_boundaries": null, "band_gap": 0.0, "cbm": null, "vbm": null, "efermi": 7.91161678, "is_gap_direct": null, "is_metal": null, "es_source_calc_id": null, "bandstructure": null, "dos": null, "dos_energy_up": null, "dos_energy_down": null, "is_magnetic": null, "ordering": null, "total_magnetization": 0.919291299999999, "total_magnetization_normalized_vol": null, "total_magnetization_normalized_formula_units": null, "num_magnetic_sites": null, "num_unique_magnetic_sites": null, "types_of_magnetic_species": null, "bulk_modulus": null, "shear_modulus": null, "universal_anisotropy": null, "homogeneous_poisson": null, "e_total": null, "e_ionic": null, "e_electronic": null, "n": null, "e_ij_max": null, "weighted_surface_energy_EV_PER_ANG2": null, "weighted_surface_energy": null, "weighted_work_function": null, "surface_anisotropy": null, "shape_factor": null, "has_reconstructed": null, "possible_species": null, "has_props": null, "theoretical": null, "database_IDs": null, "fields_not_requested": ["builder_meta", "nsites", "elements", "nelements", "composition", "composition_reduced", "chemsys", "symmetry", "property_name", "deprecated", "deprecation_reasons", "last_updated", "origins", "warnings", "task_ids", "uncorrected_energy_per_atom", "equilibrium_reaction_energy_per_atom", "decomposes_to", "xas", "grain_boundaries", "cbm", "vbm", "is_gap_direct", "is_metal", "es_source_calc_id", "bandstructure", "dos", "dos_energy_up", "dos_energy_down", "is_magnetic", "ordering", "total_magnetization_normalized_vol", "total_magnetization_normalized_formula_units", "num_magnetic_sites", "num_unique_magnetic_sites", "types_of_magnetic_species", "bulk_modulus", "shear_modulus", "universal_anisotropy", "homogeneous_poisson", "e_total", "e_ionic", "e_electronic", "n", "e_ij_max", "weighted_surface_energy_EV_PER_ANG2", "weighted_surface_energy", "weighted_work_function", "surface_anisotropy", "shape_factor", "has_reconstructed", "possible_species", "has_props", "theoretical", "database_IDs"]}