{"builder_meta": null, "nsites": null, "elements": null, "nelements": null, "composition": null, "composition_reduced": null, "formula_pretty": "Cr2As", "formula_anonymous": "AB2", "chemsys": null, "volume": 80.20211495306474, "density": 7.408616459247283, "density_atomic": 13.367019158844123, "symmetry": null, "property_name": null, "material_id": "mp-20552", "deprecated": null, "deprecation_reasons": null, "last_updated": null, "origins": null, "warnings": null, "structure": {"@module": "pymatgen.core.structure", "@class": "Structure", "charge": 0, "lattice": {"matrix": [[3.560749, 0.0, 0.0], [0.0, 3.560749, 0.0], [0.0, 0.0, 6.32562]], "pbc": [true, true, true], "a": 3.560749, "b": 3.560749, "c": 6.32562, "alpha": 90.0, "beta": 90.0, "gamma": 90.0, "volume": 80.20211495306474}, "properties": {}, "sites": [{"species": [{"element": "Cr", "occu": 1}], "abc": [0.0, 0.5, 0.666592], "properties": {"magmom": 1.6600000000000001}, "label": "Cr", "xyz": [0.0, 1.7803745, 4.21660768704]}, {"species": [{"element": "Cr", "occu": 1}], "abc": [0.5, 0.0, 0.333408], "properties": {"magmom": 1.6600000000000001}, "label": "Cr", "xyz": [1.7803745, 0.0, 2.10901231296]}, {"species": [{"element": "Cr", "occu": 1}], "abc": [0.5, 0.5, 0.0], "properties": {"magmom": -0.933}, "label": "Cr", "xyz": [1.7803745, 1.7803745, 0.0]}, {"species": [{"element": "Cr", "occu": 1}], "abc": [0.0, 0.0, 0.0], "properties": {"magmom": -0.933}, "label": "Cr", "xyz": [0.0, 0.0, 0.0]}, {"species": [{"element": "As", "occu": 1}], "abc": [0.0, 0.5, 0.280674], "properties": {"magmom": -0.046}, "label": "As", "xyz": [0.0, 1.7803745, 1.7754370678799998]}, {"species": [{"element": "As", "occu": 1}], "abc": [0.5, 0.0, 0.719326], "properties": {"magmom": -0.046}, "label": "As", "xyz": [1.7803745, 0.0, 4.55018293212]}]}, "task_ids": null, "uncorrected_energy_per_atom": null, "energy_per_atom": -8.034723296666668, "formation_energy_per_atom": -0.04265080583333301, "energy_above_hull": 0.081090359166665, "is_stable": false, "equilibrium_reaction_energy_per_atom": null, "decomposes_to": null, "xas": null, "grain_boundaries": null, "band_gap": 0.0, "cbm": null, "vbm": null, "efermi": 7.59536134, "is_gap_direct": null, "is_metal": null, "es_source_calc_id": null, "bandstructure": null, "dos": null, "dos_energy_up": null, "dos_energy_down": null, "is_magnetic": null, "ordering": null, "total_magnetization": 1.3801654, "total_magnetization_normalized_vol": null, "total_magnetization_normalized_formula_units": null, "num_magnetic_sites": null, "num_unique_magnetic_sites": null, "types_of_magnetic_species": null, "bulk_modulus": null, "shear_modulus": null, "universal_anisotropy": null, "homogeneous_poisson": null, "e_total": null, "e_ionic": null, "e_electronic": null, "n": null, "e_ij_max": null, "weighted_surface_energy_EV_PER_ANG2": null, "weighted_surface_energy": null, "weighted_work_function": null, "surface_anisotropy": null, "shape_factor": null, "has_reconstructed": null, "possible_species": null, "has_props": null, "theoretical": null, "database_IDs": null, "fields_not_requested": ["builder_meta", "nsites", "elements", "nelements", "composition", "composition_reduced", "chemsys", "symmetry", "property_name", "deprecated", "deprecation_reasons", "last_updated", "origins", "warnings", "task_ids", "uncorrected_energy_per_atom", "equilibrium_reaction_energy_per_atom", "decomposes_to", "xas", "grain_boundaries", "cbm", "vbm", "is_gap_direct", "is_metal", "es_source_calc_id", "bandstructure", "dos", "dos_energy_up", "dos_energy_down", "is_magnetic", "ordering", "total_magnetization_normalized_vol", "total_magnetization_normalized_formula_units", "num_magnetic_sites", "num_unique_magnetic_sites", "types_of_magnetic_species", "bulk_modulus", "shear_modulus", "universal_anisotropy", "homogeneous_poisson", "e_total", "e_ionic", "e_electronic", "n", "e_ij_max", "weighted_surface_energy_EV_PER_ANG2", "weighted_surface_energy", "weighted_work_function", "surface_anisotropy", "shape_factor", "has_reconstructed", "possible_species", "has_props", "theoretical", "database_IDs"]}