{
  "builder_meta": null,
  "nsites": null,
  "elements": null,
  "nelements": null,
  "composition": null,
  "composition_reduced": null,
  "formula_pretty": "Cr2B",
  "formula_anonymous": "AB2",
  "chemsys": null,
  "volume": 55.41997789292441,
  "density": 6.879656247392041,
  "density_atomic": 9.236662982154067,
  "symmetry": null,
  "property_name": null,
  "material_id": "mp-15809",
  "deprecated": null,
  "deprecation_reasons": null,
  "last_updated": null,
  "origins": null,
  "warnings": null,
  "structure": {
    "@module": "pymatgen.core.structure",
    "@class": "Structure",
    "charge": 0,
    "lattice": {
      "matrix": [
        [4.05018614, -0.00397541, -1.07635344],
        [-2.39567491, 3.2656962800000002, -1.07635344],
        [0.00194564, 0.0038361700000000003, 4.19050236]
      ],
      "pbc": [true, true, true],
      "a": 4.1907708479863945,
      "b": 4.190771670636469,
      "c": 4.19050456757666,
      "alpha": 104.8560167013452,
      "beta": 104.85602539377372,
      "gamma": 119.16005109180755,
      "volume": 55.41997789292441
    },
    "properties": {},
    "sites": [
      {
        "species": [{ "element": "Cr", "occu": 1 }],
        "abc": [0.8343585, 0.6656415, 0.5],
        "properties": { "magmom": 0.0 },
        "label": "Cr",
        "xyz": [1.7856194118864253, 2.172384138239135, 0.48072101999999983]
      },
      {
        "species": [{ "element": "Cr", "occu": 1 }],
        "abc": [0.33438069, 0.83438069, 0.16875837],
        "properties": { "magmom": -0.0 },
        "label": "Cr",
        "xyz": [-0.6442725052648445, 2.724152000894243, -0.5508179841473941]
      },
      {
        "species": [{ "element": "Cr", "occu": 1 }],
        "abc": [0.1656415, 0.3343585, 0.5],
        "properties": { "magmom": 0.0 },
        "label": "Cr",
        "xyz": [-0.12916254188642504, 1.0931729017608651, 1.55707446]
      },
      {
        "species": [{ "element": "Cr", "occu": 1 }],
        "abc": [0.66561931, 0.16561931, 0.8312416300000001],
        "properties": { "magmom": -0.0 },
        "label": "Cr",
        "xyz": [2.300729375264844, 0.5414050391057569, 2.588613464147394]
      },
      {
        "species": [{ "element": "B", "occu": 1 }],
        "abc": [0.75, 0.75, 0.0],
        "properties": { "magmom": 0.0 },
        "label": "B",
        "xyz": [1.2408834225, 2.4462906525, -1.6145301600000002]
      },
      {
        "species": [{ "element": "B", "occu": 1 }],
        "abc": [0.25, 0.25, 0.0],
        "properties": { "magmom": 0.0 },
        "label": "B",
        "xyz": [0.41362780750000006, 0.8154302175000001, -0.53817672]
      }
    ]
  },
  "task_ids": null,
  "uncorrected_energy_per_atom": null,
  "energy_per_atom": -12.70435261,
  "formation_energy_per_atom": -0.206672950833334,
  "energy_above_hull": 0.067169883333331,
  "is_stable": false,
  "equilibrium_reaction_energy_per_atom": null,
  "decomposes_to": null,
  "xas": null,
  "grain_boundaries": null,
  "band_gap": 0.0,
  "cbm": null,
  "vbm": null,
  "efermi": 7.56991724,
  "is_gap_direct": null,
  "is_metal": null,
  "es_source_calc_id": null,
  "bandstructure": null,
  "dos": null,
  "dos_energy_up": null,
  "dos_energy_down": null,
  "is_magnetic": null,
  "ordering": null,
  "total_magnetization": 0.0,
  "total_magnetization_normalized_vol": null,
  "total_magnetization_normalized_formula_units": null,
  "num_magnetic_sites": null,
  "num_unique_magnetic_sites": null,
  "types_of_magnetic_species": null,
  "bulk_modulus": null,
  "shear_modulus": null,
  "universal_anisotropy": null,
  "homogeneous_poisson": null,
  "e_total": null,
  "e_ionic": null,
  "e_electronic": null,
  "n": null,
  "e_ij_max": null,
  "weighted_surface_energy_EV_PER_ANG2": null,
  "weighted_surface_energy": null,
  "weighted_work_function": null,
  "surface_anisotropy": null,
  "shape_factor": null,
  "has_reconstructed": null,
  "possible_species": null,
  "has_props": null,
  "theoretical": null,
  "database_IDs": null,
  "fields_not_requested": [
    "builder_meta",
    "nsites",
    "elements",
    "nelements",
    "composition",
    "composition_reduced",
    "chemsys",
    "symmetry",
    "property_name",
    "deprecated",
    "deprecation_reasons",
    "last_updated",
    "origins",
    "warnings",
    "task_ids",
    "uncorrected_energy_per_atom",
    "equilibrium_reaction_energy_per_atom",
    "decomposes_to",
    "xas",
    "grain_boundaries",
    "cbm",
    "vbm",
    "is_gap_direct",
    "is_metal",
    "es_source_calc_id",
    "bandstructure",
    "dos",
    "dos_energy_up",
    "dos_energy_down",
    "is_magnetic",
    "ordering",
    "total_magnetization_normalized_vol",
    "total_magnetization_normalized_formula_units",
    "num_magnetic_sites",
    "num_unique_magnetic_sites",
    "types_of_magnetic_species",
    "bulk_modulus",
    "shear_modulus",
    "universal_anisotropy",
    "homogeneous_poisson",
    "e_total",
    "e_ionic",
    "e_electronic",
    "n",
    "e_ij_max",
    "weighted_surface_energy_EV_PER_ANG2",
    "weighted_surface_energy",
    "weighted_work_function",
    "surface_anisotropy",
    "shape_factor",
    "has_reconstructed",
    "possible_species",
    "has_props",
    "theoretical",
    "database_IDs"
  ]
}
