{"builder_meta": null, "nsites": null, "elements": null, "nelements": null, "composition": null, "composition_reduced": null, "formula_pretty": "Cr2B3", "formula_anonymous": "A2B3", "chemsys": null, "volume": 77.23135620910816, "density": 5.86651291362411, "density_atomic": 7.723135620910815, "symmetry": null, "property_name": null, "material_id": "mp-12054", "deprecated": null, "deprecation_reasons": null, "last_updated": null, "origins": null, "warnings": null, "structure": {"@module": "pymatgen.core.structure", "@class": "Structure", "charge": 0, "lattice": {"matrix": [[2.930742, -0.0, 0.0], [-0.0, 2.87199776, -0.47981271000000003], [0.0, 0.05529949, 9.1663086]], "pbc": [true, true, true], "a": 2.930742, "b": 2.9118020829243467, "c": 9.166475406830491, "alpha": 99.13891748736407, "beta": 90.0, "gamma": 90.0, "volume": 77.23135620910816}, "properties": {}, "sites": [{"species": [{"element": "Cr", "occu": 1}], "abc": [0.75, 0.42841034, 0.85682169], "properties": {"magmom": 0.0}, "label": "Cr", "xyz": [2.1980565, 1.2777753393187765, 7.648335299486113]}, {"species": [{"element": "Cr", "occu": 1}], "abc": [0.25, 0.57158966, 0.14317831], "properties": {"magmom": 0.0}, "label": "Cr", "xyz": [0.7326855, 1.6495219106812236, 1.0381605905138875]}, {"species": [{"element": "Cr", "occu": 1}], "abc": [0.75, 0.70238988, 0.40477876], "properties": {"magmom": 0.002}, "label": "Cr", "xyz": [2.1980565, 2.0396462209975015, 3.3733114370859614]}, {"species": [{"element": "Cr", "occu": 1}], "abc": [0.25, 0.29761012000000003, 0.59522124], "properties": {"magmom": 0.002}, "label": "Cr", "xyz": [0.7326855, 0.8876510290024989, 5.313184452914039]}, {"species": [{"element": "B", "occu": 1}], "abc": [0.75, 0.0236975, 0.047393990000000004], "properties": {"magmom": -0.0}, "label": "B", "xyz": [2.1980565, 0.0706800303936651, 0.42305757643008907]}, {"species": [{"element": "B", "occu": 1}], "abc": [0.25, 0.9763025, 0.95260601], "properties": {"magmom": -0.0}, "label": "B", "xyz": [0.7326855, 2.856617219606335, 8.263438313569912]}, {"species": [{"element": "B", "occu": 1}], "abc": [0.75, 0.11904716, 0.23809533], "properties": {"magmom": -0.0}, "label": "B", "xyz": [2.1980565, 0.35506972717474333, 2.1253349305414346]}, {"species": [{"element": "B", "occu": 1}], "abc": [0.25, 0.8809528400000001, 0.7619046700000001], "properties": {"magmom": -0.0}, "label": "B", "xyz": [0.7326855, 2.572227522825257, 6.561160959458567]}, {"species": [{"element": "B", "occu": 1}], "abc": [0.75, 0.82685723, 0.65371245], "properties": {"magmom": -0.0}, "label": "B", "xyz": [2.1980565, 2.4108820774914554, 5.595393444052677]}, {"species": [{"element": "B", "occu": 1}], "abc": [0.25, 0.17314277, 0.34628755], "properties": {"magmom": -0.0}, "label": "B", "xyz": [0.7326855, 0.5164151725085447, 3.0911024459473233]}]}, "task_ids": null, "uncorrected_energy_per_atom": null, "energy_per_atom": -10.753969114, "formation_energy_per_atom": -0.31681963949999903, "energy_above_hull": 0.045477424666666, "is_stable": false, "equilibrium_reaction_energy_per_atom": null, "decomposes_to": null, "xas": null, "grain_boundaries": null, "band_gap": 0.0, "cbm": null, "vbm": null, "efermi": 8.80764971, "is_gap_direct": null, "is_metal": null, "es_source_calc_id": null, "bandstructure": null, "dos": null, "dos_energy_up": null, "dos_energy_down": null, "is_magnetic": null, "ordering": null, "total_magnetization": 0.0048854, "total_magnetization_normalized_vol": null, "total_magnetization_normalized_formula_units": null, "num_magnetic_sites": null, "num_unique_magnetic_sites": null, "types_of_magnetic_species": null, "bulk_modulus": null, "shear_modulus": null, "universal_anisotropy": null, "homogeneous_poisson": null, "e_total": null, "e_ionic": null, "e_electronic": null, "n": null, "e_ij_max": null, "weighted_surface_energy_EV_PER_ANG2": null, "weighted_surface_energy": null, "weighted_work_function": null, "surface_anisotropy": null, "shape_factor": null, "has_reconstructed": null, "possible_species": null, "has_props": null, "theoretical": null, "database_IDs": null, "fields_not_requested": ["builder_meta", "nsites", "elements", "nelements", "composition", "composition_reduced", "chemsys", "symmetry", "property_name", "deprecated", "deprecation_reasons", "last_updated", "origins", "warnings", "task_ids", "uncorrected_energy_per_atom", "equilibrium_reaction_energy_per_atom", "decomposes_to", "xas", "grain_boundaries", "cbm", "vbm", "is_gap_direct", "is_metal", "es_source_calc_id", "bandstructure", "dos", "dos_energy_up", "dos_energy_down", "is_magnetic", "ordering", "total_magnetization_normalized_vol", "total_magnetization_normalized_formula_units", "num_magnetic_sites", "num_unique_magnetic_sites", "types_of_magnetic_species", "bulk_modulus", "shear_modulus", "universal_anisotropy", "homogeneous_poisson", "e_total", "e_ionic", "e_electronic", "n", "e_ij_max", "weighted_surface_energy_EV_PER_ANG2", "weighted_surface_energy", "weighted_work_function", "surface_anisotropy", "shape_factor", "has_reconstructed", "possible_species", "has_props", "theoretical", "database_IDs"]}