{"builder_meta": null, "nsites": null, "elements": null, "nelements": null, "composition": null, "composition_reduced": null, "formula_pretty": "Cr2C", "formula_anonymous": "AB2", "chemsys": null, "volume": 29.04607059540132, "density": 6.631786790444232, "density_atomic": 9.682023531800441, "symmetry": null, "property_name": null, "material_id": "mp-1226378", "deprecated": null, "deprecation_reasons": null, "last_updated": null, "origins": null, "warnings": null, "structure": {"@module": "pymatgen.core.structure", "@class": "Structure", "charge": 0, "lattice": {"matrix": [[1.40776873, -2.43832549, 0.0], [1.40776873, 2.43832549, -0.0], [-0.0, -0.0, 4.23091597]], "pbc": [true, true, true], "a": 2.815536182035236, "b": 2.815536182035236, "c": 4.23091597, "alpha": 90.0, "beta": 90.0, "gamma": 119.99996997038251, "volume": 29.04607059540132}, "properties": {}, "sites": [{"species": [{"element": "Cr", "occu": 1}], "abc": [0.666667, 0.333333, 0.2467073], "properties": {"magmom": -0.0}, "label": "Cr", "xyz": [1.40776873, -0.8127767888836601, 1.043797855485581]}, {"species": [{"element": "Cr", "occu": 1}], "abc": [0.333333, 0.666667, 0.753292699999999], "properties": {"magmom": -0.0}, "label": "Cr", "xyz": [1.40776873, 0.8127767888836601, 3.1871181145144147]}, {"species": [{"element": "C", "occu": 1}], "abc": [-0.0, -0.0, 0.5], "properties": {"magmom": 0.0}, "label": "C", "xyz": [0.0, 0.0, 2.115457985]}]}, "task_ids": null, "uncorrected_energy_per_atom": null, "energy_per_atom": -9.548404576666668, "formation_energy_per_atom": -0.036817765833333, "energy_above_hull": 0.062540137083333, "is_stable": false, "equilibrium_reaction_energy_per_atom": null, "decomposes_to": null, "xas": null, "grain_boundaries": null, "band_gap": 0.0, "cbm": null, "vbm": null, "efermi": 7.26729491, "is_gap_direct": null, "is_metal": null, "es_source_calc_id": null, "bandstructure": null, "dos": null, "dos_energy_up": null, "dos_energy_down": null, "is_magnetic": null, "ordering": null, "total_magnetization": 3e-07, "total_magnetization_normalized_vol": null, "total_magnetization_normalized_formula_units": null, "num_magnetic_sites": null, "num_unique_magnetic_sites": null, "types_of_magnetic_species": null, "bulk_modulus": null, "shear_modulus": null, "universal_anisotropy": null, "homogeneous_poisson": null, "e_total": null, "e_ionic": null, "e_electronic": null, "n": null, "e_ij_max": null, "weighted_surface_energy_EV_PER_ANG2": null, "weighted_surface_energy": null, "weighted_work_function": null, "surface_anisotropy": null, "shape_factor": null, "has_reconstructed": null, "possible_species": null, "has_props": null, "theoretical": null, "database_IDs": null, "fields_not_requested": ["builder_meta", "nsites", "elements", "nelements", "composition", "composition_reduced", "chemsys", "symmetry", "property_name", "deprecated", "deprecation_reasons", "last_updated", "origins", "warnings", "task_ids", "uncorrected_energy_per_atom", "equilibrium_reaction_energy_per_atom", "decomposes_to", "xas", "grain_boundaries", "cbm", "vbm", "is_gap_direct", "is_metal", "es_source_calc_id", "bandstructure", "dos", "dos_energy_up", "dos_energy_down", "is_magnetic", "ordering", "total_magnetization_normalized_vol", "total_magnetization_normalized_formula_units", "num_magnetic_sites", "num_unique_magnetic_sites", "types_of_magnetic_species", "bulk_modulus", "shear_modulus", "universal_anisotropy", "homogeneous_poisson", "e_total", "e_ionic", "e_electronic", "n", "e_ij_max", "weighted_surface_energy_EV_PER_ANG2", "weighted_surface_energy", "weighted_work_function", "surface_anisotropy", "shape_factor", "has_reconstructed", "possible_species", "has_props", "theoretical", "database_IDs"]}