{
  "builder_meta": null,
  "nsites": null,
  "elements": null,
  "nelements": null,
  "composition": null,
  "composition_reduced": null,
  "formula_pretty": "Cr2F5",
  "formula_anonymous": "A2B5",
  "chemsys": null,
  "volume": 176.51829699159526,
  "density": 3.74375993804773,
  "density_atomic": 12.608449785113947,
  "symmetry": null,
  "property_name": null,
  "material_id": "mp-558380",
  "deprecated": null,
  "deprecation_reasons": null,
  "last_updated": null,
  "origins": null,
  "warnings": null,
  "structure": {
    "@module": "pymatgen.core.structure",
    "@class": "Structure",
    "charge": 0,
    "lattice": {
      "matrix": [
        [4.98091749, -0.06382107000000001, 1.99831088],
        [-0.49672483, 4.95649382, 1.997717419999999],
        [-0.05103136, -0.05556257, 7.11376547]
      ],
      "pbc": [true, true, true],
      "a": 5.36720211509593,
      "b": 5.3669769362843525,
      "c": 7.114165485919819,
      "alpha": 68.55215492389897,
      "beta": 68.54724404586702,
      "gamma": 87.60929517988642,
      "volume": 176.51829699159526
    },
    "properties": {},
    "sites": [
      {
        "species": [{ "element": "Cr", "occu": 1 }],
        "abc": [-0.0, -0.0, 0.5],
        "properties": { "magmom": 3.669 },
        "label": "Cr",
        "xyz": [-0.02551568, -0.027781285, 3.556882735]
      },
      {
        "species": [{ "element": "Cr", "occu": 1 }],
        "abc": [0.5, 0.5, 0.0],
        "properties": { "magmom": 3.669 },
        "label": "Cr",
        "xyz": [2.2420963300000003, 2.446336375, 1.9980141499999995]
      },
      {
        "species": [{ "element": "Cr", "occu": 1 }],
        "abc": [0.5, 0.5, 0.5],
        "properties": { "magmom": 3.09 },
        "label": "Cr",
        "xyz": [2.2165806500000005, 2.41855509, 5.554896885]
      },
      {
        "species": [{ "element": "Cr", "occu": 1 }],
        "abc": [-0.0, -0.0, 0.0],
        "properties": { "magmom": 3.088 },
        "label": "Cr",
        "xyz": [0.0, 0.0, 0.0]
      },
      {
        "species": [{ "element": "F", "occu": 1 }],
        "abc": [0.6719218, 0.17908175, 0.5423157],
        "properties": { "magmom": 0.023 },
        "label": "F",
        "xyz": [3.2301575859870777, 0.8146023648741101, 5.558370075527147]
      },
      {
        "species": [{ "element": "F", "occu": 1 }],
        "abc": [0.32090498, 0.8280512600000001, 0.95767293],
        "properties": { "magmom": 0.023 },
        "label": "F",
        "xyz": [1.1382162541022296, 4.030539684431055, 9.108140960722857]
      },
      {
        "species": [{ "element": "F", "occu": 1 }],
        "abc": [0.3280782, 0.8209182500000001, 0.4576843],
        "properties": { "magmom": 0.023 },
        "label": "F",
        "xyz": [1.2030037140129224, 4.022507815125891, 5.551423694472851]
      },
      {
        "species": [{ "element": "F", "occu": 1 }],
        "abc": [0.67909502, 0.17194874000000002, 0.04232707],
        "properties": { "magmom": 0.023 },
        "label": "F",
        "xyz": [3.2949450458977707, 0.8065704955689456, 2.0016528092771413]
      },
      {
        "species": [{ "element": "F", "occu": 1 }],
        "abc": [0.18048905, 0.31952023, 0.74999821],
        "properties": { "magmom": 0.024 },
        "label": "F",
        "xyz": [0.7020140053163081, 1.5305092130226956, 6.334295730709079]
      },
      {
        "species": [{ "element": "F", "occu": 1 }],
        "abc": [0.8195109500000001, 0.68047977, 0.25000179],
        "properties": { "magmom": 0.024 },
        "label": "F",
        "xyz": [3.7311472946836926, 3.3066009669773053, 4.77549803929092]
      },
      {
        "species": [{ "element": "F", "occu": 1 }],
        "abc": [0.90898554, 0.85173089, 0.82129981],
        "properties": { "magmom": 0.018000000000000002 },
        "label": "F",
        "xyz": [4.062594046530054, 4.11795293462666, 9.360487559345337]
      },
      {
        "species": [{ "element": "F", "occu": 1 }],
        "abc": [0.64836794, 0.59108816, 0.6786306400000001],
        "properties": { "magmom": 0.018000000000000002 },
        "label": "F",
        "xyz": [2.9012276020133876, 2.8506388139915306, 7.3040870364489345]
      },
      {
        "species": [{ "element": "F", "occu": 1 }],
        "abc": [0.09101446, 0.14826911, 0.17870019],
        "properties": { "magmom": 0.018000000000000002 },
        "label": "F",
        "xyz": [0.3705672534699458, 0.7191572453733398, 1.7493062106546602]
      },
      {
        "species": [{ "element": "F", "occu": 1 }],
        "abc": [0.35163206, 0.40891184, 0.32136936],
        "properties": { "magmom": 0.018000000000000002 },
        "label": "F",
        "xyz": [1.531933697986613, 1.9864713660084699, 3.805706733551064]
      }
    ]
  },
  "task_ids": null,
  "uncorrected_energy_per_atom": null,
  "energy_per_atom": -7.069422372857143,
  "formation_energy_per_atom": -2.944371399285714,
  "energy_above_hull": 0.0025899921428580003,
  "is_stable": false,
  "equilibrium_reaction_energy_per_atom": null,
  "decomposes_to": null,
  "xas": null,
  "grain_boundaries": null,
  "band_gap": 1.5997,
  "cbm": null,
  "vbm": null,
  "efermi": 0.31913786,
  "is_gap_direct": null,
  "is_metal": null,
  "es_source_calc_id": null,
  "bandstructure": null,
  "dos": null,
  "dos_energy_up": null,
  "dos_energy_down": null,
  "is_magnetic": null,
  "ordering": null,
  "total_magnetization": 14.0000004,
  "total_magnetization_normalized_vol": null,
  "total_magnetization_normalized_formula_units": null,
  "num_magnetic_sites": null,
  "num_unique_magnetic_sites": null,
  "types_of_magnetic_species": null,
  "bulk_modulus": null,
  "shear_modulus": null,
  "universal_anisotropy": null,
  "homogeneous_poisson": null,
  "e_total": null,
  "e_ionic": null,
  "e_electronic": null,
  "n": null,
  "e_ij_max": null,
  "weighted_surface_energy_EV_PER_ANG2": null,
  "weighted_surface_energy": null,
  "weighted_work_function": null,
  "surface_anisotropy": null,
  "shape_factor": null,
  "has_reconstructed": null,
  "possible_species": null,
  "has_props": null,
  "theoretical": null,
  "database_IDs": null,
  "fields_not_requested": [
    "builder_meta",
    "nsites",
    "elements",
    "nelements",
    "composition",
    "composition_reduced",
    "chemsys",
    "symmetry",
    "property_name",
    "deprecated",
    "deprecation_reasons",
    "last_updated",
    "origins",
    "warnings",
    "task_ids",
    "uncorrected_energy_per_atom",
    "equilibrium_reaction_energy_per_atom",
    "decomposes_to",
    "xas",
    "grain_boundaries",
    "cbm",
    "vbm",
    "is_gap_direct",
    "is_metal",
    "es_source_calc_id",
    "bandstructure",
    "dos",
    "dos_energy_up",
    "dos_energy_down",
    "is_magnetic",
    "ordering",
    "total_magnetization_normalized_vol",
    "total_magnetization_normalized_formula_units",
    "num_magnetic_sites",
    "num_unique_magnetic_sites",
    "types_of_magnetic_species",
    "bulk_modulus",
    "shear_modulus",
    "universal_anisotropy",
    "homogeneous_poisson",
    "e_total",
    "e_ionic",
    "e_electronic",
    "n",
    "e_ij_max",
    "weighted_surface_energy_EV_PER_ANG2",
    "weighted_surface_energy",
    "weighted_work_function",
    "surface_anisotropy",
    "shape_factor",
    "has_reconstructed",
    "possible_species",
    "has_props",
    "theoretical",
    "database_IDs"
  ]
}
