{
  "builder_meta": null,
  "nsites": null,
  "elements": null,
  "nelements": null,
  "composition": null,
  "composition_reduced": null,
  "formula_pretty": "Cr2N",
  "formula_anonymous": "AB2",
  "chemsys": null,
  "volume": 85.55180558797787,
  "density": 6.870987067514143,
  "density_atomic": 9.505756176441984,
  "symmetry": null,
  "property_name": null,
  "material_id": "mp-8780",
  "deprecated": null,
  "deprecation_reasons": null,
  "last_updated": null,
  "origins": null,
  "warnings": null,
  "structure": {
    "@module": "pymatgen.core.structure",
    "@class": "Structure",
    "charge": 0,
    "lattice": {
      "matrix": [
        [4.75137275, -9.6e-7, 1.015e-5],
        [-2.37568807, 4.11480151, -2.094e-5],
        [8.93e-6, -1.6490000000000003e-5, 4.37583802]
      ],
      "pbc": [true, true, true],
      "a": 4.751372750010938,
      "b": 4.751366674239854,
      "c": 4.375838020040183,
      "alpha": 90.00049796204338,
      "beta": 89.99976067682076,
      "gamma": 120.00007747905671,
      "volume": 85.55180558797787
    },
    "properties": {},
    "sites": [
      {
        "species": [{ "element": "Cr", "occu": 1 }],
        "abc": [4.8e-7, 0.6739887800000001, 0.74719564],
        "properties": { "magmom": -0.0 },
        "label": "Cr",
        "xyz": [-1.6011781508438696, 2.773317728410494, 3.2695929765700513]
      },
      {
        "species": [{ "element": "Cr", "occu": 1 }],
        "abc": [0.6739925, 1.609999999999999e-6, 0.74719827],
        "properties": { "magmom": 0.0 },
        "label": "Cr",
        "xyz": [3.202392445827133, -6.343501841200008e-6, 3.269625439334387]
      },
      {
        "species": [{ "element": "Cr", "occu": 1 }],
        "abc": [0.32600679, 0.32600853, 0.7471985600000001],
        "properties": { "magmom": -0.0 },
        "label": "Cr",
        "xyz": [0.7744918753648762, 1.3414477572461077, 3.269616349687552]
      },
      {
        "species": [{ "element": "Cr", "occu": 1 }],
        "abc": [0.67399271, 0.67399217, 0.25280197],
        "properties": { "magmom": -0.0 },
        "label": "Cr",
        "xyz": [1.6011976959718328, 2.7733391831066903, 1.106213199486866]
      },
      {
        "species": [{ "element": "Cr", "occu": 1 }],
        "abc": [3.6e-7, 0.32600911, 0.2528022],
        "properties": { "magmom": -0.0 },
        "label": "Cr",
        "xyz": [-0.7744919853204817, 1.3414586093931329, 1.1062146516725344]
      },
      {
        "species": [{ "element": "Cr", "occu": 1 }],
        "abc": [0.326007, -1.3e-7, 0.25280342],
        "properties": { "magmom": 0.0 },
        "label": "Cr",
        "xyz": [1.5489833424832398, -5.016619312100001e-6, 1.1062301257958005]
      },
      {
        "species": [{ "element": "N", "occu": 1 }],
        "abc": [-4e-8, 3.799999999999998e-7, 2.29e-6],
        "properties": { "magmom": 0.0 },
        "label": "N",
        "xyz": [-1.0927959268999994e-6, 1.5635868500999993e-6, 1.00206607026e-5]
      },
      {
        "species": [{ "element": "N", "occu": 1 }],
        "abc": [0.66666971, 0.33333518, 0.50000037],
        "properties": { "magmom": 0.0 },
        "label": "N",
        "xyz": [2.3757003479104037, 1.3715992169910993, 2.1879204157189545]
      },
      {
        "species": [{ "element": "N", "occu": 1 }],
        "abc": [0.3333305, 0.6666663700000001, 0.50000029],
        "properties": { "magmom": 0.0 },
        "label": "N",
        "xyz": [-9.422432741561246e-6, 2.743191220940157, 2.1879097023038128]
      }
    ]
  },
  "task_ids": null,
  "uncorrected_energy_per_atom": null,
  "energy_per_atom": -13.346603106666667,
  "formation_energy_per_atom": -0.254791289583333,
  "energy_above_hull": 0.24466659000000102,
  "is_stable": false,
  "equilibrium_reaction_energy_per_atom": null,
  "decomposes_to": null,
  "xas": null,
  "grain_boundaries": null,
  "band_gap": 0.0,
  "cbm": null,
  "vbm": null,
  "efermi": 7.81057278,
  "is_gap_direct": null,
  "is_metal": null,
  "es_source_calc_id": null,
  "bandstructure": null,
  "dos": null,
  "dos_energy_up": null,
  "dos_energy_down": null,
  "is_magnetic": null,
  "ordering": null,
  "total_magnetization": 8.599999999999999e-6,
  "total_magnetization_normalized_vol": null,
  "total_magnetization_normalized_formula_units": null,
  "num_magnetic_sites": null,
  "num_unique_magnetic_sites": null,
  "types_of_magnetic_species": null,
  "bulk_modulus": null,
  "shear_modulus": null,
  "universal_anisotropy": null,
  "homogeneous_poisson": null,
  "e_total": null,
  "e_ionic": null,
  "e_electronic": null,
  "n": null,
  "e_ij_max": null,
  "weighted_surface_energy_EV_PER_ANG2": null,
  "weighted_surface_energy": null,
  "weighted_work_function": null,
  "surface_anisotropy": null,
  "shape_factor": null,
  "has_reconstructed": null,
  "possible_species": null,
  "has_props": null,
  "theoretical": null,
  "database_IDs": null,
  "fields_not_requested": [
    "builder_meta",
    "nsites",
    "elements",
    "nelements",
    "composition",
    "composition_reduced",
    "chemsys",
    "symmetry",
    "property_name",
    "deprecated",
    "deprecation_reasons",
    "last_updated",
    "origins",
    "warnings",
    "task_ids",
    "uncorrected_energy_per_atom",
    "equilibrium_reaction_energy_per_atom",
    "decomposes_to",
    "xas",
    "grain_boundaries",
    "cbm",
    "vbm",
    "is_gap_direct",
    "is_metal",
    "es_source_calc_id",
    "bandstructure",
    "dos",
    "dos_energy_up",
    "dos_energy_down",
    "is_magnetic",
    "ordering",
    "total_magnetization_normalized_vol",
    "total_magnetization_normalized_formula_units",
    "num_magnetic_sites",
    "num_unique_magnetic_sites",
    "types_of_magnetic_species",
    "bulk_modulus",
    "shear_modulus",
    "universal_anisotropy",
    "homogeneous_poisson",
    "e_total",
    "e_ionic",
    "e_electronic",
    "n",
    "e_ij_max",
    "weighted_surface_energy_EV_PER_ANG2",
    "weighted_surface_energy",
    "weighted_work_function",
    "surface_anisotropy",
    "shape_factor",
    "has_reconstructed",
    "possible_species",
    "has_props",
    "theoretical",
    "database_IDs"
  ]
}
