{"builder_meta": null, "nsites": null, "elements": null, "nelements": null, "composition": null, "composition_reduced": null, "formula_pretty": "Cr2O3", "formula_anonymous": "A2B3", "chemsys": null, "volume": 97.6733691397389, "density": 5.16795927428444, "density_atomic": 9.767336913973889, "symmetry": null, "property_name": null, "material_id": "mp-19399", "deprecated": null, "deprecation_reasons": null, "last_updated": null, "origins": null, "warnings": null, "structure": {"@module": "pymatgen.core.structure", "@class": "Structure", "charge": 0, "lattice": {"matrix": [[4.40663491, -0.02005076, 3.0361795], [1.58456567, 4.11193155, 3.03617965], [-0.02935055, -0.020045280000000002, 5.35124461]], "pbc": [true, true, true], "a": 5.3513754511552944, "b": 5.351375178540753, "c": 5.351362643672136, "alpha": 55.74690511707356, "beta": 55.746915200656915, "gamma": 55.74667374080043, "volume": 97.6733691397389}, "properties": {}, "sites": [{"species": [{"element": "Cr", "occu": 1}], "abc": [0.8498564200000001, 0.8498561, 0.84985664], "properties": {"magmom": 2.922}, "label": "Cr", "xyz": [5.0667160095545585, 3.460474229129417, 9.708423200668467]}, {"species": [{"element": "Cr", "occu": 1}], "abc": [0.6501439, 0.65014323, 0.65014446], "properties": {"magmom": 2.922}, "label": "Cr", "xyz": [3.8760593516240096, 2.647276252410394, 7.426987263037681]}, {"species": [{"element": "Cr", "occu": 1}], "abc": [0.1501431, 0.15014369, 0.15014429], "properties": {"magmom": 2.922}, "label": "Cr", "xyz": [0.8951315452058838, 0.6113604083472124, 1.7151834410251354]}, {"species": [{"element": "Cr", "occu": 1}], "abc": [0.34985583000000003, 0.34985636000000003, 0.34985649], "properties": {"magmom": 2.922}, "label": "Cr", "xyz": [2.085788811029617, 1.4245575580683603, 3.996619516042578]}, {"species": [{"element": "O", "occu": 1}], "abc": [0.05169148, 0.74999902, 0.44830795], "properties": {"magmom": -0.006}, "label": "O", "xyz": [1.4030500950413376, 3.0739217209635807, 4.833081875002252]}, {"species": [{"element": "O", "occu": 1}], "abc": [0.749997999999999, 0.44830991000000003, 0.05169236], "properties": {"magmom": -0.006}, "label": "O", "xyz": [4.0138266629401675, 1.82734544537812, 3.914896441104508]}, {"species": [{"element": "O", "occu": 1}], "abc": [0.44830717000000003, 0.05169318, 0.74999885], "properties": {"magmom": -0.006}, "label": "O", "xyz": [2.035424385379568, 0.18853598134195182, 5.5315181239855]}, {"species": [{"element": "O", "occu": 1}], "abc": [0.94830967, 0.25000027, 0.5516917100000001], "properties": {"magmom": -0.006}, "label": "O", "xyz": [4.558803887526371, 0.9979108533220407, 6.590521401493454]}, {"species": [{"element": "O", "occu": 1}], "abc": [0.5516930800000001, 0.94830703, 0.25000095], "properties": {"magmom": -0.006}, "label": "O", "xyz": [3.926427084908061, 3.8833003911600406, 5.892085962408179]}, {"species": [{"element": "O", "occu": 1}], "abc": [0.25000135, 0.55169121, 0.94830731], "properties": {"magmom": -0.006}, "label": "O", "xyz": [1.9480222871463686, 2.244494689633153, 7.5087069799893005]}]}, "task_ids": null, "uncorrected_energy_per_atom": null, "energy_per_atom": -9.19658336, "formation_energy_per_atom": -2.366587769, "energy_above_hull": 0.0, "is_stable": true, "equilibrium_reaction_energy_per_atom": null, "decomposes_to": null, "xas": null, "grain_boundaries": null, "band_gap": 0.0, "cbm": null, "vbm": null, "efermi": 4.6986161200000005, "is_gap_direct": null, "is_metal": null, "es_source_calc_id": null, "bandstructure": null, "dos": null, "dos_energy_up": null, "dos_energy_down": null, "is_magnetic": null, "ordering": null, "total_magnetization": 11.9999998, "total_magnetization_normalized_vol": null, "total_magnetization_normalized_formula_units": null, "num_magnetic_sites": null, "num_unique_magnetic_sites": null, "types_of_magnetic_species": null, "bulk_modulus": null, "shear_modulus": null, "universal_anisotropy": null, "homogeneous_poisson": null, "e_total": null, "e_ionic": null, "e_electronic": null, "n": null, "e_ij_max": null, "weighted_surface_energy_EV_PER_ANG2": null, "weighted_surface_energy": null, "weighted_work_function": null, "surface_anisotropy": null, "shape_factor": null, "has_reconstructed": null, "possible_species": null, "has_props": null, "theoretical": null, "database_IDs": null, "fields_not_requested": ["builder_meta", "nsites", "elements", "nelements", "composition", "composition_reduced", "chemsys", "symmetry", "property_name", "deprecated", "deprecation_reasons", "last_updated", "origins", "warnings", "task_ids", "uncorrected_energy_per_atom", "equilibrium_reaction_energy_per_atom", "decomposes_to", "xas", "grain_boundaries", "cbm", "vbm", "is_gap_direct", "is_metal", "es_source_calc_id", "bandstructure", "dos", "dos_energy_up", "dos_energy_down", "is_magnetic", "ordering", "total_magnetization_normalized_vol", "total_magnetization_normalized_formula_units", "num_magnetic_sites", "num_unique_magnetic_sites", "types_of_magnetic_species", "bulk_modulus", "shear_modulus", "universal_anisotropy", "homogeneous_poisson", "e_total", "e_ionic", "e_electronic", "n", "e_ij_max", "weighted_surface_energy_EV_PER_ANG2", "weighted_surface_energy", "weighted_work_function", "surface_anisotropy", "shape_factor", "has_reconstructed", "possible_species", "has_props", "theoretical", "database_IDs"]}