{"builder_meta": null, "nsites": null, "elements": null, "nelements": null, "composition": null, "composition_reduced": null, "formula_pretty": "Cr2O5", "formula_anonymous": "A2B5", "chemsys": null, "volume": 419.00987662396113, "density": 2.916601936871951, "density_atomic": 14.964638450855755, "symmetry": null, "property_name": null, "material_id": "mp-776160", "deprecated": null, "deprecation_reasons": null, "last_updated": null, "origins": null, "warnings": null, "structure": {"@module": "pymatgen.core.structure", "@class": "Structure", "charge": 0, "lattice": {"matrix": [[9.285353, 0.0, 0.0], [0.0, 9.047494, 0.0], [0.0, 0.0, 4.987668]], "pbc": [true, true, true], "a": 9.285353, "b": 9.047494, "c": 4.987668, "alpha": 90.0, "beta": 90.0, "gamma": 90.0, "volume": 419.00987662396113}, "properties": {}, "sites": [{"species": [{"element": "Cr", "occu": 1}], "abc": [0.032275, 0.719225999999999, 0.864854999999999], "properties": {"magmom": 0.163}, "label": "Cr", "xyz": [0.299684768075, 6.507192919643992, 4.313609608139996]}, {"species": [{"element": "Cr", "occu": 1}], "abc": [0.157152, 0.410205, 0.133128], "properties": {"magmom": 2.372}, "label": "Cr", "xyz": [1.459211794656, 3.71132727627, 0.663998265504]}, {"species": [{"element": "Cr", "occu": 1}], "abc": [0.342848, 0.589795, 0.633128], "properties": {"magmom": 2.372}, "label": "Cr", "xyz": [3.183464705344, 5.33616672373, 3.157832265504]}, {"species": [{"element": "Cr", "occu": 1}], "abc": [0.467725, 0.280773999999999, 0.364855], "properties": {"magmom": 0.163}, "label": "Cr", "xyz": [4.342991731925, 2.540301080355991, 1.81977560814]}, {"species": [{"element": "Cr", "occu": 1}], "abc": [0.532274999999999, 0.780774, 0.135145], "properties": {"magmom": 0.163}, "label": "Cr", "xyz": [4.9423612680749915, 7.064048080356, 0.6740583918599999]}, {"species": [{"element": "Cr", "occu": 1}], "abc": [0.657152, 0.089795, 0.866872], "properties": {"magmom": 2.372}, "label": "Cr", "xyz": [6.101888294656, 0.81241972373, 4.323669734496]}, {"species": [{"element": "Cr", "occu": 1}], "abc": [0.842847999999999, 0.910204999999999, 0.366872], "properties": {"magmom": 2.372}, "label": "Cr", "xyz": [7.826141205343991, 8.235074276269991, 1.829835734496]}, {"species": [{"element": "Cr", "occu": 1}], "abc": [0.967725, 0.219225999999999, 0.635145], "properties": {"magmom": 0.163}, "label": "Cr", "xyz": [8.985668231925, 1.983445919643991, 3.1678923918599997]}, {"species": [{"element": "O", "occu": 1}], "abc": [0.009509, 0.54527, 0.9693200000000001], "properties": {"magmom": -0.04}, "label": "O", "xyz": [0.08829442167700001, 4.93332705338, 4.83464634576]}, {"species": [{"element": "O", "occu": 1}], "abc": [0.989544, 0.841313, 0.101702], "properties": {"magmom": -0.041}, "label": "O", "xyz": [9.188265349032001, 7.6117743196220005, 0.507255810936]}, {"species": [{"element": "O", "occu": 1}], "abc": [0.069574, 0.24664599999999903, 0.904748999999999], "properties": {"magmom": -0.044}, "label": "O", "xyz": [0.646019149622, 2.2315282051239915, 4.512587635331995]}, {"species": [{"element": "O", "occu": 1}], "abc": [0.219059, 0.557064999999999, 0.343751], "properties": {"magmom": -0.335}, "label": "O", "xyz": [2.034040142827, 5.0400422451099915, 1.714515862668]}, {"species": [{"element": "O", "occu": 1}], "abc": [0.207223, 0.73592, 0.789497], "properties": {"magmom": -0.042}, "label": "O", "xyz": [1.924138704719, 6.658231784480001, 3.937748922996]}, {"species": [{"element": "O", "occu": 1}], "abc": [0.292777, 0.26408000000000004, 0.289497], "properties": {"magmom": -0.042}, "label": "O", "xyz": [2.718537795281, 2.3892622155200005, 1.443914922996]}, {"species": [{"element": "O", "occu": 1}], "abc": [0.280941, 0.442934999999999, 0.843750999999999], "properties": {"magmom": -0.335}, "label": "O", "xyz": [2.6086363571730002, 4.007451754889991, 4.208349862667995]}, {"species": [{"element": "O", "occu": 1}], "abc": [0.430426, 0.753354, 0.404748999999999], "properties": {"magmom": -0.044}, "label": "O", "xyz": [3.996657350378, 6.815965794876, 2.0187536353319953]}, {"species": [{"element": "O", "occu": 1}], "abc": [0.510456, 0.158687, 0.601702], "properties": {"magmom": -0.041}, "label": "O", "xyz": [4.739764150968001, 1.435719680378, 3.001089810936]}, {"species": [{"element": "O", "occu": 1}], "abc": [0.490490999999999, 0.45473, 0.46932], "properties": {"magmom": -0.04}, "label": "O", "xyz": [4.554382078322991, 4.11416694662, 2.3408123457600003]}, {"species": [{"element": "O", "occu": 1}], "abc": [0.509509, 0.9547300000000001, 0.030680000000000002], "properties": {"magmom": -0.04}, "label": "O", "xyz": [4.730970921677001, 8.637913946620001, 0.15302165424000003]}, {"species": [{"element": "O", "occu": 1}], "abc": [0.489544, 0.658687, 0.898297999999999], "properties": {"magmom": -0.041}, "label": "O", "xyz": [4.545588849032, 5.959466680378, 4.480412189063996]}, {"species": [{"element": "O", "occu": 1}], "abc": [0.569574, 0.253353999999999, 0.095251], "properties": {"magmom": -0.044}, "label": "O", "xyz": [5.288695649622, 2.2922187948759913, 0.475080364668]}, {"species": [{"element": "O", "occu": 1}], "abc": [0.719059, 0.942935, 0.656249], "properties": {"magmom": -0.335}, "label": "O", "xyz": [6.676716642827, 8.53119875489, 3.273152137332]}, {"species": [{"element": "O", "occu": 1}], "abc": [0.707222999999999, 0.7640800000000001, 0.210503], "properties": {"magmom": -0.042}, "label": "O", "xyz": [6.566815204718991, 6.913009215520001, 1.0499190770040001]}, {"species": [{"element": "O", "occu": 1}], "abc": [0.792777, 0.23592000000000002, 0.710503], "properties": {"magmom": -0.042}, "label": "O", "xyz": [7.361214295281, 2.13448478448, 3.543753077004]}, {"species": [{"element": "O", "occu": 1}], "abc": [0.780941, 0.057065, 0.156249], "properties": {"magmom": -0.335}, "label": "O", "xyz": [7.251312857173001, 0.51629524511, 0.7793181373320001]}, {"species": [{"element": "O", "occu": 1}], "abc": [0.930426, 0.746645999999999, 0.595251], "properties": {"magmom": -0.044}, "label": "O", "xyz": [8.639333850378, 6.755275205123992, 2.968914364668]}, {"species": [{"element": "O", "occu": 1}], "abc": [0.010456, 0.341313, 0.398298], "properties": {"magmom": -0.041}, "label": "O", "xyz": [0.09708765096800001, 3.088027319622, 1.986578189064]}, {"species": [{"element": "O", "occu": 1}], "abc": [0.990491, 0.045270000000000005, 0.53068], "properties": {"magmom": -0.04}, "label": "O", "xyz": [9.197058578323, 0.4095800533800001, 2.6468556542400004]}]}, "task_ids": null, "uncorrected_energy_per_atom": null, "energy_per_atom": -8.014731849642857, "formation_energy_per_atom": -1.722460426071427, "energy_above_hull": 0.057398501928572, "is_stable": false, "equilibrium_reaction_energy_per_atom": null, "decomposes_to": null, "xas": null, "grain_boundaries": null, "band_gap": 0.516, "cbm": null, "vbm": null, "efermi": -1.18450516, "is_gap_direct": null, "is_metal": null, "es_source_calc_id": null, "bandstructure": null, "dos": null, "dos_energy_up": null, "dos_energy_down": null, "is_magnetic": null, "ordering": null, "total_magnetization": 8.0004655, "total_magnetization_normalized_vol": null, "total_magnetization_normalized_formula_units": null, "num_magnetic_sites": null, "num_unique_magnetic_sites": null, "types_of_magnetic_species": null, "bulk_modulus": null, "shear_modulus": null, "universal_anisotropy": null, "homogeneous_poisson": null, "e_total": null, "e_ionic": null, "e_electronic": null, "n": null, "e_ij_max": null, "weighted_surface_energy_EV_PER_ANG2": null, "weighted_surface_energy": null, "weighted_work_function": null, "surface_anisotropy": null, "shape_factor": null, "has_reconstructed": null, "possible_species": null, "has_props": null, "theoretical": null, "database_IDs": null, "fields_not_requested": ["builder_meta", "nsites", "elements", "nelements", "composition", "composition_reduced", "chemsys", "symmetry", "property_name", "deprecated", "deprecation_reasons", "last_updated", "origins", "warnings", "task_ids", "uncorrected_energy_per_atom", "equilibrium_reaction_energy_per_atom", "decomposes_to", "xas", "grain_boundaries", "cbm", "vbm", "is_gap_direct", "is_metal", "es_source_calc_id", "bandstructure", "dos", "dos_energy_up", "dos_energy_down", "is_magnetic", "ordering", "total_magnetization_normalized_vol", "total_magnetization_normalized_formula_units", "num_magnetic_sites", "num_unique_magnetic_sites", "types_of_magnetic_species", "bulk_modulus", "shear_modulus", "universal_anisotropy", "homogeneous_poisson", "e_total", "e_ionic", "e_electronic", "n", "e_ij_max", "weighted_surface_energy_EV_PER_ANG2", "weighted_surface_energy", "weighted_work_function", "surface_anisotropy", "shape_factor", "has_reconstructed", "possible_species", "has_props", "theoretical", "database_IDs"]}