{"builder_meta": null, "nsites": null, "elements": null, "nelements": null, "composition": null, "composition_reduced": null, "formula_pretty": "Cr2P", "formula_anonymous": "AB2", "chemsys": null, "volume": 211.87663185280962, "density": 6.3466060585089235, "density_atomic": 11.770923991822757, "symmetry": null, "property_name": null, "material_id": "mp-29184", "deprecated": null, "deprecation_reasons": null, "last_updated": null, "origins": null, "warnings": null, "structure": {"@module": "pymatgen.core.structure", "@class": "Structure", "charge": 0, "lattice": {"matrix": [[-3.166838, 3.275649, 5.106224], [3.166838, -3.275649, 5.106224], [3.166838, 3.275649, -5.106224]], "pbc": [true, true, true], "a": 6.843410175316177, "b": 6.843410175316177, "c": 6.843410175316177, "alpha": 124.86965098716898, "beta": 122.80449579898537, "gamma": 83.48371945701463, "volume": 211.87663185280962}, "properties": {}, "sites": [{"species": [{"element": "Cr", "occu": 1}], "abc": [0.795091, 0.25784, 0.052931], "properties": {"magmom": -0.456}, "label": "Cr", "xyz": [-1.53376298016, 1.933229078118, 5.106224]}, {"species": [{"element": "Cr", "occu": 1}], "abc": [0.204908999999999, 0.25784, 0.462748999999999], "properties": {"magmom": -0.459}, "label": "Cr", "xyz": [1.6330750198400001, 1.3424199218819934, -4.440892098500626e-16]}, {"species": [{"element": "Cr", "occu": 1}], "abc": [0.833604999999999, 0.997552, 0.580726], "properties": {"magmom": -0.582}, "label": "Cr", "xyz": [2.358258753974003, 1.3652217145709966, 6.3849807825439955]}, {"species": [{"element": "Cr", "occu": 1}], "abc": [0.166395, 0.747120999999999, 0.163946999999999], "properties": {"magmom": -0.581}, "label": "Cr", "xyz": [2.3582587539739936, -1.3652217145710002, 3.827467217456]}, {"species": [{"element": "Cr", "occu": 1}], "abc": [0.416826, 0.997552, 0.163946999999999], "properties": {"magmom": -0.581}, "label": "Cr", "xyz": [2.3582587539739968, -1.3652217145710033, 6.384980782544005]}, {"species": [{"element": "Cr", "occu": 1}], "abc": [0.583174, 0.747120999999999, 0.580726], "properties": {"magmom": -0.584}, "label": "Cr", "xyz": [2.3582587539739968, 1.3652217145710028, 3.827467217455996]}, {"species": [{"element": "Cr", "occu": 1}], "abc": [0.712094, 0.445146, 0.733051], "properties": {"magmom": 1.496}, "label": "Cr", "xyz": [1.476072692314, 3.275645724351, 2.166004052336]}, {"species": [{"element": "Cr", "occu": 1}], "abc": [0.287906, 0.020957, 0.733051], "properties": {"magmom": 1.495}, "label": "Cr", "xyz": [1.476069525476, 3.275649, -2.1659989461120004]}, {"species": [{"element": "Cr", "occu": 1}], "abc": [0.214923, 0.363991, 0.149068], "properties": {"magmom": 0.877}, "label": "Cr", "xyz": [0.9441484139680001, 0.0, 2.1948899615040003]}, {"species": [{"element": "Cr", "occu": 1}], "abc": [0.785076999999999, 0.934145, 0.149068], "properties": {"magmom": 0.877}, "label": "Cr", "xyz": [0.944148413968003, -3.4416913763379853e-15, 8.017558038495995]}, {"species": [{"element": "Cr", "occu": 1}], "abc": [0.5, 0.548814999999999, 0.048815], "properties": {"magmom": 1.5150000000000001}, "label": "Cr", "xyz": [0.309178393939997, 3.1086244689504383e-15, 5.106223999999996]}, {"species": [{"element": "Cr", "occu": 1}], "abc": [0.0, 0.627034, 0.627034], "properties": {"magmom": 0.464}, "label": "Cr", "xyz": [3.9714301969839996, 0.0, 0.0]}, {"species": [{"element": "P", "occu": 1}], "abc": [0.392577, 0.665767, 0.728341999999999], "properties": {"magmom": -0.021}, "label": "P", "xyz": [3.1716895958159963, 1.490918193647997, 1.6850641324480051]}, {"species": [{"element": "P", "occu": 1}], "abc": [0.607422999999999, 0.335765, 0.273189], "properties": {"magmom": -0.021}, "label": "P", "xyz": [0.004848428978003083, 1.7847275307029968, 3.4211649737759946]}, {"species": [{"element": "P", "occu": 1}], "abc": [0.937425, 0.665767, 0.273189], "properties": {"magmom": -0.021}, "label": "P", "xyz": [0.0048484289779999745, 1.7847275307029995, 6.791293238671999]}, {"species": [{"element": "P", "occu": 1}], "abc": [0.062574999999999, 0.335765, 0.728341999999999], "properties": {"magmom": -0.021}, "label": "P", "xyz": [3.171689595816, 1.4909181936479938, -1.6850641324480002]}, {"species": [{"element": "P", "occu": 1}], "abc": [0.5, 0.079923, 0.579923], "properties": {"magmom": 0.008}, "label": "P", "xyz": [0.5062063869479998, 3.2756489999999996, 0.0]}, {"species": [{"element": "P", "occu": 1}], "abc": [0.0, 0.973600999999999, 0.973600999999999], "properties": {"magmom": 0.017}, "label": "P", "xyz": [6.166473287275994, 0.0, 0.0]}]}, "task_ids": null, "uncorrected_energy_per_atom": null, "energy_per_atom": -13.374688433650796, "formation_energy_per_atom": -0.325101402976192, "energy_above_hull": 0.012131757777776002, "is_stable": false, "equilibrium_reaction_energy_per_atom": null, "decomposes_to": null, "xas": null, "grain_boundaries": null, "band_gap": 0.0, "cbm": null, "vbm": null, "efermi": 8.83162023, "is_gap_direct": null, "is_metal": null, "es_source_calc_id": null, "bandstructure": null, "dos": null, "dos_energy_up": null, "dos_energy_down": null, "is_magnetic": null, "ordering": null, "total_magnetization": 3.4906395, "total_magnetization_normalized_vol": null, "total_magnetization_normalized_formula_units": null, "num_magnetic_sites": null, "num_unique_magnetic_sites": null, "types_of_magnetic_species": null, "bulk_modulus": null, "shear_modulus": null, "universal_anisotropy": null, "homogeneous_poisson": null, "e_total": null, "e_ionic": null, "e_electronic": null, "n": null, "e_ij_max": null, "weighted_surface_energy_EV_PER_ANG2": null, "weighted_surface_energy": null, "weighted_work_function": null, "surface_anisotropy": null, "shape_factor": null, "has_reconstructed": null, "possible_species": null, "has_props": null, "theoretical": null, "database_IDs": null, "fields_not_requested": ["builder_meta", "nsites", "elements", "nelements", "composition", "composition_reduced", "chemsys", "symmetry", "property_name", "deprecated", "deprecation_reasons", "last_updated", "origins", "warnings", "task_ids", "uncorrected_energy_per_atom", "equilibrium_reaction_energy_per_atom", "decomposes_to", "xas", "grain_boundaries", "cbm", "vbm", "is_gap_direct", "is_metal", "es_source_calc_id", "bandstructure", "dos", "dos_energy_up", "dos_energy_down", "is_magnetic", "ordering", "total_magnetization_normalized_vol", "total_magnetization_normalized_formula_units", "num_magnetic_sites", "num_unique_magnetic_sites", "types_of_magnetic_species", "bulk_modulus", "shear_modulus", "universal_anisotropy", "homogeneous_poisson", "e_total", "e_ionic", "e_electronic", "n", "e_ij_max", "weighted_surface_energy_EV_PER_ANG2", "weighted_surface_energy", "weighted_work_function", "surface_anisotropy", "shape_factor", "has_reconstructed", "possible_species", "has_props", "theoretical", "database_IDs"]}