{
  "builder_meta": null,
  "nsites": null,
  "elements": null,
  "nelements": null,
  "composition": null,
  "composition_reduced": null,
  "formula_pretty": "Cr2S5",
  "formula_anonymous": "A2B5",
  "chemsys": null,
  "volume": 382.12813551413706,
  "density": 2.2971825195953812,
  "density_atomic": 27.29486682243836,
  "symmetry": null,
  "property_name": null,
  "material_id": "mp-1341046",
  "deprecated": null,
  "deprecation_reasons": null,
  "last_updated": null,
  "origins": null,
  "warnings": null,
  "structure": {
    "@module": "pymatgen.core.structure",
    "@class": "Structure",
    "charge": 0,
    "lattice": {
      "matrix": [
        [4.247657, 7.6e-5, -4.6e-5],
        [0.00013199999999900002, 6.63904, 0.001313],
        [-0.000140999999999, -0.009367, 13.550466]
      ],
      "pbc": [true, true, true],
      "a": 4.2476570009289825,
      "b": 6.639040131147951,
      "c": 13.550469238285663,
      "alpha": 90.02827536873356,
      "beta": 90.00121738686605,
      "gamma": 89.99783579706146,
      "volume": 382.12813551413706
    },
    "properties": {},
    "sites": [
      {
        "species": [{ "element": "Cr", "occu": 1 }],
        "abc": [0.018559, 0.092270999999999, 0.148171],
        "properties": { "magmom": -0.014 },
        "label": "Cr",
        "xyz": [0.07882355392400005, 0.6112043525669935, 2.007906395795]
      },
      {
        "species": [{ "element": "Cr", "occu": 1 }],
        "abc": [0.51858, 0.906546, 0.352855],
        "properties": { "magmom": -0.023 },
        "label": "Cr",
        "xyz": [2.2028198785769995, 6.015329375134999, 4.782516120648]
      },
      {
        "species": [{ "element": "Cr", "occu": 1 }],
        "abc": [0.518573, 0.906215, 0.6478100000000001],
        "properties": { "magmom": 0.023 },
        "label": "Cr",
        "xyz": [2.202748512631, 6.0103690088779995, 8.779293385397]
      },
      {
        "species": [{ "element": "Cr", "occu": 1 }],
        "abc": [0.018601, 0.093918, 0.851955999999999],
        "properties": { "magmom": 0.014 },
        "label": "Cr",
        "xyz": [0.07890293923700076, 0.615546500544, 11.544523270183987]
      },
      {
        "species": [{ "element": "S", "occu": 1 }],
        "abc": [0.518527, 0.985715, 0.185485999999999],
        "properties": { "magmom": 0.001 },
        "label": "S",
        "xyz": [2.2026288020929994, 6.54250327429, 2.5146921280289867]
      },
      {
        "species": [{ "element": "S", "occu": 1 }],
        "abc": [0.018559, 0.015155, 0.316318999999999],
        "properties": { "magmom": 0.001 },
        "label": "S",
        "xyz": [0.0787896657440003, 0.09765310161099999, 4.286288899454987]
      },
      {
        "species": [{ "element": "S", "occu": 1 }],
        "abc": [0.018539, 0.013373, 0.684574999999999],
        "properties": { "magmom": -0.001 },
        "label": "S",
        "xyz": [0.07865255328400067, 0.082372876859, 9.276326967904987]
      },
      {
        "species": [{ "element": "S", "occu": 1 }],
        "abc": [0.5185700000000001, 0.985829, 0.815238],
        "properties": { "magmom": -0.001 },
        "label": "S",
        "xyz": [2.20272267136, 6.537361241134, 11.048125340165]
      },
      {
        "species": [{ "element": "S", "occu": 1 }],
        "abc": [0.018562, 0.393221999999999, 0.858507999999999],
        "properties": { "magmom": -0.001 },
        "label": "S",
        "xyz": [0.07877586491000046, 2.6025763531559933, 11.633698911361986]
      },
      {
        "species": [{ "element": "S", "occu": 1 }],
        "abc": [0.518583, 0.6071700000000001, 0.640421999999999],
        "properties": { "magmom": -0.002 },
        "label": "S",
        "xyz": [2.202752556969, 4.025066496234, 8.678789896043986]
      },
      {
        "species": [{ "element": "S", "occu": 1 }],
        "abc": [0.518519, 0.607171999999999, 0.358498],
        "properties": { "magmom": 0.002 },
        "label": "S",
        "xyz": [2.2025204584689995, 4.027720551557994, 4.8585883250299995]
      },
      {
        "species": [{ "element": "S", "occu": 1 }],
        "abc": [0.518618, 0.029512, 0.500454],
        "properties": { "magmom": 0.0 },
        "label": "S",
        "xyz": [2.2028447095960004, 0.19128301083, 6.781399804392]
      },
      {
        "species": [{ "element": "S", "occu": 1 }],
        "abc": [0.018639, 0.972615, 0.999857],
        "properties": { "magmom": -0.0 },
        "label": "S",
        "xyz": [0.07915948416600004, 6.447865645645, 13.549804469463]
      },
      {
        "species": [{ "element": "S", "occu": 1 }],
        "abc": [0.018564, 0.391287999999999, 0.139849],
        "properties": { "magmom": 0.001 },
        "label": "S",
        "xyz": [0.07888543585499976, 2.5964681288009936, 1.8955320268340001]
      }
    ]
  },
  "task_ids": null,
  "uncorrected_energy_per_atom": null,
  "energy_per_atom": -6.279481161428571,
  "formation_energy_per_atom": -0.56549647892857,
  "energy_above_hull": 0.17897247107142802,
  "is_stable": false,
  "equilibrium_reaction_energy_per_atom": null,
  "decomposes_to": null,
  "xas": null,
  "grain_boundaries": null,
  "band_gap": 0.20270000000000002,
  "cbm": null,
  "vbm": null,
  "efermi": 1.41475073,
  "is_gap_direct": null,
  "is_metal": null,
  "es_source_calc_id": null,
  "bandstructure": null,
  "dos": null,
  "dos_energy_up": null,
  "dos_energy_down": null,
  "is_magnetic": null,
  "ordering": null,
  "total_magnetization": 8.6e-5,
  "total_magnetization_normalized_vol": null,
  "total_magnetization_normalized_formula_units": null,
  "num_magnetic_sites": null,
  "num_unique_magnetic_sites": null,
  "types_of_magnetic_species": null,
  "bulk_modulus": null,
  "shear_modulus": null,
  "universal_anisotropy": null,
  "homogeneous_poisson": null,
  "e_total": null,
  "e_ionic": null,
  "e_electronic": null,
  "n": null,
  "e_ij_max": null,
  "weighted_surface_energy_EV_PER_ANG2": null,
  "weighted_surface_energy": null,
  "weighted_work_function": null,
  "surface_anisotropy": null,
  "shape_factor": null,
  "has_reconstructed": null,
  "possible_species": null,
  "has_props": null,
  "theoretical": null,
  "database_IDs": null,
  "fields_not_requested": [
    "builder_meta",
    "nsites",
    "elements",
    "nelements",
    "composition",
    "composition_reduced",
    "chemsys",
    "symmetry",
    "property_name",
    "deprecated",
    "deprecation_reasons",
    "last_updated",
    "origins",
    "warnings",
    "task_ids",
    "uncorrected_energy_per_atom",
    "equilibrium_reaction_energy_per_atom",
    "decomposes_to",
    "xas",
    "grain_boundaries",
    "cbm",
    "vbm",
    "is_gap_direct",
    "is_metal",
    "es_source_calc_id",
    "bandstructure",
    "dos",
    "dos_energy_up",
    "dos_energy_down",
    "is_magnetic",
    "ordering",
    "total_magnetization_normalized_vol",
    "total_magnetization_normalized_formula_units",
    "num_magnetic_sites",
    "num_unique_magnetic_sites",
    "types_of_magnetic_species",
    "bulk_modulus",
    "shear_modulus",
    "universal_anisotropy",
    "homogeneous_poisson",
    "e_total",
    "e_ionic",
    "e_electronic",
    "n",
    "e_ij_max",
    "weighted_surface_energy_EV_PER_ANG2",
    "weighted_surface_energy",
    "weighted_work_function",
    "surface_anisotropy",
    "shape_factor",
    "has_reconstructed",
    "possible_species",
    "has_props",
    "theoretical",
    "database_IDs"
  ]
}
