{"builder_meta": null, "nsites": null, "elements": null, "nelements": null, "composition": null, "composition_reduced": null, "formula_pretty": "Cr2S3", "formula_anonymous": "A2B3", "chemsys": null, "volume": 176.60390142171053, "density": 3.764567640433815, "density_atomic": 17.660390142171053, "symmetry": null, "property_name": null, "material_id": "mp-555569", "deprecated": null, "deprecation_reasons": null, "last_updated": null, "origins": null, "warnings": null, "structure": {"@module": "pymatgen.core.structure", "@class": "Structure", "charge": 0, "lattice": {"matrix": [[5.89586814, -3.00804891, 0.00877849], [5.8958650200000005, 3.00805385, 0.00878698], [4.35375346, -4.97e-06, 4.98543136]], "pbc": [true, true, true], "a": 6.618889365377392, "b": 6.618888842515559, "c": 6.6188892599709, "alpha": 54.061012245453064, "beta": 54.06101365688034, "gamma": 54.060993370027504, "volume": 176.60390142171056}, "properties": {}, "sites": [{"species": [{"element": "Cr", "occu": 1}], "abc": [0.67806902, 0.67806902, 0.67806902], "properties": {"magmom": 3.027}, "label": "Cr", "xyz": [10.947754289846513, -2.034207057095185e-08, 3.3923771575812065]}, {"species": [{"element": "Cr", "occu": 1}], "abc": [0.5, 0.5, 0.5], "properties": {"magmom": 3.061}, "label": "Cr", "xyz": [8.07274331, -1.4999999912320088e-08, 2.501498415]}, {"species": [{"element": "Cr", "occu": 1}], "abc": [-0.0, -0.0, 0.0], "properties": {"magmom": 2.991}, "label": "Cr", "xyz": [0.0, 0.0, 0.0]}, {"species": [{"element": "Cr", "occu": 1}], "abc": [0.32193098000000003, 0.32193098000000003, 0.32193098000000003], "properties": {"magmom": 3.027}, "label": "Cr", "xyz": [5.197732330153489, -9.65792925368875e-09, 1.6106196724187933]}, {"species": [{"element": "S", "occu": 1}], "abc": [0.59899583, 0.89978315, 0.26743276], "properties": {"magmom": -0.109}, "label": "S", "xyz": [10.00093673392762, 0.9047860858557653, 1.3464323238424372]}, {"species": [{"element": "S", "occu": 1}], "abc": [0.7325672400000001, 0.40100417, 0.10021685], "properties": {"magmom": -0.109}, "label": "S", "xyz": [7.119705766938668, -0.9973564484268987, 0.5095786766027901]}, {"species": [{"element": "S", "occu": 1}], "abc": [0.26743276, 0.59899583, 0.89978315], "properties": {"magmom": -0.109}, "label": "S", "xyz": [9.025780853061333, 0.9973564184268986, 4.493418153397209]}, {"species": [{"element": "S", "occu": 1}], "abc": [0.40100417, 0.10021685, 0.7325672400000001], "properties": {"magmom": -0.109}, "label": "S", "xyz": [6.144549886072381, -0.904786115855765, 3.656564506157563]}, {"species": [{"element": "S", "occu": 1}], "abc": [0.10021685, 0.7325672400000001, 0.40100417], "properties": {"magmom": -0.109}, "label": "S", "xyz": [6.655856190732032, 1.9021425272690158, 2.0064955709108627]}, {"species": [{"element": "S", "occu": 1}], "abc": [0.89978315, 0.26743276, 0.59899583], "properties": {"magmom": -0.109}, "label": "S", "xyz": [9.489630429267969, -1.9021425572690154, 2.996501259089137]}]}, "task_ids": null, "uncorrected_energy_per_atom": null, "energy_per_atom": -7.337035126999998, "formation_energy_per_atom": -0.9928003984999971, "energy_above_hull": 0.0, "is_stable": true, "equilibrium_reaction_energy_per_atom": null, "decomposes_to": null, "xas": null, "grain_boundaries": null, "band_gap": 0.0, "cbm": null, "vbm": null, "efermi": 5.0016666, "is_gap_direct": null, "is_metal": null, "es_source_calc_id": null, "bandstructure": null, "dos": null, "dos_energy_up": null, "dos_energy_down": null, "is_magnetic": null, "ordering": null, "total_magnetization": 12.0, "total_magnetization_normalized_vol": null, "total_magnetization_normalized_formula_units": null, "num_magnetic_sites": null, "num_unique_magnetic_sites": null, "types_of_magnetic_species": null, "bulk_modulus": null, "shear_modulus": null, "universal_anisotropy": null, "homogeneous_poisson": null, "e_total": null, "e_ionic": null, "e_electronic": null, "n": null, "e_ij_max": null, "weighted_surface_energy_EV_PER_ANG2": null, "weighted_surface_energy": null, "weighted_work_function": null, "surface_anisotropy": null, "shape_factor": null, "has_reconstructed": null, "possible_species": null, "has_props": null, "theoretical": null, "database_IDs": null, "fields_not_requested": ["builder_meta", "nsites", "elements", "nelements", "composition", "composition_reduced", "chemsys", "symmetry", "property_name", "deprecated", "deprecation_reasons", "last_updated", "origins", "warnings", "task_ids", "uncorrected_energy_per_atom", "equilibrium_reaction_energy_per_atom", "decomposes_to", "xas", "grain_boundaries", "cbm", "vbm", "is_gap_direct", "is_metal", "es_source_calc_id", "bandstructure", "dos", "dos_energy_up", "dos_energy_down", "is_magnetic", "ordering", "total_magnetization_normalized_vol", "total_magnetization_normalized_formula_units", "num_magnetic_sites", "num_unique_magnetic_sites", "types_of_magnetic_species", "bulk_modulus", "shear_modulus", "universal_anisotropy", "homogeneous_poisson", "e_total", "e_ionic", "e_electronic", "n", "e_ij_max", "weighted_surface_energy_EV_PER_ANG2", "weighted_surface_energy", "weighted_work_function", "surface_anisotropy", "shape_factor", "has_reconstructed", "possible_species", "has_props", "theoretical", "database_IDs"]}