{
  "builder_meta": null,
  "nsites": null,
  "elements": null,
  "nelements": null,
  "composition": null,
  "composition_reduced": null,
  "formula_pretty": "Cr2Se3",
  "formula_anonymous": "A2B3",
  "chemsys": null,
  "volume": 204.47889919757165,
  "density": 5.53633266844788,
  "density_atomic": 20.447889919757166,
  "symmetry": null,
  "property_name": null,
  "material_id": "mp-2832",
  "deprecated": null,
  "deprecation_reasons": null,
  "last_updated": null,
  "origins": null,
  "warnings": null,
  "structure": {
    "@module": "pymatgen.core.structure",
    "@class": "Structure",
    "charge": 0,
    "lattice": {
      "matrix": [
        [5.64581959, 0.014319130000000001, 4.01663104],
        [2.07949403, 5.24902836, 4.01665936],
        [0.02105351, 0.01440569, 6.92875909]
      ],
      "pbc": [true, true, true],
      "a": 6.928838920901771,
      "b": 6.928935456415043,
      "c": 6.928806051654594,
      "alpha": 54.39622130054321,
      "beta": 54.39641615096229,
      "gamma": 54.397609625773605,
      "volume": 204.47889919757165
    },
    "properties": {},
    "sites": [
      {
        "species": [{ "element": "Cr", "occu": 1 }],
        "abc": [0.0, 0.0, -0.0],
        "properties": { "magmom": 3.103 },
        "label": "Cr",
        "xyz": [0.0, 0.0, 0.0]
      },
      {
        "species": [{ "element": "Cr", "occu": 1 }],
        "abc": [0.5, 0.5, 0.5],
        "properties": { "magmom": 3.179 },
        "label": "Cr",
        "xyz": [3.873183565, 2.6388765899999997, 7.481024745]
      },
      {
        "species": [{ "element": "Cr", "occu": 1 }],
        "abc": [0.32427277, 0.32428832, 0.32427003],
        "properties": { "magmom": 3.138 },
        "label": "Cr",
        "xyz": [2.5119682051275993, 1.711513225974316, 4.851828707252529]
      },
      {
        "species": [{ "element": "Cr", "occu": 1 }],
        "abc": [0.67572723, 0.67571168, 0.67572997],
        "properties": { "magmom": 3.138 },
        "label": "Cr",
        "xyz": [5.234398924872401, 3.5662399540256837, 10.110220782747472]
      },
      {
        "species": [{ "element": "Se", "occu": 1 }],
        "abc": [0.59559009, 0.9042744500000001, 0.26183434],
        "properties": { "magmom": -0.157 },
        "label": "Se",
        "xyz": [5.24854004988393, 4.758862469532218, 7.838615139560896]
      },
      {
        "species": [{ "element": "Se", "occu": 1 }],
        "abc": [0.26184935, 0.59560735, 0.90425183],
        "properties": { "magmom": -0.157 },
        "label": "Se",
        "xyz": [2.7359537933533105, 3.143135698002424, 9.709447151037754]
      },
      {
        "species": [{ "element": "Se", "occu": 1 }],
        "abc": [0.90427413, 0.26185575, 0.59561219],
        "properties": { "magmom": -0.157 },
        "label": "Se",
        "xyz": [5.662435793928666, 1.3960168813715377, 8.810774264011622]
      },
      {
        "species": [{ "element": "Se", "occu": 1 }],
        "abc": [0.40440991, 0.09572555, 0.7381656600000001],
        "properties": { "magmom": -0.157 },
        "label": "Se",
        "xyz": [2.49782708011607, 0.5188907104677817, 7.123434350439104]
      },
      {
        "species": [{ "element": "Se", "occu": 1 }],
        "abc": [0.73815065, 0.40439265, 0.09574817000000001],
        "properties": { "magmom": -0.157 },
        "label": "Se",
        "xyz": [5.01041333664669, 2.1346174819975756, 5.252602338962246]
      },
      {
        "species": [{ "element": "Se", "occu": 1 }],
        "abc": [0.09572587, 0.7381442500000001, 0.40438781],
        "properties": { "magmom": -0.157 },
        "label": "Se",
        "xyz": [2.083931336071334, 3.881736298628462, 6.151275225988378]
      }
    ]
  },
  "task_ids": null,
  "uncorrected_energy_per_atom": null,
  "energy_per_atom": -6.769194006999998,
  "formation_energy_per_atom": -0.8104281324062481,
  "energy_above_hull": 0.0,
  "is_stable": true,
  "equilibrium_reaction_energy_per_atom": null,
  "decomposes_to": null,
  "xas": null,
  "grain_boundaries": null,
  "band_gap": 0.0,
  "cbm": null,
  "vbm": null,
  "efermi": 3.878459679999999,
  "is_gap_direct": null,
  "is_metal": null,
  "es_source_calc_id": null,
  "bandstructure": null,
  "dos": null,
  "dos_energy_up": null,
  "dos_energy_down": null,
  "is_magnetic": null,
  "ordering": null,
  "total_magnetization": 11.999659,
  "total_magnetization_normalized_vol": null,
  "total_magnetization_normalized_formula_units": null,
  "num_magnetic_sites": null,
  "num_unique_magnetic_sites": null,
  "types_of_magnetic_species": null,
  "bulk_modulus": null,
  "shear_modulus": null,
  "universal_anisotropy": null,
  "homogeneous_poisson": null,
  "e_total": null,
  "e_ionic": null,
  "e_electronic": null,
  "n": null,
  "e_ij_max": null,
  "weighted_surface_energy_EV_PER_ANG2": null,
  "weighted_surface_energy": null,
  "weighted_work_function": null,
  "surface_anisotropy": null,
  "shape_factor": null,
  "has_reconstructed": null,
  "possible_species": null,
  "has_props": null,
  "theoretical": null,
  "database_IDs": null,
  "fields_not_requested": [
    "builder_meta",
    "nsites",
    "elements",
    "nelements",
    "composition",
    "composition_reduced",
    "chemsys",
    "symmetry",
    "property_name",
    "deprecated",
    "deprecation_reasons",
    "last_updated",
    "origins",
    "warnings",
    "task_ids",
    "uncorrected_energy_per_atom",
    "equilibrium_reaction_energy_per_atom",
    "decomposes_to",
    "xas",
    "grain_boundaries",
    "cbm",
    "vbm",
    "is_gap_direct",
    "is_metal",
    "es_source_calc_id",
    "bandstructure",
    "dos",
    "dos_energy_up",
    "dos_energy_down",
    "is_magnetic",
    "ordering",
    "total_magnetization_normalized_vol",
    "total_magnetization_normalized_formula_units",
    "num_magnetic_sites",
    "num_unique_magnetic_sites",
    "types_of_magnetic_species",
    "bulk_modulus",
    "shear_modulus",
    "universal_anisotropy",
    "homogeneous_poisson",
    "e_total",
    "e_ionic",
    "e_electronic",
    "n",
    "e_ij_max",
    "weighted_surface_energy_EV_PER_ANG2",
    "weighted_surface_energy",
    "weighted_work_function",
    "surface_anisotropy",
    "shape_factor",
    "has_reconstructed",
    "possible_species",
    "has_props",
    "theoretical",
    "database_IDs"
  ]
}
