{
  "builder_meta": null,
  "nsites": null,
  "elements": null,
  "nelements": null,
  "composition": null,
  "composition_reduced": null,
  "formula_pretty": "Cr2Te3",
  "formula_anonymous": "A2B3",
  "chemsys": null,
  "volume": 514.8703263584043,
  "density": 6.279930491496003,
  "density_atomic": 25.743516317920218,
  "symmetry": null,
  "property_name": null,
  "material_id": "mp-2750",
  "deprecated": null,
  "deprecation_reasons": null,
  "last_updated": null,
  "origins": null,
  "warnings": null,
  "structure": {
    "@module": "pymatgen.core.structure",
    "@class": "Structure",
    "charge": 0,
    "lattice": {
      "matrix": [
        [3.44795269, -5.97207791, -7.827000000000002e-5],
        [3.44791065, 5.97205364, 0.0001026],
        [4.1420000000000013e-5, 0.00019521, 12.50214796]
      ],
      "pbc": [true, true, true],
      "a": 6.8959475289270005,
      "b": 6.8959054909378965,
      "c": 12.50214796159263,
      "alpha": 89.99827785123107,
      "beta": 90.00133017243444,
      "gamma": 120.00060605103546,
      "volume": 514.8703263584043
    },
    "properties": {},
    "sites": [
      {
        "species": [{ "element": "Cr", "occu": 1 }],
        "abc": [0.33334702, 0.6666557200000001, 0.24995829],
        "properties": { "magmom": 3.416 },
        "label": "Cr",
        "xyz": [3.447944464456274, 1.990578139104284, 3.125057833214205]
      },
      {
        "species": [{ "element": "Cr", "occu": 1 }],
        "abc": [0.66664447, 0.33333604, 0.75000086],
        "properties": { "magmom": 3.416 },
        "label": "Cr",
        "xyz": [3.4479025409905715, -1.9904055944175918, 9.376603743862283]
      },
      {
        "species": [{ "element": "Cr", "occu": 1 }],
        "abc": [5.1e-7, -9.649999999999996e-6, 6.389000000000001e-5],
        "properties": { "magmom": 3.297 },
        "label": "Cr",
        "xyz": [
          -3.151123557679998e-5, -6.066360539319998e-5, 0.0007987612031567002
        ]
      },
      {
        "species": [{ "element": "Cr", "occu": 1 }],
        "abc": [5.1e-7, 2.76e-6, 0.49990439000000003],
        "properties": { "magmom": 3.296 },
        "label": "Cr",
        "xyz": [3.198072909970001e-5, 0.0001110234442842, 6.249878649876803]
      },
      {
        "species": [{ "element": "Cr", "occu": 1 }],
        "abc": [0.33334289, 0.66666647, 0.9914598],
        "properties": { "magmom": 3.317 },
        "label": "Cr",
        "xyz": [3.4479980024436956, 1.990811751872449, 12.39541942522383]
      },
      {
        "species": [{ "element": "Cr", "occu": 1 }],
        "abc": [0.33331877, 0.66668032, 0.50852286],
        "properties": { "magmom": 3.317 },
        "label": "Cr",
        "xyz": [3.4479425881392602, 1.9909442372144945, 6.35767034930307]
      },
      {
        "species": [{ "element": "Cr", "occu": 1 }],
        "abc": [0.66666437, 0.33332237000000003, 0.00860195],
        "properties": { "magmom": 3.317 },
        "label": "Cr",
        "xyz": [3.4478933135676653, -1.9907508052224803, 0.10752487069944411]
      },
      {
        "species": [{ "element": "Cr", "occu": 1 }],
        "abc": [0.66667572, 0.33333668, 0.49141023],
        "properties": { "magmom": 3.317 },
        "label": "Cr",
        "xyz": [3.448001785351056, -1.9906388792148317, 6.1436654241523945]
      },
      {
        "species": [{ "element": "Te", "occu": 1 }],
        "abc": [0.32873254, 0.99213683, 0.37891251000000004],
        "properties": { "magmom": -0.251 },
        "label": "Te",
        "xyz": [4.554269082553936, 3.9619519940584462, 4.737296327257832]
      },
      {
        "species": [{ "element": "Te", "occu": 1 }],
        "abc": [0.00787969, 0.33660632, 0.37892791000000003],
        "properties": { "magmom": -0.251 },
        "label": "Te",
        "xyz": [1.1877730091112062, 1.9632468465336683, 4.73744671605866]
      },
      {
        "species": [{ "element": "Te", "occu": 1 }],
        "abc": [0.6634015, 0.6712780700000001, 0.37892658],
        "properties": { "magmom": -0.251 },
        "label": "Te",
        "xyz": [4.601899488278423, 0.04709716804249192, 4.737413117831354]
      },
      {
        "species": [{ "element": "Te", "occu": 1 }],
        "abc": [0.00788166, 0.67126135, 0.12111259],
        "properties": { "magmom": -0.251 },
        "label": "Te",
        "xyz": [2.3416297648805204, 3.961762543467377, 1.5142357745157984]
      },
      {
        "species": [{ "element": "Te", "occu": 1 }],
        "abc": [0.66343361, 0.99213943, 0.121096],
        "properties": { "magmom": -0.251 },
        "label": "Te",
        "xyz": [5.70830082301416, 1.9630563264366305, 1.5140099759210233]
      },
      {
        "species": [{ "element": "Te", "occu": 1 }],
        "abc": [0.32872871, 0.33655754, 0.12111062],
        "properties": { "magmom": -0.251 },
        "label": "Te",
        "xyz": [2.2938663828304113, 0.04676985645677979, 1.5141516919748077]
      },
      {
        "species": [{ "element": "Te", "occu": 1 }],
        "abc": [0.67129341, 0.00786077, 0.62107515],
        "properties": { "magmom": -0.251 },
        "label": "Te",
        "xyz": [2.3417168763216862, -3.961950364817839, 7.764721683958996]
      },
      {
        "species": [{ "element": "Te", "occu": 1 }],
        "abc": [0.9921445600000001, 0.66346452, 0.6210702100000001],
        "properties": { "magmom": -0.251 },
        "label": "Te",
        "xyz": [5.708459613654102, -1.9627976695101232, 7.764702075273314]
      },
      {
        "species": [{ "element": "Te", "occu": 1 }],
        "abc": [0.33658219, 0.328712499999999, 0.62104987],
        "properties": { "magmom": -0.251 },
        "label": "Te",
        "xyz": [2.293916520840328, -0.04688514451480601, 7.764464746893254]
      },
      {
        "species": [{ "element": "Te", "occu": 1 }],
        "abc": [0.99212522, 0.32870723, 0.87893749],
        "properties": { "magmom": -0.251 },
        "label": "Te",
        "xyz": [4.554190385755678, -3.9618203235126512, 10.98856261929185]
      },
      {
        "species": [{ "element": "Te", "occu": 1 }],
        "abc": [0.33652697, 0.00785734, 0.87892559],
        "properties": { "magmom": -0.251 },
        "label": "Te",
        "xyz": [1.187456882833658, -1.962669252644091, 10.988432238207439]
      },
      {
        "species": [{ "element": "Te", "occu": 1 }],
        "abc": [0.67127669, 0.66342841, 0.87893519],
        "properties": { "magmom": -0.251 },
        "label": "Te",
        "xyz": [4.6020085548669325, -0.046715064088566, 10.988593319559053]
      }
    ]
  },
  "task_ids": null,
  "uncorrected_energy_per_atom": null,
  "energy_per_atom": -6.212703754499998,
  "formation_energy_per_atom": -0.46550123049999703,
  "energy_above_hull": 0.0,
  "is_stable": true,
  "equilibrium_reaction_energy_per_atom": null,
  "decomposes_to": null,
  "xas": null,
  "grain_boundaries": null,
  "band_gap": 0.0,
  "cbm": null,
  "vbm": null,
  "efermi": 6.0179574,
  "is_gap_direct": null,
  "is_metal": null,
  "es_source_calc_id": null,
  "bandstructure": null,
  "dos": null,
  "dos_energy_up": null,
  "dos_energy_down": null,
  "is_magnetic": null,
  "ordering": null,
  "total_magnetization": 24.2301785,
  "total_magnetization_normalized_vol": null,
  "total_magnetization_normalized_formula_units": null,
  "num_magnetic_sites": null,
  "num_unique_magnetic_sites": null,
  "types_of_magnetic_species": null,
  "bulk_modulus": null,
  "shear_modulus": null,
  "universal_anisotropy": null,
  "homogeneous_poisson": null,
  "e_total": null,
  "e_ionic": null,
  "e_electronic": null,
  "n": null,
  "e_ij_max": null,
  "weighted_surface_energy_EV_PER_ANG2": null,
  "weighted_surface_energy": null,
  "weighted_work_function": null,
  "surface_anisotropy": null,
  "shape_factor": null,
  "has_reconstructed": null,
  "possible_species": null,
  "has_props": null,
  "theoretical": null,
  "database_IDs": null,
  "fields_not_requested": [
    "builder_meta",
    "nsites",
    "elements",
    "nelements",
    "composition",
    "composition_reduced",
    "chemsys",
    "symmetry",
    "property_name",
    "deprecated",
    "deprecation_reasons",
    "last_updated",
    "origins",
    "warnings",
    "task_ids",
    "uncorrected_energy_per_atom",
    "equilibrium_reaction_energy_per_atom",
    "decomposes_to",
    "xas",
    "grain_boundaries",
    "cbm",
    "vbm",
    "is_gap_direct",
    "is_metal",
    "es_source_calc_id",
    "bandstructure",
    "dos",
    "dos_energy_up",
    "dos_energy_down",
    "is_magnetic",
    "ordering",
    "total_magnetization_normalized_vol",
    "total_magnetization_normalized_formula_units",
    "num_magnetic_sites",
    "num_unique_magnetic_sites",
    "types_of_magnetic_species",
    "bulk_modulus",
    "shear_modulus",
    "universal_anisotropy",
    "homogeneous_poisson",
    "e_total",
    "e_ionic",
    "e_electronic",
    "n",
    "e_ij_max",
    "weighted_surface_energy_EV_PER_ANG2",
    "weighted_surface_energy",
    "weighted_work_function",
    "surface_anisotropy",
    "shape_factor",
    "has_reconstructed",
    "possible_species",
    "has_props",
    "theoretical",
    "database_IDs"
  ]
}
