{
  "builder_meta": null,
  "nsites": null,
  "elements": null,
  "nelements": null,
  "composition": null,
  "composition_reduced": null,
  "formula_pretty": "Cr3B4",
  "formula_anonymous": "A3B4",
  "chemsys": null,
  "volume": 54.97859452546413,
  "density": 6.01748772106826,
  "density_atomic": 7.854084932209162,
  "symmetry": null,
  "property_name": null,
  "material_id": "mp-889",
  "deprecated": null,
  "deprecation_reasons": null,
  "last_updated": null,
  "origins": null,
  "warnings": null,
  "structure": {
    "@module": "pymatgen.core.structure",
    "@class": "Structure",
    "charge": 0,
    "lattice": {
      "matrix": [
        [2.8555566900000002, -0.0, -0.63128687],
        [-0.13977261, 2.82485782, -0.63224532],
        [0.00696071, 0.036484960000000004, 6.8055300800000005]
      ],
      "pbc": [true, true, true],
      "a": 2.9245045942925367,
      "b": 2.8981187398695845,
      "c": 6.805631438270422,
      "alpha": 102.29691338220354,
      "beta": 102.40726951673253,
      "gamma": 90.0000029908735,
      "volume": 54.97859452546414
    },
    "properties": {},
    "sites": [
      {
        "species": [{ "element": "Cr", "occu": 1 }],
        "abc": [0.18578468, 0.18592222, 0.37156835],
        "properties": { "magmom": 0.0 },
        "label": "Cr",
        "xyz": [0.5071182314566435, 0.5387604934657764, 2.293887700090806]
      },
      {
        "species": [{ "element": "Cr", "occu": 1 }],
        "abc": [0.81421532, 0.81407778, 0.62843165],
        "properties": { "magmom": 0.0 },
        "label": "Cr",
        "xyz": [2.2156265585433563, 2.3225822865342236, 3.2481101899091946]
      },
      {
        "species": [{ "element": "Cr", "occu": 1 }],
        "abc": [0.5, 0.0, -0.0],
        "properties": { "magmom": 0.0 },
        "label": "Cr",
        "xyz": [1.4277783450000001, 0.0, -0.315643435]
      },
      {
        "species": [{ "element": "B", "occu": 1 }],
        "abc": [0.93359505, 0.43345906, 0.86718909],
        "properties": { "magmom": -0.0 },
        "label": "B",
        "xyz": [2.6113841384046923, 1.2560995745519357, 5.038262677984235]
      },
      {
        "species": [{ "element": "B", "occu": 1 }],
        "abc": [0.06640495, 0.56654094, 0.13281091],
        "properties": { "magmom": -0.0 },
        "label": "B",
        "xyz": [0.11136065159530822, 1.6052432054480643, 0.5037352120157657]
      },
      {
        "species": [{ "element": "B", "occu": 1 }],
        "abc": [0.35961505, 0.35937432, 0.7192311100000001],
        "properties": { "magmom": -0.0 },
        "label": "B",
        "xyz": [0.9816768343584975, 1.041422476438288, 4.440515962309214]
      },
      {
        "species": [{ "element": "B", "occu": 1 }],
        "abc": [0.6403849500000001, 0.64062568, 0.28076889],
        "properties": { "magmom": -0.0 },
        "label": "B",
        "xyz": [1.741067955641503, 1.819920303561712, 1.101481927690787]
      }
    ]
  },
  "task_ids": null,
  "uncorrected_energy_per_atom": null,
  "energy_per_atom": -11.005135618571428,
  "formation_energy_per_atom": -0.34721505285714105,
  "energy_above_hull": 0.02892977904762,
  "is_stable": false,
  "equilibrium_reaction_energy_per_atom": null,
  "decomposes_to": null,
  "xas": null,
  "grain_boundaries": null,
  "band_gap": 0.0,
  "cbm": null,
  "vbm": null,
  "efermi": 8.69411673,
  "is_gap_direct": null,
  "is_metal": null,
  "es_source_calc_id": null,
  "bandstructure": null,
  "dos": null,
  "dos_energy_up": null,
  "dos_energy_down": null,
  "is_magnetic": null,
  "ordering": null,
  "total_magnetization": 0.0005884,
  "total_magnetization_normalized_vol": null,
  "total_magnetization_normalized_formula_units": null,
  "num_magnetic_sites": null,
  "num_unique_magnetic_sites": null,
  "types_of_magnetic_species": null,
  "bulk_modulus": null,
  "shear_modulus": null,
  "universal_anisotropy": null,
  "homogeneous_poisson": null,
  "e_total": null,
  "e_ionic": null,
  "e_electronic": null,
  "n": null,
  "e_ij_max": null,
  "weighted_surface_energy_EV_PER_ANG2": null,
  "weighted_surface_energy": null,
  "weighted_work_function": null,
  "surface_anisotropy": null,
  "shape_factor": null,
  "has_reconstructed": null,
  "possible_species": null,
  "has_props": null,
  "theoretical": null,
  "database_IDs": null,
  "fields_not_requested": [
    "builder_meta",
    "nsites",
    "elements",
    "nelements",
    "composition",
    "composition_reduced",
    "chemsys",
    "symmetry",
    "property_name",
    "deprecated",
    "deprecation_reasons",
    "last_updated",
    "origins",
    "warnings",
    "task_ids",
    "uncorrected_energy_per_atom",
    "equilibrium_reaction_energy_per_atom",
    "decomposes_to",
    "xas",
    "grain_boundaries",
    "cbm",
    "vbm",
    "is_gap_direct",
    "is_metal",
    "es_source_calc_id",
    "bandstructure",
    "dos",
    "dos_energy_up",
    "dos_energy_down",
    "is_magnetic",
    "ordering",
    "total_magnetization_normalized_vol",
    "total_magnetization_normalized_formula_units",
    "num_magnetic_sites",
    "num_unique_magnetic_sites",
    "types_of_magnetic_species",
    "bulk_modulus",
    "shear_modulus",
    "universal_anisotropy",
    "homogeneous_poisson",
    "e_total",
    "e_ionic",
    "e_electronic",
    "n",
    "e_ij_max",
    "weighted_surface_energy_EV_PER_ANG2",
    "weighted_surface_energy",
    "weighted_work_function",
    "surface_anisotropy",
    "shape_factor",
    "has_reconstructed",
    "possible_species",
    "has_props",
    "theoretical",
    "database_IDs"
  ]
}
