{"builder_meta": null, "nsites": null, "elements": null, "nelements": null, "composition": null, "composition_reduced": null, "formula_pretty": "Cr3C", "formula_anonymous": "AB3", "chemsys": null, "volume": 153.10486373878803, "density": 7.288309354448249, "density_atomic": 9.569053983674252, "symmetry": null, "property_name": null, "material_id": "mp-1189286", "deprecated": null, "deprecation_reasons": null, "last_updated": null, "origins": null, "warnings": null, "structure": {"@module": "pymatgen.core.structure", "@class": "Structure", "charge": 0, "lattice": {"matrix": [[4.47497499, 3.3870000000000006e-05, -1.6740000000000002e-05], [3.9030000000000004e-05, 5.19040632, -1.0920000000000002e-05], [-2.457e-05, -1.3740000000000002e-05, 6.59169369]], "pbc": [true, true, true], "a": 4.474974990159487, "b": 5.1904063201582336, "c": 6.591693690060111, "alpha": 90.00023997483991, "beta": 90.0004278984693, "gamma": 89.99913549791563, "volume": 153.10486373878803}, "properties": {}, "sites": [{"species": [{"element": "Cr", "occu": 1}], "abc": [0.33925504, 0.67394175, 0.056563340000000004], "properties": {"magmom": -0.0}, "label": "Cr", "xyz": [1.5181827334166882, 3.4980422318997735, 0.37283517279004497]}, {"species": [{"element": "Cr", "occu": 1}], "abc": [0.16074607, 0.17395462, 0.44340809000000003], "properties": {"magmom": -0.0}, "label": "Cr", "xyz": [0.7193305379028365, 0.9028945110834328, 2.92280571847429]}, {"species": [{"element": "Cr", "occu": 1}], "abc": [0.66075036, 0.32606605, 0.55656592], "properties": {"magmom": -0.0}, "label": "Cr", "xyz": [2.956840387166773, 1.6924300190563883, 3.6686974413307523]}, {"species": [{"element": "Cr", "occu": 1}], "abc": [0.8392337, 0.8260372500000001, 0.94349903], "properties": {"magmom": -0.0}, "label": "Cr", "xyz": [3.755558876727863, 4.287484424124167, 6.219233533473213]}, {"species": [{"element": "Cr", "occu": 1}], "abc": [0.6607441900000001, 0.32605157, 0.9434894500000001], "properties": {"magmom": -0.0}, "label": "Cr", "xyz": [2.9568032692947988, 1.6923495454345947, 6.219178832805686]}, {"species": [{"element": "Cr", "occu": 1}], "abc": [0.8392234, 0.82605337, 0.5565636700000001], "properties": {"magmom": -0.0}, "label": "Cr", "xyz": [3.7555222921164244, 4.287573409617031, 3.6686741625197263]}, {"species": [{"element": "Cr", "occu": 1}], "abc": [0.33923272, 0.67393669, 0.44338521000000003], "properties": {"magmom": -0.0}, "label": "Cr", "xyz": [1.5180733475640735, 3.498010652755322, 2.922646452851937]}, {"species": [{"element": "Cr", "occu": 1}], "abc": [0.16075113, 0.17397689, 0.05654848], "properties": {"magmom": -0.0}, "label": "Cr", "xyz": [0.7193626872861018, 0.9030154170546026, 0.37274566799353614]}, {"species": [{"element": "Cr", "occu": 1}], "abc": [0.84451972, 0.52598863, 0.24992475], "properties": {"magmom": 0.0}, "label": "Cr", "xyz": [3.7792190142469235, 2.730119879316993, 1.647407516493875]}, {"species": [{"element": "Cr", "occu": 1}], "abc": [0.6554920200000001, 0.02596635, 0.24993032], "properties": {"magmom": 0.0}, "label": "Cr", "xyz": [2.9333052683232577, 0.1347946746194526, 1.647452856794724]}, {"species": [{"element": "Cr", "occu": 1}], "abc": [0.15548666, 0.47401293, 0.75007511], "properties": {"magmom": 0.0}, "label": "Cr", "xyz": [0.6957989861578385, 2.46031466793488, 4.944257590545172]}, {"species": [{"element": "Cr", "occu": 1}], "abc": [0.34454511, 0.97404368, 0.75006303], "properties": {"magmom": 0.0}, "label": "Cr", "xyz": [1.541850338052982, 5.055683836504901, 4.944169337711153]}, {"species": [{"element": "C", "occu": 1}], "abc": [0.07063359, 0.87341606, 0.24994382], "properties": {"magmom": 0.0}, "label": "C", "xyz": [0.3161114970130785, 4.533383195945106, 1.647542381038824]}, {"species": [{"element": "C", "occu": 1}], "abc": [0.42940048000000003, 0.37345842, 0.24993733], "properties": {"magmom": 0.0}, "label": "C", "xyz": [1.9215648438159296, 1.938412053080558, 1.647499054726466]}, {"species": [{"element": "C", "occu": 1}], "abc": [0.92935487, 0.12655458, 0.75004942], "properties": {"magmom": 0.0}, "label": "C", "xyz": [4.158826310795709, 0.6568908634273617, 4.944079089625622]}, {"species": [{"element": "C", "occu": 1}], "abc": [0.57063294, 0.62653917, 0.7500530400000001], "properties": {"magmom": 0.0}, "label": "C", "xyz": [2.5535741599907826, 3.252001889304463, 4.944103496730166]}]}, "task_ids": null, "uncorrected_energy_per_atom": null, "energy_per_atom": -9.618301383125, "formation_energy_per_atom": -0.071349407500001, "energy_above_hull": 0.012876365752312002, "is_stable": false, "equilibrium_reaction_energy_per_atom": null, "decomposes_to": null, "xas": null, "grain_boundaries": null, "band_gap": 0.0, "cbm": null, "vbm": null, "efermi": 7.90495993, "is_gap_direct": null, "is_metal": null, "es_source_calc_id": null, "bandstructure": null, "dos": null, "dos_energy_up": null, "dos_energy_down": null, "is_magnetic": null, "ordering": null, "total_magnetization": 6.599999999999999e-06, "total_magnetization_normalized_vol": null, "total_magnetization_normalized_formula_units": null, "num_magnetic_sites": null, "num_unique_magnetic_sites": null, "types_of_magnetic_species": null, "bulk_modulus": null, "shear_modulus": null, "universal_anisotropy": null, "homogeneous_poisson": null, "e_total": null, "e_ionic": null, "e_electronic": null, "n": null, "e_ij_max": null, "weighted_surface_energy_EV_PER_ANG2": null, "weighted_surface_energy": null, "weighted_work_function": null, "surface_anisotropy": null, "shape_factor": null, "has_reconstructed": null, "possible_species": null, "has_props": null, "theoretical": null, "database_IDs": null, "fields_not_requested": ["builder_meta", "nsites", "elements", "nelements", "composition", "composition_reduced", "chemsys", "symmetry", "property_name", "deprecated", "deprecation_reasons", "last_updated", "origins", "warnings", "task_ids", "uncorrected_energy_per_atom", "equilibrium_reaction_energy_per_atom", "decomposes_to", "xas", "grain_boundaries", "cbm", "vbm", "is_gap_direct", "is_metal", "es_source_calc_id", "bandstructure", "dos", "dos_energy_up", "dos_energy_down", "is_magnetic", "ordering", "total_magnetization_normalized_vol", "total_magnetization_normalized_formula_units", "num_magnetic_sites", "num_unique_magnetic_sites", "types_of_magnetic_species", "bulk_modulus", "shear_modulus", "universal_anisotropy", "homogeneous_poisson", "e_total", "e_ionic", "e_electronic", "n", "e_ij_max", "weighted_surface_energy_EV_PER_ANG2", "weighted_surface_energy", "weighted_work_function", "surface_anisotropy", "shape_factor", "has_reconstructed", "possible_species", "has_props", "theoretical", "database_IDs"]}