{
  "builder_meta": null,
  "nsites": null,
  "elements": null,
  "nelements": null,
  "composition": null,
  "composition_reduced": null,
  "formula_pretty": "Cr3C2",
  "formula_anonymous": "A2B3",
  "chemsys": null,
  "volume": 172.77345974935122,
  "density": 6.920348522292491,
  "density_atomic": 8.638672987467562,
  "symmetry": null,
  "property_name": null,
  "material_id": "mp-20937",
  "deprecated": null,
  "deprecation_reasons": null,
  "last_updated": null,
  "origins": null,
  "warnings": null,
  "structure": {
    "@module": "pymatgen.core.structure",
    "@class": "Structure",
    "charge": 0,
    "lattice": {
      "matrix": [
        [2.78828942, 1e-8, 1.1e-7],
        [5e-8, 5.44085956, 5.9380000000000004e-5],
        [4.299999999999998e-7, 0.000123199999999, 11.38863471]
      ],
      "pbc": [true, true, true],
      "a": 2.788289420000002,
      "b": 5.440859560324029,
      "c": 11.388634710666384,
      "alpha": 89.99875487567101,
      "beta": 89.9999955763252,
      "gamma": 89.99999926795569,
      "volume": 172.7734597493512
    },
    "properties": {},
    "sites": [
      {
        "species": [{ "element": "Cr", "occu": 1 }],
        "abc": [0.74999817, 0.01327428, 0.59684625],
        "properties": { "magmom": 0.001 },
        "label": "Cr",
        "xyz": [2.091212219737963, 0.07229703219809791, 6.797264790009883]
      },
      {
        "species": [{ "element": "Cr", "occu": 1 }],
        "abc": [0.24999938, 0.98674907, 0.40318263],
        "properties": { "magmom": 0.001 },
        "label": "Cr",
        "xyz": [0.6970708489665439, 5.3688127854306185, 4.591758315146795]
      },
      {
        "species": [{ "element": "Cr", "occu": 1 }],
        "abc": [0.75000111, 0.51325126, 0.9031494600000001],
        "properties": { "magmom": 0.001 },
        "label": "Cr",
        "xyz": [2.091220574018087, 2.7926393001665275, 10.285669847833697]
      },
      {
        "species": [{ "element": "Cr", "occu": 1 }],
        "abc": [0.25000061, 0.48674251, 0.09684232],
        "properties": { "magmom": 0.001 },
        "label": "Cr",
        "xyz": [0.6970741218358694, 2.6483095722657257, 1.102930737219238]
      },
      {
        "species": [{ "element": "Cr", "occu": 1 }],
        "abc": [0.25000028, 0.81325347, 0.77405059],
        "properties": { "magmom": -0.0 },
        "label": "Cr",
        "xyz": [0.6970735092254648, 4.424893282485364, 8.815427735061059]
      },
      {
        "species": [{ "element": "Cr", "occu": 1 }],
        "abc": [0.74999918, 0.18675806, 0.22591728],
        "properties": { "magmom": -0.0 },
        "label": "Cr",
        "xyz": [2.0912148850850087, 1.0161522166669412, 2.5729005487903014]
      },
      {
        "species": [{ "element": "Cr", "occu": 1 }],
        "abc": [0.25000048, 0.31318499, 0.7259339],
        "properties": { "magmom": -0.0 },
        "label": "Cr",
        "xyz": [0.6970740211897481, 1.7040849844464885, 8.267414635130429]
      },
      {
        "species": [{ "element": "Cr", "occu": 1 }],
        "abc": [0.7500002100000001, 0.68681692, 0.27407881],
        "properties": { "magmom": -0.0 },
        "label": "Cr",
        "xyz": [2.091217802735513, 3.736908179161149, 3.121424314530228]
      },
      {
        "species": [{ "element": "Cr", "occu": 1 }],
        "abc": [0.25000119, 0.13259615, 0.9314269],
        "properties": { "magmom": -0.0 },
        "label": "Cr",
        "xyz": [0.6970760802077842, 0.7215517846407848, 10.607688624227217]
      },
      {
        "species": [{ "element": "Cr", "occu": 1 }],
        "abc": [0.75000085, 0.86737993, 0.06854778],
        "properties": { "magmom": -0.0 },
        "label": "Cr",
        "xyz": [2.091219507890549, 4.719300836879135, 0.7807172141217806]
      },
      {
        "species": [{ "element": "Cr", "occu": 1 }],
        "abc": [0.24999958, 0.63266065, 0.56853701],
        "properties": { "magmom": -0.0 },
        "label": "Cr",
        "xyz": [0.6970714600223904, 3.4422877920479413, 6.474897920894968]
      },
      {
        "species": [{ "element": "Cr", "occu": 1 }],
        "abc": [0.74999807, 0.36736559, 0.43149129],
        "properties": { "magmom": -0.0 },
        "label": "Cr",
        "xyz": [2.0912118875109535, 1.9988377495934486, 4.914118579025198]
      },
      {
        "species": [{ "element": "C", "occu": 1 }],
        "abc": [0.75000027, 0.59937635, 0.70293891],
        "properties": { "magmom": -0.0 },
        "label": "C",
        "xyz": [2.0912181500706923, 3.26120915350912, 8.005550142903259]
      },
      {
        "species": [{ "element": "C", "occu": 1 }],
        "abc": [0.24999938, 0.40062456, 0.29706495],
        "properties": { "magmom": -0.0 },
        "label": "C",
        "xyz": [0.6970707740297161, 2.1797785681486275, 3.3831880172807187]
      },
      {
        "species": [{ "element": "C", "occu": 1 }],
        "abc": [0.75000106, 0.0993546, 0.79708076],
        "properties": { "magmom": -0.0 },
        "label": "C",
        "xyz": [2.0912203682992416, 0.5406726330896178, 9.077667592185445]
      },
      {
        "species": [{ "element": "C", "occu": 1 }],
        "abc": [0.25000034, 0.90060789, 0.20290456],
        "properties": { "magmom": -0.0 },
        "label": "C",
        "xyz": [0.6970734352977581, 4.900106048459724, 2.3108594204298236]
      },
      {
        "species": [{ "element": "C", "occu": 1 }],
        "abc": [0.25000116, 0.76077398, 0.9518883300000001],
        "properties": { "magmom": -0.0 },
        "label": "C",
        "xyz": [0.6970760367664081, 4.139381657224515, 10.840753677340993]
      },
      {
        "species": [{ "element": "C", "occu": 1 }],
        "abc": [0.75000146, 0.23922279999999901, 0.04810544],
        "properties": { "magmom": -0.0 },
        "label": "C",
        "xyz": [2.0912211685490325, 1.301583592440185, 0.5478695712738471]
      },
      {
        "species": [{ "element": "C", "occu": 1 }],
        "abc": [0.24999858, 0.26077876, 0.54810002],
        "properties": { "magmom": -0.0 },
        "label": "C",
        "xyz": [0.6970686443509702, 1.4189281378133947, 6.242126424866306]
      },
      {
        "species": [{ "element": "C", "occu": 1 }],
        "abc": [0.74999864, 0.73922918, 0.45191381],
        "properties": { "magmom": -0.0 },
        "label": "C",
        "xyz": [2.091213504210786, 4.022097834315339, 5.146725280422904]
      }
    ]
  },
  "task_ids": null,
  "uncorrected_energy_per_atom": null,
  "energy_per_atom": -9.582807752499999,
  "formation_energy_per_atom": -0.09951307349999801,
  "energy_above_hull": 0.0,
  "is_stable": true,
  "equilibrium_reaction_energy_per_atom": null,
  "decomposes_to": null,
  "xas": null,
  "grain_boundaries": null,
  "band_gap": 0.0,
  "cbm": null,
  "vbm": null,
  "efermi": 8.30546813,
  "is_gap_direct": null,
  "is_metal": null,
  "es_source_calc_id": null,
  "bandstructure": null,
  "dos": null,
  "dos_energy_up": null,
  "dos_energy_down": null,
  "is_magnetic": null,
  "ordering": null,
  "total_magnetization": 0.0030153,
  "total_magnetization_normalized_vol": null,
  "total_magnetization_normalized_formula_units": null,
  "num_magnetic_sites": null,
  "num_unique_magnetic_sites": null,
  "types_of_magnetic_species": null,
  "bulk_modulus": null,
  "shear_modulus": null,
  "universal_anisotropy": null,
  "homogeneous_poisson": null,
  "e_total": null,
  "e_ionic": null,
  "e_electronic": null,
  "n": null,
  "e_ij_max": null,
  "weighted_surface_energy_EV_PER_ANG2": null,
  "weighted_surface_energy": null,
  "weighted_work_function": null,
  "surface_anisotropy": null,
  "shape_factor": null,
  "has_reconstructed": null,
  "possible_species": null,
  "has_props": null,
  "theoretical": null,
  "database_IDs": null,
  "fields_not_requested": [
    "builder_meta",
    "nsites",
    "elements",
    "nelements",
    "composition",
    "composition_reduced",
    "chemsys",
    "symmetry",
    "property_name",
    "deprecated",
    "deprecation_reasons",
    "last_updated",
    "origins",
    "warnings",
    "task_ids",
    "uncorrected_energy_per_atom",
    "equilibrium_reaction_energy_per_atom",
    "decomposes_to",
    "xas",
    "grain_boundaries",
    "cbm",
    "vbm",
    "is_gap_direct",
    "is_metal",
    "es_source_calc_id",
    "bandstructure",
    "dos",
    "dos_energy_up",
    "dos_energy_down",
    "is_magnetic",
    "ordering",
    "total_magnetization_normalized_vol",
    "total_magnetization_normalized_formula_units",
    "num_magnetic_sites",
    "num_unique_magnetic_sites",
    "types_of_magnetic_species",
    "bulk_modulus",
    "shear_modulus",
    "universal_anisotropy",
    "homogeneous_poisson",
    "e_total",
    "e_ionic",
    "e_electronic",
    "n",
    "e_ij_max",
    "weighted_surface_energy_EV_PER_ANG2",
    "weighted_surface_energy",
    "weighted_work_function",
    "surface_anisotropy",
    "shape_factor",
    "has_reconstructed",
    "possible_species",
    "has_props",
    "theoretical",
    "database_IDs"
  ]
}
