{
  "builder_meta": null,
  "nsites": null,
  "elements": null,
  "nelements": null,
  "composition": null,
  "composition_reduced": null,
  "formula_pretty": "Cr3Co",
  "formula_anonymous": "AB3",
  "chemsys": null,
  "volume": 91.35723387492737,
  "density": 7.812967261862825,
  "density_atomic": 11.419654234365922,
  "symmetry": null,
  "property_name": null,
  "material_id": "mp-1025503",
  "deprecated": null,
  "deprecation_reasons": null,
  "last_updated": null,
  "origins": null,
  "warnings": null,
  "structure": {
    "@module": "pymatgen.core.structure",
    "@class": "Structure",
    "charge": 0,
    "lattice": {
      "matrix": [
        [2.541363999999999, -4.401771, 0.0],
        [2.541363999999999, 4.401771, 0.0],
        [0.0, 0.0, 4.083369]
      ],
      "pbc": [true, true, true],
      "a": 5.08272750764164,
      "b": 5.08272750764164,
      "c": 4.083369,
      "alpha": 90.0,
      "beta": 90.0,
      "gamma": 119.99999359120329,
      "volume": 91.35723387492733
    },
    "properties": {},
    "sites": [
      {
        "species": [{ "element": "Cr", "occu": 1 }],
        "abc": [0.164791, 0.329582, 0.25],
        "properties": { "magmom": -0.056 },
        "label": "Cr",
        "xyz": [1.2563817447719994, 0.7253722448609999, 1.02084225]
      },
      {
        "species": [{ "element": "Cr", "occu": 1 }],
        "abc": [0.835209, 0.670418, 0.75],
        "properties": { "magmom": -0.057 },
        "label": "Cr",
        "xyz": [3.8263462552279983, -0.725372244861, 3.06252675]
      },
      {
        "species": [{ "element": "Cr", "occu": 1 }],
        "abc": [0.670418, 0.835209, 0.25],
        "properties": { "magmom": -0.10200000000000001 },
        "label": "Cr",
        "xyz": [3.8263462552279983, 0.725372244861, 1.02084225]
      },
      {
        "species": [{ "element": "Cr", "occu": 1 }],
        "abc": [0.329582, 0.164791, 0.75],
        "properties": { "magmom": -0.10300000000000001 },
        "label": "Cr",
        "xyz": [1.2563817447719994, -0.7253722448609999, 3.06252675]
      },
      {
        "species": [{ "element": "Cr", "occu": 1 }],
        "abc": [0.164791, 0.835209, 0.25],
        "properties": { "magmom": -0.05 },
        "label": "Cr",
        "xyz": [2.541363999999999, 2.951026510278, 1.02084225]
      },
      {
        "species": [{ "element": "Cr", "occu": 1 }],
        "abc": [0.835209, 0.164791, 0.75],
        "properties": { "magmom": -0.051000000000000004 },
        "label": "Cr",
        "xyz": [2.541363999999999, -2.951026510278, 3.06252675]
      },
      {
        "species": [{ "element": "Co", "occu": 1 }],
        "abc": [0.333333, 0.666667, 0.75],
        "properties": { "magmom": -0.164 },
        "label": "Co",
        "xyz": [2.541363999999999, 1.467259934514, 3.06252675]
      },
      {
        "species": [{ "element": "Co", "occu": 1 }],
        "abc": [0.666667, 0.333333, 0.25],
        "properties": { "magmom": -0.164 },
        "label": "Co",
        "xyz": [2.541363999999999, -1.467259934514, 1.02084225]
      }
    ]
  },
  "task_ids": null,
  "uncorrected_energy_per_atom": null,
  "energy_per_atom": -14.361440669999999,
  "formation_energy_per_atom": 0.25212390500000104,
  "energy_above_hull": 0.25212390500000104,
  "is_stable": false,
  "equilibrium_reaction_energy_per_atom": null,
  "decomposes_to": null,
  "xas": null,
  "grain_boundaries": null,
  "band_gap": 0.0,
  "cbm": null,
  "vbm": null,
  "efermi": 6.4582972,
  "is_gap_direct": null,
  "is_metal": null,
  "es_source_calc_id": null,
  "bandstructure": null,
  "dos": null,
  "dos_energy_up": null,
  "dos_energy_down": null,
  "is_magnetic": null,
  "ordering": null,
  "total_magnetization": 0.7676674,
  "total_magnetization_normalized_vol": null,
  "total_magnetization_normalized_formula_units": null,
  "num_magnetic_sites": null,
  "num_unique_magnetic_sites": null,
  "types_of_magnetic_species": null,
  "bulk_modulus": null,
  "shear_modulus": null,
  "universal_anisotropy": null,
  "homogeneous_poisson": null,
  "e_total": null,
  "e_ionic": null,
  "e_electronic": null,
  "n": null,
  "e_ij_max": null,
  "weighted_surface_energy_EV_PER_ANG2": null,
  "weighted_surface_energy": null,
  "weighted_work_function": null,
  "surface_anisotropy": null,
  "shape_factor": null,
  "has_reconstructed": null,
  "possible_species": null,
  "has_props": null,
  "theoretical": null,
  "database_IDs": null,
  "fields_not_requested": [
    "builder_meta",
    "nsites",
    "elements",
    "nelements",
    "composition",
    "composition_reduced",
    "chemsys",
    "symmetry",
    "property_name",
    "deprecated",
    "deprecation_reasons",
    "last_updated",
    "origins",
    "warnings",
    "task_ids",
    "uncorrected_energy_per_atom",
    "equilibrium_reaction_energy_per_atom",
    "decomposes_to",
    "xas",
    "grain_boundaries",
    "cbm",
    "vbm",
    "is_gap_direct",
    "is_metal",
    "es_source_calc_id",
    "bandstructure",
    "dos",
    "dos_energy_up",
    "dos_energy_down",
    "is_magnetic",
    "ordering",
    "total_magnetization_normalized_vol",
    "total_magnetization_normalized_formula_units",
    "num_magnetic_sites",
    "num_unique_magnetic_sites",
    "types_of_magnetic_species",
    "bulk_modulus",
    "shear_modulus",
    "universal_anisotropy",
    "homogeneous_poisson",
    "e_total",
    "e_ionic",
    "e_electronic",
    "n",
    "e_ij_max",
    "weighted_surface_energy_EV_PER_ANG2",
    "weighted_surface_energy",
    "weighted_work_function",
    "surface_anisotropy",
    "shape_factor",
    "has_reconstructed",
    "possible_species",
    "has_props",
    "theoretical",
    "database_IDs"
  ]
}
