{"builder_meta": null, "nsites": null, "elements": null, "nelements": null, "composition": null, "composition_reduced": null, "formula_pretty": "Cr3Ga4", "formula_anonymous": "A3B4", "chemsys": null, "volume": 300.4778952550963, "density": 7.209872062285886, "density_atomic": 14.308471202623634, "symmetry": null, "property_name": null, "material_id": "mp-18654", "deprecated": null, "deprecation_reasons": null, "last_updated": null, "origins": null, "warnings": null, "structure": {"@module": "pymatgen.core.structure", "@class": "Structure", "charge": 0, "lattice": {"matrix": [[3.928360999999999, 5.028629, 0.0], [-3.928360999999999, 5.028629, 0.0], [0.0, 2.009501, 7.605391]], "pbc": [true, true, true], "a": 6.381154265958627, "b": 6.381154265958627, "c": 7.866388404590889, "alpha": 78.38648374737076, "beta": 78.38648374737076, "gamma": 75.99385058203345, "volume": 300.4778952550962}, "properties": {}, "sites": [{"species": [{"element": "Cr", "occu": 1}], "abc": [0.0, 0.0, 0.0], "properties": {"magmom": 0.012}, "label": "Cr", "xyz": [0.0, 0.0, 0.0]}, {"species": [{"element": "Cr", "occu": 1}], "abc": [0.50582, 0.50582, 0.662225], "properties": {"magmom": 0.10300000000000001}, "label": "Cr", "xyz": [0.0, 6.4179040412849995, 5.036480054975]}, {"species": [{"element": "Cr", "occu": 1}], "abc": [0.49418000000000006, 0.49418000000000006, 0.337775], "properties": {"magmom": 0.10300000000000001}, "label": "Cr", "xyz": [0.0, 5.648854958715001, 2.568910945025]}, {"species": [{"element": "Cr", "occu": 1}], "abc": [0.230046, 0.230046, 0.33914000000000005], "properties": {"magmom": -0.035}, "label": "Cr", "xyz": [0.0, 2.9951341430080003, 2.5792923037400004]}, {"species": [{"element": "Cr", "occu": 1}], "abc": [0.769953999999999, 0.769953999999999, 0.66086], "properties": {"magmom": -0.035}, "label": "Cr", "xyz": [0.0, 9.07162485699199, 5.02609869626]}, {"species": [{"element": "Cr", "occu": 1}], "abc": [0.960600999999999, 0.331667, 0.142588], "properties": {"magmom": -0.01}, "label": "Cr", "xyz": [2.4706797971739958, 6.784867069159994, 1.084437491908]}, {"species": [{"element": "Cr", "occu": 1}], "abc": [0.668333, 0.039398999999999004, 0.857412], "properties": {"magmom": -0.009000000000000001}, "label": "Cr", "xyz": [2.470679797174003, 5.281891930839994, 6.520953508092]}, {"species": [{"element": "Cr", "occu": 1}], "abc": [0.039398999999999004, 0.668333, 0.857412], "properties": {"magmom": -0.01}, "label": "Cr", "xyz": [-2.470679797174003, 5.281891930839994, 6.520953508092]}, {"species": [{"element": "Cr", "occu": 1}], "abc": [0.331667, 0.960600999999999, 0.142588], "properties": {"magmom": -0.009000000000000001}, "label": "Cr", "xyz": [-2.4706797971739958, 6.784867069159994, 1.084437491908]}, {"species": [{"element": "Ga", "occu": 1}], "abc": [0.287016, 0.287016, 0.902057], "properties": {"magmom": -0.001}, "label": "Ga", "xyz": [0.0, 4.699278405685, 6.860496189287]}, {"species": [{"element": "Ga", "occu": 1}], "abc": [0.712984, 0.712984, 0.097943], "properties": {"magmom": -0.001}, "label": "Ga", "xyz": [0.0, 7.3674805943149995, 0.744894810713]}, {"species": [{"element": "Ga", "occu": 1}], "abc": [0.047715, 0.047715, 0.648423], "properties": {"magmom": 0.001}, "label": "Ga", "xyz": [0.0, 1.782888732393, 4.9315104483929995]}, {"species": [{"element": "Ga", "occu": 1}], "abc": [0.952284999999999, 0.952284999999999, 0.351577], "properties": {"magmom": 0.001}, "label": "Ga", "xyz": [0.0, 10.28387026760699, 2.6738805516069997]}, {"species": [{"element": "Ga", "occu": 1}], "abc": [0.388227, 0.810948, 0.844785], "properties": {"magmom": -0.0}, "label": "Ga", "xyz": [-1.6606006902809998, 7.72780248336, 6.424920235935]}, {"species": [{"element": "Ga", "occu": 1}], "abc": [0.189052, 0.611773, 0.155215], "properties": {"magmom": -0.0}, "label": "Ga", "xyz": [-1.6606006902809995, 4.33895651664, 1.1804707640649998]}, {"species": [{"element": "Ga", "occu": 1}], "abc": [0.611773, 0.189052, 0.155215], "properties": {"magmom": -0.0}, "label": "Ga", "xyz": [1.6606006902809995, 4.33895651664, 1.1804707640649998]}, {"species": [{"element": "Ga", "occu": 1}], "abc": [0.810948, 0.388227, 0.844785], "properties": {"magmom": -0.0}, "label": "Ga", "xyz": [1.6606006902809998, 7.72780248336, 6.424920235935]}, {"species": [{"element": "Ga", "occu": 1}], "abc": [0.151924, 0.544377, 0.559116], "properties": {"magmom": -0.0}, "label": "Ga", "xyz": [-1.5416970595329995, 4.624983562444999, 4.252295794356]}, {"species": [{"element": "Ga", "occu": 1}], "abc": [0.455623, 0.848075999999999, 0.440884], "properties": {"magmom": -0.001}, "label": "Ga", "xyz": [-1.541697059532996, 7.441775437554995, 3.353095205644]}, {"species": [{"element": "Ga", "occu": 1}], "abc": [0.848075999999999, 0.455623, 0.440884], "properties": {"magmom": -0.0}, "label": "Ga", "xyz": [1.541697059532996, 7.441775437554995, 3.353095205644]}, {"species": [{"element": "Ga", "occu": 1}], "abc": [0.544377, 0.151924, 0.559116], "properties": {"magmom": -0.001}, "label": "Ga", "xyz": [1.5416970595329995, 4.624983562444999, 4.252295794356]}]}, "task_ids": null, "uncorrected_energy_per_atom": null, "energy_per_atom": -12.986807202380952, "formation_energy_per_atom": 0.011925793333335, "energy_above_hull": 0.08692408904762, "is_stable": false, "equilibrium_reaction_energy_per_atom": null, "decomposes_to": null, "xas": null, "grain_boundaries": null, "band_gap": 0.0, "cbm": null, "vbm": null, "efermi": 5.27845421, "is_gap_direct": null, "is_metal": null, "es_source_calc_id": null, "bandstructure": null, "dos": null, "dos_energy_up": null, "dos_energy_down": null, "is_magnetic": null, "ordering": null, "total_magnetization": 0.11673889999999901, "total_magnetization_normalized_vol": null, "total_magnetization_normalized_formula_units": null, "num_magnetic_sites": null, "num_unique_magnetic_sites": null, "types_of_magnetic_species": null, "bulk_modulus": null, "shear_modulus": null, "universal_anisotropy": null, "homogeneous_poisson": null, "e_total": null, "e_ionic": null, "e_electronic": null, "n": null, "e_ij_max": null, "weighted_surface_energy_EV_PER_ANG2": null, "weighted_surface_energy": null, "weighted_work_function": null, "surface_anisotropy": null, "shape_factor": null, "has_reconstructed": null, "possible_species": null, "has_props": null, "theoretical": null, "database_IDs": null, "fields_not_requested": ["builder_meta", "nsites", "elements", "nelements", "composition", "composition_reduced", "chemsys", "symmetry", "property_name", "deprecated", "deprecation_reasons", "last_updated", "origins", "warnings", "task_ids", "uncorrected_energy_per_atom", "equilibrium_reaction_energy_per_atom", "decomposes_to", "xas", "grain_boundaries", "cbm", "vbm", "is_gap_direct", "is_metal", "es_source_calc_id", "bandstructure", "dos", "dos_energy_up", "dos_energy_down", "is_magnetic", "ordering", "total_magnetization_normalized_vol", "total_magnetization_normalized_formula_units", "num_magnetic_sites", "num_unique_magnetic_sites", "types_of_magnetic_species", "bulk_modulus", "shear_modulus", "universal_anisotropy", "homogeneous_poisson", "e_total", "e_ionic", "e_electronic", "n", "e_ij_max", "weighted_surface_energy_EV_PER_ANG2", "weighted_surface_energy", "weighted_work_function", "surface_anisotropy", "shape_factor", "has_reconstructed", "possible_species", "has_props", "theoretical", "database_IDs"]}