{
  "builder_meta": null,
  "nsites": null,
  "elements": null,
  "nelements": null,
  "composition": null,
  "composition_reduced": null,
  "formula_pretty": "Cr3N4",
  "formula_anonymous": "A3B4",
  "chemsys": null,
  "volume": 139.06330073286114,
  "density": 5.063296418303881,
  "density_atomic": 9.933092909490082,
  "symmetry": null,
  "property_name": null,
  "material_id": "mp-1014345",
  "deprecated": null,
  "deprecation_reasons": null,
  "last_updated": null,
  "origins": null,
  "warnings": null,
  "structure": {
    "@module": "pymatgen.core.structure",
    "@class": "Structure",
    "charge": 0,
    "lattice": {
      "matrix": [
        [3.818703, -6.614188, 0.0],
        [3.818703, 6.614188, 0.0],
        [0.0, 0.0, 2.752898]
      ],
      "pbc": [true, true, true],
      "a": 7.637406333406192,
      "b": 7.637406333406192,
      "c": 2.752898,
      "alpha": 90.0,
      "beta": 90.0,
      "gamma": 120.00000288815009,
      "volume": 139.06330073286114
    },
    "properties": {},
    "sites": [
      {
        "species": [{ "element": "Cr", "occu": 1 }],
        "abc": [0.523318, 0.654293999999999, 0.75],
        "properties": { "magmom": -0.001 },
        "label": "Cr",
        "xyz": [4.4969504772359965, 0.8662998874879939, 2.0646735]
      },
      {
        "species": [{ "element": "Cr", "occu": 1 }],
        "abc": [0.130974999999999, 0.476682, 0.75],
        "properties": { "magmom": -0.001 },
        "label": "Cr",
        "xyz": [2.320461608870996, 2.2865710909160066, 2.0646735]
      },
      {
        "species": [{ "element": "Cr", "occu": 1 }],
        "abc": [0.345705999999999, 0.869024999999999, 0.75],
        "properties": { "magmom": 0.001 },
        "label": "Cr",
        "xyz": [4.638696913892993, 3.4613302499720002, 2.0646735]
      },
      {
        "species": [{ "element": "Cr", "occu": 1 }],
        "abc": [0.476682, 0.345705999999999, 0.25],
        "properties": { "magmom": 0.001 },
        "label": "Cr",
        "xyz": [3.1404555227639968, -0.8662998874880063, 0.6882245]
      },
      {
        "species": [{ "element": "Cr", "occu": 1 }],
        "abc": [0.869024999999999, 0.523318, 0.25],
        "properties": { "magmom": 0.0 },
        "label": "Cr",
        "xyz": [5.316944391128997, -2.286571090915994, 0.6882245]
      },
      {
        "species": [{ "element": "Cr", "occu": 1 }],
        "abc": [0.654293999999999, 0.130974999999999, 0.25],
        "properties": { "magmom": -0.001 },
        "label": "Cr",
        "xyz": [2.9987090861069925, -3.4613302499720002, 0.6882245]
      },
      {
        "species": [{ "element": "N", "occu": 1 }],
        "abc": [0.638864, 0.951012, 0.75],
        "properties": { "magmom": 0.0 },
        "label": "N",
        "xyz": [6.0712642508279995, 2.0646055558240004, 2.0646735]
      },
      {
        "species": [{ "element": "N", "occu": 1 }],
        "abc": [0.312147, 0.361135999999999, 0.75],
        "properties": { "magmom": 0.0 },
        "label": "N",
        "xyz": [2.5710678119489963, 0.32402245593199375, 2.0646735]
      },
      {
        "species": [{ "element": "N", "occu": 1 }],
        "abc": [0.048988, 0.687852999999999, 0.75],
        "properties": { "magmom": 0.0 },
        "label": "N",
        "xyz": [2.813776937222997, 4.225573216619994, 2.0646735]
      },
      {
        "species": [{ "element": "N", "occu": 1 }],
        "abc": [0.361135999999999, 0.048988, 0.25],
        "properties": { "magmom": -0.0 },
        "label": "N",
        "xyz": [1.5661417491719962, -2.0646055558239937, 0.6882245]
      },
      {
        "species": [{ "element": "N", "occu": 1 }],
        "abc": [0.687852999999999, 0.638864, 0.25],
        "properties": { "magmom": 0.0 },
        "label": "N",
        "xyz": [5.066338188050997, -0.32402245593199375, 0.6882245]
      },
      {
        "species": [{ "element": "N", "occu": 1 }],
        "abc": [0.951012, 0.312147, 0.25],
        "properties": { "magmom": 0.0 },
        "label": "N",
        "xyz": [4.823629062777, -4.225573216620001, 0.6882245]
      },
      {
        "species": [{ "element": "N", "occu": 1 }],
        "abc": [0.666667, 0.333333, 0.75],
        "properties": { "magmom": -0.0 },
        "label": "N",
        "xyz": [3.818703, -2.204733742792, 2.0646735]
      },
      {
        "species": [{ "element": "N", "occu": 1 }],
        "abc": [0.333333, 0.666667, 0.25],
        "properties": { "magmom": -0.0 },
        "label": "N",
        "xyz": [3.818703, 2.204733742792, 0.6882245]
      }
    ]
  },
  "task_ids": null,
  "uncorrected_energy_per_atom": null,
  "energy_per_atom": -12.235247974464288,
  "formation_energy_per_atom": -0.558815138035717,
  "energy_above_hull": 0.08334499285714,
  "is_stable": false,
  "equilibrium_reaction_energy_per_atom": null,
  "decomposes_to": null,
  "xas": null,
  "grain_boundaries": null,
  "band_gap": 0.0,
  "cbm": null,
  "vbm": null,
  "efermi": 5.24254759,
  "is_gap_direct": null,
  "is_metal": null,
  "es_source_calc_id": null,
  "bandstructure": null,
  "dos": null,
  "dos_energy_up": null,
  "dos_energy_down": null,
  "is_magnetic": null,
  "ordering": null,
  "total_magnetization": 0.0014869,
  "total_magnetization_normalized_vol": null,
  "total_magnetization_normalized_formula_units": null,
  "num_magnetic_sites": null,
  "num_unique_magnetic_sites": null,
  "types_of_magnetic_species": null,
  "bulk_modulus": null,
  "shear_modulus": null,
  "universal_anisotropy": null,
  "homogeneous_poisson": null,
  "e_total": null,
  "e_ionic": null,
  "e_electronic": null,
  "n": null,
  "e_ij_max": null,
  "weighted_surface_energy_EV_PER_ANG2": null,
  "weighted_surface_energy": null,
  "weighted_work_function": null,
  "surface_anisotropy": null,
  "shape_factor": null,
  "has_reconstructed": null,
  "possible_species": null,
  "has_props": null,
  "theoretical": null,
  "database_IDs": null,
  "fields_not_requested": [
    "builder_meta",
    "nsites",
    "elements",
    "nelements",
    "composition",
    "composition_reduced",
    "chemsys",
    "symmetry",
    "property_name",
    "deprecated",
    "deprecation_reasons",
    "last_updated",
    "origins",
    "warnings",
    "task_ids",
    "uncorrected_energy_per_atom",
    "equilibrium_reaction_energy_per_atom",
    "decomposes_to",
    "xas",
    "grain_boundaries",
    "cbm",
    "vbm",
    "is_gap_direct",
    "is_metal",
    "es_source_calc_id",
    "bandstructure",
    "dos",
    "dos_energy_up",
    "dos_energy_down",
    "is_magnetic",
    "ordering",
    "total_magnetization_normalized_vol",
    "total_magnetization_normalized_formula_units",
    "num_magnetic_sites",
    "num_unique_magnetic_sites",
    "types_of_magnetic_species",
    "bulk_modulus",
    "shear_modulus",
    "universal_anisotropy",
    "homogeneous_poisson",
    "e_total",
    "e_ionic",
    "e_electronic",
    "n",
    "e_ij_max",
    "weighted_surface_energy_EV_PER_ANG2",
    "weighted_surface_energy",
    "weighted_work_function",
    "surface_anisotropy",
    "shape_factor",
    "has_reconstructed",
    "possible_species",
    "has_props",
    "theoretical",
    "database_IDs"
  ]
}
