{"builder_meta": null, "nsites": null, "elements": null, "nelements": null, "composition": null, "composition_reduced": null, "formula_pretty": "Cr3N2", "formula_anonymous": "A2B3", "chemsys": null, "volume": 135.8523914154843, "density": 6.747220449797423, "density_atomic": 9.05682609436562, "symmetry": null, "property_name": null, "material_id": "mp-1096898", "deprecated": null, "deprecation_reasons": null, "last_updated": null, "origins": null, "warnings": null, "structure": {"@module": "pymatgen.core.structure", "@class": "Structure", "charge": 0, "lattice": {"matrix": [[1.363485, 6.729853, 0.0], [-1.363485, 6.729853, 0.0], [0.0, 1.583602, 7.40255]], "pbc": [true, true, true], "a": 6.866586688219556, "b": 6.866586688219556, "c": 7.570042390693991, "alpha": 78.16888325404834, "beta": 78.16888325404834, "gamma": 22.90647457115407, "volume": 135.8523914154843}, "properties": {}, "sites": [{"species": [{"element": "Cr", "occu": 1}], "abc": [0.872637999999999, 0.872637999999999, 0.262980999999999], "properties": {"magmom": 0.002}, "label": "Cr", "xyz": [0.0, 12.161908161989984, 1.9467300015499927]}, {"species": [{"element": "Cr", "occu": 1}], "abc": [0.127362, 0.127362, 0.737019], "properties": {"magmom": 0.002}, "label": "Cr", "xyz": [0.0, 2.88139983801, 5.45581999845]}, {"species": [{"element": "Cr", "occu": 1}], "abc": [0.168375, 0.168375, 0.049920000000000006], "properties": {"magmom": 0.0}, "label": "Cr", "xyz": [0.0, 2.34533140959, 0.369535296]}, {"species": [{"element": "Cr", "occu": 1}], "abc": [0.831625, 0.831625, 0.95008], "properties": {"magmom": 0.0}, "label": "Cr", "xyz": [0.0, 12.69797659041, 7.033014704]}, {"species": [{"element": "Cr", "occu": 1}], "abc": [0.198605, 0.198605, 0.39064000000000004], "properties": {"magmom": -0.001}, "label": "Cr", "xyz": [0.0, 3.2917831954100003, 2.891732132]}, {"species": [{"element": "Cr", "occu": 1}], "abc": [0.801395, 0.801395, 0.60936], "properties": {"magmom": -0.001}, "label": "Cr", "xyz": [0.0, 11.751524804590002, 4.510817868]}, {"species": [{"element": "Cr", "occu": 1}], "abc": [0.542922, 0.542922, 0.341013], "properties": {"magmom": -0.001}, "label": "Cr", "xyz": [0.0, 7.847599369758001, 2.52436578315]}, {"species": [{"element": "Cr", "occu": 1}], "abc": [0.457078, 0.457078, 0.658987], "properties": {"magmom": -0.001}, "label": "Cr", "xyz": [0.0, 7.195708630242, 4.878184216849999]}, {"species": [{"element": "Cr", "occu": 1}], "abc": [0.5, 0.5, 0.0], "properties": {"magmom": -0.003}, "label": "Cr", "xyz": [0.0, 6.729853, 0.0]}, {"species": [{"element": "N", "occu": 1}], "abc": [0.38526000000000005, 0.38526000000000005, 0.46297699999999903], "properties": {"magmom": 0.0}, "label": "N", "xyz": [0.0, 5.918657636713999, 3.4272103913499925]}, {"species": [{"element": "N", "occu": 1}], "abc": [0.6147400000000001, 0.6147400000000001, 0.537023], "properties": {"magmom": 0.0}, "label": "N", "xyz": [0.0, 9.124650363286001, 3.97533960865]}, {"species": [{"element": "N", "occu": 1}], "abc": [0.290641, 0.290641, 0.15188000000000001], "properties": {"magmom": -0.0}, "label": "N", "xyz": [0.0, 4.152459883305999, 1.124299294]}, {"species": [{"element": "N", "occu": 1}], "abc": [0.709359, 0.709359, 0.8481200000000001], "properties": {"magmom": -0.0}, "label": "N", "xyz": [0.0, 10.890848116694, 6.278250706000001]}, {"species": [{"element": "N", "occu": 1}], "abc": [0.025037, 0.025037, 0.172606999999999], "properties": {"magmom": 0.0}, "label": "N", "xyz": [0.0, 0.6103314495359984, 1.2777319478499927]}, {"species": [{"element": "N", "occu": 1}], "abc": [0.974962999999999, 0.974962999999999, 0.827392999999999], "properties": {"magmom": 0.0}, "label": "N", "xyz": [0.0, 14.432976550463986, 6.124818052149993]}]}, "task_ids": null, "uncorrected_energy_per_atom": null, "energy_per_atom": -13.23017379733333, "formation_energy_per_atom": -0.534668094833332, "energy_above_hull": 0.064681360666668, "is_stable": false, "equilibrium_reaction_energy_per_atom": null, "decomposes_to": null, "xas": null, "grain_boundaries": null, "band_gap": 0.0, "cbm": null, "vbm": null, "efermi": 8.28441228, "is_gap_direct": null, "is_metal": null, "es_source_calc_id": null, "bandstructure": null, "dos": null, "dos_energy_up": null, "dos_energy_down": null, "is_magnetic": null, "ordering": null, "total_magnetization": 0.0006638, "total_magnetization_normalized_vol": null, "total_magnetization_normalized_formula_units": null, "num_magnetic_sites": null, "num_unique_magnetic_sites": null, "types_of_magnetic_species": null, "bulk_modulus": null, "shear_modulus": null, "universal_anisotropy": null, "homogeneous_poisson": null, "e_total": null, "e_ionic": null, "e_electronic": null, "n": null, "e_ij_max": null, "weighted_surface_energy_EV_PER_ANG2": null, "weighted_surface_energy": null, "weighted_work_function": null, "surface_anisotropy": null, "shape_factor": null, "has_reconstructed": null, "possible_species": null, "has_props": null, "theoretical": null, "database_IDs": null, "fields_not_requested": ["builder_meta", "nsites", "elements", "nelements", "composition", "composition_reduced", "chemsys", "symmetry", "property_name", "deprecated", "deprecation_reasons", "last_updated", "origins", "warnings", "task_ids", "uncorrected_energy_per_atom", "equilibrium_reaction_energy_per_atom", "decomposes_to", "xas", "grain_boundaries", "cbm", "vbm", "is_gap_direct", "is_metal", "es_source_calc_id", "bandstructure", "dos", "dos_energy_up", "dos_energy_down", "is_magnetic", "ordering", "total_magnetization_normalized_vol", "total_magnetization_normalized_formula_units", "num_magnetic_sites", "num_unique_magnetic_sites", "types_of_magnetic_species", "bulk_modulus", "shear_modulus", "universal_anisotropy", "homogeneous_poisson", "e_total", "e_ionic", "e_electronic", "n", "e_ij_max", "weighted_surface_energy_EV_PER_ANG2", "weighted_surface_energy", "weighted_work_function", "surface_anisotropy", "shape_factor", "has_reconstructed", "possible_species", "has_props", "theoretical", "database_IDs"]}