{"builder_meta": null, "nsites": null, "elements": null, "nelements": null, "composition": null, "composition_reduced": null, "formula_pretty": "Cr3O8", "formula_anonymous": "A3B8", "chemsys": null, "volume": 327.1868241030999, "density": 2.8825469809946, "density_atomic": 14.872128368322723, "symmetry": null, "property_name": null, "material_id": "mp-2220540", "deprecated": null, "deprecation_reasons": null, "last_updated": null, "origins": null, "warnings": null, "structure": {"@module": "pymatgen.core.structure", "@class": "Structure", "charge": 0, "lattice": {"matrix": [[5.462637, -0.0005700000000000001, 0.024064], [-0.000922, 8.107159, -0.000425], [0.028794, -0.000332, 7.388091]], "pbc": [true, true, true], "a": 5.462690032828606, "b": 8.10715906356783, "c": 7.388147117440272, "alpha": 90.00560366909455, "beta": 89.5243013301716, "gamma": 90.01250770696666, "volume": 327.1868241030999}, "properties": {}, "sites": [{"species": [{"element": "Cr", "occu": 1}], "abc": [0.999958999999999, 5.1e-05, 2.8e-05], "properties": {"magmom": 2.21}, "label": "Cr", "xyz": [5.462413791092995, -0.0001565208169999996, 0.024269858248999975]}, {"species": [{"element": "Cr", "occu": 1}], "abc": [0.996815, 0.6828900000000001, 0.304761], "properties": {"magmom": 0.182}, "label": "Cr", "xyz": [5.453384164809, 5.535628444308001, 2.275299129161]}, {"species": [{"element": "Cr", "occu": 1}], "abc": [0.003201, 0.317079, 0.695164], "properties": {"magmom": 0.182}, "label": "Cr", "xyz": [0.037210106415, 2.5703772495429997, 5.135877162213]}, {"species": [{"element": "Cr", "occu": 1}], "abc": [0.503362, 0.182766999999999, 0.195212], "properties": {"magmom": 0.181}, "label": "Cr", "xyz": [2.755136308748, 1.4813694022289918, 1.454279247485]}, {"species": [{"element": "Cr", "occu": 1}], "abc": [0.496635, 0.817257999999999, 0.80486], "properties": {"magmom": 0.182}, "label": "Cr", "xyz": [2.735358353459, 6.625090254551991, 5.95798261225]}, {"species": [{"element": "Cr", "occu": 1}], "abc": [0.500091, 0.500041, 0.499953], "properties": {"magmom": 2.21}, "label": "Cr", "xyz": [2.745750208847, 4.0534608572529995, 3.705519932122]}, {"species": [{"element": "O", "occu": 1}], "abc": [0.005882999999999, 0.183828, 0.53885], "properties": {"magmom": -0.053}, "label": "O", "xyz": [0.047482850954994535, 1.4901405731419999, 3.9811362769620002]}, {"species": [{"element": "O", "occu": 1}], "abc": [0.998371999999999, 0.777563999999999, 0.099786], "properties": {"magmom": -0.057}, "label": "O", "xyz": [5.4559001510399945, 6.303232779683991, 0.760922407634]}, {"species": [{"element": "O", "occu": 1}], "abc": [0.001676, 0.222423999999999, 0.900177], "properties": {"magmom": -0.057}, "label": "O", "xyz": [0.034870001222, 1.802926919331992, 6.650535393171]}, {"species": [{"element": "O", "occu": 1}], "abc": [0.994046, 0.816112, 0.461097999999999], "properties": {"magmom": -0.053}, "label": "O", "xyz": [5.44263685985, 6.615630055052, 3.4302078592619925]}, {"species": [{"element": "O", "occu": 1}], "abc": [0.256059, 0.059782999999999004, 0.171048], "properties": {"magmom": -0.07100000000000001}, "label": "O", "xyz": [1.403627403769, 0.4844675449309919, 1.269854585369]}, {"species": [{"element": "O", "occu": 1}], "abc": [0.237796999999999, 0.936994999999999, 0.825770999999999], "properties": {"magmom": -0.089}, "label": "O", "xyz": [1.3219120314729944, 7.595957746942991, 6.106195417293993]}, {"species": [{"element": "O", "occu": 1}], "abc": [0.262056, 0.436764, 0.674045999999999], "properties": {"magmom": -0.089}, "label": "O", "xyz": [1.4505225857880002, 3.540542038284, 4.986033677069993]}, {"species": [{"element": "O", "occu": 1}], "abc": [0.244037999999999, 0.559856999999999, 0.328926999999999], "properties": {"magmom": -0.07200000000000001}, "label": "O", "xyz": [1.3420459440899946, 4.538601410838992, 2.4357771995639927]}, {"species": [{"element": "O", "occu": 1}], "abc": [0.501771, 0.27758000000000005, 0.400103], "properties": {"magmom": -0.053}, "label": "O", "xyz": [2.7522574671489997, 2.2499663515540003, 2.967954019217]}, {"species": [{"element": "O", "occu": 1}], "abc": [0.506151, 0.315951, 0.038853], "properties": {"magmom": -0.053}, "label": "O", "xyz": [2.765746606647, 2.5611635879429997, 0.29909523811199995]}, {"species": [{"element": "O", "occu": 1}], "abc": [0.49826000000000004, 0.7224200000000001, 0.599955999999999], "properties": {"magmom": -0.053}, "label": "O", "xyz": [2.738422573444, 5.856290611188, 4.444212624135993]}, {"species": [{"element": "O", "occu": 1}], "abc": [0.493747, 0.684098, 0.961260999999999], "properties": {"magmom": -0.053}, "label": "O", "xyz": [2.724208441717, 5.54549068314, 7.113474528908993]}, {"species": [{"element": "O", "occu": 1}], "abc": [0.7559100000000001, 0.440059, 0.671021], "properties": {"magmom": -0.07100000000000001}, "label": "O", "xyz": [4.148177578946001, 3.5669746347089992, 4.975567404076]}, {"species": [{"element": "O", "occu": 1}], "abc": [0.737858999999999, 0.563206, 0.325714], "properties": {"magmom": -0.09}, "label": "O", "xyz": [4.039515207166995, 4.565471875076, 2.4239211484000003]}, {"species": [{"element": "O", "occu": 1}], "abc": [0.762286999999999, 0.063071, 0.174336], "properties": {"magmom": -0.089}, "label": "O", "xyz": [4.169058850140994, 0.510834242147, 1.306327101769]}, {"species": [{"element": "O", "occu": 1}], "abc": [0.744022, 0.940203, 0.829078], "properties": {"magmom": -0.07100000000000001}, "label": "O", "xyz": [4.08732771078, 7.621675866841, 6.142808269231]}]}, "task_ids": null, "uncorrected_energy_per_atom": null, "energy_per_atom": -7.88349012090909, "formation_energy_per_atom": -1.652323716363635, "energy_above_hull": 0.046632533090909006, "is_stable": false, "equilibrium_reaction_energy_per_atom": null, "decomposes_to": null, "xas": null, "grain_boundaries": null, "band_gap": 0.5890000000000001, "cbm": null, "vbm": null, "efermi": -1.34182993, "is_gap_direct": null, "is_metal": null, "es_source_calc_id": null, "bandstructure": null, "dos": null, "dos_energy_up": null, "dos_energy_down": null, "is_magnetic": null, "ordering": null, "total_magnetization": 3.9995639, "total_magnetization_normalized_vol": null, "total_magnetization_normalized_formula_units": null, "num_magnetic_sites": null, "num_unique_magnetic_sites": null, "types_of_magnetic_species": null, "bulk_modulus": null, "shear_modulus": null, "universal_anisotropy": null, "homogeneous_poisson": null, "e_total": null, "e_ionic": null, "e_electronic": null, "n": null, "e_ij_max": null, "weighted_surface_energy_EV_PER_ANG2": null, "weighted_surface_energy": null, "weighted_work_function": null, "surface_anisotropy": null, "shape_factor": null, "has_reconstructed": null, "possible_species": null, "has_props": null, "theoretical": null, "database_IDs": null, "fields_not_requested": ["builder_meta", "nsites", "elements", "nelements", "composition", "composition_reduced", "chemsys", "symmetry", "property_name", "deprecated", "deprecation_reasons", "last_updated", "origins", "warnings", "task_ids", "uncorrected_energy_per_atom", "equilibrium_reaction_energy_per_atom", "decomposes_to", "xas", "grain_boundaries", "cbm", "vbm", "is_gap_direct", "is_metal", "es_source_calc_id", "bandstructure", "dos", "dos_energy_up", "dos_energy_down", "is_magnetic", "ordering", "total_magnetization_normalized_vol", "total_magnetization_normalized_formula_units", "num_magnetic_sites", "num_unique_magnetic_sites", "types_of_magnetic_species", "bulk_modulus", "shear_modulus", "universal_anisotropy", "homogeneous_poisson", "e_total", "e_ionic", "e_electronic", "n", "e_ij_max", "weighted_surface_energy_EV_PER_ANG2", "weighted_surface_energy", "weighted_work_function", "surface_anisotropy", "shape_factor", "has_reconstructed", "possible_species", "has_props", "theoretical", "database_IDs"]}