{"builder_meta": null, "nsites": null, "elements": null, "nelements": null, "composition": null, "composition_reduced": null, "formula_pretty": "Cr3O7", "formula_anonymous": "A3B7", "chemsys": null, "volume": 627.6761491268829, "density": 2.835844999983811, "density_atomic": 15.691903728172074, "symmetry": null, "property_name": null, "material_id": "mp-1044455", "deprecated": null, "deprecation_reasons": null, "last_updated": null, "origins": null, "warnings": null, "structure": {"@module": "pymatgen.core.structure", "@class": "Structure", "charge": 0, "lattice": {"matrix": [[5.287549, 0.0, 0.0], [0.0, 10.5388, 0.0], [0.0, 0.0, 11.263933]], "pbc": [true, true, true], "a": 5.287549, "b": 10.5388, "c": 11.263933, "alpha": 90.0, "beta": 90.0, "gamma": 90.0, "volume": 627.6761491268829}, "properties": {}, "sites": [{"species": [{"element": "Cr", "occu": 1}], "abc": [0.294738, 0.020072, 0.303047], "properties": {"magmom": 1.448}, "label": "Cr", "xyz": [1.5584416171620001, 0.2115347936, 3.413501103851]}, {"species": [{"element": "Cr", "occu": 1}], "abc": [0.7947379999999991, 0.979927999999999, 0.196953], "properties": {"magmom": 1.448}, "label": "Cr", "xyz": [4.202216117161996, 10.32726520639999, 2.218465396149]}, {"species": [{"element": "Cr", "occu": 1}], "abc": [0.705262, 0.520072, 0.696952999999999], "properties": {"magmom": 1.448}, "label": "Cr", "xyz": [3.729107382838, 5.4809347935999995, 7.850431896148989]}, {"species": [{"element": "Cr", "occu": 1}], "abc": [0.205262, 0.479927999999999, 0.803047], "properties": {"magmom": 1.448}, "label": "Cr", "xyz": [1.085332882838, 5.05786520639999, 9.045467603851]}, {"species": [{"element": "Cr", "occu": 1}], "abc": [0.296222, 0.75, 0.22636799999999901], "properties": {"magmom": 2.039}, "label": "Cr", "xyz": [1.566288339878, 7.9041, 2.549793985343989]}, {"species": [{"element": "Cr", "occu": 1}], "abc": [0.796222, 0.25, 0.273632], "properties": {"magmom": 2.039}, "label": "Cr", "xyz": [4.210062839878, 2.6347, 3.082172514656]}, {"species": [{"element": "Cr", "occu": 1}], "abc": [0.703778, 0.25, 0.773632], "properties": {"magmom": 2.039}, "label": "Cr", "xyz": [3.721260660122, 2.6347, 8.714139014656]}, {"species": [{"element": "Cr", "occu": 1}], "abc": [0.203778, 0.75, 0.726368], "properties": {"magmom": 2.039}, "label": "Cr", "xyz": [1.077486160122, 7.9041, 8.181760485344]}, {"species": [{"element": "Cr", "occu": 1}], "abc": [0.7947379999999991, 0.520072, 0.196953], "properties": {"magmom": 1.448}, "label": "Cr", "xyz": [4.202216117161996, 5.4809347935999995, 2.218465396149]}, {"species": [{"element": "Cr", "occu": 1}], "abc": [0.294738, 0.479927999999999, 0.303047], "properties": {"magmom": 1.448}, "label": "Cr", "xyz": [1.5584416171620001, 5.05786520639999, 3.413501103851]}, {"species": [{"element": "Cr", "occu": 1}], "abc": [0.205262, 0.020072, 0.803047], "properties": {"magmom": 1.448}, "label": "Cr", "xyz": [1.085332882838, 0.2115347936, 9.045467603851]}, {"species": [{"element": "Cr", "occu": 1}], "abc": [0.705262, 0.979927999999999, 0.696952999999999], "properties": {"magmom": 1.448}, "label": "Cr", "xyz": [3.729107382838, 10.32726520639999, 7.850431896148989]}, {"species": [{"element": "O", "occu": 1}], "abc": [0.937028, 0.113605, 0.731125999999999], "properties": {"magmom": -0.056}, "label": "O", "xyz": [4.9545814643720005, 1.197260374, 8.235354278557988]}, {"species": [{"element": "O", "occu": 1}], "abc": [0.43702799999999903, 0.886394999999999, 0.768874], "properties": {"magmom": -0.056}, "label": "O", "xyz": [2.310806964371995, 9.34153962599999, 8.660545221442]}, {"species": [{"element": "O", "occu": 1}], "abc": [0.062972, 0.613605, 0.268874], "properties": {"magmom": -0.056}, "label": "O", "xyz": [0.332967535628, 6.466660374, 3.028578721442]}, {"species": [{"element": "O", "occu": 1}], "abc": [0.562972, 0.386395, 0.231126], "properties": {"magmom": -0.056}, "label": "O", "xyz": [2.9767420356280003, 4.072139626, 2.603387778558]}, {"species": [{"element": "O", "occu": 1}], "abc": [0.062972, 0.886394999999999, 0.268874], "properties": {"magmom": -0.056}, "label": "O", "xyz": [0.332967535628, 9.34153962599999, 3.028578721442]}, {"species": [{"element": "O", "occu": 1}], "abc": [0.562972, 0.113605, 0.231126], "properties": {"magmom": -0.056}, "label": "O", "xyz": [2.9767420356280003, 1.197260374, 2.603387778558]}, {"species": [{"element": "O", "occu": 1}], "abc": [0.937028, 0.386395, 0.731125999999999], "properties": {"magmom": -0.056}, "label": "O", "xyz": [4.9545814643720005, 4.072139626, 8.235354278557988]}, {"species": [{"element": "O", "occu": 1}], "abc": [0.43702799999999903, 0.613605, 0.768874], "properties": {"magmom": -0.056}, "label": "O", "xyz": [2.310806964371995, 6.466660374, 8.660545221442]}, {"species": [{"element": "O", "occu": 1}], "abc": [0.468348, 0.113117, 0.727197], "properties": {"magmom": -0.06}, "label": "O", "xyz": [2.476412999052, 1.1921174396, 8.191098285800999]}, {"species": [{"element": "O", "occu": 1}], "abc": [0.968348, 0.886883, 0.772803], "properties": {"magmom": -0.06}, "label": "O", "xyz": [5.120187499052, 9.3466825604, 8.704801214199]}, {"species": [{"element": "O", "occu": 1}], "abc": [0.531652, 0.613117, 0.272802999999999], "properties": {"magmom": -0.06}, "label": "O", "xyz": [2.811136000948, 6.461517439600001, 3.0728347141989887]}, {"species": [{"element": "O", "occu": 1}], "abc": [0.031652, 0.386884, 0.227196999999999], "properties": {"magmom": -0.06}, "label": "O", "xyz": [0.167361500948, 4.0772930992, 2.559131785800989]}, {"species": [{"element": "O", "occu": 1}], "abc": [0.531652, 0.886883, 0.272802999999999], "properties": {"magmom": -0.06}, "label": "O", "xyz": [2.811136000948, 9.3466825604, 3.0728347141989887]}, {"species": [{"element": "O", "occu": 1}], "abc": [0.031652, 0.113117, 0.227196999999999], "properties": {"magmom": -0.06}, "label": "O", "xyz": [0.167361500948, 1.1921174396, 2.559131785800989]}, {"species": [{"element": "O", "occu": 1}], "abc": [0.468348, 0.386884, 0.727197], "properties": {"magmom": -0.06}, "label": "O", "xyz": [2.476412999052, 4.0772930992, 8.191098285800999]}, {"species": [{"element": "O", "occu": 1}], "abc": [0.968348, 0.613117, 0.772803], "properties": {"magmom": -0.06}, "label": "O", "xyz": [5.120187499052, 6.461517439600001, 8.704801214199]}, {"species": [{"element": "O", "occu": 1}], "abc": [0.190452999999999, 0.75, 0.581982], "properties": {"magmom": -0.202}, "label": "O", "xyz": [1.0070295696969949, 7.9041, 6.555406255206]}, {"species": [{"element": "O", "occu": 1}], "abc": [0.690453, 0.25, 0.918018], "properties": {"magmom": -0.202}, "label": "O", "xyz": [3.650804069697, 2.6347, 10.340493244794]}, {"species": [{"element": "O", "occu": 1}], "abc": [0.809547, 0.25, 0.418018], "properties": {"magmom": -0.202}, "label": "O", "xyz": [4.280519430303, 2.6347, 4.708526744794]}, {"species": [{"element": "O", "occu": 1}], "abc": [0.309546999999999, 0.75, 0.081982], "properties": {"magmom": -0.202}, "label": "O", "xyz": [1.6367449303029948, 7.9041, 0.923439755206]}, {"species": [{"element": "O", "occu": 1}], "abc": [0.214859, 0.442592999999999, 0.938932], "properties": {"magmom": -0.223}, "label": "O", "xyz": [1.136077490591, 4.66439910839999, 10.576067139555999]}, {"species": [{"element": "O", "occu": 1}], "abc": [0.714859, 0.557406, 0.561068], "properties": {"magmom": -0.223}, "label": "O", "xyz": [3.779851990591, 5.8743903528, 6.319832360444]}, {"species": [{"element": "O", "occu": 1}], "abc": [0.785141, 0.942593999999999, 0.061068], "properties": {"magmom": -0.223}, "label": "O", "xyz": [4.151471509409, 9.93380964719999, 0.687865860444]}, {"species": [{"element": "O", "occu": 1}], "abc": [0.285141, 0.057407, 0.438932], "properties": {"magmom": -0.223}, "label": "O", "xyz": [1.5076970094089999, 0.6050008916, 4.944100639556]}, {"species": [{"element": "O", "occu": 1}], "abc": [0.785141, 0.557406, 0.061068], "properties": {"magmom": -0.223}, "label": "O", "xyz": [4.151471509409, 5.8743903528, 0.687865860444]}, {"species": [{"element": "O", "occu": 1}], "abc": [0.285141, 0.442592999999999, 0.438932], "properties": {"magmom": -0.223}, "label": "O", "xyz": [1.5076970094089999, 4.66439910839999, 4.944100639556]}, {"species": [{"element": "O", "occu": 1}], "abc": [0.214859, 0.057407, 0.938932], "properties": {"magmom": -0.223}, "label": "O", "xyz": [1.136077490591, 0.6050008916, 10.576067139555999]}, {"species": [{"element": "O", "occu": 1}], "abc": [0.714859, 0.942593999999999, 0.561068], "properties": {"magmom": -0.223}, "label": "O", "xyz": [3.779851990591, 9.93380964719999, 6.319832360444]}]}, "task_ids": null, "uncorrected_energy_per_atom": null, "energy_per_atom": -8.07848378425, "formation_energy_per_atom": -1.718996839749999, "energy_above_hull": 0.145534851499999, "is_stable": false, "equilibrium_reaction_energy_per_atom": null, "decomposes_to": null, "xas": null, "grain_boundaries": null, "band_gap": 0.239299999999999, "cbm": null, "vbm": null, "efermi": 0.27578546, "is_gap_direct": null, "is_metal": null, "es_source_calc_id": null, "bandstructure": null, "dos": null, "dos_energy_up": null, "dos_energy_down": null, "is_magnetic": null, "ordering": null, "total_magnetization": 16.0000987, "total_magnetization_normalized_vol": null, "total_magnetization_normalized_formula_units": null, "num_magnetic_sites": null, "num_unique_magnetic_sites": null, "types_of_magnetic_species": null, "bulk_modulus": null, "shear_modulus": null, "universal_anisotropy": null, "homogeneous_poisson": null, "e_total": null, "e_ionic": null, "e_electronic": null, "n": null, "e_ij_max": null, "weighted_surface_energy_EV_PER_ANG2": null, "weighted_surface_energy": null, "weighted_work_function": null, "surface_anisotropy": null, "shape_factor": null, "has_reconstructed": null, "possible_species": null, "has_props": null, "theoretical": null, "database_IDs": null, "fields_not_requested": ["builder_meta", "nsites", "elements", "nelements", "composition", "composition_reduced", "chemsys", "symmetry", "property_name", "deprecated", "deprecation_reasons", "last_updated", "origins", "warnings", "task_ids", "uncorrected_energy_per_atom", "equilibrium_reaction_energy_per_atom", "decomposes_to", "xas", "grain_boundaries", "cbm", "vbm", "is_gap_direct", "is_metal", "es_source_calc_id", "bandstructure", "dos", "dos_energy_up", "dos_energy_down", "is_magnetic", "ordering", "total_magnetization_normalized_vol", "total_magnetization_normalized_formula_units", "num_magnetic_sites", "num_unique_magnetic_sites", "types_of_magnetic_species", "bulk_modulus", "shear_modulus", "universal_anisotropy", "homogeneous_poisson", "e_total", "e_ionic", "e_electronic", "n", "e_ij_max", "weighted_surface_energy_EV_PER_ANG2", "weighted_surface_energy", "weighted_work_function", "surface_anisotropy", "shape_factor", "has_reconstructed", "possible_species", "has_props", "theoretical", "database_IDs"]}