{
  "builder_meta": null,
  "nsites": null,
  "elements": null,
  "nelements": null,
  "composition": null,
  "composition_reduced": null,
  "formula_pretty": "Cr3O4",
  "formula_anonymous": "A3B4",
  "chemsys": null,
  "volume": 156.28723262378918,
  "density": 4.674664397321444,
  "density_atomic": 11.163373758842084,
  "symmetry": null,
  "property_name": null,
  "material_id": "mp-756253",
  "deprecated": null,
  "deprecation_reasons": null,
  "last_updated": null,
  "origins": null,
  "warnings": null,
  "structure": {
    "@module": "pymatgen.core.structure",
    "@class": "Structure",
    "charge": 0,
    "lattice": {
      "matrix": [
        [2.821652, -2.974349, -4.171137],
        [0.505035, 6.118325, -0.005992],
        [2.810505, -2.98484, 4.171106]
      ],
      "pbc": [true, true, true],
      "a": 5.84866274080443,
      "b": 6.139136507760191,
      "c": 5.848618079842536,
      "alpha": 118.02027317628885,
      "beta": 90.98834742124085,
      "gamma": 117.80369888109043,
      "volume": 156.28723262378918
    },
    "properties": {},
    "sites": [
      {
        "species": [{ "element": "Cr", "occu": 1 }],
        "abc": [0.500006, 0.500062999999999, 3.7000000000000005e-5],
        "properties": { "magmom": -3.698 },
        "label": "Cr",
        "xyz": [1.6634962358019993, 1.572245169300994, -2.0884355733959996]
      },
      {
        "species": [{ "element": "Cr", "occu": 1 }],
        "abc": [0.500012999999999, 6.7e-5, 6.2e-5],
        "properties": { "magmom": -2.9290000000000003 },
        "label": "Cr",
        "xyz": [1.4110707701309972, -1.4869882988419971, -2.085364517672996]
      },
      {
        "species": [{ "element": "Cr", "occu": 1 }],
        "abc": [0.999884999999999, 0.499932999999999, 0.499994999999999],
        "properties": { "magmom": -3.003 },
        "label": "Cr",
        "xyz": [4.479049620149993, -1.4076594534400004, -2.0881207733109997]
      },
      {
        "species": [{ "element": "Cr", "occu": 1 }],
        "abc": [0.000139, 2.1000000000000002e-5, 9.300000000000001e-5],
        "properties": { "magmom": 3.698 },
        "label": "Cr",
        "xyz": [0.0006641923280000001, -0.000562539806, -0.00019200101699999995]
      },
      {
        "species": [{ "element": "Cr", "occu": 1 }],
        "abc": [0.499801999999999, 0.500127, 0.49997199999999903],
        "properties": { "magmom": 2.9290000000000003 },
        "label": "Cr",
        "xyz": [3.0680227582089943, 0.08101752389700523, -0.0023031668260000693]
      },
      {
        "species": [{ "element": "Cr", "occu": 1 }],
        "abc": [0.500128999999999, 0.999849, 0.499716],
        "properties": { "magmom": 3.003 },
        "label": "Cr",
        "xyz": [3.3206030494029974, 3.138270636464002, -0.007729265984996125]
      },
      {
        "species": [{ "element": "O", "occu": 1 }],
        "abc": [0.288215, 0.053520000000000005, 0.267222],
        "properties": { "magmom": -0.016 },
        "label": "O",
        "xyz": [1.59130067149, -1.3274141575150002, -0.08789365476300004]
      },
      {
        "species": [{ "element": "O", "occu": 1 }],
        "abc": [0.286254, 0.553485, 0.7653700000000001],
        "properties": { "magmom": 0.016 },
        "label": "O",
        "xyz": [3.2383146804330005, 0.2504748231789993, 1.9951182663020004]
      },
      {
        "species": [{ "element": "O", "occu": 1 }],
        "abc": [0.713722, 0.446499, 0.234754],
        "properties": { "magmom": 0.016 },
        "label": "O",
        "xyz": [2.8991500219789996, -0.09173545216300039, -2.000523845998]
      },
      {
        "species": [{ "element": "O", "occu": 1 }],
        "abc": [0.711842, 0.946541, 0.732765999999999],
        "properties": { "magmom": -0.016 },
        "label": "O",
        "xyz": [4.546049243748997, 1.4867896555270024, 0.08158248116999633]
      },
      {
        "species": [{ "element": "O", "occu": 1 }],
        "abc": [0.7643300000000001, 0.047998, 0.269283],
        "properties": { "magmom": -0.008 },
        "label": "O",
        "xyz": [2.9377351610050004, -2.7834834775400004, -2.0652048102280003]
      },
      {
        "species": [{ "element": "O", "occu": 1 }],
        "abc": [0.721187999999999, 0.45194000000000006, 0.716251],
        "properties": { "magmom": 0.008 },
        "label": "O",
        "xyz": [4.276214097230997, -1.5178436409519969, -0.02332313162999622]
      },
      {
        "species": [{ "element": "O", "occu": 1 }],
        "abc": [0.278779, 0.548067, 0.283728],
        "properties": { "magmom": 0.009000000000000001 },
        "label": "O",
        "xyz": [1.8608293028929999, 1.6771833043839997, 0.017350143980999766]
      },
      {
        "species": [{ "element": "O", "occu": 1 }],
        "abc": [0.235695, 0.9518900000000001, 0.73075],
        "properties": { "magmom": -0.008 },
        "label": "O",
        "xyz": [3.1995635630400003, 2.941761366695, 2.059215849405]
      }
    ]
  },
  "task_ids": null,
  "uncorrected_energy_per_atom": null,
  "energy_per_atom": -9.135344967142856,
  "formation_energy_per_atom": -2.1709183342857132,
  "energy_above_hull": 0.082974779047619,
  "is_stable": false,
  "equilibrium_reaction_energy_per_atom": null,
  "decomposes_to": null,
  "xas": null,
  "grain_boundaries": null,
  "band_gap": 1.077,
  "cbm": null,
  "vbm": null,
  "efermi": 3.93504521,
  "is_gap_direct": null,
  "is_metal": null,
  "es_source_calc_id": null,
  "bandstructure": null,
  "dos": null,
  "dos_energy_up": null,
  "dos_energy_down": null,
  "is_magnetic": null,
  "ordering": null,
  "total_magnetization": 0.0,
  "total_magnetization_normalized_vol": null,
  "total_magnetization_normalized_formula_units": null,
  "num_magnetic_sites": null,
  "num_unique_magnetic_sites": null,
  "types_of_magnetic_species": null,
  "bulk_modulus": null,
  "shear_modulus": null,
  "universal_anisotropy": null,
  "homogeneous_poisson": null,
  "e_total": null,
  "e_ionic": null,
  "e_electronic": null,
  "n": null,
  "e_ij_max": null,
  "weighted_surface_energy_EV_PER_ANG2": null,
  "weighted_surface_energy": null,
  "weighted_work_function": null,
  "surface_anisotropy": null,
  "shape_factor": null,
  "has_reconstructed": null,
  "possible_species": null,
  "has_props": null,
  "theoretical": null,
  "database_IDs": null,
  "fields_not_requested": [
    "builder_meta",
    "nsites",
    "elements",
    "nelements",
    "composition",
    "composition_reduced",
    "chemsys",
    "symmetry",
    "property_name",
    "deprecated",
    "deprecation_reasons",
    "last_updated",
    "origins",
    "warnings",
    "task_ids",
    "uncorrected_energy_per_atom",
    "equilibrium_reaction_energy_per_atom",
    "decomposes_to",
    "xas",
    "grain_boundaries",
    "cbm",
    "vbm",
    "is_gap_direct",
    "is_metal",
    "es_source_calc_id",
    "bandstructure",
    "dos",
    "dos_energy_up",
    "dos_energy_down",
    "is_magnetic",
    "ordering",
    "total_magnetization_normalized_vol",
    "total_magnetization_normalized_formula_units",
    "num_magnetic_sites",
    "num_unique_magnetic_sites",
    "types_of_magnetic_species",
    "bulk_modulus",
    "shear_modulus",
    "universal_anisotropy",
    "homogeneous_poisson",
    "e_total",
    "e_ionic",
    "e_electronic",
    "n",
    "e_ij_max",
    "weighted_surface_energy_EV_PER_ANG2",
    "weighted_surface_energy",
    "weighted_work_function",
    "surface_anisotropy",
    "shape_factor",
    "has_reconstructed",
    "possible_species",
    "has_props",
    "theoretical",
    "database_IDs"
  ]
}
