{"builder_meta": null, "nsites": null, "elements": null, "nelements": null, "composition": null, "composition_reduced": null, "formula_pretty": "Cr3Os", "formula_anonymous": "AB3", "chemsys": null, "volume": 98.44132285436926, "density": 11.680237446063979, "density_atomic": 12.305165356796158, "symmetry": null, "property_name": null, "material_id": "mp-416", "deprecated": null, "deprecation_reasons": null, "last_updated": null, "origins": null, "warnings": null, "structure": {"@module": "pymatgen.core.structure", "@class": "Structure", "charge": 0, "lattice": {"matrix": [[4.61735076, 0.0, 0.0], [0.0, 4.6173556300000005, 0.0], [0.0, 0.0, 4.61733355]], "pbc": [true, true, true], "a": 4.61735076, "b": 4.6173556300000005, "c": 4.61733355, "alpha": 90.0, "beta": 90.0, "gamma": 90.0, "volume": 98.4413228543693}, "properties": {}, "sites": [{"species": [{"element": "Cr", "occu": 1}], "abc": [0.25002041, 0.99999779, 0.5], "properties": {"magmom": 0.0}, "label": "Cr", "xyz": [1.1544319301290118, 4.617345425644058, 2.308666775]}, {"species": [{"element": "Cr", "occu": 1}], "abc": [0.74997959, 0.99999779, 0.5], "properties": {"magmom": 0.0}, "label": "Cr", "xyz": [3.4629188298709885, 4.617345425644058, 2.308666775]}, {"species": [{"element": "Cr", "occu": 1}], "abc": [0.999999, 0.50000221, 0.24999707000000002], "properties": {"magmom": 0.0}, "label": "Cr", "xyz": [4.6173461426492395, 2.3086880193559427, 1.1543198587126986]}, {"species": [{"element": "Cr", "occu": 1}], "abc": [0.999999, 0.50000221, 0.7500029300000001], "properties": {"magmom": 0.0}, "label": "Cr", "xyz": [4.6173461426492395, 2.3086880193559427, 3.4630136912873017]}, {"species": [{"element": "Cr", "occu": 1}], "abc": [0.500001, 0.75000895, -0.0], "properties": {"magmom": -0.002}, "label": "Cr", "xyz": [2.30867999735076, 3.463058047832889, 0.0]}, {"species": [{"element": "Cr", "occu": 1}], "abc": [0.500001, 0.24999101, 0.0], "properties": {"magmom": 0.002}, "label": "Cr", "xyz": [2.30867999735076, 1.1542973974728865, 0.0]}, {"species": [{"element": "Os", "occu": 1}], "abc": [0.999997999999999, 0.99999656, 0.999999], "properties": {"magmom": 0.0}, "label": "Os", "xyz": [4.6173415252984755, 4.617339746296634, 4.6173289326664495]}, {"species": [{"element": "Os", "occu": 1}], "abc": [0.500002, 0.50000349, 0.500001], "properties": {"magmom": -0.0}, "label": "Os", "xyz": [2.30868461470152, 2.308693929571149, 2.30867139233355]}]}, "task_ids": null, "uncorrected_energy_per_atom": null, "energy_per_atom": -24.32712896375, "formation_energy_per_atom": 0.22418504125000202, "energy_above_hull": 0.22418504125000202, "is_stable": false, "equilibrium_reaction_energy_per_atom": null, "decomposes_to": null, "xas": null, "grain_boundaries": null, "band_gap": 0.0, "cbm": null, "vbm": null, "efermi": 7.40707988, "is_gap_direct": null, "is_metal": null, "es_source_calc_id": null, "bandstructure": null, "dos": null, "dos_energy_up": null, "dos_energy_down": null, "is_magnetic": null, "ordering": null, "total_magnetization": 0.0001209, "total_magnetization_normalized_vol": null, "total_magnetization_normalized_formula_units": null, "num_magnetic_sites": null, "num_unique_magnetic_sites": null, "types_of_magnetic_species": null, "bulk_modulus": null, "shear_modulus": null, "universal_anisotropy": null, "homogeneous_poisson": null, "e_total": null, "e_ionic": null, "e_electronic": null, "n": null, "e_ij_max": null, "weighted_surface_energy_EV_PER_ANG2": null, "weighted_surface_energy": null, "weighted_work_function": null, "surface_anisotropy": null, "shape_factor": null, "has_reconstructed": null, "possible_species": null, "has_props": null, "theoretical": null, "database_IDs": null, "fields_not_requested": ["builder_meta", "nsites", "elements", "nelements", "composition", "composition_reduced", "chemsys", "symmetry", "property_name", "deprecated", "deprecation_reasons", "last_updated", "origins", "warnings", "task_ids", "uncorrected_energy_per_atom", "equilibrium_reaction_energy_per_atom", "decomposes_to", "xas", "grain_boundaries", "cbm", "vbm", "is_gap_direct", "is_metal", "es_source_calc_id", "bandstructure", "dos", "dos_energy_up", "dos_energy_down", "is_magnetic", "ordering", "total_magnetization_normalized_vol", "total_magnetization_normalized_formula_units", "num_magnetic_sites", "num_unique_magnetic_sites", "types_of_magnetic_species", "bulk_modulus", "shear_modulus", "universal_anisotropy", "homogeneous_poisson", "e_total", "e_ionic", "e_electronic", "n", "e_ij_max", "weighted_surface_energy_EV_PER_ANG2", "weighted_surface_energy", "weighted_work_function", "surface_anisotropy", "shape_factor", "has_reconstructed", "possible_species", "has_props", "theoretical", "database_IDs"]}