{"builder_meta": null, "nsites": null, "elements": null, "nelements": null, "composition": null, "composition_reduced": null, "formula_pretty": "Cr3O5", "formula_anonymous": "A3B5", "chemsys": null, "volume": 109.42735007947488, "density": 3.581031702848683, "density_atomic": 13.67841875993436, "symmetry": null, "property_name": null, "material_id": "mp-1096920", "deprecated": null, "deprecation_reasons": null, "last_updated": null, "origins": null, "warnings": null, "structure": {"@module": "pymatgen.core.structure", "@class": "Structure", "charge": 0, "lattice": {"matrix": [[4.8097900000000005, 0.0, 0.0], [-2.220032, 4.797089, 0.0], [-0.15218399999999901, -2.351792, 4.74266]], "pbc": [true, true, true], "a": 4.8097900000000005, "b": 5.285887338465037, "c": 5.295933294209813, "alpha": 113.01309603422786, "beta": 91.64667885801194, "gamma": 114.83410158661009, "volume": 109.42735007947489}, "properties": {}, "sites": [{"species": [{"element": "Cr", "occu": 1}], "abc": [0.852247, 0.765376, 0.560855], "properties": {"magmom": 2.29}, "label": "Cr", "xyz": [2.3146167287780015, 2.3525624883039997, 2.6599445743]}, {"species": [{"element": "Cr", "occu": 1}], "abc": [0.210783, 0.307519, 0.465947], "properties": {"magmom": 2.976}, "label": "Cr", "xyz": [0.2602102667140006, 0.37938558516699983, 2.20982819902]}, {"species": [{"element": "Cr", "occu": 1}], "abc": [0.271607, 0.623139, 0.016152], "properties": {"magmom": 2.982}, "label": "Cr", "xyz": [-0.07947396388599984, 2.951267097987, 0.07660344431999999]}, {"species": [{"element": "O", "occu": 1}], "abc": [0.111687, 0.872182, 0.282653999999999], "properties": {"magmom": -0.063}, "label": "O", "xyz": [-1.442096350429999, 3.5191912622300023, 1.3405318196399953]}, {"species": [{"element": "O", "occu": 1}], "abc": [0.480637, 0.524824, 0.273671], "properties": {"magmom": -0.079}, "label": "O", "xyz": [1.1049886143980008, 1.8740101689039994, 1.29792850486]}, {"species": [{"element": "O", "occu": 1}], "abc": [0.981912999999999, 0.17841, 0.753111], "properties": {"magmom": -0.088}, "label": "O", "xyz": [4.212107974725996, -0.9153117764220001, 3.57174941526]}, {"species": [{"element": "O", "occu": 1}], "abc": [0.568296, 0.569944, 0.772451], "properties": {"magmom": -0.093}, "label": "O", "xyz": [1.3505358166480013, 0.917428010824, 3.66347245966]}, {"species": [{"element": "O", "occu": 1}], "abc": [0.122520999999999, 0.659161, 0.674236], "properties": {"magmom": -0.137}, "label": "O", "xyz": [-0.9766661639860039, 1.5763911514169997, 3.19767210776]}]}, "task_ids": null, "uncorrected_energy_per_atom": null, "energy_per_atom": -8.59917165875, "formation_energy_per_atom": -1.8868032293750001, "energy_above_hull": 0.360201949374992, "is_stable": false, "equilibrium_reaction_energy_per_atom": null, "decomposes_to": null, "xas": null, "grain_boundaries": null, "band_gap": 0.698399999999999, "cbm": null, "vbm": null, "efermi": 1.67250341, "is_gap_direct": null, "is_metal": null, "es_source_calc_id": null, "bandstructure": null, "dos": null, "dos_energy_up": null, "dos_energy_down": null, "is_magnetic": null, "ordering": null, "total_magnetization": 8.0000754, "total_magnetization_normalized_vol": null, "total_magnetization_normalized_formula_units": null, "num_magnetic_sites": null, "num_unique_magnetic_sites": null, "types_of_magnetic_species": null, "bulk_modulus": null, "shear_modulus": null, "universal_anisotropy": null, "homogeneous_poisson": null, "e_total": null, "e_ionic": null, "e_electronic": null, "n": null, "e_ij_max": null, "weighted_surface_energy_EV_PER_ANG2": null, "weighted_surface_energy": null, "weighted_work_function": null, "surface_anisotropy": null, "shape_factor": null, "has_reconstructed": null, "possible_species": null, "has_props": null, "theoretical": null, "database_IDs": null, "fields_not_requested": ["builder_meta", "nsites", "elements", "nelements", "composition", "composition_reduced", "chemsys", "symmetry", "property_name", "deprecated", "deprecation_reasons", "last_updated", "origins", "warnings", "task_ids", "uncorrected_energy_per_atom", "equilibrium_reaction_energy_per_atom", "decomposes_to", "xas", "grain_boundaries", "cbm", "vbm", "is_gap_direct", "is_metal", "es_source_calc_id", "bandstructure", "dos", "dos_energy_up", "dos_energy_down", "is_magnetic", "ordering", "total_magnetization_normalized_vol", "total_magnetization_normalized_formula_units", "num_magnetic_sites", "num_unique_magnetic_sites", "types_of_magnetic_species", "bulk_modulus", "shear_modulus", "universal_anisotropy", "homogeneous_poisson", "e_total", "e_ionic", "e_electronic", "n", "e_ij_max", "weighted_surface_energy_EV_PER_ANG2", "weighted_surface_energy", "weighted_work_function", "surface_anisotropy", "shape_factor", "has_reconstructed", "possible_species", "has_props", "theoretical", "database_IDs"]}