{
  "builder_meta": null,
  "nsites": null,
  "elements": null,
  "nelements": null,
  "composition": null,
  "composition_reduced": null,
  "formula_pretty": "Cr3O",
  "formula_anonymous": "AB3",
  "chemsys": null,
  "volume": 122.72381634415416,
  "density": 4.654227733984328,
  "density_atomic": 15.34047704301927,
  "symmetry": null,
  "property_name": null,
  "material_id": "mp-714896",
  "deprecated": null,
  "deprecation_reasons": null,
  "last_updated": null,
  "origins": null,
  "warnings": null,
  "structure": {
    "@module": "pymatgen.core.structure",
    "@class": "Structure",
    "charge": 0,
    "lattice": {
      "matrix": [
        [4.956643, -2.746622, 0.0],
        [4.956643, 2.746622, 0.0],
        [3.434659, 0.0, 4.507257]
      ],
      "pbc": [true, true, true],
      "a": 5.666766471307336,
      "b": 5.666766471307336,
      "c": 5.666766989239102,
      "alpha": 57.98425881829576,
      "beta": 57.98425881829576,
      "gamma": 57.98425779808439,
      "volume": 122.72381634415416
    },
    "properties": {},
    "sites": [
      {
        "species": [{ "element": "Cr", "occu": 1 }],
        "abc": [0.409944, 0.75, 0.090056],
        "properties": { "magmom": -4.092 },
        "label": "Cr",
        "xyz": [6.058739958896, 0.934005290832, 0.405905536392]
      },
      {
        "species": [{ "element": "Cr", "occu": 1 }],
        "abc": [0.090056, 0.409944, 0.75],
        "properties": { "magmom": -4.092 },
        "label": "Cr",
        "xyz": [5.05431575, 0.8786114183359999, 3.3804427500000003]
      },
      {
        "species": [{ "element": "Cr", "occu": 1 }],
        "abc": [0.75, 0.090056, 0.409944],
        "properties": { "magmom": -4.092 },
        "label": "Cr",
        "xyz": [5.571875541103999, -1.8126167091679999, 1.847722963608]
      },
      {
        "species": [{ "element": "Cr", "occu": 1 }],
        "abc": [0.590056, 0.25, 0.909944],
        "properties": { "magmom": -4.092 },
        "label": "Cr",
        "xyz": [7.289205041103999, -0.9340052908320001, 4.101351463608]
      },
      {
        "species": [{ "element": "Cr", "occu": 1 }],
        "abc": [0.909944, 0.590056, 0.25],
        "properties": { "magmom": -4.092 },
        "label": "Cr",
        "xyz": [8.293629249999999, -0.8786114183359996, 1.12681425]
      },
      {
        "species": [{ "element": "Cr", "occu": 1 }],
        "abc": [0.25, 0.909944, 0.590056],
        "properties": { "magmom": -4.092 },
        "label": "Cr",
        "xyz": [7.776069458896, 1.8126167091679997, 2.6595340363920004]
      },
      {
        "species": [{ "element": "O", "occu": 1 }],
        "abc": [0.5, 0.5, 0.5],
        "properties": { "magmom": 0.10400000000000001 },
        "label": "O",
        "xyz": [6.6739725, 0.0, 2.2536285]
      },
      {
        "species": [{ "element": "O", "occu": 1 }],
        "abc": [0.0, 0.0, 0.0],
        "properties": { "magmom": 0.10400000000000001 },
        "label": "O",
        "xyz": [0.0, 0.0, 0.0]
      }
    ]
  },
  "task_ids": null,
  "uncorrected_energy_per_atom": null,
  "energy_per_atom": -8.39466220625,
  "formation_energy_per_atom": 0.08211364749999901,
  "energy_above_hull": 1.068191884583333,
  "is_stable": false,
  "equilibrium_reaction_energy_per_atom": null,
  "decomposes_to": null,
  "xas": null,
  "grain_boundaries": null,
  "band_gap": 0.0,
  "cbm": null,
  "vbm": null,
  "efermi": 4.56378906,
  "is_gap_direct": null,
  "is_metal": null,
  "es_source_calc_id": null,
  "bandstructure": null,
  "dos": null,
  "dos_energy_up": null,
  "dos_energy_down": null,
  "is_magnetic": null,
  "ordering": null,
  "total_magnetization": 26.3720148,
  "total_magnetization_normalized_vol": null,
  "total_magnetization_normalized_formula_units": null,
  "num_magnetic_sites": null,
  "num_unique_magnetic_sites": null,
  "types_of_magnetic_species": null,
  "bulk_modulus": null,
  "shear_modulus": null,
  "universal_anisotropy": null,
  "homogeneous_poisson": null,
  "e_total": null,
  "e_ionic": null,
  "e_electronic": null,
  "n": null,
  "e_ij_max": null,
  "weighted_surface_energy_EV_PER_ANG2": null,
  "weighted_surface_energy": null,
  "weighted_work_function": null,
  "surface_anisotropy": null,
  "shape_factor": null,
  "has_reconstructed": null,
  "possible_species": null,
  "has_props": null,
  "theoretical": null,
  "database_IDs": null,
  "fields_not_requested": [
    "builder_meta",
    "nsites",
    "elements",
    "nelements",
    "composition",
    "composition_reduced",
    "chemsys",
    "symmetry",
    "property_name",
    "deprecated",
    "deprecation_reasons",
    "last_updated",
    "origins",
    "warnings",
    "task_ids",
    "uncorrected_energy_per_atom",
    "equilibrium_reaction_energy_per_atom",
    "decomposes_to",
    "xas",
    "grain_boundaries",
    "cbm",
    "vbm",
    "is_gap_direct",
    "is_metal",
    "es_source_calc_id",
    "bandstructure",
    "dos",
    "dos_energy_up",
    "dos_energy_down",
    "is_magnetic",
    "ordering",
    "total_magnetization_normalized_vol",
    "total_magnetization_normalized_formula_units",
    "num_magnetic_sites",
    "num_unique_magnetic_sites",
    "types_of_magnetic_species",
    "bulk_modulus",
    "shear_modulus",
    "universal_anisotropy",
    "homogeneous_poisson",
    "e_total",
    "e_ionic",
    "e_electronic",
    "n",
    "e_ij_max",
    "weighted_surface_energy_EV_PER_ANG2",
    "weighted_surface_energy",
    "weighted_work_function",
    "surface_anisotropy",
    "shape_factor",
    "has_reconstructed",
    "possible_species",
    "has_props",
    "theoretical",
    "database_IDs"
  ]
}
