{"builder_meta": null, "nsites": null, "elements": null, "nelements": null, "composition": null, "composition_reduced": null, "formula_pretty": "Cr3P", "formula_anonymous": "AB3", "chemsys": null, "volume": 181.70191201870676, "density": 6.834442290098272, "density_atomic": 11.356369501169173, "symmetry": null, "property_name": null, "material_id": "mp-7806", "deprecated": null, "deprecation_reasons": null, "last_updated": null, "origins": null, "warnings": null, "structure": {"@module": "pymatgen.core.structure", "@class": "Structure", "charge": 0, "lattice": {"matrix": [[4.19904401, -6.092e-05, 1.47317929], [2.09847651, 6.39000233, 0.73908906], [-0.01603189, -0.00175598, 6.76620367]], "pbc": [true, true, true], "a": 4.449969418109863, "b": 6.766238695097808, "c": 6.766222890866381, "alpha": 83.78545948960779, "beta": 70.8030078246433, "gamma": 70.80405378796323, "volume": 181.70191201870676}, "properties": {}, "sites": [{"species": [{"element": "Cr", "occu": 1}], "abc": [0.35922945, 0.66956171, 0.61333667], "properties": {"magmom": 0.0}, "label": "Cr", "xyz": [2.90364684464212, 4.277401995794904, 5.174035948453563]}, {"species": [{"element": "Cr", "occu": 1}], "abc": [0.027394230000000002, 0.61337505, 0.3304931], "properties": {"magmom": -0.0}, "label": "Cr", "xyz": [1.3968842826101788, 3.9188859905336373, 2.729879027563127]}, {"species": [{"element": "Cr", "occu": 1}], "abc": [0.97129624, 0.38662679, 0.66950412], "properties": {"magmom": 0.0}, "label": "Cr", "xyz": [4.879109479052839, 2.469311281728842, 6.246646369838908]}, {"species": [{"element": "Cr", "occu": 1}], "abc": [0.64203922, 0.33047073, 0.38667315], "properties": {"magmom": -0.0}, "label": "Cr", "xyz": [3.383236903666871, 2.110990631349581, 3.8063954700854286]}, {"species": [{"element": "Cr", "occu": 1}], "abc": [0.93859686, 0.05643023, 0.61114136], "properties": {"magmom": -0.0}, "label": "Cr", "xyz": [4.0498292838387355, 0.35945896985639186, 5.559535334378104]}, {"species": [{"element": "Cr", "occu": 1}], "abc": [0.45030241, 0.61114437, 0.94355409], "properties": {"magmom": -0.0}, "label": "Cr", "xyz": [3.1581847866828823, 3.903529653732606, 7.4993454491981915]}, {"species": [{"element": "Cr", "occu": 1}], "abc": [0.00477849, 0.38884548, 0.05636362], "properties": {"magmom": 0.0}, "label": "Cr", "xyz": [0.8351445802551779, 2.48462425871491, 0.6757987453024064]}, {"species": [{"element": "Cr", "occu": 1}], "abc": [0.60628338, 0.94359845, 0.3888524], "properties": {"magmom": 0.0}, "label": "Cr", "xyz": [4.519695738445927, 6.028876542263526, 4.221621946683466]}, {"species": [{"element": "Cr", "occu": 1}], "abc": [0.16072723, 0.97504892, 0.17601995], "properties": {"magmom": -0.0}, "label": "Cr", "xyz": [2.718196034620056, 6.230245991649331, 2.1484148479950984]}, {"species": [{"element": "Cr", "occu": 1}], "abc": [0.6632648800000001, 0.17588456, 0.024949680000000002], "properties": {"magmom": -0.0}, "label": "Cr", "xyz": [3.153768048513759, 1.1238185309754487, 1.2759170555005743]}, {"species": [{"element": "Cr", "occu": 1}], "abc": [0.8642338700000001, 0.82399626, 0.97505547], "properties": {"magmom": 0.0}, "label": "Cr", "xyz": [5.342460868961533, 5.263573194279715, 8.479601959815042]}, {"species": [{"element": "Cr", "occu": 1}], "abc": [0.31185311, 0.02496386, 0.8240617], "properties": {"magmom": 0.0}, "label": "Cr", "xyz": [1.3486597408266865, 0.1580530896103666, 6.053635357841903]}, {"species": [{"element": "P", "occu": 1}], "abc": [0.21544301000000002, 0.24571298, 0.33362562], "properties": {"magmom": 0.0}, "label": "P", "xyz": [1.4149289481279481, 1.5695075500068667, 2.7563688503752877]}, {"species": [{"element": "P", "occu": 1}], "abc": [0.45088425, 0.33370161, 0.75435026], "properties": {"magmom": 0.0}, "label": "P", "xyz": [2.5814541387102317, 2.1310019735866863, 6.014956046220024]}, {"species": [{"element": "P", "occu": 1}], "abc": [0.53886239, 0.66630492, 0.24568917], "properties": {"magmom": -0.0}, "label": "P", "xyz": [3.6569932523135815, 4.2572257385249275, 2.9486825538373322]}, {"species": [{"element": "P", "occu": 1}], "abc": [0.79481097, 0.7543340900000001, 0.66632864], "properties": {"magmom": -0.0}, "label": "P", "xyz": [4.9097161037576855, 4.81897811304887, 6.236934423366977]}]}, "task_ids": null, "uncorrected_energy_per_atom": null, "energy_per_atom": -13.68463082625, "formation_energy_per_atom": -0.129104955744047, "energy_above_hull": 0.12381991482142801, "is_stable": false, "equilibrium_reaction_energy_per_atom": null, "decomposes_to": null, "xas": null, "grain_boundaries": null, "band_gap": 0.0, "cbm": null, "vbm": null, "efermi": 8.46215116, "is_gap_direct": null, "is_metal": null, "es_source_calc_id": null, "bandstructure": null, "dos": null, "dos_energy_up": null, "dos_energy_down": null, "is_magnetic": null, "ordering": null, "total_magnetization": 1.4e-06, "total_magnetization_normalized_vol": null, "total_magnetization_normalized_formula_units": null, "num_magnetic_sites": null, "num_unique_magnetic_sites": null, "types_of_magnetic_species": null, "bulk_modulus": null, "shear_modulus": null, "universal_anisotropy": null, "homogeneous_poisson": null, "e_total": null, "e_ionic": null, "e_electronic": null, "n": null, "e_ij_max": null, "weighted_surface_energy_EV_PER_ANG2": null, "weighted_surface_energy": null, "weighted_work_function": null, "surface_anisotropy": null, "shape_factor": null, "has_reconstructed": null, "possible_species": null, "has_props": null, "theoretical": null, "database_IDs": null, "fields_not_requested": ["builder_meta", "nsites", "elements", "nelements", "composition", "composition_reduced", "chemsys", "symmetry", "property_name", "deprecated", "deprecation_reasons", "last_updated", "origins", "warnings", "task_ids", "uncorrected_energy_per_atom", "equilibrium_reaction_energy_per_atom", "decomposes_to", "xas", "grain_boundaries", "cbm", "vbm", "is_gap_direct", "is_metal", "es_source_calc_id", "bandstructure", "dos", "dos_energy_up", "dos_energy_down", "is_magnetic", "ordering", "total_magnetization_normalized_vol", "total_magnetization_normalized_formula_units", "num_magnetic_sites", "num_unique_magnetic_sites", "types_of_magnetic_species", "bulk_modulus", "shear_modulus", "universal_anisotropy", "homogeneous_poisson", "e_total", "e_ionic", "e_electronic", "n", "e_ij_max", "weighted_surface_energy_EV_PER_ANG2", "weighted_surface_energy", "weighted_work_function", "surface_anisotropy", "shape_factor", "has_reconstructed", "possible_species", "has_props", "theoretical", "database_IDs"]}