{
  "builder_meta": null,
  "nsites": null,
  "elements": null,
  "nelements": null,
  "composition": null,
  "composition_reduced": null,
  "formula_pretty": "Cr3Pt",
  "formula_anonymous": "AB3",
  "chemsys": null,
  "volume": 104.06502588364513,
  "density": 11.203942235173837,
  "density_atomic": 13.008128235455642,
  "symmetry": null,
  "property_name": null,
  "material_id": "mp-446",
  "deprecated": null,
  "deprecation_reasons": null,
  "last_updated": null,
  "origins": null,
  "warnings": null,
  "structure": {
    "@module": "pymatgen.core.structure",
    "@class": "Structure",
    "charge": 0,
    "lattice": {
      "matrix": [
        [4.68556679, 0.0, 0.0],
        [0.0, 4.68556276, 0.0],
        [0.0, 0.0, 4.74002797]
      ],
      "pbc": [true, true, true],
      "a": 4.68556679,
      "b": 4.68556276,
      "c": 4.74002797,
      "alpha": 90.0,
      "beta": 90.0,
      "gamma": 90.0,
      "volume": 104.06502588364513
    },
    "properties": {},
    "sites": [
      {
        "species": [{ "element": "Cr", "occu": 1 }],
        "abc": [0.24771318, -0.0, 0.5],
        "properties": { "magmom": 1.413 },
        "label": "Cr",
        "xyz": [1.1606766496532923, 0.0, 2.370013985]
      },
      {
        "species": [{ "element": "Cr", "occu": 1 }],
        "abc": [0.75228682, -0.0, 0.5],
        "properties": { "magmom": 1.413 },
        "label": "Cr",
        "xyz": [3.524890140346708, 0.0, 2.370013985]
      },
      {
        "species": [{ "element": "Cr", "occu": 1 }],
        "abc": [-0.0, 0.5, 0.24999262],
        "properties": { "magmom": -1.691 },
        "label": "Cr",
        "xyz": [0.0, 2.34278138, 1.1849720110935813]
      },
      {
        "species": [{ "element": "Cr", "occu": 1 }],
        "abc": [0.0, 0.5, 0.75000738],
        "properties": { "magmom": -1.691 },
        "label": "Cr",
        "xyz": [0.0, 2.34278138, 3.5550559589064186]
      },
      {
        "species": [{ "element": "Cr", "occu": 1 }],
        "abc": [0.5, 0.7477044700000001, 0.0],
        "properties": { "magmom": 1.413 },
        "label": "Cr",
        "xyz": [2.342783395, 3.503416220117537, 0.0]
      },
      {
        "species": [{ "element": "Cr", "occu": 1 }],
        "abc": [0.5, 0.25229553, -0.0],
        "properties": { "magmom": 1.413 },
        "label": "Cr",
        "xyz": [2.342783395, 1.1821465398824627, 0.0]
      },
      {
        "species": [{ "element": "Pt", "occu": 1 }],
        "abc": [-0.0, -0.0, -0.0],
        "properties": { "magmom": 0.036000000000000004 },
        "label": "Pt",
        "xyz": [0.0, 0.0, 0.0]
      },
      {
        "species": [{ "element": "Pt", "occu": 1 }],
        "abc": [0.5, 0.5, 0.5],
        "properties": { "magmom": 0.036000000000000004 },
        "label": "Pt",
        "xyz": [2.342783395, 2.34278138, 2.370013985]
      }
    ]
  },
  "task_ids": null,
  "uncorrected_energy_per_atom": null,
  "energy_per_atom": -24.06781665875,
  "formation_energy_per_atom": 0.10911935874999901,
  "energy_above_hull": 0.24703902625000002,
  "is_stable": false,
  "equilibrium_reaction_energy_per_atom": null,
  "decomposes_to": null,
  "xas": null,
  "grain_boundaries": null,
  "band_gap": 0.0,
  "cbm": null,
  "vbm": null,
  "efermi": 7.32550899,
  "is_gap_direct": null,
  "is_metal": null,
  "es_source_calc_id": null,
  "bandstructure": null,
  "dos": null,
  "dos_energy_up": null,
  "dos_energy_down": null,
  "is_magnetic": null,
  "ordering": null,
  "total_magnetization": 2.3721162,
  "total_magnetization_normalized_vol": null,
  "total_magnetization_normalized_formula_units": null,
  "num_magnetic_sites": null,
  "num_unique_magnetic_sites": null,
  "types_of_magnetic_species": null,
  "bulk_modulus": null,
  "shear_modulus": null,
  "universal_anisotropy": null,
  "homogeneous_poisson": null,
  "e_total": null,
  "e_ionic": null,
  "e_electronic": null,
  "n": null,
  "e_ij_max": null,
  "weighted_surface_energy_EV_PER_ANG2": null,
  "weighted_surface_energy": null,
  "weighted_work_function": null,
  "surface_anisotropy": null,
  "shape_factor": null,
  "has_reconstructed": null,
  "possible_species": null,
  "has_props": null,
  "theoretical": null,
  "database_IDs": null,
  "fields_not_requested": [
    "builder_meta",
    "nsites",
    "elements",
    "nelements",
    "composition",
    "composition_reduced",
    "chemsys",
    "symmetry",
    "property_name",
    "deprecated",
    "deprecation_reasons",
    "last_updated",
    "origins",
    "warnings",
    "task_ids",
    "uncorrected_energy_per_atom",
    "equilibrium_reaction_energy_per_atom",
    "decomposes_to",
    "xas",
    "grain_boundaries",
    "cbm",
    "vbm",
    "is_gap_direct",
    "is_metal",
    "es_source_calc_id",
    "bandstructure",
    "dos",
    "dos_energy_up",
    "dos_energy_down",
    "is_magnetic",
    "ordering",
    "total_magnetization_normalized_vol",
    "total_magnetization_normalized_formula_units",
    "num_magnetic_sites",
    "num_unique_magnetic_sites",
    "types_of_magnetic_species",
    "bulk_modulus",
    "shear_modulus",
    "universal_anisotropy",
    "homogeneous_poisson",
    "e_total",
    "e_ionic",
    "e_electronic",
    "n",
    "e_ij_max",
    "weighted_surface_energy_EV_PER_ANG2",
    "weighted_surface_energy",
    "weighted_work_function",
    "surface_anisotropy",
    "shape_factor",
    "has_reconstructed",
    "possible_species",
    "has_props",
    "theoretical",
    "database_IDs"
  ]
}
