{"builder_meta": null, "nsites": null, "elements": null, "nelements": null, "composition": null, "composition_reduced": null, "formula_pretty": "Cr3Si5", "formula_anonymous": "A3B5", "chemsys": null, "volume": 202.42143655937028, "density": 4.8632202618829545, "density_atomic": 12.651339784960642, "symmetry": null, "property_name": null, "material_id": "mp-1105936", "deprecated": null, "deprecation_reasons": null, "last_updated": null, "origins": null, "warnings": null, "structure": {"@module": "pymatgen.core.structure", "@class": "Structure", "charge": 0, "lattice": {"matrix": [[0.0, 0.0, -4.709704], [-4.635712, -4.635712, -2.354852], [-4.635712, 4.635712, -2.354852]], "pbc": [true, true, true], "a": 4.709704, "b": 6.965987326703372, "c": 6.965987326703372, "alpha": 83.43802852120872, "beta": 70.24188615089707, "gamma": 70.24188615089707, "volume": 202.42143655937028}, "properties": {}, "sites": [{"species": [{"element": "Cr", "occu": 1}], "abc": [0.672766, 0.154469, 0.5], "properties": {"magmom": 0.8290000000000001}, "label": "Cr", "xyz": [-3.0339297969279997, 1.601782203072, -4.709706354852001]}, {"species": [{"element": "Cr", "occu": 1}], "abc": [0.327233999999999, 0.845530999999999, 0.5], "properties": {"magmom": 0.8290000000000001}, "label": "Cr", "xyz": [-6.237494203071995, -1.6017822030719953, -4.709701645147994]}, {"species": [{"element": "Cr", "occu": 1}], "abc": [0.827233999999999, 0.5, 0.845530999999999], "properties": {"magmom": 0.8290000000000001}, "label": "Cr", "xyz": [-6.237494203071995, 1.6017822030719953, -7.064553645147994]}, {"species": [{"element": "Cr", "occu": 1}], "abc": [0.172766, 0.5, 0.154469], "properties": {"magmom": 0.8290000000000001}, "label": "Cr", "xyz": [-3.0339297969279997, -1.601782203072, -2.3548543548520002]}, {"species": [{"element": "Cr", "occu": 1}], "abc": [0.25, 0.0, 0.0], "properties": {"magmom": 1.075}, "label": "Cr", "xyz": [0.0, 0.0, -1.177426]}, {"species": [{"element": "Cr", "occu": 1}], "abc": [0.75, 0.0, 0.0], "properties": {"magmom": 1.075}, "label": "Cr", "xyz": [0.0, 0.0, -3.5322780000000003]}, {"species": [{"element": "Si", "occu": 1}], "abc": [0.234746999999999, 0.695504, 0.835002999999999], "properties": {"magmom": -0.038}, "label": "Si", "xyz": [-7.094989665983995, 0.6466771882879958, -4.709706354851994]}, {"species": [{"element": "Si", "occu": 1}], "abc": [0.765253, 0.304496, 0.164997], "properties": {"magmom": -0.038}, "label": "Si", "xyz": [-2.176434334016, -0.646677188288, -4.709701645148]}, {"species": [{"element": "Si", "occu": 1}], "abc": [0.265252999999999, 0.164997, 0.304496], "properties": {"magmom": -0.038}, "label": "Si", "xyz": [-2.176434334016, 0.646677188288, -2.3548496451479957]}, {"species": [{"element": "Si", "occu": 1}], "abc": [0.734746999999999, 0.835002999999999, 0.695504], "properties": {"magmom": -0.038}, "label": "Si", "xyz": [-7.094989665983995, -0.6466771882879958, -7.064558354851994]}, {"species": [{"element": "Si", "occu": 1}], "abc": [0.069748999999999, 0.164997, 0.695504], "properties": {"magmom": -0.038}, "label": "Si", "xyz": [-3.989034811712, 2.4592776659839997, -2.3548496451479957]}, {"species": [{"element": "Si", "occu": 1}], "abc": [0.930250999999999, 0.835002999999999, 0.304496], "properties": {"magmom": -0.038}, "label": "Si", "xyz": [-5.282389188287995, -2.4592776659839957, -7.064558354851994]}, {"species": [{"element": "Si", "occu": 1}], "abc": [0.569749, 0.695504, 0.164997], "properties": {"magmom": -0.038}, "label": "Si", "xyz": [-3.989034811712, -2.4592776659839997, -4.709701645148]}, {"species": [{"element": "Si", "occu": 1}], "abc": [0.430251, 0.304496, 0.835002999999999], "properties": {"magmom": -0.038}, "label": "Si", "xyz": [-5.282389188287995, 2.4592776659839957, -4.709706354851998]}, {"species": [{"element": "Si", "occu": 1}], "abc": [0.75, 0.5, 0.5], "properties": {"magmom": -0.024}, "label": "Si", "xyz": [-4.635712, 0.0, -5.887130000000001]}, {"species": [{"element": "Si", "occu": 1}], "abc": [0.25, 0.5, 0.5], "properties": {"magmom": -0.024}, "label": "Si", "xyz": [-4.635712, 0.0, -3.5322780000000003]}]}, "task_ids": null, "uncorrected_energy_per_atom": null, "energy_per_atom": -10.852474710625, "formation_energy_per_atom": 0.283631557500001, "energy_above_hull": 0.529166540374999, "is_stable": false, "equilibrium_reaction_energy_per_atom": null, "decomposes_to": null, "xas": null, "grain_boundaries": null, "band_gap": 0.0, "cbm": null, "vbm": null, "efermi": 9.90172082, "is_gap_direct": null, "is_metal": null, "es_source_calc_id": null, "bandstructure": null, "dos": null, "dos_energy_up": null, "dos_energy_down": null, "is_magnetic": null, "ordering": null, "total_magnetization": 5.2911804, "total_magnetization_normalized_vol": null, "total_magnetization_normalized_formula_units": null, "num_magnetic_sites": null, "num_unique_magnetic_sites": null, "types_of_magnetic_species": null, "bulk_modulus": null, "shear_modulus": null, "universal_anisotropy": null, "homogeneous_poisson": null, "e_total": null, "e_ionic": null, "e_electronic": null, "n": null, "e_ij_max": null, "weighted_surface_energy_EV_PER_ANG2": null, "weighted_surface_energy": null, "weighted_work_function": null, "surface_anisotropy": null, "shape_factor": null, "has_reconstructed": null, "possible_species": null, "has_props": null, "theoretical": null, "database_IDs": null, "fields_not_requested": ["builder_meta", "nsites", "elements", "nelements", "composition", "composition_reduced", "chemsys", "symmetry", "property_name", "deprecated", "deprecation_reasons", "last_updated", "origins", "warnings", "task_ids", "uncorrected_energy_per_atom", "equilibrium_reaction_energy_per_atom", "decomposes_to", "xas", "grain_boundaries", "cbm", "vbm", "is_gap_direct", "is_metal", "es_source_calc_id", "bandstructure", "dos", "dos_energy_up", "dos_energy_down", "is_magnetic", "ordering", "total_magnetization_normalized_vol", "total_magnetization_normalized_formula_units", "num_magnetic_sites", "num_unique_magnetic_sites", "types_of_magnetic_species", "bulk_modulus", "shear_modulus", "universal_anisotropy", "homogeneous_poisson", "e_total", "e_ionic", "e_electronic", "n", "e_ij_max", "weighted_surface_energy_EV_PER_ANG2", "weighted_surface_energy", "weighted_work_function", "surface_anisotropy", "shape_factor", "has_reconstructed", "possible_species", "has_props", "theoretical", "database_IDs"]}