{"builder_meta": null, "nsites": null, "elements": null, "nelements": null, "composition": null, "composition_reduced": null, "formula_pretty": "Cr3S4", "formula_anonymous": "A3B4", "chemsys": null, "volume": 242.0704265321686, "density": 3.899736234008015, "density_atomic": 17.29074475229776, "symmetry": null, "property_name": null, "material_id": "mp-964", "deprecated": null, "deprecation_reasons": null, "last_updated": null, "origins": null, "warnings": null, "structure": {"@module": "pymatgen.core.structure", "@class": "Structure", "charge": 0, "lattice": {"matrix": [[3.36779116, 2e-08, -0.91570185], [-0.71531314, 5.4270902, -2.63078192], [2.64337395, 5.38572706, 9.72184103]], "pbc": [true, true, true], "a": 3.490061199387135, "b": 6.073384100959825, "c": 11.42399557146913, "alpha": 88.54483460891367, "beta": 89.9999659239451, "gamma": 90.00003592363512, "volume": 242.0704265321686}, "properties": {}, "sites": [{"species": [{"element": "Cr", "occu": 1}], "abc": [0.0, -6.15e-06, 2.074e-05], "properties": {"magmom": 3.477}, "label": "Cr", "xyz": [5.9222751534e-05, 7.83233744944e-05, 0.0002178102917702]}, {"species": [{"element": "Cr", "occu": 1}], "abc": [0.5, 0.50000719, 0.49997609], "properties": {"magmom": 3.477}, "label": "Cr", "xyz": [2.6478576388273787, 5.406318888044534, 3.0874272654589676]}, {"species": [{"element": "Cr", "occu": 1}], "abc": [0.5, 0.48463088, 0.23640411], "properties": {"magmom": 3.215}, "label": "Cr", "xyz": [1.9621372095331713, 3.9033435217875927, 0.565474094280944]}, {"species": [{"element": "Cr", "occu": 1}], "abc": [-0.0, 0.98460441, 0.73641777], "properties": {"magmom": 3.216}, "label": "Cr", "xyz": [1.242327077360144, 9.30968205574164, 4.569057011426835]}, {"species": [{"element": "Cr", "occu": 1}], "abc": [0.0, 0.01539254, 0.26358278], "properties": {"magmom": 3.216}, "label": "Cr", "xyz": [0.6857373682006055, 1.5031216137831347, 2.5220154694705865]}, {"species": [{"element": "Cr", "occu": 1}], "abc": [0.5, 0.51536609, 0.76359206], "properties": {"magmom": 3.216}, "label": "Cr", "xyz": [3.3337068037434143, 6.9094366867944625, 5.60985390233713]}, {"species": [{"element": "S", "occu": 1}], "abc": [0.0, 0.32350665, 0.1267189], "properties": {"magmom": -0.122}, "label": "S", "xyz": [0.10355688161027396, 2.438173178593264, 0.38086555547669887]}, {"species": [{"element": "S", "occu": 1}], "abc": [0.5, 0.82343438, 0.62670852], "properties": {"magmom": -0.122}, "label": "S", "xyz": [2.7515071240693008, 7.844133698937627, 3.4686333993761655]}, {"species": [{"element": "S", "occu": 1}], "abc": [0.5, 0.84665203, 0.13570494], "properties": {"magmom": -0.10400000000000001}, "label": "S", "xyz": [1.4369931612156388, 5.325726712356783, -1.3659059243896094]}, {"species": [{"element": "S", "occu": 1}], "abc": [-0.0, 0.34665383, 0.63567196], "properties": {"magmom": -0.10400000000000001}, "label": "S", "xyz": [1.4323526601791159, 5.304877279840704, 5.267931113885766]}, {"species": [{"element": "S", "occu": 1}], "abc": [0.0, 0.65335151, 0.36429811], "properties": {"magmom": -0.10400000000000001}, "label": "S", "xyz": [0.49562521386639313, 5.507807766010059, 1.822822973036754]}, {"species": [{"element": "S", "occu": 1}], "abc": [0.5, 0.15334055, 0.86432998], "properties": {"magmom": -0.10400000000000001}, "label": "S", "xyz": [3.858956423026194, 5.487238368222869, 7.541622191480223]}, {"species": [{"element": "S", "occu": 1}], "abc": [0.5, 0.17655852, 0.37326538000000004], "properties": {"magmom": -0.122}, "label": "S", "xyz": [2.544280932593898, 2.968504481245687, 2.7064887991245836]}, {"species": [{"element": "S", "occu": 1}], "abc": [-0.0, 0.676505599999999, 0.87330565], "properties": {"magmom": -0.122}, "label": "S", "xyz": [1.8245600606342345, 8.374842782861004, 6.71039999864207]}]}, "task_ids": null, "uncorrected_energy_per_atom": null, "energy_per_atom": -7.446817641428572, "formation_energy_per_atom": -0.94502040142857, "energy_above_hull": 0.0005037876190450001, "is_stable": false, "equilibrium_reaction_energy_per_atom": null, "decomposes_to": null, "xas": null, "grain_boundaries": null, "band_gap": 0.0, "cbm": null, "vbm": null, "efermi": 5.47619685, "is_gap_direct": null, "is_metal": null, "es_source_calc_id": null, "bandstructure": null, "dos": null, "dos_energy_up": null, "dos_energy_down": null, "is_magnetic": null, "ordering": null, "total_magnetization": 20.0030626, "total_magnetization_normalized_vol": null, "total_magnetization_normalized_formula_units": null, "num_magnetic_sites": null, "num_unique_magnetic_sites": null, "types_of_magnetic_species": null, "bulk_modulus": null, "shear_modulus": null, "universal_anisotropy": null, "homogeneous_poisson": null, "e_total": null, "e_ionic": null, "e_electronic": null, "n": null, "e_ij_max": null, "weighted_surface_energy_EV_PER_ANG2": null, "weighted_surface_energy": null, "weighted_work_function": null, "surface_anisotropy": null, "shape_factor": null, "has_reconstructed": null, "possible_species": null, "has_props": null, "theoretical": null, "database_IDs": null, "fields_not_requested": ["builder_meta", "nsites", "elements", "nelements", "composition", "composition_reduced", "chemsys", "symmetry", "property_name", "deprecated", "deprecation_reasons", "last_updated", "origins", "warnings", "task_ids", "uncorrected_energy_per_atom", "equilibrium_reaction_energy_per_atom", "decomposes_to", "xas", "grain_boundaries", "cbm", "vbm", "is_gap_direct", "is_metal", "es_source_calc_id", "bandstructure", "dos", "dos_energy_up", "dos_energy_down", "is_magnetic", "ordering", "total_magnetization_normalized_vol", "total_magnetization_normalized_formula_units", "num_magnetic_sites", "num_unique_magnetic_sites", "types_of_magnetic_species", "bulk_modulus", "shear_modulus", "universal_anisotropy", "homogeneous_poisson", "e_total", "e_ionic", "e_electronic", "n", "e_ij_max", "weighted_surface_energy_EV_PER_ANG2", "weighted_surface_energy", "weighted_work_function", "surface_anisotropy", "shape_factor", "has_reconstructed", "possible_species", "has_props", "theoretical", "database_IDs"]}