{
  "builder_meta": null,
  "nsites": null,
  "elements": null,
  "nelements": null,
  "composition": null,
  "composition_reduced": null,
  "formula_pretty": "Cr3Se4",
  "formula_anonymous": "A3B4",
  "chemsys": null,
  "volume": 140.06106019631326,
  "density": 5.59391256769944,
  "density_atomic": 20.00872288518761,
  "symmetry": null,
  "property_name": null,
  "material_id": "mp-27840",
  "deprecated": null,
  "deprecation_reasons": null,
  "last_updated": null,
  "origins": null,
  "warnings": null,
  "structure": {
    "@module": "pymatgen.core.structure",
    "@class": "Structure",
    "charge": 0,
    "lattice": {
      "matrix": [
        [3.53802539, -1e-8, -0.97055726],
        [-0.77001993, 5.71910011, -2.80699569],
        [-0.00102599, -0.01513361, 6.93022305]
      ],
      "pbc": [true, true, true],
      "a": 3.6687334401974967,
      "b": 6.417184862887916,
      "c": 6.9302396496483745,
      "alpha": 116.0621538986162,
      "beta": 105.34856040068327,
      "gamma": 90.00000018159767,
      "volume": 140.06106019631324
    },
    "properties": {},
    "sites": [
      {
        "species": [{ "element": "Cr", "occu": 1 }],
        "abc": [0.50000374, 0.50000583, 6.469999999999996e-6],
        "properties": { "magmom": 3.531 },
        "label": "Cr",
        "xyz": [1.3840114663606113, 2.8595832944391475, -1.8887516311258914]
      },
      {
        "species": [{ "element": "Cr", "occu": 1 }],
        "abc": [0.23817142, 0.21956228, 0.47634384],
        "properties": { "magmom": 3.324 },
        "label": "Cr",
        "xyz": [0.6731004756397118, 1.2484898554176744, 2.4536996852414297]
      },
      {
        "species": [{ "element": "Cr", "occu": 1 }],
        "abc": [0.76183215, 0.78044462, 0.52366429],
        "properties": { "magmom": 3.324 },
        "label": "Cr",
        "xyz": [2.093886303632115, 4.455515973336801, 0.6990039243122879]
      },
      {
        "species": [{ "element": "Se", "occu": 1 }],
        "abc": [0.8653630600000001, 0.52138655, 0.73072912],
        "properties": { "magmom": -0.136 },
        "label": "Se",
        "xyz": [2.6594487223443237, 2.970803297286167, 2.7607015916374316]
      },
      {
        "species": [{ "element": "Se", "occu": 1 }],
        "abc": [0.13464078000000002, 0.47863155, 0.26928055],
        "properties": { "magmom": -0.136 },
        "label": "Se",
        "xyz": [0.1075303863911182, 2.7332665620837773, 0.39198099005759524]
      },
      {
        "species": [{ "element": "Se", "occu": 1 }],
        "abc": [0.37604702, 0.04859067, 0.75209205],
        "properties": { "magmom": -0.171 },
        "label": "Se",
        "xyz": [1.2922764813594052, 0.266513034612703, 4.710796694005175]
      },
      {
        "species": [{ "element": "Se", "occu": 1 }],
        "abc": [0.62394184, 0.9513775, 0.24788567],
        "properties": { "magmom": -0.171 },
        "label": "Se",
        "xyz": [1.4746881076311793, 5.437271753607737, -1.5581808406940398]
      }
    ]
  },
  "task_ids": null,
  "uncorrected_energy_per_atom": null,
  "energy_per_atom": -6.901409129999999,
  "formation_energy_per_atom": -0.766725084196428,
  "energy_above_hull": 0.005111232380951,
  "is_stable": false,
  "equilibrium_reaction_energy_per_atom": null,
  "decomposes_to": null,
  "xas": null,
  "grain_boundaries": null,
  "band_gap": 0.0,
  "cbm": null,
  "vbm": null,
  "efermi": 4.66093748,
  "is_gap_direct": null,
  "is_metal": null,
  "es_source_calc_id": null,
  "bandstructure": null,
  "dos": null,
  "dos_energy_up": null,
  "dos_energy_down": null,
  "is_magnetic": null,
  "ordering": null,
  "total_magnetization": 9.9999817,
  "total_magnetization_normalized_vol": null,
  "total_magnetization_normalized_formula_units": null,
  "num_magnetic_sites": null,
  "num_unique_magnetic_sites": null,
  "types_of_magnetic_species": null,
  "bulk_modulus": null,
  "shear_modulus": null,
  "universal_anisotropy": null,
  "homogeneous_poisson": null,
  "e_total": null,
  "e_ionic": null,
  "e_electronic": null,
  "n": null,
  "e_ij_max": null,
  "weighted_surface_energy_EV_PER_ANG2": null,
  "weighted_surface_energy": null,
  "weighted_work_function": null,
  "surface_anisotropy": null,
  "shape_factor": null,
  "has_reconstructed": null,
  "possible_species": null,
  "has_props": null,
  "theoretical": null,
  "database_IDs": null,
  "fields_not_requested": [
    "builder_meta",
    "nsites",
    "elements",
    "nelements",
    "composition",
    "composition_reduced",
    "chemsys",
    "symmetry",
    "property_name",
    "deprecated",
    "deprecation_reasons",
    "last_updated",
    "origins",
    "warnings",
    "task_ids",
    "uncorrected_energy_per_atom",
    "equilibrium_reaction_energy_per_atom",
    "decomposes_to",
    "xas",
    "grain_boundaries",
    "cbm",
    "vbm",
    "is_gap_direct",
    "is_metal",
    "es_source_calc_id",
    "bandstructure",
    "dos",
    "dos_energy_up",
    "dos_energy_down",
    "is_magnetic",
    "ordering",
    "total_magnetization_normalized_vol",
    "total_magnetization_normalized_formula_units",
    "num_magnetic_sites",
    "num_unique_magnetic_sites",
    "types_of_magnetic_species",
    "bulk_modulus",
    "shear_modulus",
    "universal_anisotropy",
    "homogeneous_poisson",
    "e_total",
    "e_ionic",
    "e_electronic",
    "n",
    "e_ij_max",
    "weighted_surface_energy_EV_PER_ANG2",
    "weighted_surface_energy",
    "weighted_work_function",
    "surface_anisotropy",
    "shape_factor",
    "has_reconstructed",
    "possible_species",
    "has_props",
    "theoretical",
    "database_IDs"
  ]
}
