{
  "builder_meta": null,
  "nsites": null,
  "elements": null,
  "nelements": null,
  "composition": null,
  "composition_reduced": null,
  "formula_pretty": "Cr3Te5",
  "formula_anonymous": "A3B5",
  "chemsys": null,
  "volume": 204.3118040658176,
  "density": 6.453120007440156,
  "density_atomic": 25.5389755082272,
  "symmetry": null,
  "property_name": null,
  "material_id": "mp-1226350",
  "deprecated": null,
  "deprecation_reasons": null,
  "last_updated": null,
  "origins": null,
  "warnings": null,
  "structure": {
    "@module": "pymatgen.core.structure",
    "@class": "Structure",
    "charge": 0,
    "lattice": {
      "matrix": [
        [1.994538, -3.454641, 0.0],
        [1.994538, 3.454641, 0.0],
        [0.0, 0.0, 14.825803]
      ],
      "pbc": [true, true, true],
      "a": 3.9890758669552775,
      "b": 3.9890758669552775,
      "c": 14.825803,
      "alpha": 90.0,
      "beta": 90.0,
      "gamma": 119.99999779343177,
      "volume": 204.3118040658176
    },
    "properties": {},
    "sites": [
      {
        "species": [{ "element": "Cr", "occu": 1 }],
        "abc": [0.0, 0.0, 0.5],
        "properties": { "magmom": 3.407 },
        "label": "Cr",
        "xyz": [0.0, 0.0, 7.4129015]
      },
      {
        "species": [{ "element": "Cr", "occu": 1 }],
        "abc": [0.0, 0.0, 0.282225],
        "properties": { "magmom": 3.269 },
        "label": "Cr",
        "xyz": [0.0, 0.0, 4.184212251675]
      },
      {
        "species": [{ "element": "Cr", "occu": 1 }],
        "abc": [0.0, 0.0, 0.717774999999999],
        "properties": { "magmom": 3.269 },
        "label": "Cr",
        "xyz": [0.0, 0.0, 10.641590748324987]
      },
      {
        "species": [{ "element": "Te", "occu": 1 }],
        "abc": [0.333333, 0.666667, 0.815866],
        "properties": { "magmom": -0.146 },
        "label": "Te",
        "xyz": [1.994538, 1.1515493030940003, 12.095868590398]
      },
      {
        "species": [{ "element": "Te", "occu": 1 }],
        "abc": [0.333333, 0.666667, 0.392519],
        "properties": { "magmom": -0.106 },
        "label": "Te",
        "xyz": [1.994538, 1.1515493030940003, 5.819409367757]
      },
      {
        "species": [{ "element": "Te", "occu": 1 }],
        "abc": [0.666667, 0.333333, 0.184134],
        "properties": { "magmom": -0.146 },
        "label": "Te",
        "xyz": [1.994538, -1.1515493030940003, 2.729934409602]
      },
      {
        "species": [{ "element": "Te", "occu": 1 }],
        "abc": [0.666667, 0.333333, 0.607480999999999],
        "properties": { "magmom": -0.106 },
        "label": "Te",
        "xyz": [1.994538, -1.1515493030940003, 9.006393632242986]
      },
      {
        "species": [{ "element": "Te", "occu": 1 }],
        "abc": [0.0, 0.0, 0.0],
        "properties": { "magmom": 0.4 },
        "label": "Te",
        "xyz": [0.0, 0.0, 0.0]
      }
    ]
  },
  "task_ids": null,
  "uncorrected_energy_per_atom": null,
  "energy_per_atom": -5.8117737425,
  "formation_energy_per_atom": -0.22731475791666603,
  "energy_above_hull": 0.24794444625000203,
  "is_stable": false,
  "equilibrium_reaction_energy_per_atom": null,
  "decomposes_to": null,
  "xas": null,
  "grain_boundaries": null,
  "band_gap": 0.0,
  "cbm": null,
  "vbm": null,
  "efermi": 6.40790715,
  "is_gap_direct": null,
  "is_metal": null,
  "es_source_calc_id": null,
  "bandstructure": null,
  "dos": null,
  "dos_energy_up": null,
  "dos_energy_down": null,
  "is_magnetic": null,
  "ordering": null,
  "total_magnetization": 10.9530625,
  "total_magnetization_normalized_vol": null,
  "total_magnetization_normalized_formula_units": null,
  "num_magnetic_sites": null,
  "num_unique_magnetic_sites": null,
  "types_of_magnetic_species": null,
  "bulk_modulus": null,
  "shear_modulus": null,
  "universal_anisotropy": null,
  "homogeneous_poisson": null,
  "e_total": null,
  "e_ionic": null,
  "e_electronic": null,
  "n": null,
  "e_ij_max": null,
  "weighted_surface_energy_EV_PER_ANG2": null,
  "weighted_surface_energy": null,
  "weighted_work_function": null,
  "surface_anisotropy": null,
  "shape_factor": null,
  "has_reconstructed": null,
  "possible_species": null,
  "has_props": null,
  "theoretical": null,
  "database_IDs": null,
  "fields_not_requested": [
    "builder_meta",
    "nsites",
    "elements",
    "nelements",
    "composition",
    "composition_reduced",
    "chemsys",
    "symmetry",
    "property_name",
    "deprecated",
    "deprecation_reasons",
    "last_updated",
    "origins",
    "warnings",
    "task_ids",
    "uncorrected_energy_per_atom",
    "equilibrium_reaction_energy_per_atom",
    "decomposes_to",
    "xas",
    "grain_boundaries",
    "cbm",
    "vbm",
    "is_gap_direct",
    "is_metal",
    "es_source_calc_id",
    "bandstructure",
    "dos",
    "dos_energy_up",
    "dos_energy_down",
    "is_magnetic",
    "ordering",
    "total_magnetization_normalized_vol",
    "total_magnetization_normalized_formula_units",
    "num_magnetic_sites",
    "num_unique_magnetic_sites",
    "types_of_magnetic_species",
    "bulk_modulus",
    "shear_modulus",
    "universal_anisotropy",
    "homogeneous_poisson",
    "e_total",
    "e_ionic",
    "e_electronic",
    "n",
    "e_ij_max",
    "weighted_surface_energy_EV_PER_ANG2",
    "weighted_surface_energy",
    "weighted_work_function",
    "surface_anisotropy",
    "shape_factor",
    "has_reconstructed",
    "possible_species",
    "has_props",
    "theoretical",
    "database_IDs"
  ]
}
