{
  "builder_meta": null,
  "nsites": null,
  "elements": null,
  "nelements": null,
  "composition": null,
  "composition_reduced": null,
  "formula_pretty": "Cr3Te4",
  "formula_anonymous": "A3B4",
  "chemsys": null,
  "volume": 175.77336815748205,
  "density": 6.295400817965484,
  "density_atomic": 25.110481165354578,
  "symmetry": null,
  "property_name": null,
  "material_id": "mp-1078012",
  "deprecated": null,
  "deprecation_reasons": null,
  "last_updated": null,
  "origins": null,
  "warnings": null,
  "structure": {
    "@module": "pymatgen.core.structure",
    "@class": "Structure",
    "charge": 0,
    "lattice": {
      "matrix": [
        [2.00129484, 7.12577112, -0.04237792],
        [-2.00129484, 7.12577112, -0.04237792],
        [0.0, 3.32246297, 6.14307011]
      ],
      "pbc": [true, true, true],
      "a": 7.401593813452627,
      "b": 7.401593813452627,
      "c": 6.98398672417099,
      "alpha": 63.06614048880228,
      "beta": 63.06614048880228,
      "gamma": 31.37459529816063,
      "volume": 175.77336815748205
    },
    "properties": {},
    "sites": [
      {
        "species": [{ "element": "Cr", "occu": 1 }],
        "abc": [0.0, 0.0, 0.0],
        "properties": { "magmom": 3.605 },
        "label": "Cr",
        "xyz": [0.0, 0.0, 0.0]
      },
      {
        "species": [{ "element": "Cr", "occu": 1 }],
        "abc": [0.259332499999999, 0.259332499999999, 0.72285042],
        "properties": { "magmom": 3.463 },
        "label": "Cr",
        "xyz": [0.0, 6.097531831253733, 4.418540865226146]
      },
      {
        "species": [{ "element": "Cr", "occu": 1 }],
        "abc": [0.740667499999999, 0.740667499999999, 0.27714958],
        "properties": { "magmom": 3.463 },
        "label": "Cr",
        "xyz": [0.0, 11.476473378746238, 1.639773404773854]
      },
      {
        "species": [{ "element": "Te", "occu": 1 }],
        "abc": [0.36666873, 0.36666873, 0.973365199999999],
        "properties": { "magmom": -0.213 },
        "label": "Te",
        "xyz": [0.0, 8.459564726968797, 5.948373350021283]
      },
      {
        "species": [{ "element": "Te", "occu": 1 }],
        "abc": [0.63333127, 0.63333127, 0.0266348],
        "properties": { "magmom": -0.213 },
        "label": "Te",
        "xyz": [0.0, 9.114440483031201, 0.10994091997871122]
      },
      {
        "species": [{ "element": "Te", "occu": 1 }],
        "abc": [0.12261248, 0.12261248, 0.54784175],
        "properties": { "magmom": -0.259 },
        "label": "Te",
        "xyz": [0.0, 3.5676008656661526, 3.3550381556982094]
      },
      {
        "species": [{ "element": "Te", "occu": 1 }],
        "abc": [0.87738752, 0.87738752, 0.45215825],
        "properties": { "magmom": -0.259 },
        "label": "Te",
        "xyz": [0.0, 14.006404344333845, 2.7032761143017905]
      }
    ]
  },
  "task_ids": null,
  "uncorrected_energy_per_atom": null,
  "energy_per_atom": -6.361701911428573,
  "formation_energy_per_atom": -0.42850677095238104,
  "energy_above_hull": 0.014827734285710001,
  "is_stable": false,
  "equilibrium_reaction_energy_per_atom": null,
  "decomposes_to": null,
  "xas": null,
  "grain_boundaries": null,
  "band_gap": 0.0,
  "cbm": null,
  "vbm": null,
  "efermi": 6.12513285,
  "is_gap_direct": null,
  "is_metal": null,
  "es_source_calc_id": null,
  "bandstructure": null,
  "dos": null,
  "dos_energy_up": null,
  "dos_energy_down": null,
  "is_magnetic": null,
  "ordering": null,
  "total_magnetization": 10.0028317,
  "total_magnetization_normalized_vol": null,
  "total_magnetization_normalized_formula_units": null,
  "num_magnetic_sites": null,
  "num_unique_magnetic_sites": null,
  "types_of_magnetic_species": null,
  "bulk_modulus": null,
  "shear_modulus": null,
  "universal_anisotropy": null,
  "homogeneous_poisson": null,
  "e_total": null,
  "e_ionic": null,
  "e_electronic": null,
  "n": null,
  "e_ij_max": null,
  "weighted_surface_energy_EV_PER_ANG2": null,
  "weighted_surface_energy": null,
  "weighted_work_function": null,
  "surface_anisotropy": null,
  "shape_factor": null,
  "has_reconstructed": null,
  "possible_species": null,
  "has_props": null,
  "theoretical": null,
  "database_IDs": null,
  "fields_not_requested": [
    "builder_meta",
    "nsites",
    "elements",
    "nelements",
    "composition",
    "composition_reduced",
    "chemsys",
    "symmetry",
    "property_name",
    "deprecated",
    "deprecation_reasons",
    "last_updated",
    "origins",
    "warnings",
    "task_ids",
    "uncorrected_energy_per_atom",
    "equilibrium_reaction_energy_per_atom",
    "decomposes_to",
    "xas",
    "grain_boundaries",
    "cbm",
    "vbm",
    "is_gap_direct",
    "is_metal",
    "es_source_calc_id",
    "bandstructure",
    "dos",
    "dos_energy_up",
    "dos_energy_down",
    "is_magnetic",
    "ordering",
    "total_magnetization_normalized_vol",
    "total_magnetization_normalized_formula_units",
    "num_magnetic_sites",
    "num_unique_magnetic_sites",
    "types_of_magnetic_species",
    "bulk_modulus",
    "shear_modulus",
    "universal_anisotropy",
    "homogeneous_poisson",
    "e_total",
    "e_ionic",
    "e_electronic",
    "n",
    "e_ij_max",
    "weighted_surface_energy_EV_PER_ANG2",
    "weighted_surface_energy",
    "weighted_work_function",
    "surface_anisotropy",
    "shape_factor",
    "has_reconstructed",
    "possible_species",
    "has_props",
    "theoretical",
    "database_IDs"
  ]
}
