{
  "builder_meta": null,
  "nsites": null,
  "elements": null,
  "nelements": null,
  "composition": null,
  "composition_reduced": null,
  "formula_pretty": "Cr4As3",
  "formula_anonymous": "A3B4",
  "chemsys": null,
  "volume": 210.74150864588182,
  "density": 6.819700183957462,
  "density_atomic": 15.052964903277273,
  "symmetry": null,
  "property_name": null,
  "material_id": "mp-28704",
  "deprecated": null,
  "deprecation_reasons": null,
  "last_updated": null,
  "origins": null,
  "warnings": null,
  "structure": {
    "@module": "pymatgen.core.structure",
    "@class": "Structure",
    "charge": 0,
    "lattice": {
      "matrix": [
        [1.786244, 6.509635, 0.0],
        [-1.786244, 6.509635, 0.0],
        [0.0, 2.200022, 9.061971]
      ],
      "pbc": [true, true, true],
      "a": 6.750260399478009,
      "b": 6.750260399478009,
      "c": 9.325203225953041,
      "alpha": 76.84934701292465,
      "beta": 76.84934701292465,
      "gamma": 30.688574335066104,
      "volume": 210.74150864588182
    },
    "properties": {},
    "sites": [
      {
        "species": [{ "element": "Cr", "occu": 1 }],
        "abc": [0.0, 0.0, 0.5],
        "properties": { "magmom": 2.47 },
        "label": "Cr",
        "xyz": [0.0, 1.100011, 4.5309855]
      },
      {
        "species": [{ "element": "Cr", "occu": 1 }],
        "abc": [0.352367, 0.352367, 0.946377999999999],
        "properties": { "magmom": 1.967 },
        "label": "Cr",
        "xyz": [0.0, 6.669613532405998, 8.57604999103799]
      },
      {
        "species": [{ "element": "Cr", "occu": 1 }],
        "abc": [0.647633, 0.647633, 0.053621999999999004],
        "properties": { "magmom": 1.967 },
        "label": "Cr",
        "xyz": [0.0, 8.549678467593997, 0.485921008961991]
      },
      {
        "species": [{ "element": "Cr", "occu": 1 }],
        "abc": [0.782573, 0.782573, 0.666057],
        "properties": { "magmom": 2.488 },
        "label": "Cr",
        "xyz": [0.0, 11.653869234964, 6.035789218347]
      },
      {
        "species": [{ "element": "Cr", "occu": 1 }],
        "abc": [0.217426999999999, 0.217426999999999, 0.333943],
        "properties": { "magmom": 2.488 },
        "label": "Cr",
        "xyz": [0.0, 3.5654227650359873, 3.026181781653]
      },
      {
        "species": [{ "element": "Cr", "occu": 1 }],
        "abc": [0.566657, 0.566657, 0.797319],
        "properties": { "magmom": 1.738 },
        "label": "Cr",
        "xyz": [0.0, 9.131579821408, 7.225281655749]
      },
      {
        "species": [{ "element": "Cr", "occu": 1 }],
        "abc": [0.433343, 0.433343, 0.202681],
        "properties": { "magmom": 1.738 },
        "label": "Cr",
        "xyz": [0.0, 6.087712178592, 1.836689344251]
      },
      {
        "species": [{ "element": "Cr", "occu": 1 }],
        "abc": [0.0, 0.0, 0.0],
        "properties": { "magmom": -1.336 },
        "label": "Cr",
        "xyz": [0.0, 0.0, 0.0]
      },
      {
        "species": [{ "element": "As", "occu": 1 }],
        "abc": [0.938025, 0.938025, 0.771246],
        "properties": { "magmom": -0.105 },
        "label": "As",
        "xyz": [0.0, 13.909158909162, 6.989008885865999]
      },
      {
        "species": [{ "element": "As", "occu": 1 }],
        "abc": [0.061974999999999, 0.061974999999999, 0.228753999999999],
        "properties": { "magmom": -0.105 },
        "label": "As",
        "xyz": [0.0, 1.310133090837985, 2.072962114133991]
      },
      {
        "species": [{ "element": "As", "occu": 1 }],
        "abc": [0.639510999999999, 0.639510999999999, 0.520089],
        "properties": { "magmom": -0.149 },
        "label": "As",
        "xyz": [0.0, 9.470173618927989, 4.713031435419]
      },
      {
        "species": [{ "element": "As", "occu": 1 }],
        "abc": [0.360489, 0.360489, 0.479911],
        "properties": { "magmom": -0.149 },
        "label": "As",
        "xyz": [0.0, 5.749118381072, 4.348939564580999]
      },
      {
        "species": [{ "element": "As", "occu": 1 }],
        "abc": [0.18905000000000002, 0.18905000000000002, 0.850237999999999],
        "properties": { "magmom": -0.094 },
        "label": "As",
        "xyz": [0.0, 4.3318352987359985, 7.704832099097991]
      },
      {
        "species": [{ "element": "As", "occu": 1 }],
        "abc": [0.8109500000000001, 0.8109500000000001, 0.149762],
        "properties": { "magmom": -0.094 },
        "label": "As",
        "xyz": [0.0, 10.887456701264002, 1.357138900902]
      }
    ]
  },
  "task_ids": null,
  "uncorrected_energy_per_atom": null,
  "energy_per_atom": -7.621488201428571,
  "formation_energy_per_atom": -0.103979990357143,
  "energy_above_hull": 0.055115793214286,
  "is_stable": false,
  "equilibrium_reaction_energy_per_atom": null,
  "decomposes_to": null,
  "xas": null,
  "grain_boundaries": null,
  "band_gap": 0.0,
  "cbm": null,
  "vbm": null,
  "efermi": 6.60617833,
  "is_gap_direct": null,
  "is_metal": null,
  "es_source_calc_id": null,
  "bandstructure": null,
  "dos": null,
  "dos_energy_up": null,
  "dos_energy_down": null,
  "is_magnetic": null,
  "ordering": null,
  "total_magnetization": 13.3347482,
  "total_magnetization_normalized_vol": null,
  "total_magnetization_normalized_formula_units": null,
  "num_magnetic_sites": null,
  "num_unique_magnetic_sites": null,
  "types_of_magnetic_species": null,
  "bulk_modulus": null,
  "shear_modulus": null,
  "universal_anisotropy": null,
  "homogeneous_poisson": null,
  "e_total": null,
  "e_ionic": null,
  "e_electronic": null,
  "n": null,
  "e_ij_max": null,
  "weighted_surface_energy_EV_PER_ANG2": null,
  "weighted_surface_energy": null,
  "weighted_work_function": null,
  "surface_anisotropy": null,
  "shape_factor": null,
  "has_reconstructed": null,
  "possible_species": null,
  "has_props": null,
  "theoretical": null,
  "database_IDs": null,
  "fields_not_requested": [
    "builder_meta",
    "nsites",
    "elements",
    "nelements",
    "composition",
    "composition_reduced",
    "chemsys",
    "symmetry",
    "property_name",
    "deprecated",
    "deprecation_reasons",
    "last_updated",
    "origins",
    "warnings",
    "task_ids",
    "uncorrected_energy_per_atom",
    "equilibrium_reaction_energy_per_atom",
    "decomposes_to",
    "xas",
    "grain_boundaries",
    "cbm",
    "vbm",
    "is_gap_direct",
    "is_metal",
    "es_source_calc_id",
    "bandstructure",
    "dos",
    "dos_energy_up",
    "dos_energy_down",
    "is_magnetic",
    "ordering",
    "total_magnetization_normalized_vol",
    "total_magnetization_normalized_formula_units",
    "num_magnetic_sites",
    "num_unique_magnetic_sites",
    "types_of_magnetic_species",
    "bulk_modulus",
    "shear_modulus",
    "universal_anisotropy",
    "homogeneous_poisson",
    "e_total",
    "e_ionic",
    "e_electronic",
    "n",
    "e_ij_max",
    "weighted_surface_energy_EV_PER_ANG2",
    "weighted_surface_energy",
    "weighted_work_function",
    "surface_anisotropy",
    "shape_factor",
    "has_reconstructed",
    "possible_species",
    "has_props",
    "theoretical",
    "database_IDs"
  ]
}
