{"builder_meta": null, "nsites": null, "elements": null, "nelements": null, "composition": null, "composition_reduced": null, "formula_pretty": "Cr4B", "formula_anonymous": "AB4", "chemsys": null, "volume": 108.32979262145865, "density": 6.70763416970495, "density_atomic": 10.832979262145866, "symmetry": null, "property_name": null, "material_id": "mp-1226275", "deprecated": null, "deprecation_reasons": null, "last_updated": null, "origins": null, "warnings": null, "structure": {"@module": "pymatgen.core.structure", "@class": "Structure", "charge": 0, "lattice": {"matrix": [[0.0, 3.678519, 7.128633], [2.065564, 0.0, 7.128633], [2.065564, 3.678519, 0.0]], "pbc": [true, true, true], "a": 8.02177726454992, "b": 7.4218571184566065, "c": 4.218774309139682, "alpha": 82.16833183148452, "beta": 66.43165795678303, "gamma": 31.400010211732464, "volume": 108.32979262145867}, "properties": {}, "sites": [{"species": [{"element": "Cr", "occu": 1}], "abc": [0.665078, 0.665078, 0.834921999999999], "properties": {"magmom": 0.001}, "label": "Cr", "xyz": [3.098345999999998, 5.517778499999997, 9.482193956747999]}, {"species": [{"element": "Cr", "occu": 1}], "abc": [0.834921999999999, 0.834921999999999, 0.665078], "properties": {"magmom": 0.001}, "label": "Cr", "xyz": [3.098345999999998, 5.517778499999997, 11.903705043251986]}, {"species": [{"element": "Cr", "occu": 1}], "abc": [0.085496999999999, 0.085496999999999, 0.914503], "properties": {"magmom": -0.0}, "label": "Cr", "xyz": [2.065563999999998, 3.678518999999996, 1.2189534712019858]}, {"species": [{"element": "Cr", "occu": 1}], "abc": [0.914503, 0.914503, 0.085496999999999], "properties": {"magmom": -0.0}, "label": "Cr", "xyz": [2.065563999999998, 3.678518999999996, 13.038312528797999]}, {"species": [{"element": "Cr", "occu": 1}], "abc": [0.419504999999999, 0.080495, 0.419504999999999], "properties": {"magmom": 0.001}, "label": "Cr", "xyz": [1.032781999999998, 3.0863142261899927, 3.564316499999993]}, {"species": [{"element": "Cr", "occu": 1}], "abc": [0.34321, 0.6567900000000001, 0.34321], "properties": {"magmom": -0.002}, "label": "Cr", "xyz": [2.065564, 2.5250090119800004, 7.128633000000001]}, {"species": [{"element": "Cr", "occu": 1}], "abc": [0.080495, 0.419504999999999, 0.080495], "properties": {"magmom": 0.001}, "label": "Cr", "xyz": [1.032781999999998, 0.59220477381, 3.564316499999993]}, {"species": [{"element": "Cr", "occu": 1}], "abc": [0.6567900000000001, 0.34321, 0.6567900000000001], "properties": {"magmom": -0.002}, "label": "Cr", "xyz": [2.065564, 4.832028988020001, 7.128633000000001]}, {"species": [{"element": "B", "occu": 1}], "abc": [0.374816, 0.374816, 0.125184], "properties": {"magmom": -0.0}, "label": "B", "xyz": [1.032782, 1.8392594999999998, 5.343851413056]}, {"species": [{"element": "B", "occu": 1}], "abc": [0.125184, 0.125184, 0.374816], "properties": {"magmom": -0.0}, "label": "B", "xyz": [1.032782, 1.8392594999999998, 1.7847815869439998]}]}, "task_ids": null, "uncorrected_energy_per_atom": null, "energy_per_atom": -13.389113835499998, "formation_energy_per_atom": 0.13883091600000302, "energy_above_hull": 0.303136616500001, "is_stable": false, "equilibrium_reaction_energy_per_atom": null, "decomposes_to": null, "xas": null, "grain_boundaries": null, "band_gap": 0.0, "cbm": null, "vbm": null, "efermi": 6.5315607, "is_gap_direct": null, "is_metal": null, "es_source_calc_id": null, "bandstructure": null, "dos": null, "dos_energy_up": null, "dos_energy_down": null, "is_magnetic": null, "ordering": null, "total_magnetization": 0.0009259, "total_magnetization_normalized_vol": null, "total_magnetization_normalized_formula_units": null, "num_magnetic_sites": null, "num_unique_magnetic_sites": null, "types_of_magnetic_species": null, "bulk_modulus": null, "shear_modulus": null, "universal_anisotropy": null, "homogeneous_poisson": null, "e_total": null, "e_ionic": null, "e_electronic": null, "n": null, "e_ij_max": null, "weighted_surface_energy_EV_PER_ANG2": null, "weighted_surface_energy": null, "weighted_work_function": null, "surface_anisotropy": null, "shape_factor": null, "has_reconstructed": null, "possible_species": null, "has_props": null, "theoretical": null, "database_IDs": null, "fields_not_requested": ["builder_meta", "nsites", "elements", "nelements", "composition", "composition_reduced", "chemsys", "symmetry", "property_name", "deprecated", "deprecation_reasons", "last_updated", "origins", "warnings", "task_ids", "uncorrected_energy_per_atom", "equilibrium_reaction_energy_per_atom", "decomposes_to", "xas", "grain_boundaries", "cbm", "vbm", "is_gap_direct", "is_metal", "es_source_calc_id", "bandstructure", "dos", "dos_energy_up", "dos_energy_down", "is_magnetic", "ordering", "total_magnetization_normalized_vol", "total_magnetization_normalized_formula_units", "num_magnetic_sites", "num_unique_magnetic_sites", "types_of_magnetic_species", "bulk_modulus", "shear_modulus", "universal_anisotropy", "homogeneous_poisson", "e_total", "e_ionic", "e_electronic", "n", "e_ij_max", "weighted_surface_energy_EV_PER_ANG2", "weighted_surface_energy", "weighted_work_function", "surface_anisotropy", "shape_factor", "has_reconstructed", "possible_species", "has_props", "theoretical", "database_IDs"]}