{"builder_meta": null, "nsites": null, "elements": null, "nelements": null, "composition": null, "composition_reduced": null, "formula_pretty": "Cr5As3", "formula_anonymous": "A3B5", "chemsys": null, "volume": 434.00835634513584, "density": 7.418645251711483, "density_atomic": 13.562761135785495, "symmetry": null, "property_name": null, "material_id": "mp-505539", "deprecated": null, "deprecation_reasons": null, "last_updated": null, "origins": null, "warnings": null, "structure": {"@module": "pymatgen.core.structure", "@class": "Structure", "charge": 0, "lattice": {"matrix": [[6.334419, 0.0, 0.0], [0.0, 7.398807, 0.0], [0.0, 0.0, 9.260397]], "pbc": [true, true, true], "a": 6.334419, "b": 7.398807, "c": 9.260397, "alpha": 90.0, "beta": 90.0, "gamma": 90.0, "volume": 434.00835634513584}, "properties": {}, "sites": [{"species": [{"element": "Cr", "occu": 1}], "abc": [0.65171, 0.75, 0.291855], "properties": {"magmom": 1.9220000000000002}, "label": "Cr", "xyz": [4.1282042064899995, 5.54910525, 2.7026931664349996]}, {"species": [{"element": "Cr", "occu": 1}], "abc": [0.15171, 0.25, 0.208145], "properties": {"magmom": 1.9220000000000002}, "label": "Cr", "xyz": [0.96099470649, 1.84970175, 1.9275053335649999]}, {"species": [{"element": "Cr", "occu": 1}], "abc": [0.34829000000000004, 0.25, 0.708144999999999], "properties": {"magmom": 1.9220000000000002}, "label": "Cr", "xyz": [2.20621479351, 1.84970175, 6.55770383356499]}, {"species": [{"element": "Cr", "occu": 1}], "abc": [0.8482900000000001, 0.75, 0.791855], "properties": {"magmom": 1.9220000000000002}, "label": "Cr", "xyz": [5.37342429351, 5.54910525, 7.332891666435]}, {"species": [{"element": "Cr", "occu": 1}], "abc": [0.194064, 0.75, 0.250577999999999], "properties": {"magmom": 2.204}, "label": "Cr", "xyz": [1.2292826888159998, 5.54910525, 2.320451759465991]}, {"species": [{"element": "Cr", "occu": 1}], "abc": [0.694064, 0.25, 0.249421999999999], "properties": {"magmom": 2.204}, "label": "Cr", "xyz": [4.396492188816, 1.84970175, 2.3097467405339906]}, {"species": [{"element": "Cr", "occu": 1}], "abc": [0.805936, 0.25, 0.749421999999999], "properties": {"magmom": 2.204}, "label": "Cr", "xyz": [5.105136311183999, 1.84970175, 6.939945240533991]}, {"species": [{"element": "Cr", "occu": 1}], "abc": [0.305936, 0.75, 0.750578], "properties": {"magmom": 2.204}, "label": "Cr", "xyz": [1.9379268111839998, 5.54910525, 6.950650259465999]}, {"species": [{"element": "Cr", "occu": 1}], "abc": [0.474398, 0.75, 0.01642], "properties": {"magmom": -0.9550000000000001}, "label": "Cr", "xyz": [3.0050357047619998, 5.54910525, 0.15205571873999998]}, {"species": [{"element": "Cr", "occu": 1}], "abc": [0.974398, 0.25, 0.48358000000000007], "properties": {"magmom": -0.9550000000000001}, "label": "Cr", "xyz": [6.172245204762, 1.84970175, 4.47814278126]}, {"species": [{"element": "Cr", "occu": 1}], "abc": [0.525602, 0.25, 0.9835800000000001], "properties": {"magmom": -0.9550000000000001}, "label": "Cr", "xyz": [3.329383295238, 1.84970175, 9.108341281260001]}, {"species": [{"element": "Cr", "occu": 1}], "abc": [0.025602, 0.75, 0.51642], "properties": {"magmom": -0.9550000000000001}, "label": "Cr", "xyz": [0.162173795238, 5.54910525, 4.7822542187399995]}, {"species": [{"element": "Cr", "occu": 1}], "abc": [0.799114999999999, 0.944307999999999, 0.076817], "properties": {"magmom": 0.789}, "label": "Cr", "xyz": [5.061929239184994, 6.986752640555992, 0.7113559163489999]}, {"species": [{"element": "Cr", "occu": 1}], "abc": [0.299114999999999, 0.055692, 0.423183], "properties": {"magmom": 0.789}, "label": "Cr", "xyz": [1.8947197391849937, 0.412054359444, 3.9188425836509997]}, {"species": [{"element": "Cr", "occu": 1}], "abc": [0.200884999999999, 0.444308, 0.923183], "properties": {"magmom": 0.789}, "label": "Cr", "xyz": [1.2724897608149937, 3.2873491405559996, 8.549041083651]}, {"species": [{"element": "Cr", "occu": 1}], "abc": [0.700885, 0.555692, 0.576817], "properties": {"magmom": 0.789}, "label": "Cr", "xyz": [4.439699260815, 4.111457859443999, 5.341554416349]}, {"species": [{"element": "Cr", "occu": 1}], "abc": [0.200884999999999, 0.055692, 0.923183], "properties": {"magmom": 0.789}, "label": "Cr", "xyz": [1.2724897608149937, 0.412054359444, 8.549041083651]}, {"species": [{"element": "Cr", "occu": 1}], "abc": [0.700885, 0.944307999999999, 0.576817], "properties": {"magmom": 0.789}, "label": "Cr", "xyz": [4.439699260815, 6.986752640555992, 5.341554416349]}, {"species": [{"element": "Cr", "occu": 1}], "abc": [0.799114999999999, 0.555692, 0.076817], "properties": {"magmom": 0.789}, "label": "Cr", "xyz": [5.061929239184994, 4.111457859443999, 0.7113559163489999]}, {"species": [{"element": "Cr", "occu": 1}], "abc": [0.299114999999999, 0.444308, 0.423183], "properties": {"magmom": 0.789}, "label": "Cr", "xyz": [1.8947197391849937, 3.2873491405559996, 3.9188425836509997]}, {"species": [{"element": "As", "occu": 1}], "abc": [0.414423, 0.75, 0.494376999999999], "properties": {"magmom": -0.045}, "label": "As", "xyz": [2.6251289252369996, 5.54910525, 4.57812728766899]}, {"species": [{"element": "As", "occu": 1}], "abc": [0.914423, 0.25, 0.005622999999999], "properties": {"magmom": -0.045}, "label": "As", "xyz": [5.792338425236999, 1.84970175, 0.05207121233099074]}, {"species": [{"element": "As", "occu": 1}], "abc": [0.585577, 0.25, 0.505622999999999], "properties": {"magmom": -0.045}, "label": "As", "xyz": [3.709290074763, 1.84970175, 4.68226971233099]}, {"species": [{"element": "As", "occu": 1}], "abc": [0.085577, 0.75, 0.994377], "properties": {"magmom": -0.045}, "label": "As", "xyz": [0.542080574763, 5.54910525, 9.208325787668999]}, {"species": [{"element": "As", "occu": 1}], "abc": [0.928377, 0.515477, 0.330009], "properties": {"magmom": -0.048}, "label": "As", "xyz": [5.880728907962999, 3.8139148359389994, 3.0560143535729996]}, {"species": [{"element": "As", "occu": 1}], "abc": [0.428377, 0.484523, 0.169991], "properties": {"magmom": -0.048}, "label": "As", "xyz": [2.713519407963, 3.584892164061, 1.5741841464269999]}, {"species": [{"element": "As", "occu": 1}], "abc": [0.071622999999999, 0.015477, 0.669991], "properties": {"magmom": -0.048}, "label": "As", "xyz": [0.4536900920369937, 0.114511335939, 6.204382646427]}, {"species": [{"element": "As", "occu": 1}], "abc": [0.571623, 0.984522999999999, 0.830009], "properties": {"magmom": -0.048}, "label": "As", "xyz": [3.6208995920369995, 7.284295664060992, 7.686212853572999]}, {"species": [{"element": "As", "occu": 1}], "abc": [0.071622999999999, 0.484523, 0.669991], "properties": {"magmom": -0.048}, "label": "As", "xyz": [0.4536900920369937, 3.584892164061, 6.204382646427]}, {"species": [{"element": "As", "occu": 1}], "abc": [0.571623, 0.515477, 0.830009], "properties": {"magmom": -0.048}, "label": "As", "xyz": [3.6208995920369995, 3.8139148359389994, 7.686212853572999]}, {"species": [{"element": "As", "occu": 1}], "abc": [0.928377, 0.984522999999999, 0.330009], "properties": {"magmom": -0.048}, "label": "As", "xyz": [5.880728907962999, 7.284295664060992, 3.0560143535729996]}, {"species": [{"element": "As", "occu": 1}], "abc": [0.428377, 0.015477, 0.169991], "properties": {"magmom": -0.048}, "label": "As", "xyz": [2.713519407963, 0.114511335939, 1.5741841464269999]}]}, "task_ids": null, "uncorrected_energy_per_atom": null, "energy_per_atom": -7.7973598456249995, "formation_energy_per_atom": -0.0129092271875, "energy_above_hull": 0.126299583437499, "is_stable": false, "equilibrium_reaction_energy_per_atom": null, "decomposes_to": null, "xas": null, "grain_boundaries": null, "band_gap": 0.0, "cbm": null, "vbm": null, "efermi": 7.65279679, "is_gap_direct": null, "is_metal": null, "es_source_calc_id": null, "bandstructure": null, "dos": null, "dos_energy_up": null, "dos_energy_down": null, "is_magnetic": null, "ordering": null, "total_magnetization": 19.1508451, "total_magnetization_normalized_vol": null, "total_magnetization_normalized_formula_units": null, "num_magnetic_sites": null, "num_unique_magnetic_sites": null, "types_of_magnetic_species": null, "bulk_modulus": null, "shear_modulus": null, "universal_anisotropy": null, "homogeneous_poisson": null, "e_total": null, "e_ionic": null, "e_electronic": null, "n": null, "e_ij_max": null, "weighted_surface_energy_EV_PER_ANG2": null, "weighted_surface_energy": null, "weighted_work_function": null, "surface_anisotropy": null, "shape_factor": null, "has_reconstructed": null, "possible_species": null, "has_props": null, "theoretical": null, "database_IDs": null, "fields_not_requested": ["builder_meta", "nsites", "elements", "nelements", "composition", "composition_reduced", "chemsys", "symmetry", "property_name", "deprecated", "deprecation_reasons", "last_updated", "origins", "warnings", "task_ids", "uncorrected_energy_per_atom", "equilibrium_reaction_energy_per_atom", "decomposes_to", "xas", "grain_boundaries", "cbm", "vbm", "is_gap_direct", "is_metal", "es_source_calc_id", "bandstructure", "dos", "dos_energy_up", "dos_energy_down", "is_magnetic", "ordering", "total_magnetization_normalized_vol", "total_magnetization_normalized_formula_units", "num_magnetic_sites", "num_unique_magnetic_sites", "types_of_magnetic_species", "bulk_modulus", "shear_modulus", "universal_anisotropy", "homogeneous_poisson", "e_total", "e_ionic", "e_electronic", "n", "e_ij_max", "weighted_surface_energy_EV_PER_ANG2", "weighted_surface_energy", "weighted_work_function", "surface_anisotropy", "shape_factor", "has_reconstructed", "possible_species", "has_props", "theoretical", "database_IDs"]}