{"builder_meta": null, "nsites": null, "elements": null, "nelements": null, "composition": null, "composition_reduced": null, "formula_pretty": "Cr5B3", "formula_anonymous": "A3B5", "chemsys": null, "volume": 144.37733613704606, "density": 6.726319425790365, "density_atomic": 9.023583508565379, "symmetry": null, "property_name": null, "material_id": "mp-15617", "deprecated": null, "deprecation_reasons": null, "last_updated": null, "origins": null, "warnings": null, "structure": {"@module": "pymatgen.core.structure", "@class": "Structure", "charge": 0, "lattice": {"matrix": [[4.92178776, 0.0, -2.24706382], [-1.02590622, 4.8136796, -2.24706382], [-0.12552078, -0.15509115, 6.23874663]], "pbc": [true, true, true], "a": 5.410479698292824, "b": 5.410479708384816, "c": 6.241936257633242, "alpha": 115.68337672404604, "beta": 115.68337693108182, "gamma": 89.99999386464039, "volume": 144.37733613704606}, "properties": {}, "sites": [{"species": [{"element": "Cr", "occu": 1}], "abc": [0.68287865, 0.18287865, 0.7080276], "properties": {"magmom": 0.0}, "label": "Cr", "xyz": [3.084495259981593, 0.7705104120648001, 2.4717928977161017]}, {"species": [{"element": "Cr", "occu": 1}], "abc": [0.97485004, 0.47485004000000003, 0.291972399999999], "properties": {"magmom": 0.0}, "label": "Cr", "xyz": [4.274204781717789, 2.2404936153229245, -1.4360267730661]}, {"species": [{"element": "Cr", "occu": 1}], "abc": [-0.0, -0.0, -0.0], "properties": {"magmom": -0.0}, "label": "Cr", "xyz": [0.0, 0.0, 0.0]}, {"species": [{"element": "Cr", "occu": 1}], "abc": [0.5, 0.5, -0.0], "properties": {"magmom": -0.0}, "label": "Cr", "xyz": [1.94794077, 2.4068398, -2.24706382]}, {"species": [{"element": "Cr", "occu": 1}], "abc": [0.02514996, 0.52514996, 0.7080276], "properties": {"magmom": 0.0}, "label": "Cr", "xyz": [-0.5038440217177896, 2.4180948346770763, 3.180645763066093]}, {"species": [{"element": "Cr", "occu": 1}], "abc": [0.18287865, 0.02514996, 0.7080276], "properties": {"magmom": 0.0}, "label": "Cr", "xyz": [0.7854162241250449, 0.011255034677076003, 3.9497512403910977]}, {"species": [{"element": "Cr", "occu": 1}], "abc": [0.52514996, 0.68287865, 0.7080276], "properties": {"magmom": 0.0}, "label": "Cr", "xyz": [1.7952350141387585, 3.1773502120648005, 1.702687420391097]}, {"species": [{"element": "Cr", "occu": 1}], "abc": [0.81712135, 0.97485004, 0.291972399999999], "properties": {"magmom": 0.0}, "label": "Cr", "xyz": [2.9849445358749556, 4.647333415322924, -2.2051322503911037]}, {"species": [{"element": "Cr", "occu": 1}], "abc": [0.47485004000000003, 0.31712135, 0.291972399999999], "properties": {"magmom": 0.0}, "label": "Cr", "xyz": [1.9751257458612415, 1.4812382379352003, 0.04193156960889599]}, {"species": [{"element": "Cr", "occu": 1}], "abc": [0.31712135, 0.81712135, 0.291972399999999], "properties": {"magmom": 0.0}, "label": "Cr", "xyz": [0.6858655000184073, 3.8880780379352005, -0.7271739077161081]}, {"species": [{"element": "B", "occu": 1}], "abc": [0.38187472, 0.88187472, -0.0], "properties": {"magmom": -0.0}, "label": "B", "xyz": [0.9747855622406687, 4.245062349419713, -2.839725644169261]}, {"species": [{"element": "B", "occu": 1}], "abc": [0.11812528, 0.38187472, 0.0], "properties": {"magmom": -0.0}, "label": "B", "xyz": [0.1896199067418144, 1.8382225494197122, -1.12353191]}, {"species": [{"element": "B", "occu": 1}], "abc": [0.88187472, 0.61812528, -0.0], "properties": {"magmom": -0.0}, "label": "B", "xyz": [3.706261633258185, 2.9754570505802884, -3.3705957300000002]}, {"species": [{"element": "B", "occu": 1}], "abc": [0.61812528, 0.11812528, 0.0], "properties": {"magmom": -0.0}, "label": "B", "xyz": [2.921095977759331, 0.568617250580288, -1.6544019958307392]}, {"species": [{"element": "B", "occu": 1}], "abc": [0.75, 0.75, 0.5], "properties": {"magmom": 0.0}, "label": "B", "xyz": [2.859150765, 3.5327141250000005, -0.2512224150000004]}, {"species": [{"element": "B", "occu": 1}], "abc": [0.25, 0.25, 0.5], "properties": {"magmom": 0.0}, "label": "B", "xyz": [0.911209995, 1.125874325, 1.9958414049999997]}]}, "task_ids": null, "uncorrected_energy_per_atom": null, "energy_per_atom": -12.44183564375, "formation_energy_per_atom": -0.26611382593750005, "energy_above_hull": 0.04195936250000001, "is_stable": false, "equilibrium_reaction_energy_per_atom": null, "decomposes_to": null, "xas": null, "grain_boundaries": null, "band_gap": 0.0, "cbm": null, "vbm": null, "efermi": 7.83437859, "is_gap_direct": null, "is_metal": null, "es_source_calc_id": null, "bandstructure": null, "dos": null, "dos_energy_up": null, "dos_energy_down": null, "is_magnetic": null, "ordering": null, "total_magnetization": 3e-07, "total_magnetization_normalized_vol": null, "total_magnetization_normalized_formula_units": null, "num_magnetic_sites": null, "num_unique_magnetic_sites": null, "types_of_magnetic_species": null, "bulk_modulus": null, "shear_modulus": null, "universal_anisotropy": null, "homogeneous_poisson": null, "e_total": null, "e_ionic": null, "e_electronic": null, "n": null, "e_ij_max": null, "weighted_surface_energy_EV_PER_ANG2": null, "weighted_surface_energy": null, "weighted_work_function": null, "surface_anisotropy": null, "shape_factor": null, "has_reconstructed": null, "possible_species": null, "has_props": null, "theoretical": null, "database_IDs": null, "fields_not_requested": ["builder_meta", "nsites", "elements", "nelements", "composition", "composition_reduced", "chemsys", "symmetry", "property_name", "deprecated", "deprecation_reasons", "last_updated", "origins", "warnings", "task_ids", "uncorrected_energy_per_atom", "equilibrium_reaction_energy_per_atom", "decomposes_to", "xas", "grain_boundaries", "cbm", "vbm", "is_gap_direct", "is_metal", "es_source_calc_id", "bandstructure", "dos", "dos_energy_up", "dos_energy_down", "is_magnetic", "ordering", "total_magnetization_normalized_vol", "total_magnetization_normalized_formula_units", "num_magnetic_sites", "num_unique_magnetic_sites", "types_of_magnetic_species", "bulk_modulus", "shear_modulus", "universal_anisotropy", "homogeneous_poisson", "e_total", "e_ionic", "e_electronic", "n", "e_ij_max", "weighted_surface_energy_EV_PER_ANG2", "weighted_surface_energy", "weighted_work_function", "surface_anisotropy", "shape_factor", "has_reconstructed", "possible_species", "has_props", "theoretical", "database_IDs"]}