{
  "builder_meta": null,
  "nsites": null,
  "elements": null,
  "nelements": null,
  "composition": null,
  "composition_reduced": null,
  "formula_pretty": "Cr5Ge3",
  "formula_anonymous": "A3B5",
  "chemsys": null,
  "volume": 204.90911136230665,
  "density": 7.745604330834574,
  "density_atomic": 12.806819460144165,
  "symmetry": null,
  "property_name": null,
  "material_id": "mp-568324",
  "deprecated": null,
  "deprecation_reasons": null,
  "last_updated": null,
  "origins": null,
  "warnings": null,
  "structure": {
    "@module": "pymatgen.core.structure",
    "@class": "Structure",
    "charge": 0,
    "lattice": {
      "matrix": [
        [-4.660668, 4.660668, 2.358332],
        [4.660668, -4.660668, 2.358332],
        [4.660668, 4.660668, -2.358332]
      ],
      "pbc": [true, true, true],
      "a": 7.0003844347772795,
      "b": 7.0003844347772795,
      "c": 7.0003844347772795,
      "alpha": 96.51666648091171,
      "beta": 96.51666648091171,
      "gamma": 140.6254604737306,
      "volume": 204.90911136230665
    },
    "properties": {},
    "sites": [
      {
        "species": [{ "element": "Cr", "occu": 1 }],
        "abc": [0.264905, 0.42179000000000005, 0.686693999999999],
        "properties": { "magmom": 0.113 },
        "label": "Cr",
        "xyz": [3.931641650771996, 2.4692638524119954, 2.3583320023501386e-6]
      },
      {
        "species": [{ "element": "Cr", "occu": 1 }],
        "abc": [0.57821, 0.264905, 0.843115],
        "properties": { "magmom": 0.11900000000000001 },
        "label": "Cr",
        "xyz": [2.46926851308, 5.389689688560001, 2.220446049250313e-16]
      },
      {
        "species": [{ "element": "Cr", "occu": 1 }],
        "abc": [0.735094999999999, 0.57821, 0.313306],
        "properties": { "magmom": 0.113 },
        "label": "Cr",
        "xyz": [0.7290263492280047, 2.1914041475879955, 2.358329641667998]
      },
      {
        "species": [{ "element": "Cr", "occu": 1 }],
        "abc": [0.75, 0.25, 0.5],
        "properties": { "magmom": 0.02 },
        "label": "Cr",
        "xyz": [4.440892098500626e-16, 4.660667999999999, 1.179166]
      },
      {
        "species": [{ "element": "Cr", "occu": 1 }],
        "abc": [0.764905, 0.07821, 0.843115],
        "properties": { "magmom": 0.123 },
        "label": "Cr",
        "xyz": [0.7290216885600005, 7.12993651308, 2.220446049250313e-16]
      },
      {
        "species": [{ "element": "Cr", "occu": 1 }],
        "abc": [0.07821, 0.235095, 0.313306],
        "properties": { "magmom": 0.111 },
        "label": "Cr",
        "xyz": [2.191404147588, 0.729026349228, -2.3583319997966257e-6]
      },
      {
        "species": [{ "element": "Cr", "occu": 1 }],
        "abc": [0.42179000000000005, 0.735094999999999, 0.156885],
        "properties": { "magmom": 0.11900000000000001 },
        "label": "Cr",
        "xyz": [2.1913994869199955, -0.7290216885599953, 2.358331999999998]
      },
      {
        "species": [{ "element": "Cr", "occu": 1 }],
        "abc": [0.235095, 0.9217900000000001, 0.156885],
        "properties": { "magmom": 0.123 },
        "label": "Cr",
        "xyz": [3.9316463114400007, -2.4692685130800003, 2.358332]
      },
      {
        "species": [{ "element": "Cr", "occu": 1 }],
        "abc": [0.9217900000000001, 0.764905, 0.686693999999999],
        "properties": { "magmom": 0.111 },
        "label": "Cr",
        "xyz": [2.469263852411995, 3.9316416507719962, 2.3583343583320024]
      },
      {
        "species": [{ "element": "Cr", "occu": 1 }],
        "abc": [0.25, 0.75, 0.5],
        "properties": { "magmom": 0.02 },
        "label": "Cr",
        "xyz": [4.660667999999999, 4.440892098500626e-16, 1.179166]
      },
      {
        "species": [{ "element": "Ge", "occu": 1 }],
        "abc": [0.66661, 0.8333900000000001, 0.5],
        "properties": { "magmom": -0.01 },
        "label": "Ge",
        "xyz": [3.1076402090400004, 1.5530277909599999, 2.3583320000000003]
      },
      {
        "species": [{ "element": "Ge", "occu": 1 }],
        "abc": [0.25, 0.25, 0.0],
        "properties": { "magmom": -0.009000000000000001 },
        "label": "Ge",
        "xyz": [0.0, 0.0, 1.179166]
      },
      {
        "species": [{ "element": "Ge", "occu": 1 }],
        "abc": [0.75, 0.75, 0.0],
        "properties": { "magmom": -0.009000000000000001 },
        "label": "Ge",
        "xyz": [0.0, 0.0, 3.537498]
      },
      {
        "species": [{ "element": "Ge", "occu": 1 }],
        "abc": [0.8333900000000001, 0.33339, 0.16678],
        "properties": { "magmom": -0.008 },
        "label": "Ge",
        "xyz": [-1.5530277909600003, 3.107640209040001, 2.3583320000000003]
      },
      {
        "species": [{ "element": "Ge", "occu": 1 }],
        "abc": [0.16661, 0.66661, 0.8332200000000001],
        "properties": { "magmom": -0.008 },
        "label": "Ge",
        "xyz": [6.213695790960001, 1.5530277909599999, 0.0]
      },
      {
        "species": [{ "element": "Ge", "occu": 1 }],
        "abc": [0.33339, 0.16661, 0.5],
        "properties": { "magmom": -0.01 },
        "label": "Ge",
        "xyz": [1.5530277909599999, 3.1076402090400004, 0.0]
      }
    ]
  },
  "task_ids": null,
  "uncorrected_energy_per_atom": null,
  "energy_per_atom": -14.510309933750001,
  "formation_energy_per_atom": 0.11252065249999801,
  "energy_above_hull": 0.11252065249999801,
  "is_stable": false,
  "equilibrium_reaction_energy_per_atom": null,
  "decomposes_to": null,
  "xas": null,
  "grain_boundaries": null,
  "band_gap": 0.0,
  "cbm": null,
  "vbm": null,
  "efermi": 8.18358296,
  "is_gap_direct": null,
  "is_metal": null,
  "es_source_calc_id": null,
  "bandstructure": null,
  "dos": null,
  "dos_energy_up": null,
  "dos_energy_down": null,
  "is_magnetic": null,
  "ordering": null,
  "total_magnetization": 0.9580673999999991,
  "total_magnetization_normalized_vol": null,
  "total_magnetization_normalized_formula_units": null,
  "num_magnetic_sites": null,
  "num_unique_magnetic_sites": null,
  "types_of_magnetic_species": null,
  "bulk_modulus": null,
  "shear_modulus": null,
  "universal_anisotropy": null,
  "homogeneous_poisson": null,
  "e_total": null,
  "e_ionic": null,
  "e_electronic": null,
  "n": null,
  "e_ij_max": null,
  "weighted_surface_energy_EV_PER_ANG2": null,
  "weighted_surface_energy": null,
  "weighted_work_function": null,
  "surface_anisotropy": null,
  "shape_factor": null,
  "has_reconstructed": null,
  "possible_species": null,
  "has_props": null,
  "theoretical": null,
  "database_IDs": null,
  "fields_not_requested": [
    "builder_meta",
    "nsites",
    "elements",
    "nelements",
    "composition",
    "composition_reduced",
    "chemsys",
    "symmetry",
    "property_name",
    "deprecated",
    "deprecation_reasons",
    "last_updated",
    "origins",
    "warnings",
    "task_ids",
    "uncorrected_energy_per_atom",
    "equilibrium_reaction_energy_per_atom",
    "decomposes_to",
    "xas",
    "grain_boundaries",
    "cbm",
    "vbm",
    "is_gap_direct",
    "is_metal",
    "es_source_calc_id",
    "bandstructure",
    "dos",
    "dos_energy_up",
    "dos_energy_down",
    "is_magnetic",
    "ordering",
    "total_magnetization_normalized_vol",
    "total_magnetization_normalized_formula_units",
    "num_magnetic_sites",
    "num_unique_magnetic_sites",
    "types_of_magnetic_species",
    "bulk_modulus",
    "shear_modulus",
    "universal_anisotropy",
    "homogeneous_poisson",
    "e_total",
    "e_ionic",
    "e_electronic",
    "n",
    "e_ij_max",
    "weighted_surface_energy_EV_PER_ANG2",
    "weighted_surface_energy",
    "weighted_work_function",
    "surface_anisotropy",
    "shape_factor",
    "has_reconstructed",
    "possible_species",
    "has_props",
    "theoretical",
    "database_IDs"
  ]
}
