{
  "builder_meta": null,
  "nsites": null,
  "elements": null,
  "nelements": null,
  "composition": null,
  "composition_reduced": null,
  "formula_pretty": "Cr5O7",
  "formula_anonymous": "A5B7",
  "chemsys": null,
  "volume": 279.9118361202061,
  "density": 4.413398065339852,
  "density_atomic": 11.662993171675254,
  "symmetry": null,
  "property_name": null,
  "material_id": "mp-1046050",
  "deprecated": null,
  "deprecation_reasons": null,
  "last_updated": null,
  "origins": null,
  "warnings": null,
  "structure": {
    "@module": "pymatgen.core.structure",
    "@class": "Structure",
    "charge": 0,
    "lattice": {
      "matrix": [
        [1.509603, -5.082956, 0.0],
        [1.509603, 5.082956, 0.0],
        [0.0, 0.0, 18.239468]
      ],
      "pbc": [true, true, true],
      "a": 5.302390302075565,
      "b": 5.302390302075565,
      "c": 18.239468,
      "alpha": 90.0,
      "beta": 90.0,
      "gamma": 146.91788465707293,
      "volume": 279.9118361202061
    },
    "properties": {},
    "sites": [
      {
        "species": [{ "element": "Cr", "occu": 1 }],
        "abc": [0.732781, 0.267219, 0.574839],
        "properties": { "magmom": -2.925 },
        "label": "Cr",
        "xyz": [1.509603, -2.3664311612720006, 10.484757545651998]
      },
      {
        "species": [{ "element": "Cr", "occu": 1 }],
        "abc": [0.0, 0.0, 0.5],
        "properties": { "magmom": -0.011 },
        "label": "Cr",
        "xyz": [0.0, 0.0, 9.119734]
      },
      {
        "species": [{ "element": "Cr", "occu": 1 }],
        "abc": [0.0, 0.0, 0.0],
        "properties": { "magmom": -0.011 },
        "label": "Cr",
        "xyz": [0.0, 0.0, 0.0]
      },
      {
        "species": [{ "element": "Cr", "occu": 1 }],
        "abc": [0.267219, 0.732781, 0.425160999999999],
        "properties": { "magmom": -2.925 },
        "label": "Cr",
        "xyz": [1.509603, 2.3664311612720006, 7.754710454347982]
      },
      {
        "species": [{ "element": "Cr", "occu": 1 }],
        "abc": [0.267219, 0.732781, 0.074839],
        "properties": { "magmom": -2.925 },
        "label": "Cr",
        "xyz": [1.509603, 2.3664311612720006, 1.365023545652]
      },
      {
        "species": [{ "element": "Cr", "occu": 1 }],
        "abc": [0.732781, 0.267219, 0.925161],
        "properties": { "magmom": -2.925 },
        "label": "Cr",
        "xyz": [1.509603, -2.3664311612720006, 16.874444454347998]
      },
      {
        "species": [{ "element": "Cr", "occu": 1 }],
        "abc": [0.535264, 0.464736, 0.159658],
        "properties": { "magmom": 2.987 },
        "label": "Cr",
        "xyz": [1.5096029999999998, -0.35849072076800015, 2.9120769819439998]
      },
      {
        "species": [{ "element": "Cr", "occu": 1 }],
        "abc": [0.464736, 0.535264, 0.840341999999999],
        "properties": { "magmom": 2.987 },
        "label": "Cr",
        "xyz": [1.5096029999999998, 0.35849072076800015, 15.327391018055982]
      },
      {
        "species": [{ "element": "Cr", "occu": 1 }],
        "abc": [0.464736, 0.535264, 0.659658],
        "properties": { "magmom": 2.987 },
        "label": "Cr",
        "xyz": [1.5096029999999998, 0.35849072076800015, 12.031810981943998]
      },
      {
        "species": [{ "element": "Cr", "occu": 1 }],
        "abc": [0.535264, 0.464736, 0.340342],
        "properties": { "magmom": 2.987 },
        "label": "Cr",
        "xyz": [1.5096029999999998, -0.35849072076800015, 6.207657018056]
      },
      {
        "species": [{ "element": "O", "occu": 1 }],
        "abc": [0.350691, 0.649309, 0.967904],
        "properties": { "magmom": 0.023 },
        "label": "O",
        "xyz": [1.509603, 1.5178621548080002, 17.654054035071997]
      },
      {
        "species": [{ "element": "O", "occu": 1 }],
        "abc": [0.649309, 0.350691, 0.032096],
        "properties": { "magmom": 0.023 },
        "label": "O",
        "xyz": [1.509603, -1.5178621548080002, 0.5854139649279999]
      },
      {
        "species": [{ "element": "O", "occu": 1 }],
        "abc": [0.649309, 0.350691, 0.467904],
        "properties": { "magmom": 0.023 },
        "label": "O",
        "xyz": [1.509603, -1.5178621548080002, 8.534320035072]
      },
      {
        "species": [{ "element": "O", "occu": 1 }],
        "abc": [0.350691, 0.649309, 0.532096],
        "properties": { "magmom": 0.023 },
        "label": "O",
        "xyz": [1.509603, 1.5178621548080002, 9.705147964927999]
      },
      {
        "species": [{ "element": "O", "occu": 1 }],
        "abc": [0.845846, 0.15415399999999901, 0.839495999999999],
        "properties": { "magmom": -0.035 },
        "label": "O",
        "xyz": [1.5096029999999985, -3.5158400015520046, 15.31196042812798]
      },
      {
        "species": [{ "element": "O", "occu": 1 }],
        "abc": [0.15415399999999901, 0.845846, 0.160503999999999],
        "properties": { "magmom": -0.035 },
        "label": "O",
        "xyz": [1.5096029999999985, 3.5158400015520046, 2.9275075718719816]
      },
      {
        "species": [{ "element": "O", "occu": 1 }],
        "abc": [0.15415399999999901, 0.845846, 0.339495999999999],
        "properties": { "magmom": -0.035 },
        "label": "O",
        "xyz": [1.5096029999999985, 3.5158400015520046, 6.192226428127982]
      },
      {
        "species": [{ "element": "O", "occu": 1 }],
        "abc": [0.845846, 0.15415399999999901, 0.660504],
        "properties": { "magmom": -0.035 },
        "label": "O",
        "xyz": [1.5096029999999985, -3.5158400015520046, 12.047241571871998]
      },
      {
        "species": [{ "element": "O", "occu": 1 }],
        "abc": [0.100715, 0.899285, 0.901034999999999],
        "properties": { "magmom": 0.016 },
        "label": "O",
        "xyz": [1.509603, 4.0590961729199995, 16.43439904937998]
      },
      {
        "species": [{ "element": "O", "occu": 1 }],
        "abc": [0.899285, 0.100715, 0.098965],
        "properties": { "magmom": 0.016 },
        "label": "O",
        "xyz": [1.509603, -4.0590961729199995, 1.8050689506199997]
      },
      {
        "species": [{ "element": "O", "occu": 1 }],
        "abc": [0.899285, 0.100715, 0.401035],
        "properties": { "magmom": 0.016 },
        "label": "O",
        "xyz": [1.509603, -4.0590961729199995, 7.314665049379999]
      },
      {
        "species": [{ "element": "O", "occu": 1 }],
        "abc": [0.100715, 0.899285, 0.598965],
        "properties": { "magmom": 0.016 },
        "label": "O",
        "xyz": [1.509603, 4.0590961729199995, 10.924802950619998]
      },
      {
        "species": [{ "element": "O", "occu": 1 }],
        "abc": [0.540934, 0.459066, 0.75],
        "properties": { "magmom": -0.11800000000000001 },
        "label": "O",
        "xyz": [1.509603, -0.416131441808, 13.679600999999998]
      },
      {
        "species": [{ "element": "O", "occu": 1 }],
        "abc": [0.459066, 0.540934, 0.25],
        "properties": { "magmom": -0.11800000000000001 },
        "label": "O",
        "xyz": [1.509603, 0.416131441808, 4.559867]
      }
    ]
  },
  "task_ids": null,
  "uncorrected_energy_per_atom": null,
  "energy_per_atom": -8.79123257375,
  "formation_energy_per_atom": -1.882818874999999,
  "energy_above_hull": 0.41803034486111,
  "is_stable": false,
  "equilibrium_reaction_energy_per_atom": null,
  "decomposes_to": null,
  "xas": null,
  "grain_boundaries": null,
  "band_gap": 0.7753000000000001,
  "cbm": null,
  "vbm": null,
  "efermi": 3.72306084,
  "is_gap_direct": null,
  "is_metal": null,
  "es_source_calc_id": null,
  "bandstructure": null,
  "dos": null,
  "dos_energy_up": null,
  "dos_energy_down": null,
  "is_magnetic": null,
  "ordering": null,
  "total_magnetization": 0.0,
  "total_magnetization_normalized_vol": null,
  "total_magnetization_normalized_formula_units": null,
  "num_magnetic_sites": null,
  "num_unique_magnetic_sites": null,
  "types_of_magnetic_species": null,
  "bulk_modulus": null,
  "shear_modulus": null,
  "universal_anisotropy": null,
  "homogeneous_poisson": null,
  "e_total": null,
  "e_ionic": null,
  "e_electronic": null,
  "n": null,
  "e_ij_max": null,
  "weighted_surface_energy_EV_PER_ANG2": null,
  "weighted_surface_energy": null,
  "weighted_work_function": null,
  "surface_anisotropy": null,
  "shape_factor": null,
  "has_reconstructed": null,
  "possible_species": null,
  "has_props": null,
  "theoretical": null,
  "database_IDs": null,
  "fields_not_requested": [
    "builder_meta",
    "nsites",
    "elements",
    "nelements",
    "composition",
    "composition_reduced",
    "chemsys",
    "symmetry",
    "property_name",
    "deprecated",
    "deprecation_reasons",
    "last_updated",
    "origins",
    "warnings",
    "task_ids",
    "uncorrected_energy_per_atom",
    "equilibrium_reaction_energy_per_atom",
    "decomposes_to",
    "xas",
    "grain_boundaries",
    "cbm",
    "vbm",
    "is_gap_direct",
    "is_metal",
    "es_source_calc_id",
    "bandstructure",
    "dos",
    "dos_energy_up",
    "dos_energy_down",
    "is_magnetic",
    "ordering",
    "total_magnetization_normalized_vol",
    "total_magnetization_normalized_formula_units",
    "num_magnetic_sites",
    "num_unique_magnetic_sites",
    "types_of_magnetic_species",
    "bulk_modulus",
    "shear_modulus",
    "universal_anisotropy",
    "homogeneous_poisson",
    "e_total",
    "e_ionic",
    "e_electronic",
    "n",
    "e_ij_max",
    "weighted_surface_energy_EV_PER_ANG2",
    "weighted_surface_energy",
    "weighted_work_function",
    "surface_anisotropy",
    "shape_factor",
    "has_reconstructed",
    "possible_species",
    "has_props",
    "theoretical",
    "database_IDs"
  ]
}
