{
  "builder_meta": null,
  "nsites": null,
  "elements": null,
  "nelements": null,
  "composition": null,
  "composition_reduced": null,
  "formula_pretty": "Cr5S6",
  "formula_anonymous": "A5B6",
  "chemsys": null,
  "volume": 350.7727782111976,
  "density": 4.282994203017067,
  "density_atomic": 15.944217191418073,
  "symmetry": null,
  "property_name": null,
  "material_id": "mp-1311",
  "deprecated": null,
  "deprecation_reasons": null,
  "last_updated": null,
  "origins": null,
  "warnings": null,
  "structure": {
    "@module": "pymatgen.core.structure",
    "@class": "Structure",
    "charge": 0,
    "lattice": {
      "matrix": [
        [2.972426, -5.148392, 0.0],
        [2.972426, 5.148392, 0.0],
        [0.0, 0.0, 11.460755]
      ],
      "pbc": [true, true, true],
      "a": 5.944851260640589,
      "b": 5.944851260640589,
      "c": 11.460755,
      "alpha": 90.0,
      "beta": 90.0,
      "gamma": 119.99999177176623,
      "volume": 350.7727782111976
    },
    "properties": {},
    "sites": [
      {
        "species": [{ "element": "Cr", "occu": 1 }],
        "abc": [0.666667, 0.333333, 0.495726],
        "properties": { "magmom": 2.901 },
        "label": "Cr",
        "xyz": [2.972426, -1.7161340989280003, 5.681394233130001]
      },
      {
        "species": [{ "element": "Cr", "occu": 1 }],
        "abc": [0.666667, 0.333333, 0.004274],
        "properties": { "magmom": 2.901 },
        "label": "Cr",
        "xyz": [2.972426, -1.7161340989280003, 0.04898326687]
      },
      {
        "species": [{ "element": "Cr", "occu": 1 }],
        "abc": [0.0, 0.0, 0.25],
        "properties": { "magmom": 2.961 },
        "label": "Cr",
        "xyz": [0.0, 0.0, 2.86518875]
      },
      {
        "species": [{ "element": "Cr", "occu": 1 }],
        "abc": [0.333333, 0.666667, 0.504274],
        "properties": { "magmom": 2.8970000000000002 },
        "label": "Cr",
        "xyz": [2.972426, 1.7161340989280003, 5.77936076687]
      },
      {
        "species": [{ "element": "Cr", "occu": 1 }],
        "abc": [0.333333, 0.666667, 0.995726],
        "properties": { "magmom": 2.8970000000000002 },
        "label": "Cr",
        "xyz": [2.972426, 1.7161340989280003, 11.411771733130001]
      },
      {
        "species": [{ "element": "Cr", "occu": 1 }],
        "abc": [0.0, 0.0, 0.75],
        "properties": { "magmom": 3.001 },
        "label": "Cr",
        "xyz": [0.0, 0.0, 8.595566250000001]
      },
      {
        "species": [{ "element": "Cr", "occu": 1 }],
        "abc": [0.0, 0.0, 0.5],
        "properties": { "magmom": 2.823 },
        "label": "Cr",
        "xyz": [0.0, 0.0, 5.7303775]
      },
      {
        "species": [{ "element": "Cr", "occu": 1 }],
        "abc": [0.666667, 0.333333, 0.75],
        "properties": { "magmom": 2.89 },
        "label": "Cr",
        "xyz": [2.972426, -1.7161340989280003, 8.595566250000001]
      },
      {
        "species": [{ "element": "Cr", "occu": 1 }],
        "abc": [0.333333, 0.666667, 0.25],
        "properties": { "magmom": 2.860999999999999 },
        "label": "Cr",
        "xyz": [2.972426, 1.7161340989280003, 2.86518875]
      },
      {
        "species": [{ "element": "Cr", "occu": 1 }],
        "abc": [0.0, 0.0, 0.0],
        "properties": { "magmom": 2.824 },
        "label": "Cr",
        "xyz": [0.0, 0.0, 0.0]
      },
      {
        "species": [{ "element": "S", "occu": 1 }],
        "abc": [0.339302, 0.007248999999999, 0.8763400000000001],
        "properties": { "magmom": -0.065 },
        "label": "S",
        "xyz": [1.0300972027259971, -1.7095390087760052, 10.043518036700002]
      },
      {
        "species": [{ "element": "S", "occu": 1 }],
        "abc": [0.007248999999999, 0.667947, 0.12366],
        "properties": { "magmom": -0.064 },
        "label": "S",
        "xyz": [2.006970145495997, 3.401532297616005, 1.4172369633000002]
      },
      {
        "species": [{ "element": "S", "occu": 1 }],
        "abc": [0.667947, 0.007248999999999, 0.6236600000000001],
        "properties": { "magmom": -0.065 },
        "label": "S",
        "xyz": [2.006970145495997, -3.401532297616005, 7.147614463300002]
      },
      {
        "species": [{ "element": "S", "occu": 1 }],
        "abc": [0.339302, 0.332053, 0.6236600000000001],
        "properties": { "magmom": -0.065 },
        "label": "S",
        "xyz": [1.99555305723, -0.037320693607999944, 7.147614463300002]
      },
      {
        "species": [{ "element": "S", "occu": 1 }],
        "abc": [0.332053, 0.992750999999999, 0.37634],
        "properties": { "magmom": -0.064 },
        "label": "S",
        "xyz": [3.9378818545039973, 3.4015322976159954, 4.313140536700001]
      },
      {
        "species": [{ "element": "S", "occu": 1 }],
        "abc": [0.992750999999999, 0.332053, 0.8763400000000001],
        "properties": { "magmom": -0.065 },
        "label": "S",
        "xyz": [3.9378818545039973, -3.4015322976159954, 10.043518036700002]
      },
      {
        "species": [{ "element": "S", "occu": 1 }],
        "abc": [0.332053, 0.339302, 0.12366],
        "properties": { "magmom": -0.064 },
        "label": "S",
        "xyz": [1.99555305723, 0.037320693607999944, 1.4172369633000002]
      },
      {
        "species": [{ "element": "S", "occu": 1 }],
        "abc": [0.007248999999999, 0.339302, 0.37634],
        "properties": { "magmom": -0.064 },
        "label": "S",
        "xyz": [1.0300972027259971, 1.7095390087760052, 4.313140536700001]
      },
      {
        "species": [{ "element": "S", "occu": 1 }],
        "abc": [0.660698, 0.667947, 0.37634],
        "properties": { "magmom": -0.064 },
        "label": "S",
        "xyz": [3.9492989427699996, 0.03732069360799972, 4.313140536700001]
      },
      {
        "species": [{ "element": "S", "occu": 1 }],
        "abc": [0.660698, 0.992750999999999, 0.12366],
        "properties": { "magmom": -0.064 },
        "label": "S",
        "xyz": [4.914754797273997, 1.709539008775995, 1.4172369633000002]
      },
      {
        "species": [{ "element": "S", "occu": 1 }],
        "abc": [0.992750999999999, 0.660698, 0.6236600000000001],
        "properties": { "magmom": -0.065 },
        "label": "S",
        "xyz": [4.914754797273997, -1.709539008775995, 7.147614463300002]
      },
      {
        "species": [{ "element": "S", "occu": 1 }],
        "abc": [0.667947, 0.660698, 0.8763400000000001],
        "properties": { "magmom": -0.065 },
        "label": "S",
        "xyz": [3.9492989427699996, -0.03732069360799972, 10.043518036700002]
      }
    ]
  },
  "task_ids": null,
  "uncorrected_energy_per_atom": null,
  "energy_per_atom": -7.513083682272727,
  "formation_energy_per_atom": -0.868047795454543,
  "energy_above_hull": 0.034498021363635,
  "is_stable": false,
  "equilibrium_reaction_energy_per_atom": null,
  "decomposes_to": null,
  "xas": null,
  "grain_boundaries": null,
  "band_gap": 0.0,
  "cbm": null,
  "vbm": null,
  "efermi": 6.33238741,
  "is_gap_direct": null,
  "is_metal": null,
  "es_source_calc_id": null,
  "bandstructure": null,
  "dos": null,
  "dos_energy_up": null,
  "dos_energy_down": null,
  "is_magnetic": null,
  "ordering": null,
  "total_magnetization": 30.5320315,
  "total_magnetization_normalized_vol": null,
  "total_magnetization_normalized_formula_units": null,
  "num_magnetic_sites": null,
  "num_unique_magnetic_sites": null,
  "types_of_magnetic_species": null,
  "bulk_modulus": null,
  "shear_modulus": null,
  "universal_anisotropy": null,
  "homogeneous_poisson": null,
  "e_total": null,
  "e_ionic": null,
  "e_electronic": null,
  "n": null,
  "e_ij_max": null,
  "weighted_surface_energy_EV_PER_ANG2": null,
  "weighted_surface_energy": null,
  "weighted_work_function": null,
  "surface_anisotropy": null,
  "shape_factor": null,
  "has_reconstructed": null,
  "possible_species": null,
  "has_props": null,
  "theoretical": null,
  "database_IDs": null,
  "fields_not_requested": [
    "builder_meta",
    "nsites",
    "elements",
    "nelements",
    "composition",
    "composition_reduced",
    "chemsys",
    "symmetry",
    "property_name",
    "deprecated",
    "deprecation_reasons",
    "last_updated",
    "origins",
    "warnings",
    "task_ids",
    "uncorrected_energy_per_atom",
    "equilibrium_reaction_energy_per_atom",
    "decomposes_to",
    "xas",
    "grain_boundaries",
    "cbm",
    "vbm",
    "is_gap_direct",
    "is_metal",
    "es_source_calc_id",
    "bandstructure",
    "dos",
    "dos_energy_up",
    "dos_energy_down",
    "is_magnetic",
    "ordering",
    "total_magnetization_normalized_vol",
    "total_magnetization_normalized_formula_units",
    "num_magnetic_sites",
    "num_unique_magnetic_sites",
    "types_of_magnetic_species",
    "bulk_modulus",
    "shear_modulus",
    "universal_anisotropy",
    "homogeneous_poisson",
    "e_total",
    "e_ionic",
    "e_electronic",
    "n",
    "e_ij_max",
    "weighted_surface_energy_EV_PER_ANG2",
    "weighted_surface_energy",
    "weighted_work_function",
    "surface_anisotropy",
    "shape_factor",
    "has_reconstructed",
    "possible_species",
    "has_props",
    "theoretical",
    "database_IDs"
  ]
}
