{"builder_meta": null, "nsites": null, "elements": null, "nelements": null, "composition": null, "composition_reduced": null, "formula_pretty": "Cr5S8", "formula_anonymous": "A5B8", "chemsys": null, "volume": 457.4841617819021, "density": 3.749503610476083, "density_atomic": 17.59554468391931, "symmetry": null, "property_name": null, "material_id": "mp-1181961", "deprecated": null, "deprecation_reasons": null, "last_updated": null, "origins": null, "warnings": null, "structure": {"@module": "pymatgen.core.structure", "@class": "Structure", "charge": 0, "lattice": {"matrix": [[4e-08, 6.86830135, 1.14e-06], [-0.05047899, 2.259999999999998e-06, 11.15576279], [5.97124217, -3.43415011, -0.11313943]], "pbc": [true, true, true], "a": 6.8683013500000945, "b": 11.155876996237684, "c": 6.8892612493227485, "alpha": 91.16573057172451, "beta": 119.89940352077838, "gamma": 89.99997888446227, "volume": 457.4841617819021}, "properties": {}, "sites": [{"species": [{"element": "Cr", "occu": 1}], "abc": [3.4500000000000005e-05, -0.00015631, 6.999e-05], "properties": {"magmom": 3.051}, "label": "Cr", "xyz": [0.0004258176117852, -3.4001228844999403e-06, -0.0017516758710806]}, {"species": [{"element": "Cr", "occu": 1}], "abc": [0.50005555, 0.50009932, 0.000111099999999], "properties": {"magmom": 3.051}, "label": "Cr", "xyz": [-0.024581083565983774, 3.4341518052872386, 5.578977385632958]}, {"species": [{"element": "Cr", "occu": 1}], "abc": [0.00445351, 0.7312925100000001, 0.008908020000000001], "properties": {"magmom": 2.9530000000000003}, "label": "Cr", "xyz": [0.0162770375539789, -1.776396571100819e-06, 8.157117928435477]}, {"species": [{"element": "Cr", "occu": 1}], "abc": [0.99551588, 0.26880397, 0.99103377], "properties": {"magmom": 2.9530000000000003}, "label": "Cr", "xyz": [5.904133726225126, 3.4341449397881956, 2.8865894653698283]}, {"species": [{"element": "Cr", "occu": 1}], "abc": [0.49678264, 0.7688027, 0.99356329], "properties": {"magmom": 2.951}, "label": "Cr", "xyz": [5.893998651877971, 9.132817204271504e-06, 8.464169935544218]}, {"species": [{"element": "Cr", "occu": 1}], "abc": [0.50307885, 0.23114679000000002, 0.006157699999999], "properties": {"magmom": 2.952}, "label": "Cr", "xyz": [0.02510108153241493, 3.4341512008708492, 2.577922653751722]}, {"species": [{"element": "Cr", "occu": 1}], "abc": [0.47825147, 0.74995987, 0.50099253], "properties": {"magmom": 2.91}, "label": "Cr", "xyz": [2.9536905243429175, 1.5642933599411128, 8.309692947667456]}, {"species": [{"element": "Cr", "occu": 1}], "abc": [0.02274006, 0.74995987, 0.50099153], "properties": {"magmom": 2.91}, "label": "Cr", "xyz": [2.9536845348802907, -1.564292838152181, 8.309692541523878]}, {"species": [{"element": "Cr", "occu": 1}], "abc": [0.52173549, 0.25005281, 0.49910082], "properties": {"magmom": 2.91}, "label": "Cr", "xyz": [2.9676294710395372, 1.8694499995251719, 2.7330624458240664]}, {"species": [{"element": "Cr", "occu": 1}], "abc": [0.97736533, 0.25005281, 0.49910082], "properties": {"magmom": 2.91}, "label": "Cr", "xyz": [2.9676294892647306, 4.998853044697456, 2.7330629652420844]}, {"species": [{"element": "S", "occu": 1}], "abc": [0.15913717, 0.14274211, 0.31827534], "properties": {"magmom": -0.14300000000000002}, "label": "S", "xyz": [1.8932936607013058, -2.9317279395257856e-06, 1.5563878101698045]}, {"species": [{"element": "S", "occu": 1}], "abc": [0.83365853, 0.37786731, 0.66731905], "properties": {"magmom": -0.178}, "label": "S", "xyz": [3.965649325387863, 3.4341450720555406, 4.139898929880978]}, {"species": [{"element": "S", "occu": 1}], "abc": [0.16631531, 0.62219619, 0.33262861], "properties": {"magmom": -0.177}, "label": "S", "xyz": [1.954798154380048, 8.49674141090162e-06, 6.903439882744133]}, {"species": [{"element": "S", "occu": 1}], "abc": [0.65992067, 0.64256642, 0.31984133], "properties": {"magmom": -0.14300000000000002}, "label": "S", "xyz": [1.8774139599121968, 3.4341523422519673, 7.132132644882434]}, {"species": [{"element": "S", "occu": 1}], "abc": [0.34009651, 0.35761788, 0.68019301], "properties": {"magmom": -0.14300000000000002}, "label": "S", "xyz": [4.043545009266751, 1.2268669666859466e-06, 3.9125439770113224]}, {"species": [{"element": "S", "occu": 1}], "abc": [0.66518906, 0.12223626, 0.33037711000000003], "properties": {"magmom": -0.178}, "label": "S", "xyz": [1.966591394896114, 3.434154606409197, 1.3262608013018466]}, {"species": [{"element": "S", "occu": 1}], "abc": [0.33481619, 0.87769728, 0.66963038], "properties": {"magmom": -0.178}, "label": "S", "xyz": [3.954219904541625, 9.230238367852195e-06, 9.715621439294786]}, {"species": [{"element": "S", "occu": 1}], "abc": [0.17908686000000001, 0.62973981, 0.83161716], "properties": {"magmom": -0.137}, "label": "S", "xyz": [4.933998832679519, -1.625874215974656, 6.931139452478072]}, {"species": [{"element": "S", "occu": 1}], "abc": [0.652531299999999, 0.62973981, 0.83161716], "properties": {"magmom": -0.137}, "label": "S", "xyz": [4.933998851617297, 1.6258848704273317, 6.931139992204733]}, {"species": [{"element": "S", "occu": 1}], "abc": [0.82080235, 0.37027506, 0.16831571], "properties": {"magmom": -0.137}, "label": "S", "xyz": [0.9863627872065954, 5.05949731139858, 4.111658528638252]}, {"species": [{"element": "S", "occu": 1}], "abc": [0.34751236, 0.37027506, 0.16831571], "properties": {"magmom": -0.137}, "label": "S", "xyz": [0.9863627682749958, 1.808799034140094, 4.111657989087663]}, {"species": [{"element": "S", "occu": 1}], "abc": [0.15142417, 0.12933865, 0.8296356300000001], "properties": {"magmom": -0.137}, "label": "S", "xyz": [4.947426381227521, -1.8090661664854408, 1.3490069693164966]}, {"species": [{"element": "S", "occu": 1}], "abc": [0.67821146, 0.12933865, 0.8296356300000001], "properties": {"magmom": -0.137}, "label": "S", "xyz": [4.947426402299013, 1.8090676885844008, 1.3490075698540072]}, {"species": [{"element": "S", "occu": 1}], "abc": [0.84850337, 0.87056625, 0.170448799999999], "properties": {"magmom": -0.137}, "label": "S", "xyz": [0.9738457912979375, 5.2424320438609096, 9.692547065197495]}, {"species": [{"element": "S", "occu": 1}], "abc": [0.32194644, 0.87056625, 0.170448799999999], "properties": {"magmom": -0.137}, "label": "S", "xyz": [0.9738457702356602, 1.6258803706900542, 9.692546464922595]}, {"species": [{"element": "S", "occu": 1}], "abc": [0.8408369800000001, 0.85721866, 0.68167597], "properties": {"magmom": -0.14200000000000002}, "label": "S", "xyz": [4.027180799807181, 3.4341460948182383, 9.485804557985322]}]}, "task_ids": null, "uncorrected_energy_per_atom": null, "energy_per_atom": -7.237521504615385, "formation_energy_per_atom": -0.9781281284615381, "energy_above_hull": 0.0, "is_stable": true, "equilibrium_reaction_energy_per_atom": null, "decomposes_to": null, "xas": null, "grain_boundaries": null, "band_gap": 0.0, "cbm": null, "vbm": null, "efermi": 4.9032847, "is_gap_direct": null, "is_metal": null, "es_source_calc_id": null, "bandstructure": null, "dos": null, "dos_energy_up": null, "dos_energy_down": null, "is_magnetic": null, "ordering": null, "total_magnetization": 27.9998481, "total_magnetization_normalized_vol": null, "total_magnetization_normalized_formula_units": null, "num_magnetic_sites": null, "num_unique_magnetic_sites": null, "types_of_magnetic_species": null, "bulk_modulus": null, "shear_modulus": null, "universal_anisotropy": null, "homogeneous_poisson": null, "e_total": null, "e_ionic": null, "e_electronic": null, "n": null, "e_ij_max": null, "weighted_surface_energy_EV_PER_ANG2": null, "weighted_surface_energy": null, "weighted_work_function": null, "surface_anisotropy": null, "shape_factor": null, "has_reconstructed": null, "possible_species": null, "has_props": null, "theoretical": null, "database_IDs": null, "fields_not_requested": ["builder_meta", "nsites", "elements", "nelements", "composition", "composition_reduced", "chemsys", "symmetry", "property_name", "deprecated", "deprecation_reasons", "last_updated", "origins", "warnings", "task_ids", "uncorrected_energy_per_atom", "equilibrium_reaction_energy_per_atom", "decomposes_to", "xas", "grain_boundaries", "cbm", "vbm", "is_gap_direct", "is_metal", "es_source_calc_id", "bandstructure", "dos", "dos_energy_up", "dos_energy_down", "is_magnetic", "ordering", "total_magnetization_normalized_vol", "total_magnetization_normalized_formula_units", "num_magnetic_sites", "num_unique_magnetic_sites", "types_of_magnetic_species", "bulk_modulus", "shear_modulus", "universal_anisotropy", "homogeneous_poisson", "e_total", "e_ionic", "e_electronic", "n", "e_ij_max", "weighted_surface_energy_EV_PER_ANG2", "weighted_surface_energy", "weighted_work_function", "surface_anisotropy", "shape_factor", "has_reconstructed", "possible_species", "has_props", "theoretical", "database_IDs"]}