{"builder_meta": null, "nsites": null, "elements": null, "nelements": null, "composition": null, "composition_reduced": null, "formula_pretty": "Cr5Si3", "formula_anonymous": "A3B5", "chemsys": null, "volume": 184.3009486955131, "density": 6.203104115471116, "density_atomic": 11.51880929346957, "symmetry": null, "property_name": null, "material_id": "mp-7506", "deprecated": null, "deprecation_reasons": null, "last_updated": null, "origins": null, "warnings": null, "structure": {"@module": "pymatgen.core.structure", "@class": "Structure", "charge": 0, "lattice": {"matrix": [[4.2827748, -0.00028899, 1.5307049400000001], [2.14094187, 6.36553, 0.76539869], [-0.00189476, 4.9400000000000015e-05, 6.7594973]], "pbc": [true, true, true], "a": 4.548100447920062, "b": 6.759396380319237, "c": 6.7594975657413405, "alpha": 83.50290355073116, "beta": 70.34868208855981, "gamma": 70.34787946393087, "volume": 184.3009486955131}, "properties": {}, "sites": [{"species": [{"element": "Cr", "occu": 1}], "abc": [0.24997892, 0.50000395, 0.50000549], "properties": {"magmom": -0.0}, "label": "Cr", "xyz": [2.14013542042537, 3.182742602706615, 4.145132095704867]}, {"species": [{"element": "Cr", "occu": 1}], "abc": [0.75001711, 0.49998868, 0.50002854], "properties": {"magmom": -0.0}, "label": "Cr", "xyz": [4.28165364373841, 3.182500896165657, 4.9106871421012945]}, {"species": [{"element": "Cr", "occu": 1}], "abc": [0.07660295, 0.15168811000000001, 0.69577585], "properties": {"magmom": -0.004}, "label": "Cr", "xyz": [0.6515102814962798, 0.9655874486887696, 4.936453374146353]}, {"species": [{"element": "Cr", "occu": 1}], "abc": [0.7720247, 0.304232599999999, 0.15172659], "properties": {"magmom": 0.003}, "label": "Cr", "xyz": [3.9574647562228518, 1.9363861301534868, 2.440196731030518]}, {"species": [{"element": "Cr", "occu": 1}], "abc": [0.22797817, 0.69577256, 0.84825708], "properties": {"magmom": 0.003}, "label": "Cr", "xyz": [2.4643805235423026, 4.428937124345203, 6.61530215895899]}, {"species": [{"element": "Cr", "occu": 1}], "abc": [0.92336724, 0.84832792, 0.30424753], "properties": {"magmom": -0.004}, "label": "Cr", "xyz": [5.770218233985619, 5.399805010526895, 4.119272231927259]}, {"species": [{"element": "Cr", "occu": 1}], "abc": [0.27202203, 0.151709899999999, 0.30426313], "properties": {"magmom": -0.004}, "label": "Cr", "xyz": [1.4892346665241563, 0.9656503386991658, 2.5891698295544074]}, {"species": [{"element": "Cr", "occu": 1}], "abc": [0.72797488, 0.848298999999999, 0.69574773], "properties": {"magmom": -0.004}, "label": "Cr", "xyz": [4.932593043507257, 5.399696725947284, 6.466506590756345]}, {"species": [{"element": "Cr", "occu": 1}], "abc": [0.42343207, 0.30418537, 0.84827557], "properties": {"magmom": 0.003}, "label": "Cr", "xyz": [2.463100115163265, 1.9362206354753486, 6.614889070089552]}, {"species": [{"element": "Cr", "occu": 1}], "abc": [0.57660286, 0.69578571, 0.15169432], "properties": {"magmom": 0.003}, "label": "Cr", "xyz": [3.958809533172843, 4.428885671815196, 2.440539663640185]}, {"species": [{"element": "Si", "occu": 1}], "abc": [0.24999722, 0.99993471, 6.147e-05], "properties": {"magmom": 0.0}, "label": "Si", "xyz": [3.211483765320466, 6.36504215088631, 1.1484362030588278]}, {"species": [{"element": "Si", "occu": 1}], "abc": [0.7499947, 7.065000000000002e-05, 0.99992674], "properties": {"magmom": 0.0}, "label": "Si", "xyz": [3.2103150376467937, 0.0002823801071030002, 7.907076766909068]}, {"species": [{"element": "Si", "occu": 1}], "abc": [0.16749373, 0.49999864, 0.16521391], "properties": {"magmom": -0.0}, "label": "Si", "xyz": [1.7874929086129492, 3.182716100433321, 1.7558447625552507]}, {"species": [{"element": "Si", "occu": 1}], "abc": [0.3325185, 0.83476407, 0.49999625000000003], "properties": {"magmom": 0.0}, "label": "Si", "xyz": [3.210335828473761, 5.313644335800534, 4.527638338113583]}, {"species": [{"element": "Si", "occu": 1}], "abc": [0.66748478, 0.16523648, 0.49999526], "properties": {"magmom": 0.0}, "label": "Si", "xyz": [3.2115013226321243, 1.0516495738736715, 4.5279106454358224]}, {"species": [{"element": "Si", "occu": 1}], "abc": [0.83250816, 0.50000163, 0.83478155], "properties": {"magmom": -0.0}, "label": "Si", "xyz": [4.6343376824879385, 3.1825760274893113, 7.29972857901699]}]}, "task_ids": null, "uncorrected_energy_per_atom": null, "energy_per_atom": -12.832996583749999, "formation_energy_per_atom": -0.12199586687500201, "energy_above_hull": 0.05473733324999901, "is_stable": false, "equilibrium_reaction_energy_per_atom": null, "decomposes_to": null, "xas": null, "grain_boundaries": null, "band_gap": 0.0, "cbm": null, "vbm": null, "efermi": 8.99749921, "is_gap_direct": null, "is_metal": null, "es_source_calc_id": null, "bandstructure": null, "dos": null, "dos_energy_up": null, "dos_energy_down": null, "is_magnetic": null, "ordering": null, "total_magnetization": 0.002510199999999, "total_magnetization_normalized_vol": null, "total_magnetization_normalized_formula_units": null, "num_magnetic_sites": null, "num_unique_magnetic_sites": null, "types_of_magnetic_species": null, "bulk_modulus": null, "shear_modulus": null, "universal_anisotropy": null, "homogeneous_poisson": null, "e_total": null, "e_ionic": null, "e_electronic": null, "n": null, "e_ij_max": null, "weighted_surface_energy_EV_PER_ANG2": null, "weighted_surface_energy": null, "weighted_work_function": null, "surface_anisotropy": null, "shape_factor": null, "has_reconstructed": null, "possible_species": null, "has_props": null, "theoretical": null, "database_IDs": null, "fields_not_requested": ["builder_meta", "nsites", "elements", "nelements", "composition", "composition_reduced", "chemsys", "symmetry", "property_name", "deprecated", "deprecation_reasons", "last_updated", "origins", "warnings", "task_ids", "uncorrected_energy_per_atom", "equilibrium_reaction_energy_per_atom", "decomposes_to", "xas", "grain_boundaries", "cbm", "vbm", "is_gap_direct", "is_metal", "es_source_calc_id", "bandstructure", "dos", "dos_energy_up", "dos_energy_down", "is_magnetic", "ordering", "total_magnetization_normalized_vol", "total_magnetization_normalized_formula_units", "num_magnetic_sites", "num_unique_magnetic_sites", "types_of_magnetic_species", "bulk_modulus", "shear_modulus", "universal_anisotropy", "homogeneous_poisson", "e_total", "e_ionic", "e_electronic", "n", "e_ij_max", "weighted_surface_energy_EV_PER_ANG2", "weighted_surface_energy", "weighted_work_function", "surface_anisotropy", "shape_factor", "has_reconstructed", "possible_species", "has_props", "theoretical", "database_IDs"]}