{
  "builder_meta": null,
  "nsites": null,
  "elements": null,
  "nelements": null,
  "composition": null,
  "composition_reduced": null,
  "formula_pretty": "Cr5Se8",
  "formula_anonymous": "A5B8",
  "chemsys": null,
  "volume": 266.13762134314567,
  "density": 5.563426496868789,
  "density_atomic": 20.472124718703512,
  "symmetry": null,
  "property_name": null,
  "material_id": "mp-1104327",
  "deprecated": null,
  "deprecation_reasons": null,
  "last_updated": null,
  "origins": null,
  "warnings": null,
  "structure": {
    "@module": "pymatgen.core.structure",
    "@class": "Structure",
    "charge": 0,
    "lattice": {
      "matrix": [
        [-0.00074169, -3.62359038, -5.84085444],
        [0.00043095, -3.62388516, 5.84112114],
        [-6.28668443, 3.62343315, 0.11836379]
      ],
      "pbc": [true, true, true],
      "a": 6.873571733924097,
      "b": 6.873953739351251,
      "c": 7.257112297719149,
      "alpha": 104.44308362122979,
      "beta": 106.08019460584626,
      "gamma": 116.36922774558082,
      "volume": 266.13762134314567
    },
    "properties": {},
    "sites": [
      {
        "species": [{ "element": "Cr", "occu": 1 }],
        "abc": [-0.0, -0.0, 0.0],
        "properties": { "magmom": 3.164 },
        "label": "Cr",
        "xyz": [0.0, 0.0, 0.0]
      },
      {
        "species": [{ "element": "Cr", "occu": 1 }],
        "abc": [0.25998709000000003, 0.7302457, 0.99028584],
        "properties": { "magmom": 3.077 },
        "label": "Cr",
        "xyz": [-6.225492702017838, -0.00017873300041060247, 2.864120831900652]
      },
      {
        "species": [{ "element": "Cr", "occu": 1 }],
        "abc": [0.74001291, 0.2697543, 0.00971416],
        "properties": { "magmom": 3.077 },
        "label": "Cr",
        "xyz": [-0.061502467982161704, -3.62386365699959, -2.7454903419006524]
      },
      {
        "species": [{ "element": "Cr", "occu": 1 }],
        "abc": [0.7703009200000001, 0.27031096, 0.49998015],
        "properties": { "magmom": 3.052 },
        "label": "Cr",
        "xyz": [-3.1436722582952075, -1.9591862300945309, -2.8611169404096226]
      },
      {
        "species": [{ "element": "Cr", "occu": 1 }],
        "abc": [0.22969908, 0.72968904, 0.50001985],
        "properties": { "magmom": 3.052 },
        "label": "Cr",
        "xyz": [-3.143322911704793, -1.664856159905469, 2.979747430409622]
      },
      {
        "species": [{ "element": "Se", "occu": 1 }],
        "abc": [0.3002166, 0.0219839, 0.32225327],
        "properties": { "magmom": -0.194 },
        "label": "Se",
        "xyz": [-2.026117808713935, 0.0001340685686685994, -1.5869677196649647]
      },
      {
        "species": [{ "element": "Se", "occu": 1 }],
        "abc": [0.6997833999999991, 0.9780160999999991, 0.67774673],
        "properties": { "magmom": -0.194 },
        "label": "Se",
        "xyz": [-4.260877361286065, -3.6241764585686616, 1.7055982096649651]
      },
      {
        "species": [{ "element": "Se", "occu": 1 }],
        "abc": [0.78729352, 0.5455714700000001, 0.33287379],
        "properties": { "magmom": -0.229 },
        "label": "Se",
        "xyz": [-2.093021286453942, -3.6237716537085847, -1.372317601701289]
      },
      {
        "species": [{ "element": "Se", "occu": 1 }],
        "abc": [0.21270648, 0.45442853, 0.66712621],
        "properties": { "magmom": -0.229 },
        "label": "Se",
        "xyz": [-4.193973883546058, -0.00027073629141538547, 1.490948091701289]
      },
      {
        "species": [{ "element": "Se", "occu": 1 }],
        "abc": [0.19802468, 0.45375892, 0.16966386],
        "properties": { "magmom": -0.191 },
        "label": "Se",
        "xyz": [-1.0665744725140351, -1.7471648871752468, 1.5139095461636192]
      },
      {
        "species": [{ "element": "Se", "occu": 1 }],
        "abc": [0.7158726, 0.97166361, 0.16963389],
        "properties": { "magmom": -0.191 },
        "label": "Se",
        "xyz": [-1.0665469521792972, -5.500569343067162, 1.5143757092882149]
      },
      {
        "species": [{ "element": "Se", "occu": 1 }],
        "abc": [0.80197532, 0.54624108, 0.83033614],
        "properties": { "magmom": -0.191 },
        "label": "Se",
        "xyz": [-5.220420697485965, -1.8768775028247537, -1.395279056163619]
      },
      {
        "species": [{ "element": "Se", "occu": 1 }],
        "abc": [0.2841274, 0.02833639, 0.83036611],
        "properties": { "magmom": -0.191 },
        "label": "Se",
        "xyz": [-5.220448217820704, 1.8765269530671624, -1.3957452192882143]
      }
    ]
  },
  "task_ids": null,
  "uncorrected_energy_per_atom": null,
  "energy_per_atom": -6.676333960769231,
  "formation_energy_per_atom": -0.8122932552884601,
  "energy_above_hull": 0.0,
  "is_stable": true,
  "equilibrium_reaction_energy_per_atom": null,
  "decomposes_to": null,
  "xas": null,
  "grain_boundaries": null,
  "band_gap": 0.0,
  "cbm": null,
  "vbm": null,
  "efermi": 4.07866184,
  "is_gap_direct": null,
  "is_metal": null,
  "es_source_calc_id": null,
  "bandstructure": null,
  "dos": null,
  "dos_energy_up": null,
  "dos_energy_down": null,
  "is_magnetic": null,
  "ordering": null,
  "total_magnetization": 14.0390827,
  "total_magnetization_normalized_vol": null,
  "total_magnetization_normalized_formula_units": null,
  "num_magnetic_sites": null,
  "num_unique_magnetic_sites": null,
  "types_of_magnetic_species": null,
  "bulk_modulus": null,
  "shear_modulus": null,
  "universal_anisotropy": null,
  "homogeneous_poisson": null,
  "e_total": null,
  "e_ionic": null,
  "e_electronic": null,
  "n": null,
  "e_ij_max": null,
  "weighted_surface_energy_EV_PER_ANG2": null,
  "weighted_surface_energy": null,
  "weighted_work_function": null,
  "surface_anisotropy": null,
  "shape_factor": null,
  "has_reconstructed": null,
  "possible_species": null,
  "has_props": null,
  "theoretical": null,
  "database_IDs": null,
  "fields_not_requested": [
    "builder_meta",
    "nsites",
    "elements",
    "nelements",
    "composition",
    "composition_reduced",
    "chemsys",
    "symmetry",
    "property_name",
    "deprecated",
    "deprecation_reasons",
    "last_updated",
    "origins",
    "warnings",
    "task_ids",
    "uncorrected_energy_per_atom",
    "equilibrium_reaction_energy_per_atom",
    "decomposes_to",
    "xas",
    "grain_boundaries",
    "cbm",
    "vbm",
    "is_gap_direct",
    "is_metal",
    "es_source_calc_id",
    "bandstructure",
    "dos",
    "dos_energy_up",
    "dos_energy_down",
    "is_magnetic",
    "ordering",
    "total_magnetization_normalized_vol",
    "total_magnetization_normalized_formula_units",
    "num_magnetic_sites",
    "num_unique_magnetic_sites",
    "types_of_magnetic_species",
    "bulk_modulus",
    "shear_modulus",
    "universal_anisotropy",
    "homogeneous_poisson",
    "e_total",
    "e_ionic",
    "e_electronic",
    "n",
    "e_ij_max",
    "weighted_surface_energy_EV_PER_ANG2",
    "weighted_surface_energy",
    "weighted_work_function",
    "surface_anisotropy",
    "shape_factor",
    "has_reconstructed",
    "possible_species",
    "has_props",
    "theoretical",
    "database_IDs"
  ]
}
