{
  "builder_meta": null,
  "nsites": null,
  "elements": null,
  "nelements": null,
  "composition": null,
  "composition_reduced": null,
  "formula_pretty": "Cr5Te6",
  "formula_anonymous": "A5B6",
  "chemsys": null,
  "volume": 541.577032880537,
  "density": 6.289101578533218,
  "density_atomic": 24.617137858206227,
  "symmetry": null,
  "property_name": null,
  "material_id": "mp-1226086",
  "deprecated": null,
  "deprecation_reasons": null,
  "last_updated": null,
  "origins": null,
  "warnings": null,
  "structure": {
    "@module": "pymatgen.core.structure",
    "@class": "Structure",
    "charge": 0,
    "lattice": {
      "matrix": [
        [7.519052, 0.0, 0.0],
        [-2.293946, -7.820104, 0.0],
        [-1.920532, 0.496876, -9.21053]
      ],
      "pbc": [true, true, true],
      "a": 7.519052,
      "b": 8.149614397119167,
      "c": 9.42174038080545,
      "alpha": 89.61199262982568,
      "beta": 101.76162976501527,
      "gamma": 106.34850094375201,
      "volume": 541.577032880537
    },
    "properties": {},
    "sites": [
      {
        "species": [{ "element": "Cr", "occu": 1 }],
        "abc": [0.655121, 0.426423, 0.173546],
        "properties": { "magmom": 3.44 },
        "label": "Cr",
        "xyz": [3.6143968836619997, -3.248441365696, -1.5984506393800002]
      },
      {
        "species": [{ "element": "Cr", "occu": 1 }],
        "abc": [0.981023, 0.752277, 0.499453],
        "properties": { "magmom": 3.404 },
        "label": "Cr",
        "xyz": [4.691464666158001, -5.63471816798, -4.60022684009]
      },
      {
        "species": [{ "element": "Cr", "occu": 1 }],
        "abc": [0.319864, 0.094772, 0.824607],
        "properties": { "magmom": 3.425 },
        "label": "Cr",
        "xyz": [0.6039880676919998, -0.3313994685559999, -7.59506751171]
      },
      {
        "species": [{ "element": "Cr", "occu": 1 }],
        "abc": [0.680136, 0.905227999999999, 0.175393],
        "properties": { "magmom": 3.425 },
        "label": "Cr",
        "xyz": [2.7005859323080026, -6.991828531443992, -1.61546248829]
      },
      {
        "species": [{ "element": "Cr", "occu": 1 }],
        "abc": [0.018977, 0.247723, 0.500547],
        "properties": { "magmom": 3.404 },
        "label": "Cr",
        "xyz": [-1.3868906661579998, -1.68850983202, -4.61030315991]
      },
      {
        "species": [{ "element": "Cr", "occu": 1 }],
        "abc": [0.344879, 0.573577, 0.826453999999999],
        "properties": { "magmom": 3.44 },
        "label": "Cr",
        "xyz": [-0.30982288366199806, -4.074786634304, -7.612079360619991]
      },
      {
        "species": [{ "element": "Cr", "occu": 1 }],
        "abc": [0.0, 0.5, 0.0],
        "properties": { "magmom": 3.561 },
        "label": "Cr",
        "xyz": [-1.146973, -3.910052, 0.0]
      },
      {
        "species": [{ "element": "Cr", "occu": 1 }],
        "abc": [0.336756, 0.831734, 0.33779000000000003],
        "properties": { "magmom": 3.525 },
        "label": "Cr",
        "xyz": [-0.024603511331999894, -6.336406636295999, -3.1112249287000004]
      },
      {
        "species": [{ "element": "Cr", "occu": 1 }],
        "abc": [0.663244, 0.168266, 0.6622100000000001],
        "properties": { "magmom": 3.525 },
        "label": "Cr",
        "xyz": [3.3291775113320003, -0.986821363704, -6.099305071300001]
      },
      {
        "species": [{ "element": "Cr", "occu": 1 }],
        "abc": [0.0, 0.0, 0.0],
        "properties": { "magmom": 3.604 },
        "label": "Cr",
        "xyz": [0.0, 0.0, 0.0]
      },
      {
        "species": [{ "element": "Te", "occu": 1 }],
        "abc": [0.723582, 0.678030999999999, 0.970561999999999],
        "properties": { "magmom": -0.153 },
        "label": "Te",
        "xyz": [2.021288804954004, -4.820023970911993, -8.939390417859991]
      },
      {
        "species": [{ "element": "Te", "occu": 1 }],
        "abc": [0.063974999999999, 0.013918, 0.306761],
        "properties": { "magmom": -0.158 },
        "label": "Te",
        "xyz": [-0.1400401055800074, 0.043581971164000005, -2.82543139333]
      },
      {
        "species": [{ "element": "Te", "occu": 1 }],
        "abc": [0.394588999999999, 0.348879, 0.634232],
        "properties": { "magmom": -0.177 },
        "label": "Te",
        "xyz": [0.9485627716699927, -2.4131354041839996, -5.84161286296]
      },
      {
        "species": [{ "element": "Te", "occu": 1 }],
        "abc": [0.605410999999999, 0.651121, 0.365768],
        "properties": { "magmom": -0.177 },
        "label": "Te",
        "xyz": [2.3560112283299928, -4.910092595815999, -3.36891713704]
      },
      {
        "species": [{ "element": "Te", "occu": 1 }],
        "abc": [0.936025, 0.9860819999999991, 0.693238999999999],
        "properties": { "magmom": -0.158 },
        "label": "Te",
        "xyz": [3.444614105580004, -7.366809971163994, -6.385098606669992]
      },
      {
        "species": [{ "element": "Te", "occu": 1 }],
        "abc": [0.276418, 0.321969, 0.029438],
        "properties": { "magmom": -0.153 },
        "label": "Te",
        "xyz": [1.2832851950459998, -2.5032040290879998, -0.27113958214]
      },
      {
        "species": [{ "element": "Te", "occu": 1 }],
        "abc": [0.714182, 0.180664, 0.975166],
        "properties": { "magmom": -0.123 },
        "label": "Te",
        "xyz": [3.082700627008, -0.92827468764, -8.98179569798]
      },
      {
        "species": [{ "element": "Te", "occu": 1 }],
        "abc": [0.043452, 0.515834, 0.309168],
        "properties": { "magmom": -0.155 },
        "label": "Te",
        "xyz": [-1.4503445308360001, -3.880257367568, -2.84760113904]
      },
      {
        "species": [{ "element": "Te", "occu": 1 }],
        "abc": [0.374786, 0.8487600000000001, 0.641494],
        "properties": { "magmom": -0.147 },
        "label": "Te",
        "xyz": [-0.3609839388960001, -6.318648498296, -5.90849973182]
      },
      {
        "species": [{ "element": "Te", "occu": 1 }],
        "abc": [0.625213999999999, 0.15124, 0.358506],
        "properties": { "magmom": -0.147 },
        "label": "Te",
        "xyz": [3.6655579388959927, -1.004579501704, -3.3020302681800002]
      },
      {
        "species": [{ "element": "Te", "occu": 1 }],
        "abc": [0.956548, 0.484166, 0.690832],
        "properties": { "magmom": -0.155 },
        "label": "Te",
        "xyz": [4.754918530836, -3.442970632432, -6.36292886096]
      },
      {
        "species": [{ "element": "Te", "occu": 1 }],
        "abc": [0.285817999999999, 0.819336, 0.024834],
        "properties": { "magmom": -0.123 },
        "label": "Te",
        "xyz": [0.22187337299199283, -6.394953312359999, -0.22873430202]
      }
    ]
  },
  "task_ids": null,
  "uncorrected_energy_per_atom": null,
  "energy_per_atom": -6.468019986818181,
  "formation_energy_per_atom": -0.36574064954545205,
  "energy_above_hull": 0.057442287272726,
  "is_stable": false,
  "equilibrium_reaction_energy_per_atom": null,
  "decomposes_to": null,
  "xas": null,
  "grain_boundaries": null,
  "band_gap": 0.0,
  "cbm": null,
  "vbm": null,
  "efermi": 6.31148787,
  "is_gap_direct": null,
  "is_metal": null,
  "es_source_calc_id": null,
  "bandstructure": null,
  "dos": null,
  "dos_energy_up": null,
  "dos_energy_down": null,
  "is_magnetic": null,
  "ordering": null,
  "total_magnetization": 36.0028709,
  "total_magnetization_normalized_vol": null,
  "total_magnetization_normalized_formula_units": null,
  "num_magnetic_sites": null,
  "num_unique_magnetic_sites": null,
  "types_of_magnetic_species": null,
  "bulk_modulus": null,
  "shear_modulus": null,
  "universal_anisotropy": null,
  "homogeneous_poisson": null,
  "e_total": null,
  "e_ionic": null,
  "e_electronic": null,
  "n": null,
  "e_ij_max": null,
  "weighted_surface_energy_EV_PER_ANG2": null,
  "weighted_surface_energy": null,
  "weighted_work_function": null,
  "surface_anisotropy": null,
  "shape_factor": null,
  "has_reconstructed": null,
  "possible_species": null,
  "has_props": null,
  "theoretical": null,
  "database_IDs": null,
  "fields_not_requested": [
    "builder_meta",
    "nsites",
    "elements",
    "nelements",
    "composition",
    "composition_reduced",
    "chemsys",
    "symmetry",
    "property_name",
    "deprecated",
    "deprecation_reasons",
    "last_updated",
    "origins",
    "warnings",
    "task_ids",
    "uncorrected_energy_per_atom",
    "equilibrium_reaction_energy_per_atom",
    "decomposes_to",
    "xas",
    "grain_boundaries",
    "cbm",
    "vbm",
    "is_gap_direct",
    "is_metal",
    "es_source_calc_id",
    "bandstructure",
    "dos",
    "dos_energy_up",
    "dos_energy_down",
    "is_magnetic",
    "ordering",
    "total_magnetization_normalized_vol",
    "total_magnetization_normalized_formula_units",
    "num_magnetic_sites",
    "num_unique_magnetic_sites",
    "types_of_magnetic_species",
    "bulk_modulus",
    "shear_modulus",
    "universal_anisotropy",
    "homogeneous_poisson",
    "e_total",
    "e_ionic",
    "e_electronic",
    "n",
    "e_ij_max",
    "weighted_surface_energy_EV_PER_ANG2",
    "weighted_surface_energy",
    "weighted_work_function",
    "surface_anisotropy",
    "shape_factor",
    "has_reconstructed",
    "possible_species",
    "has_props",
    "theoretical",
    "database_IDs"
  ]
}
