{
  "builder_meta": null,
  "nsites": null,
  "elements": null,
  "nelements": null,
  "composition": null,
  "composition_reduced": null,
  "formula_pretty": "Cr5Te8",
  "formula_anonymous": "A5B8",
  "chemsys": null,
  "volume": 336.5547528784299,
  "density": 6.319286944545744,
  "density_atomic": 25.888827144494606,
  "symmetry": null,
  "property_name": null,
  "material_id": "mp-1213754",
  "deprecated": null,
  "deprecation_reasons": null,
  "last_updated": null,
  "origins": null,
  "warnings": null,
  "structure": {
    "@module": "pymatgen.core.structure",
    "@class": "Structure",
    "charge": 0,
    "lattice": {
      "matrix": [
        [4.6566015400000005, 3.96651632, -4.07668833],
        [-4.65660044, 3.96651417, 4.07668828],
        [4.57977826, -3.96651523, 5.10117937]
      ],
      "pbc": [true, true, true],
      "a": 7.350957581098867,
      "b": 7.3509556964321545,
      "c": 7.920204728762015,
      "alpha": 106.22086222887296,
      "beta": 105.13680720743947,
      "gamma": 114.68830212630745,
      "volume": 336.5547528784299
    },
    "properties": {},
    "sites": [
      {
        "species": [{ "element": "Cr", "occu": 1 }],
        "abc": [0.26548096, 0.76548096, 0.5],
        "properties": { "magmom": 3.243999999999999 },
        "label": "Cr",
        "xyz": [-0.03841079797094382, 2.1060680201944697, 4.588933811725951]
      },
      {
        "species": [{ "element": "Cr", "occu": 1 }],
        "abc": [0.73451904, 0.23451904, 0.5],
        "properties": { "magmom": 3.243999999999999 },
        "label": "Cr",
        "xyz": [4.618190157970945, 1.8604472398055296, 0.5122455082740482]
      },
      {
        "species": [{ "element": "Cr", "occu": 1 }],
        "abc": [0.26553752, 0.74429614, 0.00983466],
        "properties": { "magmom": 3.253 },
        "label": "Cr",
        "xyz": [-2.184346746392029, 3.966510763966758, 2.0019180065290616]
      },
      {
        "species": [{ "element": "Cr", "occu": 1 }],
        "abc": [0.73446248, 0.25570386, 0.99016534],
        "properties": { "magmom": 3.253 },
        "label": "Cr",
        "xyz": [6.7641261063920295, 4.496033241707664e-6, 3.0992613134709384]
      },
      {
        "species": [{ "element": "Cr", "occu": 1 }],
        "abc": [0.0, -0.0, 0.0],
        "properties": { "magmom": 3.352999999999999 },
        "label": "Cr",
        "xyz": [0.0, 0.0, 0.0]
      },
      {
        "species": [{ "element": "Te", "occu": 1 }],
        "abc": [0.54579712, 0.78852871, 0.33432583],
        "properties": { "magmom": -0.278 },
        "label": "Te",
        "xyz": [0.4008347395713885, 3.9665149890784286, 2.694997027703036]
      },
      {
        "species": [{ "element": "Te", "occu": 1 }],
        "abc": [0.45420288000000003, 0.21147129, 0.6656741700000001],
        "properties": { "magmom": -0.278 },
        "label": "Te",
        "xyz": [4.178944620428613, 2.709215718432745e-7, 2.406182292296964]
      },
      {
        "species": [{ "element": "Te", "occu": 1 }],
        "abc": [0.45709331000000003, 0.20241093000000002, 0.16894032],
        "properties": { "magmom": -0.252 },
        "label": "Te",
        "xyz": [1.9596637903443317, 1.9458295436446236, -0.1764658213779734]
      },
      {
        "species": [{ "element": "Te", "occu": 1 }],
        "abc": [0.54290669, 0.79758907, 0.83105968],
        "properties": { "magmom": -0.252 },
        "label": "Te",
        "xyz": [2.620115569655669, 2.0206857163553766, 5.277645141377973]
      },
      {
        "species": [{ "element": "Te", "occu": 1 }],
        "abc": [0.03347061, 0.28815299, 0.83105968],
        "properties": { "magmom": -0.252 },
        "label": "Te",
        "xyz": [2.6201150092759806, -2.0206862389907028, 5.277645166849776]
      },
      {
        "species": [{ "element": "Te", "occu": 1 }],
        "abc": [0.96652939, 0.7118470100000001, 0.16894032],
        "properties": { "magmom": -0.252 },
        "label": "Te",
        "xyz": [1.9596643507240201, 5.987201498990704, -0.17646584684977717]
      },
      {
        "species": [{ "element": "Te", "occu": 1 }],
        "abc": [0.027575299999999, 0.29866032, 0.32623462000000003],
        "properties": { "magmom": -0.23600000000000002 },
        "label": "Te",
        "xyz": [0.23174762725877796, 3.6799923635033593e-6, 2.769310435862594]
      },
      {
        "species": [{ "element": "Te", "occu": 1 }],
        "abc": [0.972424699999999, 0.70133968, 0.67376538],
        "properties": { "magmom": -0.23600000000000002 },
        "label": "Te",
        "xyz": [4.348031732741214, 3.9665115800076287, 2.331868884137414]
      }
    ]
  },
  "task_ids": null,
  "uncorrected_energy_per_atom": null,
  "energy_per_atom": -6.121957440769233,
  "formation_energy_per_atom": -0.47490478717948803,
  "energy_above_hull": 0.0,
  "is_stable": true,
  "equilibrium_reaction_energy_per_atom": null,
  "decomposes_to": null,
  "xas": null,
  "grain_boundaries": null,
  "band_gap": 0.0,
  "cbm": null,
  "vbm": null,
  "efermi": 5.90687985,
  "is_gap_direct": null,
  "is_metal": null,
  "es_source_calc_id": null,
  "bandstructure": null,
  "dos": null,
  "dos_energy_up": null,
  "dos_energy_down": null,
  "is_magnetic": null,
  "ordering": null,
  "total_magnetization": 14.512084399999999,
  "total_magnetization_normalized_vol": null,
  "total_magnetization_normalized_formula_units": null,
  "num_magnetic_sites": null,
  "num_unique_magnetic_sites": null,
  "types_of_magnetic_species": null,
  "bulk_modulus": null,
  "shear_modulus": null,
  "universal_anisotropy": null,
  "homogeneous_poisson": null,
  "e_total": null,
  "e_ionic": null,
  "e_electronic": null,
  "n": null,
  "e_ij_max": null,
  "weighted_surface_energy_EV_PER_ANG2": null,
  "weighted_surface_energy": null,
  "weighted_work_function": null,
  "surface_anisotropy": null,
  "shape_factor": null,
  "has_reconstructed": null,
  "possible_species": null,
  "has_props": null,
  "theoretical": null,
  "database_IDs": null,
  "fields_not_requested": [
    "builder_meta",
    "nsites",
    "elements",
    "nelements",
    "composition",
    "composition_reduced",
    "chemsys",
    "symmetry",
    "property_name",
    "deprecated",
    "deprecation_reasons",
    "last_updated",
    "origins",
    "warnings",
    "task_ids",
    "uncorrected_energy_per_atom",
    "equilibrium_reaction_energy_per_atom",
    "decomposes_to",
    "xas",
    "grain_boundaries",
    "cbm",
    "vbm",
    "is_gap_direct",
    "is_metal",
    "es_source_calc_id",
    "bandstructure",
    "dos",
    "dos_energy_up",
    "dos_energy_down",
    "is_magnetic",
    "ordering",
    "total_magnetization_normalized_vol",
    "total_magnetization_normalized_formula_units",
    "num_magnetic_sites",
    "num_unique_magnetic_sites",
    "types_of_magnetic_species",
    "bulk_modulus",
    "shear_modulus",
    "universal_anisotropy",
    "homogeneous_poisson",
    "e_total",
    "e_ionic",
    "e_electronic",
    "n",
    "e_ij_max",
    "weighted_surface_energy_EV_PER_ANG2",
    "weighted_surface_energy",
    "weighted_work_function",
    "surface_anisotropy",
    "shape_factor",
    "has_reconstructed",
    "possible_species",
    "has_props",
    "theoretical",
    "database_IDs"
  ]
}
