{
  "builder_meta": null,
  "nsites": null,
  "elements": null,
  "nelements": null,
  "composition": null,
  "composition_reduced": null,
  "formula_pretty": "Cr7Se8",
  "formula_anonymous": "A7B8",
  "chemsys": null,
  "volume": 294.5952126102072,
  "density": 5.612176078717732,
  "density_atomic": 19.63968084068048,
  "symmetry": null,
  "property_name": null,
  "material_id": "mp-696673",
  "deprecated": null,
  "deprecation_reasons": null,
  "last_updated": null,
  "origins": null,
  "warnings": null,
  "structure": {
    "@module": "pymatgen.core.structure",
    "@class": "Structure",
    "charge": 0,
    "lattice": {
      "matrix": [
        [3.760545999999999, 6.046721, 0.0],
        [-3.760545999999999, 6.046721, 0.0],
        [0.0, 5.951759, 6.47776]
      ],
      "pbc": [true, true, true],
      "a": 7.120712118177296,
      "b": 7.120712118177296,
      "c": 8.796863634937228,
      "alpha": 54.93315804558749,
      "beta": 54.93315804558749,
      "gamma": 63.75619416441289,
      "volume": 294.59521261020717
    },
    "properties": {},
    "sites": [
      {
        "species": [{ "element": "Cr", "occu": 1 }],
        "abc": [0.5, 0.5, 0.0],
        "properties": { "magmom": 3.543 },
        "label": "Cr",
        "xyz": [0.0, 6.046721, 0.0]
      },
      {
        "species": [{ "element": "Cr", "occu": 1 }],
        "abc": [0.5, 0.0, 0.5],
        "properties": { "magmom": 3.488 },
        "label": "Cr",
        "xyz": [1.8802729999999994, 5.99924, 3.23888]
      },
      {
        "species": [{ "element": "Cr", "occu": 1 }],
        "abc": [0.0, 0.5, 0.5],
        "properties": { "magmom": 3.532 },
        "label": "Cr",
        "xyz": [-1.8802729999999994, 5.99924, 3.23888]
      },
      {
        "species": [{ "element": "Cr", "occu": 1 }],
        "abc": [0.231229, 0.768771, 0.5],
        "properties": { "magmom": 3.372 },
        "label": "Cr",
        "xyz": [-2.021451417931999, 9.0226005, 3.23888]
      },
      {
        "species": [{ "element": "Cr", "occu": 1 }],
        "abc": [0.768771, 0.231229, 0.5],
        "properties": { "magmom": 3.372 },
        "label": "Cr",
        "xyz": [2.021451417931999, 9.0226005, 3.23888]
      },
      {
        "species": [{ "element": "Cr", "occu": 1 }],
        "abc": [0.232819, 0.232819, 0.010891],
        "properties": { "magmom": 3.437 },
        "label": "Cr",
        "xyz": [0.0, 2.880403680267, 0.07054928416]
      },
      {
        "species": [{ "element": "Cr", "occu": 1 }],
        "abc": [0.767181, 0.767181, 0.9891089999999991],
        "properties": { "magmom": 3.437 },
        "label": "Cr",
        "xyz": [0.0, 15.164797319732994, 6.4072107158399945]
      },
      {
        "species": [{ "element": "Se", "occu": 1 }],
        "abc": [0.049000999999999004, 0.049000999999999004, 0.664006],
        "properties": { "magmom": -0.108 },
        "label": "Se",
        "xyz": [0.0, 4.544594437995988, 4.30127150656]
      },
      {
        "species": [{ "element": "Se", "occu": 1 }],
        "abc": [0.950998999999999, 0.950998999999999, 0.335993999999999],
        "properties": { "magmom": -0.108 },
        "label": "Se",
        "xyz": [0.0, 13.500606562003982, 2.1764884934399937]
      },
      {
        "species": [{ "element": "Se", "occu": 1 }],
        "abc": [0.536069, 0.536069, 0.6679889999999991],
        "properties": { "magmom": -0.08600000000000001 },
        "label": "Se",
        "xyz": [0.0, 10.458628902148995, 4.327072424639994]
      },
      {
        "species": [{ "element": "Se", "occu": 1 }],
        "abc": [0.463931, 0.463931, 0.332011],
        "properties": { "magmom": -0.08600000000000001 },
        "label": "Se",
        "xyz": [0.0, 7.586572097851, 2.15068757536]
      },
      {
        "species": [{ "element": "Se", "occu": 1 }],
        "abc": [0.529196, 0.041505, 0.16872499999999901],
        "properties": { "magmom": -0.111 },
        "label": "Se",
        "xyz": [1.8339844392859994, 4.455080258695994, 1.0929600559999937]
      },
      {
        "species": [{ "element": "Se", "occu": 1 }],
        "abc": [0.958495, 0.470804, 0.831275],
        "properties": { "magmom": -0.10200000000000001 },
        "label": "Se",
        "xyz": [1.8339844392859994, 13.590120741303998, 5.384799944]
      },
      {
        "species": [{ "element": "Se", "occu": 1 }],
        "abc": [0.041505, 0.529196, 0.16872499999999901],
        "properties": { "magmom": -0.10200000000000001 },
        "label": "Se",
        "xyz": [-1.8339844392859994, 4.455080258695994, 1.0929600559999937]
      },
      {
        "species": [{ "element": "Se", "occu": 1 }],
        "abc": [0.470804, 0.958495, 0.831275],
        "properties": { "magmom": -0.111 },
        "label": "Se",
        "xyz": [-1.8339844392859994, 13.590120741303998, 5.384799944]
      }
    ]
  },
  "task_ids": null,
  "uncorrected_energy_per_atom": null,
  "energy_per_atom": -7.024905006,
  "formation_energy_per_atom": -0.655663398583333,
  "energy_above_hull": 0.064717163555553,
  "is_stable": false,
  "equilibrium_reaction_energy_per_atom": null,
  "decomposes_to": null,
  "xas": null,
  "grain_boundaries": null,
  "band_gap": 0.0,
  "cbm": null,
  "vbm": null,
  "efermi": 4.97311367,
  "is_gap_direct": null,
  "is_metal": null,
  "es_source_calc_id": null,
  "bandstructure": null,
  "dos": null,
  "dos_energy_up": null,
  "dos_energy_down": null,
  "is_magnetic": null,
  "ordering": null,
  "total_magnetization": 25.5585202,
  "total_magnetization_normalized_vol": null,
  "total_magnetization_normalized_formula_units": null,
  "num_magnetic_sites": null,
  "num_unique_magnetic_sites": null,
  "types_of_magnetic_species": null,
  "bulk_modulus": null,
  "shear_modulus": null,
  "universal_anisotropy": null,
  "homogeneous_poisson": null,
  "e_total": null,
  "e_ionic": null,
  "e_electronic": null,
  "n": null,
  "e_ij_max": null,
  "weighted_surface_energy_EV_PER_ANG2": null,
  "weighted_surface_energy": null,
  "weighted_work_function": null,
  "surface_anisotropy": null,
  "shape_factor": null,
  "has_reconstructed": null,
  "possible_species": null,
  "has_props": null,
  "theoretical": null,
  "database_IDs": null,
  "fields_not_requested": [
    "builder_meta",
    "nsites",
    "elements",
    "nelements",
    "composition",
    "composition_reduced",
    "chemsys",
    "symmetry",
    "property_name",
    "deprecated",
    "deprecation_reasons",
    "last_updated",
    "origins",
    "warnings",
    "task_ids",
    "uncorrected_energy_per_atom",
    "equilibrium_reaction_energy_per_atom",
    "decomposes_to",
    "xas",
    "grain_boundaries",
    "cbm",
    "vbm",
    "is_gap_direct",
    "is_metal",
    "es_source_calc_id",
    "bandstructure",
    "dos",
    "dos_energy_up",
    "dos_energy_down",
    "is_magnetic",
    "ordering",
    "total_magnetization_normalized_vol",
    "total_magnetization_normalized_formula_units",
    "num_magnetic_sites",
    "num_unique_magnetic_sites",
    "types_of_magnetic_species",
    "bulk_modulus",
    "shear_modulus",
    "universal_anisotropy",
    "homogeneous_poisson",
    "e_total",
    "e_ionic",
    "e_electronic",
    "n",
    "e_ij_max",
    "weighted_surface_energy_EV_PER_ANG2",
    "weighted_surface_energy",
    "weighted_work_function",
    "surface_anisotropy",
    "shape_factor",
    "has_reconstructed",
    "possible_species",
    "has_props",
    "theoretical",
    "database_IDs"
  ]
}
