{"builder_meta": null, "nsites": null, "elements": null, "nelements": null, "composition": null, "composition_reduced": null, "formula_pretty": "Cr7Te8", "formula_anonymous": "A7B8", "chemsys": null, "volume": 361.40133333417305, "density": 6.362647158761133, "density_atomic": 24.093422222278203, "symmetry": null, "property_name": null, "material_id": "mp-1213756", "deprecated": null, "deprecation_reasons": null, "last_updated": null, "origins": null, "warnings": null, "structure": {"@module": "pymatgen.core.structure", "@class": "Structure", "charge": 0, "lattice": {"matrix": [[4.0822330000000004, 6.258603, 0.0], [-4.0822330000000004, 6.258603, 0.0], [0.0, 6.204431, 7.0726890000000004]], "pbc": [true, true, true], "a": 7.472264568248237, "b": 7.472264568248237, "c": 9.408394853771924, "alpha": 56.47185962433924, "beta": 56.47185962433924, "gamma": 66.22956115573581, "volume": 361.4013333341732}, "properties": {}, "sites": [{"species": [{"element": "Cr", "occu": 1}], "abc": [0.733016999999999, 0.266982999999999, 0.5], "properties": {"magmom": 3.457}, "label": "Cr", "xyz": [1.9024593739220004, 9.360818499999986, 3.5363445000000002]}, {"species": [{"element": "Cr", "occu": 1}], "abc": [0.266982999999999, 0.733016999999999, 0.5], "properties": {"magmom": 3.457}, "label": "Cr", "xyz": [-1.9024593739220004, 9.360818499999986, 3.5363445000000002]}, {"species": [{"element": "Cr", "occu": 1}], "abc": [0.5, 0.0, 0.5], "properties": {"magmom": 3.574}, "label": "Cr", "xyz": [2.0411165000000002, 6.231517, 3.5363445000000002]}, {"species": [{"element": "Cr", "occu": 1}], "abc": [0.0, 0.5, 0.5], "properties": {"magmom": 3.574}, "label": "Cr", "xyz": [-2.0411165000000002, 6.231517, 3.5363445000000002]}, {"species": [{"element": "Cr", "occu": 1}], "abc": [0.736366, 0.736366, 0.009946], "properties": {"magmom": 3.491}, "label": "Cr", "xyz": [0.0, 9.278954184122, 0.070344964794]}, {"species": [{"element": "Cr", "occu": 1}], "abc": [0.263634, 0.263634, 0.990054], "properties": {"magmom": 3.491}, "label": "Cr", "xyz": [0.0, 9.442682815878, 7.002344035206001]}, {"species": [{"element": "Cr", "occu": 1}], "abc": [0.0, 0.0, 0.0], "properties": {"magmom": 3.589}, "label": "Cr", "xyz": [0.0, 0.0, 0.0]}, {"species": [{"element": "Te", "occu": 1}], "abc": [0.964587, 0.964587, 0.331999], "properties": {"magmom": -0.11800000000000001}, "label": "Te", "xyz": [0.0, 14.133799071490998, 2.348125675311]}, {"species": [{"element": "Te", "occu": 1}], "abc": [0.035413, 0.035413, 0.668001], "properties": {"magmom": -0.11800000000000001}, "label": "Te", "xyz": [0.0, 4.587837928509, 4.724563324689]}, {"species": [{"element": "Te", "occu": 1}], "abc": [0.5395300000000001, 0.032319, 0.168899], "properties": {"magmom": -0.14100000000000001}, "label": "Te", "xyz": [2.0705534821630005, 4.626898058416, 1.194570099411]}, {"species": [{"element": "Te", "occu": 1}], "abc": [0.46047000000000005, 0.9676809999999991, 0.831101], "properties": {"magmom": -0.14100000000000001}, "label": "Te", "xyz": [-2.0705534821629965, 14.094738941583994, 5.878118900589]}, {"species": [{"element": "Te", "occu": 1}], "abc": [0.9676809999999991, 0.46047000000000005, 0.831101], "properties": {"magmom": -0.14100000000000001}, "label": "Te", "xyz": [2.0705534821629965, 14.094738941583994, 5.878118900589]}, {"species": [{"element": "Te", "occu": 1}], "abc": [0.032319, 0.5395300000000001, 0.168899], "properties": {"magmom": -0.14100000000000001}, "label": "Te", "xyz": [-2.0705534821630005, 4.626898058416, 1.194570099411]}, {"species": [{"element": "Te", "occu": 1}], "abc": [0.452096, 0.452096, 0.334026], "properties": {"magmom": -0.145}, "label": "Te", "xyz": [0.0, 7.731420032981999, 2.362462015914]}, {"species": [{"element": "Te", "occu": 1}], "abc": [0.547904, 0.547904, 0.665974], "properties": {"magmom": -0.145}, "label": "Te", "xyz": [0.0, 10.990216967017998, 4.710226984086]}]}, "task_ids": null, "uncorrected_energy_per_atom": null, "energy_per_atom": -6.521221356666667, "formation_energy_per_atom": -0.34003606088888805, "energy_above_hull": 0.07374281066666301, "is_stable": false, "equilibrium_reaction_energy_per_atom": null, "decomposes_to": null, "xas": null, "grain_boundaries": null, "band_gap": 0.0, "cbm": null, "vbm": null, "efermi": 6.52255236, "is_gap_direct": null, "is_metal": null, "es_source_calc_id": null, "bandstructure": null, "dos": null, "dos_energy_up": null, "dos_energy_down": null, "is_magnetic": null, "ordering": null, "total_magnetization": 25.8786591, "total_magnetization_normalized_vol": null, "total_magnetization_normalized_formula_units": null, "num_magnetic_sites": null, "num_unique_magnetic_sites": null, "types_of_magnetic_species": null, "bulk_modulus": null, "shear_modulus": null, "universal_anisotropy": null, "homogeneous_poisson": null, "e_total": null, "e_ionic": null, "e_electronic": null, "n": null, "e_ij_max": null, "weighted_surface_energy_EV_PER_ANG2": null, "weighted_surface_energy": null, "weighted_work_function": null, "surface_anisotropy": null, "shape_factor": null, "has_reconstructed": null, "possible_species": null, "has_props": null, "theoretical": null, "database_IDs": null, "fields_not_requested": ["builder_meta", "nsites", "elements", "nelements", "composition", "composition_reduced", "chemsys", "symmetry", "property_name", "deprecated", "deprecation_reasons", "last_updated", "origins", "warnings", "task_ids", "uncorrected_energy_per_atom", "equilibrium_reaction_energy_per_atom", "decomposes_to", "xas", "grain_boundaries", "cbm", "vbm", "is_gap_direct", "is_metal", "es_source_calc_id", "bandstructure", "dos", "dos_energy_up", "dos_energy_down", "is_magnetic", "ordering", "total_magnetization_normalized_vol", "total_magnetization_normalized_formula_units", "num_magnetic_sites", "num_unique_magnetic_sites", "types_of_magnetic_species", "bulk_modulus", "shear_modulus", "universal_anisotropy", "homogeneous_poisson", "e_total", "e_ionic", "e_electronic", "n", "e_ij_max", "weighted_surface_energy_EV_PER_ANG2", "weighted_surface_energy", "weighted_work_function", "surface_anisotropy", "shape_factor", "has_reconstructed", "possible_species", "has_props", "theoretical", "database_IDs"]}