{
  "builder_meta": null,
  "nsites": null,
  "elements": null,
  "nelements": null,
  "composition": null,
  "composition_reduced": null,
  "formula_pretty": "Cr8Co7",
  "formula_anonymous": "A7B8",
  "chemsys": null,
  "volume": 354.6655332393532,
  "density": 7.758061735746135,
  "density_atomic": 11.822184441311773,
  "symmetry": null,
  "property_name": null,
  "material_id": "mp-1227307",
  "deprecated": null,
  "deprecation_reasons": null,
  "last_updated": null,
  "origins": null,
  "warnings": null,
  "structure": {
    "@module": "pymatgen.core.structure",
    "@class": "Structure",
    "charge": 0.0,
    "lattice": {
      "matrix": [
        [0.0, 0.0, 4.6918329199999995],
        [8.69437211, -0.0, 0.0],
        [-0.0, 8.69437211, 0.0]
      ],
      "pbc": [true, true, true],
      "a": 4.6918329199999995,
      "b": 8.69437211,
      "c": 8.69437211,
      "alpha": 90.0,
      "beta": 90.0,
      "gamma": 90.0,
      "volume": 354.6655332393531
    },
    "properties": {},
    "sites": [
      {
        "species": [{ "element": "Cr", "occu": 1 }],
        "abc": [0.5013813, 0.36022676000000003, 0.96089111],
        "properties": { "magmom": -2.476 },
        "label": "Cr",
        "xyz": [3.131945495419664, 8.354344867530942, 2.352397288812396]
      },
      {
        "species": [{ "element": "Cr", "occu": 1 }],
        "abc": [0.5013813, 0.63977324, 0.03910889],
        "properties": { "magmom": -2.476 },
        "label": "Cr",
        "xyz": [5.562426614580336, 0.3400272424690579, 2.352397288812396]
      },
      {
        "species": [{ "element": "Cr", "occu": 1 }],
        "abc": [0.0013813, 0.13977324, 0.46089111],
        "properties": { "magmom": -2.476 },
        "label": "Cr",
        "xyz": [1.2152405595803364, 4.007158812530942, 0.0064808288123959995]
      },
      {
        "species": [{ "element": "Cr", "occu": 1 }],
        "abc": [0.0013813, 0.86022676, 0.5391088900000001],
        "properties": { "magmom": -2.476 },
        "label": "Cr",
        "xyz": [7.479131550419663, 4.687213297469058, 0.0064808288123959995]
      },
      {
        "species": [{ "element": "Cr", "occu": 1 }],
        "abc": [0.5013813, 0.96089111, 0.36022676000000003],
        "properties": { "magmom": -2.476 },
        "label": "Cr",
        "xyz": [8.354344867530942, 3.131945495419664, 2.352397288812396]
      },
      {
        "species": [{ "element": "Cr", "occu": 1 }],
        "abc": [0.5013813, 0.03910889, 0.63977324],
        "properties": { "magmom": -2.476 },
        "label": "Cr",
        "xyz": [0.3400272424690579, 5.562426614580336, 2.352397288812396]
      },
      {
        "species": [{ "element": "Cr", "occu": 1 }],
        "abc": [0.0013813, 0.46089111, 0.13977324],
        "properties": { "magmom": -2.476 },
        "label": "Cr",
        "xyz": [4.007158812530942, 1.2152405595803364, 0.0064808288123959995]
      },
      {
        "species": [{ "element": "Cr", "occu": 1 }],
        "abc": [0.0013813, 0.5391088900000001, 0.86022676],
        "properties": { "magmom": -2.476 },
        "label": "Cr",
        "xyz": [4.687213297469058, 7.479131550419663, 0.0064808288123959995]
      },
      {
        "species": [{ "element": "Cr", "occu": 1 }],
        "abc": [0.49423019999999906, 0.10321486, 0.89678514],
        "properties": { "magmom": 2.3890000000000002 },
        "label": "Cr",
        "xyz": [0.8973884001215546, 7.796983709878445, 2.3188455224181794]
      },
      {
        "species": [{ "element": "Cr", "occu": 1 }],
        "abc": [0.49423019999999906, 0.89678514, 0.10321486],
        "properties": { "magmom": 2.3890000000000002 },
        "label": "Cr",
        "xyz": [7.796983709878445, 0.8973884001215546, 2.3188455224181794]
      },
      {
        "species": [{ "element": "Cr", "occu": 1 }],
        "abc": [-0.005769799999999, 0.39678514, 0.39678514],
        "properties": { "magmom": 2.3890000000000002 },
        "label": "Cr",
        "xyz": [3.449797654878445, 3.449797654878445, -0.027070937581811307]
      },
      {
        "species": [{ "element": "Cr", "occu": 1 }],
        "abc": [-0.005769799999999, 0.60321486, 0.60321486],
        "properties": { "magmom": 2.3890000000000002 },
        "label": "Cr",
        "xyz": [5.244574455121555, 5.244574455121555, -0.027070937581811307]
      },
      {
        "species": [{ "element": "Cr", "occu": 1 }],
        "abc": [0.75022306, 0.69028192, 0.30971808],
        "properties": { "magmom": 2.307 },
        "label": "Cr",
        "xyz": [6.001567873285251, 2.692804236714749, 3.519921250251135]
      },
      {
        "species": [{ "element": "Cr", "occu": 1 }],
        "abc": [0.75022306, 0.30971808, 0.69028192],
        "properties": { "magmom": 2.307 },
        "label": "Cr",
        "xyz": [2.692804236714749, 6.001567873285251, 3.519921250251135]
      },
      {
        "species": [{ "element": "Cr", "occu": 1 }],
        "abc": [0.25022306, 0.80971808, 0.80971808],
        "properties": { "magmom": 2.307 },
        "label": "Cr",
        "xyz": [7.039990291714749, 7.039990291714749, 1.174004790251135]
      },
      {
        "species": [{ "element": "Cr", "occu": 1 }],
        "abc": [0.25022306, 0.19028192, 0.19028192],
        "properties": { "magmom": 2.307 },
        "label": "Cr",
        "xyz": [1.654381818285251, 1.654381818285251, 1.174004790251135]
      },
      {
        "species": [{ "element": "Co", "occu": 1 }],
        "abc": [0.50351562, 0.24244193, 0.43813353],
        "properties": { "magmom": 1.407 },
        "label": "Co",
        "xyz": [2.1078803544865723, 3.809295943687848, 2.3624111616502104]
      },
      {
        "species": [{ "element": "Co", "occu": 1 }],
        "abc": [0.50351562, 0.75755807, 0.56186647],
        "properties": { "magmom": 1.407 },
        "label": "Co",
        "xyz": [6.5864917555134275, 4.885076166312151, 2.3624111616502104]
      },
      {
        "species": [{ "element": "Co", "occu": 1 }],
        "abc": [0.00351562, 0.25755807000000003, 0.93813353],
        "properties": { "magmom": 1.407 },
        "label": "Co",
        "xyz": [2.239305700513428, 8.156481998687848, 0.0164947016502104]
      },
      {
        "species": [{ "element": "Co", "occu": 1 }],
        "abc": [0.00351562, 0.74244193, 0.06186647],
        "properties": { "magmom": 1.407 },
        "label": "Co",
        "xyz": [6.455066409486572, 0.5378901113121517, 0.0164947016502104]
      },
      {
        "species": [{ "element": "Co", "occu": 1 }],
        "abc": [0.50351562, 0.43813353, 0.24244193],
        "properties": { "magmom": 1.407 },
        "label": "Co",
        "xyz": [3.809295943687848, 2.1078803544865723, 2.3624111616502104]
      },
      {
        "species": [{ "element": "Co", "occu": 1 }],
        "abc": [0.50351562, 0.56186647, 0.75755807],
        "properties": { "magmom": 1.407 },
        "label": "Co",
        "xyz": [4.885076166312151, 6.5864917555134275, 2.3624111616502104]
      },
      {
        "species": [{ "element": "Co", "occu": 1 }],
        "abc": [0.00351562, 0.93813353, 0.25755807000000003],
        "properties": { "magmom": 1.407 },
        "label": "Co",
        "xyz": [8.156481998687848, 2.239305700513428, 0.0164947016502104]
      },
      {
        "species": [{ "element": "Co", "occu": 1 }],
        "abc": [0.00351562, 0.06186647, 0.74244193],
        "properties": { "magmom": 1.407 },
        "label": "Co",
        "xyz": [0.5378901113121517, 6.455066409486572, 0.0164947016502104]
      },
      {
        "species": [{ "element": "Co", "occu": 1 }],
        "abc": [0.49559812000000003, 0.5, 0.5],
        "properties": { "magmom": 1.742999999999999 },
        "label": "Co",
        "xyz": [4.347186055, 4.347186055, 2.3252635745061103]
      },
      {
        "species": [{ "element": "Co", "occu": 1 }],
        "abc": [-0.00440188, 0.0, 0.0],
        "properties": { "magmom": 1.742999999999999 },
        "label": "Co",
        "xyz": [0.0, 0.0, -0.0206528854938896]
      },
      {
        "species": [{ "element": "Co", "occu": 1 }],
        "abc": [0.24795433, 0.31562084, 0.68437916],
        "properties": { "magmom": 1.417 },
        "label": "Co",
        "xyz": [2.7441250286307723, 5.950247081369227, 1.1633602881505434]
      },
      {
        "species": [{ "element": "Co", "occu": 1 }],
        "abc": [0.24795433, 0.68437916, 0.31562084],
        "properties": { "magmom": 1.417 },
        "label": "Co",
        "xyz": [5.950247081369227, 2.7441250286307723, 1.1633602881505434]
      },
      {
        "species": [{ "element": "Co", "occu": 1 }],
        "abc": [0.74795433, 0.18437916000000001, 0.18437916000000001],
        "properties": { "magmom": 1.417 },
        "label": "Co",
        "xyz": [1.6030610263692278, 1.6030610263692278, 3.509276748150543]
      },
      {
        "species": [{ "element": "Co", "occu": 1 }],
        "abc": [0.74795433, 0.81562084, 0.81562084],
        "properties": { "magmom": 1.417 },
        "label": "Co",
        "xyz": [7.091311083630773, 7.091311083630773, 3.509276748150543]
      }
    ]
  },
  "task_ids": null,
  "uncorrected_energy_per_atom": null,
  "energy_per_atom": -13.926472209999998,
  "formation_energy_per_atom": 0.288618258666667,
  "energy_above_hull": 0.288618258666668,
  "is_stable": false,
  "equilibrium_reaction_energy_per_atom": null,
  "decomposes_to": null,
  "xas": null,
  "grain_boundaries": null,
  "band_gap": 0.0,
  "cbm": null,
  "vbm": null,
  "efermi": 6.49432554,
  "is_gap_direct": null,
  "is_metal": null,
  "es_source_calc_id": null,
  "bandstructure": null,
  "dos": null,
  "dos_energy_up": null,
  "dos_energy_down": null,
  "is_magnetic": null,
  "ordering": null,
  "total_magnetization": 18.4604389,
  "total_magnetization_normalized_vol": null,
  "total_magnetization_normalized_formula_units": null,
  "num_magnetic_sites": null,
  "num_unique_magnetic_sites": null,
  "types_of_magnetic_species": null,
  "bulk_modulus": null,
  "shear_modulus": null,
  "universal_anisotropy": null,
  "homogeneous_poisson": null,
  "e_total": null,
  "e_ionic": null,
  "e_electronic": null,
  "n": null,
  "e_ij_max": null,
  "weighted_surface_energy_EV_PER_ANG2": null,
  "weighted_surface_energy": null,
  "weighted_work_function": null,
  "surface_anisotropy": null,
  "shape_factor": null,
  "has_reconstructed": null,
  "possible_species": null,
  "has_props": null,
  "theoretical": null,
  "database_IDs": null,
  "fields_not_requested": [
    "builder_meta",
    "nsites",
    "elements",
    "nelements",
    "composition",
    "composition_reduced",
    "chemsys",
    "symmetry",
    "property_name",
    "deprecated",
    "deprecation_reasons",
    "last_updated",
    "origins",
    "warnings",
    "task_ids",
    "uncorrected_energy_per_atom",
    "equilibrium_reaction_energy_per_atom",
    "decomposes_to",
    "xas",
    "grain_boundaries",
    "cbm",
    "vbm",
    "is_gap_direct",
    "is_metal",
    "es_source_calc_id",
    "bandstructure",
    "dos",
    "dos_energy_up",
    "dos_energy_down",
    "is_magnetic",
    "ordering",
    "total_magnetization_normalized_vol",
    "total_magnetization_normalized_formula_units",
    "num_magnetic_sites",
    "num_unique_magnetic_sites",
    "types_of_magnetic_species",
    "bulk_modulus",
    "shear_modulus",
    "universal_anisotropy",
    "homogeneous_poisson",
    "e_total",
    "e_ionic",
    "e_electronic",
    "n",
    "e_ij_max",
    "weighted_surface_energy_EV_PER_ANG2",
    "weighted_surface_energy",
    "weighted_work_function",
    "surface_anisotropy",
    "shape_factor",
    "has_reconstructed",
    "possible_species",
    "has_props",
    "theoretical",
    "database_IDs"
  ]
}
