{"builder_meta": null, "nsites": null, "elements": null, "nelements": null, "composition": null, "composition_reduced": null, "formula_pretty": "CrAs", "formula_anonymous": "AB", "chemsys": null, "volume": 127.5779126109321, "density": 6.6077832684326125, "density_atomic": 15.947239076366513, "symmetry": null, "property_name": null, "material_id": "mp-20717", "deprecated": null, "deprecation_reasons": null, "last_updated": null, "origins": null, "warnings": null, "structure": {"@module": "pymatgen.core.structure", "@class": "Structure", "charge": 0, "lattice": {"matrix": [[3.567259, 0.0, 0.0], [0.0, 5.688791, 0.0], [0.0, 0.0, 6.286673]], "pbc": [true, true, true], "a": 3.567259, "b": 5.688791, "c": 6.286673, "alpha": 90.0, "beta": 90.0, "gamma": 90.0, "volume": 127.5779126109321}, "properties": {}, "sites": [{"species": [{"element": "Cr", "occu": 1}], "abc": [0.25, 0.501724, 0.716700999999999], "properties": {"magmom": 2.463}, "label": "Cr", "xyz": [0.89181475, 2.8542029756839997, 4.505664825772994]}, {"species": [{"element": "Cr", "occu": 1}], "abc": [0.75, 0.498276, 0.283298999999999], "properties": {"magmom": 2.462}, "label": "Cr", "xyz": [2.67544425, 2.834588024316, 1.7810081742269939]}, {"species": [{"element": "Cr", "occu": 1}], "abc": [0.25, 0.0017239999999990002, 0.783299], "properties": {"magmom": 2.462}, "label": "Cr", "xyz": [0.89181475, 0.009807475683994312, 4.924344674227]}, {"species": [{"element": "Cr", "occu": 1}], "abc": [0.75, 0.998275999999999, 0.216700999999999], "properties": {"magmom": 2.461}, "label": "Cr", "xyz": [2.67544425, 5.678983524315995, 1.362328325772994]}, {"species": [{"element": "As", "occu": 1}], "abc": [0.25, 0.714951, 0.079842], "properties": {"magmom": -0.15}, "label": "As", "xyz": [0.89181475, 4.0672068142410005, 0.501940545666]}, {"species": [{"element": "As", "occu": 1}], "abc": [0.75, 0.285049, 0.920157999999999], "properties": {"magmom": -0.15}, "label": "As", "xyz": [2.67544425, 1.621584185759, 5.784732454333994]}, {"species": [{"element": "As", "occu": 1}], "abc": [0.25, 0.214951, 0.420158], "properties": {"magmom": -0.151}, "label": "As", "xyz": [0.89181475, 1.222811314241, 2.641395954334]}, {"species": [{"element": "As", "occu": 1}], "abc": [0.75, 0.785049, 0.579842], "properties": {"magmom": -0.151}, "label": "As", "xyz": [2.67544425, 4.465979685759, 3.645277045666]}]}, "task_ids": null, "uncorrected_energy_per_atom": null, "energy_per_atom": -7.34719674875, "formation_energy_per_atom": -0.1856117475, "energy_above_hull": 0.0, "is_stable": true, "equilibrium_reaction_energy_per_atom": null, "decomposes_to": null, "xas": null, "grain_boundaries": null, "band_gap": 0.0, "cbm": null, "vbm": null, "efermi": 6.30808683, "is_gap_direct": null, "is_metal": null, "es_source_calc_id": null, "bandstructure": null, "dos": null, "dos_energy_up": null, "dos_energy_down": null, "is_magnetic": null, "ordering": null, "total_magnetization": 9.7019567, "total_magnetization_normalized_vol": null, "total_magnetization_normalized_formula_units": null, "num_magnetic_sites": null, "num_unique_magnetic_sites": null, "types_of_magnetic_species": null, "bulk_modulus": null, "shear_modulus": null, "universal_anisotropy": null, "homogeneous_poisson": null, "e_total": null, "e_ionic": null, "e_electronic": null, "n": null, "e_ij_max": null, "weighted_surface_energy_EV_PER_ANG2": null, "weighted_surface_energy": null, "weighted_work_function": null, "surface_anisotropy": null, "shape_factor": null, "has_reconstructed": null, "possible_species": null, "has_props": null, "theoretical": null, "database_IDs": null, "fields_not_requested": ["builder_meta", "nsites", "elements", "nelements", "composition", "composition_reduced", "chemsys", "symmetry", "property_name", "deprecated", "deprecation_reasons", "last_updated", "origins", "warnings", "task_ids", "uncorrected_energy_per_atom", "equilibrium_reaction_energy_per_atom", "decomposes_to", "xas", "grain_boundaries", "cbm", "vbm", "is_gap_direct", "is_metal", "es_source_calc_id", "bandstructure", "dos", "dos_energy_up", "dos_energy_down", "is_magnetic", "ordering", "total_magnetization_normalized_vol", "total_magnetization_normalized_formula_units", "num_magnetic_sites", "num_unique_magnetic_sites", "types_of_magnetic_species", "bulk_modulus", "shear_modulus", "universal_anisotropy", "homogeneous_poisson", "e_total", "e_ionic", "e_electronic", "n", "e_ij_max", "weighted_surface_energy_EV_PER_ANG2", "weighted_surface_energy", "weighted_work_function", "surface_anisotropy", "shape_factor", "has_reconstructed", "possible_species", "has_props", "theoretical", "database_IDs"]}