{"builder_meta": null, "nsites": null, "elements": null, "nelements": null, "composition": null, "composition_reduced": null, "formula_pretty": "CrAs2", "formula_anonymous": "AB2", "chemsys": null, "volume": 90.68964531971753, "density": 7.391407070644418, "density_atomic": 15.114940886619587, "symmetry": null, "property_name": null, "material_id": "mp-15681", "deprecated": null, "deprecation_reasons": null, "last_updated": null, "origins": null, "warnings": null, "structure": {"@module": "pymatgen.core.structure", "@class": "Structure", "charge": 0, "lattice": {"matrix": [[3.10146648, -0.0, 0.78662173], [1.4259716, 4.39394878, 0.88521612], [-0.03428089, -0.02899374, 6.64266011]], "pbc": [true, true, true], "a": 3.199666869014927, "b": 4.703593144010003, "c": 6.6428118408821115, "alpha": 79.4814524122002, "beta": 76.06405088419956, "gamma": 70.11520432648784, "volume": 90.68964531971753}, "properties": {}, "sites": [{"species": [{"element": "Cr", "occu": 1}], "abc": [0.15437225000000002, 0.39282628, 0.29843122], "properties": {"magmom": -0.0}, "label": "Cr", "xyz": [1.0287089900054422, 1.7174059165573756, 2.4515458824472605]}, {"species": [{"element": "Cr", "occu": 1}], "abc": [0.84562443, 0.60718315, 0.70156799], "properties": {"magmom": 0.0}, "label": "Cr", "xyz": [3.4644513771199352, 2.6475905812846743, 5.862952565855121]}, {"species": [{"element": "As", "occu": 1}], "abc": [0.40422357000000003, 0.79475336, 0.396797499999999], "properties": {"magmom": 0.0}, "label": "As", "xyz": [2.3733790016957346, 3.4806009130252504, 3.657290454634058]}, {"species": [{"element": "As", "occu": 1}], "abc": [0.59578429, 0.20523689, 0.6031945200000001], "properties": {"magmom": -0.0}, "label": "As", "xyz": [2.1197889361692006, 0.8843115173441893, 4.657152048927886]}, {"species": [{"element": "As", "occu": 1}], "abc": [0.85095488, 0.262484799999999, 0.03560644], "properties": {"magmom": 0.0}, "label": "As", "xyz": [3.0122832860911695, 1.1523124028648541, 1.138256854719626]}, {"species": [{"element": "As", "occu": 1}], "abc": [0.14903957, 0.7375145200000001, 0.96440434], "properties": {"magmom": -0.0}, "label": "As", "xyz": [1.4808553515611833, 3.212639336697454, 7.176307745458795]}]}, "task_ids": null, "uncorrected_energy_per_atom": null, "energy_per_atom": -6.444894926666667, "formation_energy_per_atom": -0.11379741500000001, "energy_above_hull": 0.009943749999999, "is_stable": false, "equilibrium_reaction_energy_per_atom": null, "decomposes_to": null, "xas": null, "grain_boundaries": null, "band_gap": 0.0, "cbm": null, "vbm": null, "efermi": 7.47057269, "is_gap_direct": null, "is_metal": null, "es_source_calc_id": null, "bandstructure": null, "dos": null, "dos_energy_up": null, "dos_energy_down": null, "is_magnetic": null, "ordering": null, "total_magnetization": 0.0, "total_magnetization_normalized_vol": null, "total_magnetization_normalized_formula_units": null, "num_magnetic_sites": null, "num_unique_magnetic_sites": null, "types_of_magnetic_species": null, "bulk_modulus": null, "shear_modulus": null, "universal_anisotropy": null, "homogeneous_poisson": null, "e_total": null, "e_ionic": null, "e_electronic": null, "n": null, "e_ij_max": null, "weighted_surface_energy_EV_PER_ANG2": null, "weighted_surface_energy": null, "weighted_work_function": null, "surface_anisotropy": null, "shape_factor": null, "has_reconstructed": null, "possible_species": null, "has_props": null, "theoretical": null, "database_IDs": null, "fields_not_requested": ["builder_meta", "nsites", "elements", "nelements", "composition", "composition_reduced", "chemsys", "symmetry", "property_name", "deprecated", "deprecation_reasons", "last_updated", "origins", "warnings", "task_ids", "uncorrected_energy_per_atom", "equilibrium_reaction_energy_per_atom", "decomposes_to", "xas", "grain_boundaries", "cbm", "vbm", "is_gap_direct", "is_metal", "es_source_calc_id", "bandstructure", "dos", "dos_energy_up", "dos_energy_down", "is_magnetic", "ordering", "total_magnetization_normalized_vol", "total_magnetization_normalized_formula_units", "num_magnetic_sites", "num_unique_magnetic_sites", "types_of_magnetic_species", "bulk_modulus", "shear_modulus", "universal_anisotropy", "homogeneous_poisson", "e_total", "e_ionic", "e_electronic", "n", "e_ij_max", "weighted_surface_energy_EV_PER_ANG2", "weighted_surface_energy", "weighted_work_function", "surface_anisotropy", "shape_factor", "has_reconstructed", "possible_species", "has_props", "theoretical", "database_IDs"]}