{"builder_meta": null, "nsites": null, "elements": null, "nelements": null, "composition": null, "composition_reduced": null, "formula_pretty": "CrB", "formula_anonymous": "AB", "chemsys": null, "volume": 65.63257254003089, "density": 6.356212421583301, "density_atomic": 8.204071567503862, "symmetry": null, "property_name": null, "material_id": "mp-1080664", "deprecated": null, "deprecation_reasons": null, "last_updated": null, "origins": null, "warnings": null, "structure": {"@module": "pymatgen.core.structure", "@class": "Structure", "charge": 0, "lattice": {"matrix": [[2.90046917, 0.00010347, -0.00011101], [0.00010347, 2.90049441, -0.00011099], [-1.45058775, -1.45060002, 7.8016295]], "pbc": [true, true, true], "a": 2.90046917396992, "b": 2.90049441396912, "c": 8.06683755220993, "alpha": 100.36195838210527, "beta": 100.36187020154104, "gamma": 89.99591204743338, "volume": 65.63257254003088}, "properties": {}, "sites": [{"species": [{"element": "Cr", "occu": 1}], "abc": [0.57260837, 0.82259573, 0.145176399999999], "properties": {"magmom": 0.0}, "label": "Cr", "xyz": [1.4503269302200377, 2.175400675599387, 1.1324576197885659]}, {"species": [{"element": "Cr", "occu": 1}], "abc": [0.82260045, 0.57261428, 0.64518823], "properties": {"magmom": 0.0}, "label": "Cr", "xyz": [1.4500843499704956, 0.7250395733529715, 5.033364656885894]}, {"species": [{"element": "Cr", "occu": 1}], "abc": [0.42742238, 0.17743602, 0.85488451], "properties": {"magmom": 0.0}, "label": "Cr", "xyz": [-0.0003412028077385276, -0.7253990777673835, 6.669425070526781]}, {"species": [{"element": "Cr", "occu": 1}], "abc": [0.17734458, 0.42733299, 0.35470694], "properties": {"magmom": 0.0}, "label": "Cr", "xyz": [-0.0001068391029112048, 0.7249574042891397, 2.767225010248344]}, {"species": [{"element": "B", "occu": 1}], "abc": [0.7172752, 0.96724782, 0.43458736000000003], "properties": {"magmom": -0.0}, "label": "B", "xyz": [1.4501275844166797, 2.175158678351883, 3.3903025885476263]}, {"species": [{"element": "B", "occu": 1}], "abc": [0.96727501, 0.7173011300000001, 0.93463442], "properties": {"magmom": -0.0}, "label": "B", "xyz": [1.4498563241840083, 0.7248472934522798, 7.291484472336111]}, {"species": [{"element": "B", "occu": 1}], "abc": [0.28271688, 0.03274352, 0.56540081], "properties": {"magmom": 0.0}, "label": "B", "xyz": [-0.00014850657547349488, -0.7251687768547194, 4.411012620015761]}, {"species": [{"element": "B", "occu": 1}], "abc": [0.03275614, 0.2827285, 0.06542133], "properties": {"magmom": -0.0}, "label": "B", "xyz": [0.0001380482293913271, 0.7251556404690641, 0.5103579617619185]}]}, "task_ids": null, "uncorrected_energy_per_atom": null, "energy_per_atom": -11.620612545, "formation_energy_per_atom": -0.41076425125000005, "energy_above_hull": 0.0, "is_stable": true, "equilibrium_reaction_energy_per_atom": null, "decomposes_to": null, "xas": null, "grain_boundaries": null, "band_gap": 0.0, "cbm": null, "vbm": null, "efermi": 8.55124396, "is_gap_direct": null, "is_metal": null, "es_source_calc_id": null, "bandstructure": null, "dos": null, "dos_energy_up": null, "dos_energy_down": null, "is_magnetic": null, "ordering": null, "total_magnetization": 0.0, "total_magnetization_normalized_vol": null, "total_magnetization_normalized_formula_units": null, "num_magnetic_sites": null, "num_unique_magnetic_sites": null, "types_of_magnetic_species": null, "bulk_modulus": null, "shear_modulus": null, "universal_anisotropy": null, "homogeneous_poisson": null, "e_total": null, "e_ionic": null, "e_electronic": null, "n": null, "e_ij_max": null, "weighted_surface_energy_EV_PER_ANG2": null, "weighted_surface_energy": null, "weighted_work_function": null, "surface_anisotropy": null, "shape_factor": null, "has_reconstructed": null, "possible_species": null, "has_props": null, "theoretical": null, "database_IDs": null, "fields_not_requested": ["builder_meta", "nsites", "elements", "nelements", "composition", "composition_reduced", "chemsys", "symmetry", "property_name", "deprecated", "deprecation_reasons", "last_updated", "origins", "warnings", "task_ids", "uncorrected_energy_per_atom", "equilibrium_reaction_energy_per_atom", "decomposes_to", "xas", "grain_boundaries", "cbm", "vbm", "is_gap_direct", "is_metal", "es_source_calc_id", "bandstructure", "dos", "dos_energy_up", "dos_energy_down", "is_magnetic", "ordering", "total_magnetization_normalized_vol", "total_magnetization_normalized_formula_units", "num_magnetic_sites", "num_unique_magnetic_sites", "types_of_magnetic_species", "bulk_modulus", "shear_modulus", "universal_anisotropy", "homogeneous_poisson", "e_total", "e_ionic", "e_electronic", "n", "e_ij_max", "weighted_surface_energy_EV_PER_ANG2", "weighted_surface_energy", "weighted_work_function", "surface_anisotropy", "shape_factor", "has_reconstructed", "possible_species", "has_props", "theoretical", "database_IDs"]}