{
  "builder_meta": null,
  "nsites": null,
  "elements": null,
  "nelements": null,
  "composition": null,
  "composition_reduced": null,
  "formula_pretty": "CrB4",
  "formula_anonymous": "AB4",
  "chemsys": null,
  "volume": 72.953526579668,
  "density": 4.335634318765522,
  "density_atomic": 7.295352657966799,
  "symmetry": null,
  "property_name": null,
  "material_id": "mp-1078278",
  "deprecated": null,
  "deprecation_reasons": null,
  "last_updated": null,
  "origins": null,
  "warnings": null,
  "structure": {
    "@module": "pymatgen.core.structure",
    "@class": "Structure",
    "charge": 0,
    "lattice": {
      "matrix": [
        [0.0, 0.0, 2.84567529],
        [4.70638119, 0.0, 0.0],
        [0.0, 5.44720661, 0.0]
      ],
      "pbc": [true, true, true],
      "a": 2.84567529,
      "b": 4.70638119,
      "c": 5.44720661,
      "alpha": 90.0,
      "beta": 90.0,
      "gamma": 90.0,
      "volume": 72.953526579668
    },
    "properties": {},
    "sites": [
      {
        "species": [{ "element": "Cr", "occu": 1 }],
        "abc": [0.5, 0.5, 0.5],
        "properties": { "magmom": -0.0 },
        "label": "Cr",
        "xyz": [2.353190595, 2.723603305, 1.422837645]
      },
      {
        "species": [{ "element": "Cr", "occu": 1 }],
        "abc": [0.0, -0.0, -0.0],
        "properties": { "magmom": -0.0 },
        "label": "Cr",
        "xyz": [0.0, 0.0, 0.0]
      },
      {
        "species": [{ "element": "B", "occu": 1 }],
        "abc": [0.5, 0.66334107, 0.86817067],
        "properties": { "magmom": 0.0 },
        "label": "B",
        "xyz": [3.1219359344024733, 4.729105012232129, 1.422837645]
      },
      {
        "species": [{ "element": "B", "occu": 1 }],
        "abc": [0.5, 0.33665893, 0.13182933],
        "properties": { "magmom": 0.0 },
        "label": "B",
        "xyz": [1.5844452555975268, 0.7181015977678713, 1.422837645]
      },
      {
        "species": [{ "element": "B", "occu": 1 }],
        "abc": [-0.0, 0.16334107, 0.63182933],
        "properties": { "magmom": 0.0 },
        "label": "B",
        "xyz": [0.7687453394024734, 3.441704902767871, 0.0]
      },
      {
        "species": [{ "element": "B", "occu": 1 }],
        "abc": [0.0, 0.83665893, 0.36817067000000003],
        "properties": { "magmom": 0.0 },
        "label": "B",
        "xyz": [3.937635850597527, 2.005501707232129, 0.0]
      },
      {
        "species": [{ "element": "B", "occu": 1 }],
        "abc": [0.5, 0.72524491, 0.18024983],
        "properties": { "magmom": 0.0 },
        "label": "B",
        "xyz": [3.413279002567243, 0.9818580654273763, 1.422837645]
      },
      {
        "species": [{ "element": "B", "occu": 1 }],
        "abc": [0.5, 0.27475509, 0.8197501700000001],
        "properties": { "magmom": 0.0 },
        "label": "B",
        "xyz": [1.293102187432757, 4.465348544572624, 1.422837645]
      },
      {
        "species": [{ "element": "B", "occu": 1 }],
        "abc": [0.0, 0.22524491, 0.31975017],
        "properties": { "magmom": 0.0 },
        "label": "B",
        "xyz": [1.060088407567243, 1.7417452395726238, 0.0]
      },
      {
        "species": [{ "element": "B", "occu": 1 }],
        "abc": [0.0, 0.77475509, 0.68024983],
        "properties": { "magmom": 0.0 },
        "label": "B",
        "xyz": [3.646292782432757, 3.705461370427377, 0.0]
      }
    ]
  },
  "task_ids": null,
  "uncorrected_energy_per_atom": null,
  "energy_per_atom": -9.157114525999999,
  "formation_energy_per_atom": -0.265362689999999,
  "energy_above_hull": 0.0,
  "is_stable": true,
  "equilibrium_reaction_energy_per_atom": null,
  "decomposes_to": null,
  "xas": null,
  "grain_boundaries": null,
  "band_gap": 0.0,
  "cbm": null,
  "vbm": null,
  "efermi": 7.74642906,
  "is_gap_direct": null,
  "is_metal": null,
  "es_source_calc_id": null,
  "bandstructure": null,
  "dos": null,
  "dos_energy_up": null,
  "dos_energy_down": null,
  "is_magnetic": null,
  "ordering": null,
  "total_magnetization": 0.0,
  "total_magnetization_normalized_vol": null,
  "total_magnetization_normalized_formula_units": null,
  "num_magnetic_sites": null,
  "num_unique_magnetic_sites": null,
  "types_of_magnetic_species": null,
  "bulk_modulus": null,
  "shear_modulus": null,
  "universal_anisotropy": null,
  "homogeneous_poisson": null,
  "e_total": null,
  "e_ionic": null,
  "e_electronic": null,
  "n": null,
  "e_ij_max": null,
  "weighted_surface_energy_EV_PER_ANG2": null,
  "weighted_surface_energy": null,
  "weighted_work_function": null,
  "surface_anisotropy": null,
  "shape_factor": null,
  "has_reconstructed": null,
  "possible_species": null,
  "has_props": null,
  "theoretical": null,
  "database_IDs": null,
  "fields_not_requested": [
    "builder_meta",
    "nsites",
    "elements",
    "nelements",
    "composition",
    "composition_reduced",
    "chemsys",
    "symmetry",
    "property_name",
    "deprecated",
    "deprecation_reasons",
    "last_updated",
    "origins",
    "warnings",
    "task_ids",
    "uncorrected_energy_per_atom",
    "equilibrium_reaction_energy_per_atom",
    "decomposes_to",
    "xas",
    "grain_boundaries",
    "cbm",
    "vbm",
    "is_gap_direct",
    "is_metal",
    "es_source_calc_id",
    "bandstructure",
    "dos",
    "dos_energy_up",
    "dos_energy_down",
    "is_magnetic",
    "ordering",
    "total_magnetization_normalized_vol",
    "total_magnetization_normalized_formula_units",
    "num_magnetic_sites",
    "num_unique_magnetic_sites",
    "types_of_magnetic_species",
    "bulk_modulus",
    "shear_modulus",
    "universal_anisotropy",
    "homogeneous_poisson",
    "e_total",
    "e_ionic",
    "e_electronic",
    "n",
    "e_ij_max",
    "weighted_surface_energy_EV_PER_ANG2",
    "weighted_surface_energy",
    "weighted_work_function",
    "surface_anisotropy",
    "shape_factor",
    "has_reconstructed",
    "possible_species",
    "has_props",
    "theoretical",
    "database_IDs"
  ]
}
