{
  "builder_meta": null,
  "nsites": null,
  "elements": null,
  "nelements": null,
  "composition": null,
  "composition_reduced": null,
  "formula_pretty": "CrBi",
  "formula_anonymous": "AB",
  "chemsys": null,
  "volume": 202.65499398768793,
  "density": 8.553683581878337,
  "density_atomic": 25.33187424846099,
  "symmetry": null,
  "property_name": null,
  "material_id": "mp-1079128",
  "deprecated": null,
  "deprecation_reasons": null,
  "last_updated": null,
  "origins": null,
  "warnings": null,
  "structure": {
    "@module": "pymatgen.core.structure",
    "@class": "Structure",
    "charge": 0,
    "lattice": {
      "matrix": [
        [7.564631, 0.0, 0.0],
        [0.0, 4.105555, 0.0],
        [0.0, 0.0256, 6.525258]
      ],
      "pbc": [true, true, true],
      "a": 7.564631,
      "b": 4.105555,
      "c": 6.52530821697826,
      "alpha": 89.77521740438947,
      "beta": 90.0,
      "gamma": 90.0,
      "volume": 202.65499398768793
    },
    "properties": {},
    "sites": [
      {
        "species": [{ "element": "Cr", "occu": 1 }],
        "abc": [0.926688, 0.273371, 0.676354],
        "properties": { "magmom": 3.614 },
        "label": "Cr",
        "xyz": [7.010052772128, 1.139654338305, 4.413384349332]
      },
      {
        "species": [{ "element": "Cr", "occu": 1 }],
        "abc": [0.426687999999999, 0.726629, 0.823646],
        "properties": { "magmom": 3.614 },
        "label": "Cr",
        "xyz": [3.227737272127993, 3.004300661695, 5.374502650668]
      },
      {
        "species": [{ "element": "Cr", "occu": 1 }],
        "abc": [0.073312, 0.726629, 0.323646],
        "properties": { "magmom": 3.614 },
        "label": "Cr",
        "xyz": [0.5545782278720001, 2.9915006616949995, 2.111873650668]
      },
      {
        "species": [{ "element": "Cr", "occu": 1 }],
        "abc": [0.573311999999999, 0.273371, 0.176353999999999],
        "properties": { "magmom": 3.614 },
        "label": "Cr",
        "xyz": [4.336893727871993, 1.1268543383049998, 1.1507553493319935]
      },
      {
        "species": [{ "element": "Bi", "occu": 1 }],
        "abc": [0.287389, 0.227785, 0.532852],
        "properties": { "magmom": -0.23800000000000002 },
        "label": "Bi",
        "xyz": [2.173991738459, 0.948824856875, 3.476996775816]
      },
      {
        "species": [{ "element": "Bi", "occu": 1 }],
        "abc": [0.787389, 0.772215, 0.967148],
        "properties": { "magmom": -0.23800000000000002 },
        "label": "Bi",
        "xyz": [5.956307238459, 3.1951301431249997, 6.310890224184]
      },
      {
        "species": [{ "element": "Bi", "occu": 1 }],
        "abc": [0.712611, 0.772215, 0.46714799999999906],
        "properties": { "magmom": -0.23800000000000002 },
        "label": "Bi",
        "xyz": [5.390639261541001, 3.1823301431249997, 3.0482612241839937]
      },
      {
        "species": [{ "element": "Bi", "occu": 1 }],
        "abc": [0.212611, 0.227785, 0.032852],
        "properties": { "magmom": -0.23800000000000002 },
        "label": "Bi",
        "xyz": [1.608323761541, 0.9360248568749999, 0.214367775816]
      }
    ]
  },
  "task_ids": null,
  "uncorrected_energy_per_atom": null,
  "energy_per_atom": -36.17837161625,
  "formation_energy_per_atom": 0.609436451249997,
  "energy_above_hull": 0.609436451249997,
  "is_stable": false,
  "equilibrium_reaction_energy_per_atom": null,
  "decomposes_to": null,
  "xas": null,
  "grain_boundaries": null,
  "band_gap": 0.0,
  "cbm": null,
  "vbm": null,
  "efermi": 5.07766255,
  "is_gap_direct": null,
  "is_metal": null,
  "es_source_calc_id": null,
  "bandstructure": null,
  "dos": null,
  "dos_energy_up": null,
  "dos_energy_down": null,
  "is_magnetic": null,
  "ordering": null,
  "total_magnetization": 15.0179603,
  "total_magnetization_normalized_vol": null,
  "total_magnetization_normalized_formula_units": null,
  "num_magnetic_sites": null,
  "num_unique_magnetic_sites": null,
  "types_of_magnetic_species": null,
  "bulk_modulus": null,
  "shear_modulus": null,
  "universal_anisotropy": null,
  "homogeneous_poisson": null,
  "e_total": null,
  "e_ionic": null,
  "e_electronic": null,
  "n": null,
  "e_ij_max": null,
  "weighted_surface_energy_EV_PER_ANG2": null,
  "weighted_surface_energy": null,
  "weighted_work_function": null,
  "surface_anisotropy": null,
  "shape_factor": null,
  "has_reconstructed": null,
  "possible_species": null,
  "has_props": null,
  "theoretical": null,
  "database_IDs": null,
  "fields_not_requested": [
    "builder_meta",
    "nsites",
    "elements",
    "nelements",
    "composition",
    "composition_reduced",
    "chemsys",
    "symmetry",
    "property_name",
    "deprecated",
    "deprecation_reasons",
    "last_updated",
    "origins",
    "warnings",
    "task_ids",
    "uncorrected_energy_per_atom",
    "equilibrium_reaction_energy_per_atom",
    "decomposes_to",
    "xas",
    "grain_boundaries",
    "cbm",
    "vbm",
    "is_gap_direct",
    "is_metal",
    "es_source_calc_id",
    "bandstructure",
    "dos",
    "dos_energy_up",
    "dos_energy_down",
    "is_magnetic",
    "ordering",
    "total_magnetization_normalized_vol",
    "total_magnetization_normalized_formula_units",
    "num_magnetic_sites",
    "num_unique_magnetic_sites",
    "types_of_magnetic_species",
    "bulk_modulus",
    "shear_modulus",
    "universal_anisotropy",
    "homogeneous_poisson",
    "e_total",
    "e_ionic",
    "e_electronic",
    "n",
    "e_ij_max",
    "weighted_surface_energy_EV_PER_ANG2",
    "weighted_surface_energy",
    "weighted_work_function",
    "surface_anisotropy",
    "shape_factor",
    "has_reconstructed",
    "possible_species",
    "has_props",
    "theoretical",
    "database_IDs"
  ]
}
