{"builder_meta": null, "nsites": null, "elements": null, "nelements": null, "composition": null, "composition_reduced": null, "formula_pretty": "CrBr3", "formula_anonymous": "AB3", "chemsys": null, "volume": 667.6168781881327, "density": 4.353329389229361, "density_atomic": 27.817369924505527, "symmetry": null, "property_name": null, "material_id": "mp-27734", "deprecated": null, "deprecation_reasons": null, "last_updated": null, "origins": null, "warnings": null, "structure": {"@module": "pymatgen.core.structure", "@class": "Structure", "charge": 0, "lattice": {"matrix": [[6.37843686, 0.00095309, 3.617e-05], [-3.1900415, 5.52350257, 4.6810000000000014e-05], [9.712e-05, 0.00017352, 18.94789674]], "pbc": [true, true, true], "a": 6.378436931309698, "b": 6.37851435796064, "c": 18.947896741043426, "alpha": 89.99927203185064, "beta": 89.99938133899639, "gamma": 119.99957414372763, "volume": 667.6168781881327}, "properties": {}, "sites": [{"species": [{"element": "Cr", "occu": 1}], "abc": [9.119999999999999e-06, 1.286e-05, 0.00014017], "properties": {"magmom": 3.001}, "label": "Cr", "xyz": [1.7161023783599988e-05, 7.10652575294e-05, 0.0026559276178928005]}, {"species": [{"element": "Cr", "occu": 1}], "abc": [0.99997908, 0.999972299999999, 0.66750792], "properties": {"magmom": 3.001}, "label": "Cr", "xyz": [3.1884151156196316, 5.524418465014441, 12.647954119238868]}, {"species": [{"element": "Cr", "occu": 1}], "abc": [0.33334812, 0.66668784, 0.33221606], "properties": {"magmom": 3.001}, "label": "Cr", "xyz": [-0.0004896765019093276, 3.682827354518171, 6.294838865108935]}, {"species": [{"element": "Cr", "occu": 1}], "abc": [0.33333877, 0.66667404, 0.00040955], "properties": {"magmom": 3.0}, "label": "Cr", "xyz": [-0.0005375173621018439, 3.682693546205698, 0.0078033749849903]}, {"species": [{"element": "Cr", "occu": 1}], "abc": [0.66665109, 0.33331492, 0.66724214], "properties": {"magmom": 3.001}, "label": "Cr", "xyz": [3.188968260402634, 1.8418169755828453, 12.642874884537955]}, {"species": [{"element": "Cr", "occu": 1}], "abc": [0.6666698400000001, 0.33333801, 0.33251921], "properties": {"magmom": 3.001}, "label": "Cr", "xyz": [3.1889816897445633, 1.8418864500048104, 6.3005793721467365]}, {"species": [{"element": "Br", "occu": 1}], "abc": [0.31215762, 0.33386993, 0.92448109], "properties": {"magmom": -0.048}, "label": "Br", "xyz": [0.9261085228392393, 1.8445893466655023, 17.516999150595186]}, {"species": [{"element": "Br", "occu": 1}], "abc": [0.66615503, 0.97830722, 0.92448068], "properties": {"magmom": -0.048}, "label": "Br", "xyz": [1.1282769518404172, 5.404477765504692, 17.517034352153388]}, {"species": [{"element": "Br", "occu": 1}], "abc": [0.02171934, 0.68785574, 0.9244827], "properties": {"magmom": -0.048}, "label": "Br", "xyz": [-2.055663132022514, 3.7995540644031167, 17.517035721632116]}, {"species": [{"element": "Br", "occu": 1}], "abc": [0.66716713, 0.68838843, 0.07605948], "properties": {"magmom": -0.048}, "label": "Br", "xyz": [2.059503140849264, 3.8029643304241665, 1.4412235280355956]}, {"species": [{"element": "Br", "occu": 1}], "abc": [0.3116163, 0.97878581, 0.07606211], "properties": {"magmom": -0.048}, "label": "Br", "xyz": [-1.1347350722621736, 5.406636133691226, 1.4412740942318585]}, {"species": [{"element": "Br", "occu": 1}], "abc": [0.02121469, 0.33283403, 0.07606272], "properties": {"magmom": -0.048}, "label": "Br", "xyz": [-0.9264304204314052, 1.8384430380005234, 1.4412449116198145]}, {"species": [{"element": "Br", "occu": 1}], "abc": [0.35513972, 0.35450716, 0.25650591], "properties": {"magmom": -0.048}, "label": "Br", "xyz": [1.1343686399049184, 1.9585041983646392, 4.860276935763566]}, {"species": [{"element": "Br", "occu": 1}], "abc": [0.6455324100000001, 0.00065397, 0.25650137], "properties": {"magmom": -0.048}, "label": "Br", "xyz": [4.115426438241932, 0.0042719635780722, 4.86018485194814]}, {"species": [{"element": "Br", "occu": 1}], "abc": [0.99937438, 0.64489171, 0.25650357], "properties": {"magmom": -0.048}, "label": "Br", "xyz": [4.3172399760524005, 3.563058019783995, 4.860269492553632]}, {"species": [{"element": "Br", "occu": 1}], "abc": [0.64490958, 0.6454756700000001, 0.40820146], "properties": {"magmom": -0.048}, "label": "Br", "xyz": [2.0544605064246086, 3.5659720101064134, 7.734612654292862]}, {"species": [{"element": "Br", "occu": 1}], "abc": [0.354522499999999, 0.9994382900000001, 0.40820266], "properties": {"magmom": -0.048}, "label": "Br", "xyz": [-0.9269105954473522, 5.520808686546493, 7.734641457458508]}, {"species": [{"element": "Br", "occu": 1}], "abc": [0.00055684, 0.35509297, 0.40819905], "properties": {"magmom": -0.048}, "label": "Br", "xyz": [-1.1291698975853965, 1.9614282938017245, 7.734530090808926]}, {"species": [{"element": "Br", "occu": 1}], "abc": [0.33284662, 0.31161382, 0.59151591], "properties": {"magmom": -0.048}, "label": "Br", "xyz": [1.1290375799860621, 1.7216196082432762, 11.208009008452294]}, {"species": [{"element": "Br", "occu": 1}], "abc": [0.68836588, 0.02120674, 0.59151295], "properties": {"magmom": -0.048}, "label": "Br", "xyz": [4.32310536921633, 0.11789419685497501, 11.207952187854163]}, {"species": [{"element": "Br", "occu": 1}], "abc": [0.9787706700000001, 0.66713583, 0.59151655], "properties": {"magmom": -0.048}, "label": "Br", "xyz": [4.114893383265288, 3.685961968033709, 11.208061140164386]}, {"species": [{"element": "Br", "occu": 1}], "abc": [0.68788757, 0.66609158, 0.74322509], "properties": {"magmom": -0.048}, "label": "Br", "xyz": [2.2628598310440013, 3.6799431371670686, 14.082608320537474]}, {"species": [{"element": "Br", "occu": 1}], "abc": [0.33388107, 0.02178913, 0.74323035], "properties": {"magmom": -0.048}, "label": "Br", "xyz": [2.0602032773269374, 0.1207994995924024, 14.082665022261537]}, {"species": [{"element": "Br", "occu": 1}], "abc": [0.97818463, 0.31206398, 0.74322532], "properties": {"magmom": -0.048}, "label": "Br", "xyz": [5.2438640350653705, 1.7247474579809619, 14.08260660656643]}]}, "task_ids": null, "uncorrected_energy_per_atom": null, "energy_per_atom": -4.85837588875, "formation_energy_per_atom": -1.21740412, "energy_above_hull": 0.0, "is_stable": true, "equilibrium_reaction_energy_per_atom": null, "decomposes_to": null, "xas": null, "grain_boundaries": null, "band_gap": 1.2759, "cbm": null, "vbm": null, "efermi": 0.3348448, "is_gap_direct": null, "is_metal": null, "es_source_calc_id": null, "bandstructure": null, "dos": null, "dos_energy_up": null, "dos_energy_down": null, "is_magnetic": null, "ordering": null, "total_magnetization": 17.9999994, "total_magnetization_normalized_vol": null, "total_magnetization_normalized_formula_units": null, "num_magnetic_sites": null, "num_unique_magnetic_sites": null, "types_of_magnetic_species": null, "bulk_modulus": null, "shear_modulus": null, "universal_anisotropy": null, "homogeneous_poisson": null, "e_total": null, "e_ionic": null, "e_electronic": null, "n": null, "e_ij_max": null, "weighted_surface_energy_EV_PER_ANG2": null, "weighted_surface_energy": null, "weighted_work_function": null, "surface_anisotropy": null, "shape_factor": null, "has_reconstructed": null, "possible_species": null, "has_props": null, "theoretical": null, "database_IDs": null, "fields_not_requested": ["builder_meta", "nsites", "elements", "nelements", "composition", "composition_reduced", "chemsys", "symmetry", "property_name", "deprecated", "deprecation_reasons", "last_updated", "origins", "warnings", "task_ids", "uncorrected_energy_per_atom", "equilibrium_reaction_energy_per_atom", "decomposes_to", "xas", "grain_boundaries", "cbm", "vbm", "is_gap_direct", "is_metal", "es_source_calc_id", "bandstructure", "dos", "dos_energy_up", "dos_energy_down", "is_magnetic", "ordering", "total_magnetization_normalized_vol", "total_magnetization_normalized_formula_units", "num_magnetic_sites", "num_unique_magnetic_sites", "types_of_magnetic_species", "bulk_modulus", "shear_modulus", "universal_anisotropy", "homogeneous_poisson", "e_total", "e_ionic", "e_electronic", "n", "e_ij_max", "weighted_surface_energy_EV_PER_ANG2", "weighted_surface_energy", "weighted_work_function", "surface_anisotropy", "shape_factor", "has_reconstructed", "possible_species", "has_props", "theoretical", "database_IDs"]}