{"builder_meta": null, "nsites": null, "elements": null, "nelements": null, "composition": null, "composition_reduced": null, "formula_pretty": "CrCl2", "formula_anonymous": "AB2", "chemsys": null, "volume": 149.0640516844805, "density": 2.738201948906607, "density_atomic": 24.84400861408008, "symmetry": null, "property_name": null, "material_id": "mp-22857", "deprecated": null, "deprecation_reasons": null, "last_updated": null, "origins": null, "warnings": null, "structure": {"@module": "pymatgen.core.structure", "@class": "Structure", "charge": 0, "lattice": {"matrix": [[3.488991, 0.0, 0.0], [0.0, 6.165321, 0.0], [0.0, 0.0, 6.929747]], "pbc": [true, true, true], "a": 3.488991, "b": 6.165321, "c": 6.929747, "alpha": 90.0, "beta": 90.0, "gamma": 90.0, "volume": 149.0640516844805}, "properties": {}, "sites": [{"species": [{"element": "Cr", "occu": 1}], "abc": [0.5, 0.5, 0.5], "properties": {"magmom": 3.669}, "label": "Cr", "xyz": [1.7444955, 3.0826605, 3.4648735]}, {"species": [{"element": "Cr", "occu": 1}], "abc": [0.0, 0.0, 0.0], "properties": {"magmom": 3.618}, "label": "Cr", "xyz": [0.0, 0.0, 0.0]}, {"species": [{"element": "Cl", "occu": 1}], "abc": [0.5, 0.786347999999999, 0.136830999999999], "properties": {"magmom": -0.018000000000000002}, "label": "Cl", "xyz": [1.7444955, 4.848087837707994, 0.9482042117569931]}, {"species": [{"element": "Cl", "occu": 1}], "abc": [0.5, 0.213651999999999, 0.863169], "properties": {"magmom": -0.018000000000000002}, "label": "Cl", "xyz": [1.7444955, 1.3172331622919937, 5.981542788243]}, {"species": [{"element": "Cl", "occu": 1}], "abc": [0.0, 0.713652, 0.636830999999999], "properties": {"magmom": -0.017}, "label": "Cl", "xyz": [0.0, 4.3998936622919995, 4.413077711756993]}, {"species": [{"element": "Cl", "occu": 1}], "abc": [0.0, 0.286348, 0.363168999999999], "properties": {"magmom": -0.017}, "label": "Cl", "xyz": [0.0, 1.7654273377079999, 2.5166692882429933]}]}, "task_ids": null, "uncorrected_energy_per_atom": null, "energy_per_atom": -10.322985242222222, "formation_energy_per_atom": -1.196911847222221, "energy_above_hull": 0.07023949, "is_stable": false, "equilibrium_reaction_energy_per_atom": null, "decomposes_to": null, "xas": null, "grain_boundaries": null, "band_gap": 0.7128999999999991, "cbm": null, "vbm": null, "efermi": 2.25889426, "is_gap_direct": null, "is_metal": null, "es_source_calc_id": null, "bandstructure": null, "dos": null, "dos_energy_up": null, "dos_energy_down": null, "is_magnetic": null, "ordering": null, "total_magnetization": 8.0003208, "total_magnetization_normalized_vol": null, "total_magnetization_normalized_formula_units": null, "num_magnetic_sites": null, "num_unique_magnetic_sites": null, "types_of_magnetic_species": null, "bulk_modulus": null, "shear_modulus": null, "universal_anisotropy": null, "homogeneous_poisson": null, "e_total": null, "e_ionic": null, "e_electronic": null, "n": null, "e_ij_max": null, "weighted_surface_energy_EV_PER_ANG2": null, "weighted_surface_energy": null, "weighted_work_function": null, "surface_anisotropy": null, "shape_factor": null, "has_reconstructed": null, "possible_species": null, "has_props": null, "theoretical": null, "database_IDs": null, "fields_not_requested": ["builder_meta", "nsites", "elements", "nelements", "composition", "composition_reduced", "chemsys", "symmetry", "property_name", "deprecated", "deprecation_reasons", "last_updated", "origins", "warnings", "task_ids", "uncorrected_energy_per_atom", "equilibrium_reaction_energy_per_atom", "decomposes_to", "xas", "grain_boundaries", "cbm", "vbm", "is_gap_direct", "is_metal", "es_source_calc_id", "bandstructure", "dos", "dos_energy_up", "dos_energy_down", "is_magnetic", "ordering", "total_magnetization_normalized_vol", "total_magnetization_normalized_formula_units", "num_magnetic_sites", "num_unique_magnetic_sites", "types_of_magnetic_species", "bulk_modulus", "shear_modulus", "universal_anisotropy", "homogeneous_poisson", "e_total", "e_ionic", "e_electronic", "n", "e_ij_max", "weighted_surface_energy_EV_PER_ANG2", "weighted_surface_energy", "weighted_work_function", "surface_anisotropy", "shape_factor", "has_reconstructed", "possible_species", "has_props", "theoretical", "database_IDs"]}