{
  "builder_meta": null,
  "nsites": null,
  "elements": null,
  "nelements": null,
  "composition": null,
  "composition_reduced": null,
  "formula_pretty": "CrCl3",
  "formula_anonymous": "AB3",
  "chemsys": null,
  "volume": 185.64610736007532,
  "density": 2.832861229191603,
  "density_atomic": 23.205763420009415,
  "symmetry": null,
  "property_name": null,
  "material_id": "mp-567504",
  "deprecated": null,
  "deprecation_reasons": null,
  "last_updated": null,
  "origins": null,
  "warnings": null,
  "structure": {
    "@module": "pymatgen.core.structure",
    "@class": "Structure",
    "charge": 0,
    "lattice": {
      "matrix": [
        [5.4347962, 0.03800676, 4.24266405],
        [2.09207814, 5.01589237, 4.24198613],
        [0.055109160000000004, 0.03817496, 6.89276882]
      ],
      "pbc": [true, true, true],
      "a": 6.894827952204648,
      "b": 6.894230452951399,
      "c": 6.893094831282324,
      "alpha": 51.558056298109214,
      "beta": 51.56375734923966,
      "gamma": 51.550752701857014,
      "volume": 185.64610736007535
    },
    "properties": {},
    "sites": [
      {
        "species": [{ "element": "Cr", "occu": 1 }],
        "abc": [0.66653059, 0.66664758, 0.66654218],
        "properties": { "magmom": 2.916 },
        "label": "Cr",
        "xyz": [5.053869326562028, 3.394610399227566, 10.250096315895181]
      },
      {
        "species": [{ "element": "Cr", "occu": 1 }],
        "abc": [0.33346941, 0.33335242, 0.33345782],
        "properties": { "magmom": 2.916 },
        "label": "Cr",
        "xyz": [2.528114173437972, 1.6974636907724343, 5.127322684104817]
      },
      {
        "species": [{ "element": "Cl", "occu": 1 }],
        "abc": [0.5693459200000001, 0.9257416700000001, 0.28101939],
        "properties": { "magmom": -0.025 },
        "label": "Cl",
        "xyz": [5.046489696122211, 4.6757874768549526, 8.279528480108635]
      },
      {
        "species": [{ "element": "Cl", "occu": 1 }],
        "abc": [0.71901599, 0.43061498000000004, 0.07432095],
        "properties": { "magmom": -0.026000000000000002 },
        "label": "Cl",
        "xyz": [4.812681321730677, 2.190083060051207, 5.389483191511166]
      },
      {
        "species": [{ "element": "Cl", "occu": 1 }],
        "abc": [0.28098401, 0.56938502, 0.9256790500000001],
        "properties": { "magmom": -0.026000000000000002 },
        "label": "Cl",
        "xyz": [2.769302178269323, 2.9019910299487934, 9.987935808488835]
      },
      {
        "species": [{ "element": "Cl", "occu": 1 }],
        "abc": [0.07435463, 0.71896921, 0.43061435000000003],
        "properties": { "magmom": -0.026000000000000002 },
        "label": "Cl",
        "xyz": [1.9319728232629212, 3.625536838867903, 6.333444297493676]
      },
      {
        "species": [{ "element": "Cl", "occu": 1 }],
        "abc": [0.43065408, 0.07425833, 0.71898061],
        "properties": { "magmom": -0.025 },
        "label": "Cl",
        "xyz": [2.53549380387779, 0.41628661314504856, 7.097890519891367]
      },
      {
        "species": [{ "element": "Cl", "occu": 1 }],
        "abc": [0.92564537, 0.28103079000000003, 0.56938565],
        "properties": { "magmom": -0.026000000000000002 },
        "label": "Cl",
        "xyz": [5.650010676737079, 1.4665372511320978, 9.043974702506326]
      }
    ]
  },
  "task_ids": null,
  "uncorrected_energy_per_atom": null,
  "energy_per_atom": -9.808210025,
  "formation_energy_per_atom": -1.425545254374999,
  "energy_above_hull": 0.0,
  "is_stable": true,
  "equilibrium_reaction_energy_per_atom": null,
  "decomposes_to": null,
  "xas": null,
  "grain_boundaries": null,
  "band_gap": 1.5182,
  "cbm": null,
  "vbm": null,
  "efermi": 0.42204462,
  "is_gap_direct": null,
  "is_metal": null,
  "es_source_calc_id": null,
  "bandstructure": null,
  "dos": null,
  "dos_energy_up": null,
  "dos_energy_down": null,
  "is_magnetic": null,
  "ordering": null,
  "total_magnetization": 6.0,
  "total_magnetization_normalized_vol": null,
  "total_magnetization_normalized_formula_units": null,
  "num_magnetic_sites": null,
  "num_unique_magnetic_sites": null,
  "types_of_magnetic_species": null,
  "bulk_modulus": null,
  "shear_modulus": null,
  "universal_anisotropy": null,
  "homogeneous_poisson": null,
  "e_total": null,
  "e_ionic": null,
  "e_electronic": null,
  "n": null,
  "e_ij_max": null,
  "weighted_surface_energy_EV_PER_ANG2": null,
  "weighted_surface_energy": null,
  "weighted_work_function": null,
  "surface_anisotropy": null,
  "shape_factor": null,
  "has_reconstructed": null,
  "possible_species": null,
  "has_props": null,
  "theoretical": null,
  "database_IDs": null,
  "fields_not_requested": [
    "builder_meta",
    "nsites",
    "elements",
    "nelements",
    "composition",
    "composition_reduced",
    "chemsys",
    "symmetry",
    "property_name",
    "deprecated",
    "deprecation_reasons",
    "last_updated",
    "origins",
    "warnings",
    "task_ids",
    "uncorrected_energy_per_atom",
    "equilibrium_reaction_energy_per_atom",
    "decomposes_to",
    "xas",
    "grain_boundaries",
    "cbm",
    "vbm",
    "is_gap_direct",
    "is_metal",
    "es_source_calc_id",
    "bandstructure",
    "dos",
    "dos_energy_up",
    "dos_energy_down",
    "is_magnetic",
    "ordering",
    "total_magnetization_normalized_vol",
    "total_magnetization_normalized_formula_units",
    "num_magnetic_sites",
    "num_unique_magnetic_sites",
    "types_of_magnetic_species",
    "bulk_modulus",
    "shear_modulus",
    "universal_anisotropy",
    "homogeneous_poisson",
    "e_total",
    "e_ionic",
    "e_electronic",
    "n",
    "e_ij_max",
    "weighted_surface_energy_EV_PER_ANG2",
    "weighted_surface_energy",
    "weighted_work_function",
    "surface_anisotropy",
    "shape_factor",
    "has_reconstructed",
    "possible_species",
    "has_props",
    "theoretical",
    "database_IDs"
  ]
}
