{
  "builder_meta": null,
  "nsites": null,
  "elements": null,
  "nelements": null,
  "composition": null,
  "composition_reduced": null,
  "formula_pretty": "CrF2",
  "formula_anonymous": "AB2",
  "chemsys": null,
  "volume": 77.87729719445201,
  "density": 3.8377484113488993,
  "density_atomic": 12.979549532408669,
  "symmetry": null,
  "property_name": null,
  "material_id": "mp-554340",
  "deprecated": null,
  "deprecation_reasons": null,
  "last_updated": null,
  "origins": null,
  "warnings": null,
  "structure": {
    "@module": "pymatgen.core.structure",
    "@class": "Structure",
    "charge": 0,
    "lattice": {
      "matrix": [
        [3.51851008, -4.379999999999999e-6, -0.51801493],
        [-1.325e-5, 4.66410698, -1.2940000000000001e-5],
        [0.07530287000000001, -1.4840000000000002e-5, 4.73443086]
      ],
      "pbc": [true, true, true],
      "a": 3.5564381972394368,
      "b": 4.66410698003677,
      "c": 4.735029682121412,
      "alpha": 90.00034109868082,
      "beta": 97.46400827586761,
      "gamma": 90.0002084427893,
      "volume": 77.87729719445201
    },
    "properties": {},
    "sites": [
      {
        "species": [{ "element": "Cr", "occu": 1 }],
        "abc": [0.5, 0.5, 0.5],
        "properties": { "magmom": 3.729 },
        "label": "Cr",
        "xyz": [1.79689985, 2.3320438799999996, 2.108201495]
      },
      {
        "species": [{ "element": "Cr", "occu": 1 }],
        "abc": [0.0, -0.0, -0.0],
        "properties": { "magmom": 3.729 },
        "label": "Cr",
        "xyz": [0.0, 0.0, 0.0]
      },
      {
        "species": [{ "element": "F", "occu": 1 }],
        "abc": [0.45269746, 0.8005911, 0.20258638],
        "properties": { "magmom": 0.024 },
        "label": "F",
        "xyz": [1.6080653042052324, 3.7340375484391237, 0.724616806585775]
      },
      {
        "species": [{ "element": "F", "occu": 1 }],
        "abc": [0.04729251, 0.300591899999999, 0.29741655],
        "properties": { "magmom": 0.024 },
        "label": "F",
        "xyz": [0.1887915101013243, 1.4019881581186617, 1.3835959766783725]
      },
      {
        "species": [{ "element": "F", "occu": 1 }],
        "abc": [0.95270749, 0.6994081, 0.70258345],
        "properties": { "magmom": 0.024 },
        "label": "F",
        "xyz": [3.4050081898986755, 3.2620996018813337, 2.832807013321627]
      },
      {
        "species": [{ "element": "F", "occu": 1 }],
        "abc": [0.54730254, 0.1994089, 0.79741362],
        "properties": { "magmom": 0.024 },
        "label": "F",
        "xyz": [1.9857343957947677, 0.9300502115608759, 3.491786183414225]
      }
    ]
  },
  "task_ids": null,
  "uncorrected_energy_per_atom": null,
  "energy_per_atom": -7.316467626666668,
  "formation_energy_per_atom": -2.822883553333335,
  "energy_above_hull": 0.0,
  "is_stable": true,
  "equilibrium_reaction_energy_per_atom": null,
  "decomposes_to": null,
  "xas": null,
  "grain_boundaries": null,
  "band_gap": 0.006399999999999,
  "cbm": null,
  "vbm": null,
  "efermi": 2.87388051,
  "is_gap_direct": null,
  "is_metal": null,
  "es_source_calc_id": null,
  "bandstructure": null,
  "dos": null,
  "dos_energy_up": null,
  "dos_energy_down": null,
  "is_magnetic": null,
  "ordering": null,
  "total_magnetization": 8.0000008,
  "total_magnetization_normalized_vol": null,
  "total_magnetization_normalized_formula_units": null,
  "num_magnetic_sites": null,
  "num_unique_magnetic_sites": null,
  "types_of_magnetic_species": null,
  "bulk_modulus": null,
  "shear_modulus": null,
  "universal_anisotropy": null,
  "homogeneous_poisson": null,
  "e_total": null,
  "e_ionic": null,
  "e_electronic": null,
  "n": null,
  "e_ij_max": null,
  "weighted_surface_energy_EV_PER_ANG2": null,
  "weighted_surface_energy": null,
  "weighted_work_function": null,
  "surface_anisotropy": null,
  "shape_factor": null,
  "has_reconstructed": null,
  "possible_species": null,
  "has_props": null,
  "theoretical": null,
  "database_IDs": null,
  "fields_not_requested": [
    "builder_meta",
    "nsites",
    "elements",
    "nelements",
    "composition",
    "composition_reduced",
    "chemsys",
    "symmetry",
    "property_name",
    "deprecated",
    "deprecation_reasons",
    "last_updated",
    "origins",
    "warnings",
    "task_ids",
    "uncorrected_energy_per_atom",
    "equilibrium_reaction_energy_per_atom",
    "decomposes_to",
    "xas",
    "grain_boundaries",
    "cbm",
    "vbm",
    "is_gap_direct",
    "is_metal",
    "es_source_calc_id",
    "bandstructure",
    "dos",
    "dos_energy_up",
    "dos_energy_down",
    "is_magnetic",
    "ordering",
    "total_magnetization_normalized_vol",
    "total_magnetization_normalized_formula_units",
    "num_magnetic_sites",
    "num_unique_magnetic_sites",
    "types_of_magnetic_species",
    "bulk_modulus",
    "shear_modulus",
    "universal_anisotropy",
    "homogeneous_poisson",
    "e_total",
    "e_ionic",
    "e_electronic",
    "n",
    "e_ij_max",
    "weighted_surface_energy_EV_PER_ANG2",
    "weighted_surface_energy",
    "weighted_work_function",
    "surface_anisotropy",
    "shape_factor",
    "has_reconstructed",
    "possible_species",
    "has_props",
    "theoretical",
    "database_IDs"
  ]
}
