{"builder_meta": null, "nsites": null, "elements": null, "nelements": null, "composition": null, "composition_reduced": null, "formula_pretty": "CrF3", "formula_anonymous": "AB3", "chemsys": null, "volume": 92.5995427979218, "density": 3.9089680584202062, "density_atomic": 11.574942849740225, "symmetry": null, "property_name": null, "material_id": "mp-560338", "deprecated": null, "deprecation_reasons": null, "last_updated": null, "origins": null, "warnings": null, "structure": {"@module": "pymatgen.core.structure", "@class": "Structure", "charge": 0, "lattice": {"matrix": [[4.3769065, 0.03765704, 2.92750619], [1.5877377, 4.07837448, 2.92788743], [0.059549599999999, 0.04104808, 5.26332798]], "pbc": [true, true, true], "a": 5.2658352665927675, "b": 5.265602928997644, "c": 5.263824894958297, "alpha": 55.5672234431674, "beta": 55.57340824165435, "gamma": 55.57726544888088, "volume": 92.59954279792181}, "properties": {}, "sites": [{"species": [{"element": "Cr", "occu": 1}], "abc": [-1.4240000000000001e-05, 3.228e-05, -3.097e-05], "properties": {"magmom": 2.833}, "label": "Cr", "xyz": [-1.2919226715999963e-05, 0.0001298424329272, -0.0001101807494458]}, {"species": [{"element": "Cr", "occu": 1}], "abc": [0.5000279400000001, 0.49998686000000003, 0.49997033], "properties": {"magmom": 2.833}, "label": "Cr", "xyz": [3.0121965610576, 2.0784860444004964, 5.5592479591409525]}, {"species": [{"element": "F", "occu": 1}], "abc": [0.1186918, 0.3813294, 0.75004582], "properties": {"magmom": 0.024}, "label": "F", "xyz": [1.1696189039777511, 1.5904616161170095, 5.4116976868397275]}, {"species": [{"element": "F", "occu": 1}], "abc": [0.61847806, 0.25013062, 0.8815707700000001], "properties": {"magmom": 0.024}, "label": "F", "xyz": [3.1566596429449554, 1.0796031778117416, 7.182948747276443]}, {"species": [{"element": "F", "occu": 1}], "abc": [0.38146067, 0.749900799999999, 0.11843732], "properties": {"magmom": 0.024}, "label": "F", "xyz": [2.867316352468585, 3.077602589546543, 3.9357280589657018]}, {"species": [{"element": "F", "occu": 1}], "abc": [0.88132116, 0.61867648, 0.24998287], "properties": {"magmom": 0.024}, "label": "F", "xyz": [4.854642665106187, 2.566643630429586, 5.707230074498329]}, {"species": [{"element": "F", "occu": 1}], "abc": [0.24989644, 0.88143791, 0.61848744], "properties": {"magmom": 0.024}, "label": "F", "xyz": [2.5300962321360903, 3.6296319600015896, 6.567626600204006]}, {"species": [{"element": "F", "occu": 1}], "abc": [0.75013817, 0.11850566, 0.38153642], "properties": {"magmom": 0.024}, "label": "F", "xyz": [3.4941608774129187, 0.5272197800438472, 4.551156683103158]}]}, "task_ids": null, "uncorrected_energy_per_atom": null, "energy_per_atom": -6.888670918750001, "formation_energy_per_atom": -3.04001977, "energy_above_hull": 0.0, "is_stable": true, "equilibrium_reaction_energy_per_atom": null, "decomposes_to": null, "xas": null, "grain_boundaries": null, "band_gap": 3.0453, "cbm": null, "vbm": null, "efermi": -1.28428337, "is_gap_direct": null, "is_metal": null, "es_source_calc_id": null, "bandstructure": null, "dos": null, "dos_energy_up": null, "dos_energy_down": null, "is_magnetic": null, "ordering": null, "total_magnetization": 5.9999997, "total_magnetization_normalized_vol": null, "total_magnetization_normalized_formula_units": null, "num_magnetic_sites": null, "num_unique_magnetic_sites": null, "types_of_magnetic_species": null, "bulk_modulus": null, "shear_modulus": null, "universal_anisotropy": null, "homogeneous_poisson": null, "e_total": null, "e_ionic": null, "e_electronic": null, "n": null, "e_ij_max": null, "weighted_surface_energy_EV_PER_ANG2": null, "weighted_surface_energy": null, "weighted_work_function": null, "surface_anisotropy": null, "shape_factor": null, "has_reconstructed": null, "possible_species": null, "has_props": null, "theoretical": null, "database_IDs": null, "fields_not_requested": ["builder_meta", "nsites", "elements", "nelements", "composition", "composition_reduced", "chemsys", "symmetry", "property_name", "deprecated", "deprecation_reasons", "last_updated", "origins", "warnings", "task_ids", "uncorrected_energy_per_atom", "equilibrium_reaction_energy_per_atom", "decomposes_to", "xas", "grain_boundaries", "cbm", "vbm", "is_gap_direct", "is_metal", "es_source_calc_id", "bandstructure", "dos", "dos_energy_up", "dos_energy_down", "is_magnetic", "ordering", "total_magnetization_normalized_vol", "total_magnetization_normalized_formula_units", "num_magnetic_sites", "num_unique_magnetic_sites", "types_of_magnetic_species", "bulk_modulus", "shear_modulus", "universal_anisotropy", "homogeneous_poisson", "e_total", "e_ionic", "e_electronic", "n", "e_ij_max", "weighted_surface_energy_EV_PER_ANG2", "weighted_surface_energy", "weighted_work_function", "surface_anisotropy", "shape_factor", "has_reconstructed", "possible_species", "has_props", "theoretical", "database_IDs"]}