{
  "builder_meta": null,
  "nsites": null,
  "elements": null,
  "nelements": null,
  "composition": null,
  "composition_reduced": null,
  "formula_pretty": "CrF4",
  "formula_anonymous": "AB4",
  "chemsys": null,
  "volume": 550.5704346216421,
  "density": 3.088170448140656,
  "density_atomic": 13.764260865541052,
  "symmetry": null,
  "property_name": null,
  "material_id": "mp-554855",
  "deprecated": null,
  "deprecation_reasons": null,
  "last_updated": null,
  "origins": null,
  "warnings": null,
  "structure": {
    "@module": "pymatgen.core.structure",
    "@class": "Structure",
    "charge": 0,
    "lattice": {
      "matrix": [
        [5.054739, 7.57459, 0.0],
        [-5.054739, 7.57459, 0.0],
        [0.0, 1.616723, 7.189936]
      ],
      "pbc": [true, true, true],
      "a": 9.106305509163471,
      "b": 9.106305509163471,
      "c": 7.369462188167126,
      "alpha": 79.4857179344915,
      "beta": 79.4857179344915,
      "gamma": 67.43261579198882,
      "volume": 550.5704346216421
    },
    "properties": {},
    "sites": [
      {
        "species": [{ "element": "Cr", "occu": 1 }],
        "abc": [0.257092, 0.747382, 0.502083],
        "properties": { "magmom": 2.046 },
        "label": "Cr",
        "xyz": [-2.47828798431, 8.420207849669, 3.6099446366879997]
      },
      {
        "species": [{ "element": "Cr", "occu": 1 }],
        "abc": [0.817735, 0.814263, 0.105443],
        "properties": { "magmom": 2.048 },
        "label": "Cr",
        "xyz": [0.017550053808000676, 12.532187854108999, 0.758128421648]
      },
      {
        "species": [{ "element": "Cr", "occu": 1 }],
        "abc": [0.18573699999999901, 0.182264999999999, 0.394557],
        "properties": { "magmom": 2.048 },
        "label": "Cr",
        "xyz": [0.01755005380800001, 3.425353645890985, 2.836839578352]
      },
      {
        "species": [{ "element": "Cr", "occu": 1 }],
        "abc": [0.814263, 0.817735, 0.605443],
        "properties": { "magmom": 2.048 },
        "label": "Cr",
        "xyz": [-0.017550053808000676, 13.340549354109, 4.353096421648]
      },
      {
        "species": [{ "element": "Cr", "occu": 1 }],
        "abc": [0.182264999999999, 0.18573699999999901, 0.894556999999999],
        "properties": { "magmom": 2.048 },
        "label": "Cr",
        "xyz": [-0.01755005380800001, 4.233715145890983, 6.431807578351993]
      },
      {
        "species": [{ "element": "Cr", "occu": 1 }],
        "abc": [0.747382, 0.257092, 0.002082999999999],
        "properties": { "magmom": 2.046 },
        "label": "Cr",
        "xyz": [2.47828798431, 7.611846349668998, 0.014976636687992812]
      },
      {
        "species": [{ "element": "Cr", "occu": 1 }],
        "abc": [0.742908, 0.252618, 0.497917],
        "properties": { "magmom": 2.046 },
        "label": "Cr",
        "xyz": [2.4782879843099996, 8.345695150331, 3.579991363312]
      },
      {
        "species": [{ "element": "Cr", "occu": 1 }],
        "abc": [0.252618, 0.742908, 0.997916999999999],
        "properties": { "magmom": 2.046 },
        "label": "Cr",
        "xyz": [-2.4782879843099996, 9.154056650330999, 7.174959363311993]
      },
      {
        "species": [{ "element": "F", "occu": 1 }],
        "abc": [0.243499, 0.95957, 0.000567],
        "properties": { "magmom": -0.013000000000000001 },
        "label": "F",
        "xyz": [-3.6195520104689995, 9.113671098651, 0.004076693712]
      },
      {
        "species": [{ "element": "F", "occu": 1 }],
        "abc": [0.024912, 0.838094, 0.096341],
        "properties": { "magmom": -0.01 },
        "label": "F",
        "xyz": [-4.110422769497999, 6.692673328082999, 0.692685624176]
      },
      {
        "species": [{ "element": "F", "occu": 1 }],
        "abc": [0.161906, 0.975088, 0.403659],
        "properties": { "magmom": -0.01 },
        "label": "F",
        "xyz": [-4.110422769497999, 9.264868171916998, 2.902282375824]
      },
      {
        "species": [{ "element": "F", "occu": 1 }],
        "abc": [0.761145, 0.882533999999999, 0.351842999999999],
        "properties": { "magmom": 0.012 },
        "label": "F",
        "xyz": [-0.6135897124709953, 13.01902718709899, 2.529728652047993]
      },
      {
        "species": [{ "element": "F", "occu": 1 }],
        "abc": [0.117466, 0.238854999999999, 0.148156999999999],
        "properties": { "magmom": 0.012 },
        "label": "F",
        "xyz": [-0.6135897124709949, 2.938514312900991, 1.065239347951993]
      },
      {
        "species": [{ "element": "F", "occu": 1 }],
        "abc": [0.623092, 0.824805999999999, 0.103010999999999],
        "properties": { "magmom": -0.037 },
        "label": "F",
        "xyz": [-1.0196116226459955, 11.13377396477299, 0.7406424972959929]
      },
      {
        "species": [{ "element": "F", "occu": 1 }],
        "abc": [0.544999, 0.318175999999999, 0.091322],
        "properties": { "magmom": -0.036000000000000004 },
        "label": "F",
        "xyz": [1.146531064197005, 6.6858391010559926, 0.656599335392]
      },
      {
        "species": [{ "element": "F", "occu": 1 }],
        "abc": [0.238854999999999, 0.117466, 0.648157],
        "properties": { "magmom": 0.012 },
        "label": "F",
        "xyz": [0.6135897124709949, 3.746875812900992, 4.660207347952]
      },
      {
        "species": [{ "element": "F", "occu": 1 }],
        "abc": [0.455001, 0.681824, 0.908678],
        "properties": { "magmom": -0.036000000000000004 },
        "label": "F",
        "xyz": [-1.1465310641970001, 10.080063898944, 6.533336664608]
      },
      {
        "species": [{ "element": "F", "occu": 1 }],
        "abc": [0.95957, 0.243499, 0.500567],
        "properties": { "magmom": -0.013000000000000001 },
        "label": "F",
        "xyz": [3.6195520104689995, 9.922032598651, 3.599044693712]
      },
      {
        "species": [{ "element": "F", "occu": 1 }],
        "abc": [0.095012, 0.386415, 0.806819],
        "properties": { "magmom": -0.037 },
        "label": "F",
        "xyz": [-1.4729661088169999, 4.951014974067, 5.8009769735839996]
      },
      {
        "species": [{ "element": "F", "occu": 1 }],
        "abc": [0.811565, 0.188435, 0.25],
        "properties": { "magmom": 0.006 },
        "label": "F",
        "xyz": [3.1497595130700002, 7.97877075, 1.797484]
      },
      {
        "species": [{ "element": "F", "occu": 1 }],
        "abc": [0.226363999999999, 0.561068999999999, 0.012367],
        "properties": { "magmom": -0.037 },
        "label": "F",
        "xyz": [-1.6918464169949998, 5.984476140810985, 0.088917938512]
      },
      {
        "species": [{ "element": "F", "occu": 1 }],
        "abc": [0.773636, 0.438930999999999, 0.987633],
        "properties": { "magmom": -0.037 },
        "label": "F",
        "xyz": [1.6918464169950052, 10.781426859188992, 7.101018061488]
      },
      {
        "species": [{ "element": "F", "occu": 1 }],
        "abc": [0.904987, 0.613584999999999, 0.193181],
        "properties": { "magmom": -0.037 },
        "label": "F",
        "xyz": [1.4729610540780045, 11.81488045134299, 1.388959026416]
      },
      {
        "species": [{ "element": "F", "occu": 1 }],
        "abc": [0.691788, 0.308212, 0.75],
        "properties": { "magmom": 0.02 },
        "label": "F",
        "xyz": [1.938876566664, 8.787132249999999, 5.3924520000000005]
      },
      {
        "species": [{ "element": "F", "occu": 1 }],
        "abc": [0.188435, 0.811565, 0.75],
        "properties": { "magmom": 0.006 },
        "label": "F",
        "xyz": [-3.1497595130700002, 8.787132249999999, 5.3924520000000005]
      },
      {
        "species": [{ "element": "F", "occu": 1 }],
        "abc": [0.175194, 0.376907999999999, 0.396989],
        "properties": { "magmom": -0.037 },
        "label": "F",
        "xyz": [-1.019611622645995, 4.823767535226993, 2.854325502704]
      },
      {
        "species": [{ "element": "F", "occu": 1 }],
        "abc": [0.04043, 0.756501, 0.499432999999999],
        "properties": { "magmom": -0.013000000000000001 },
        "label": "F",
        "xyz": [-3.6195520104689995, 6.8438704013489975, 3.5908913062879932]
      },
      {
        "species": [{ "element": "F", "occu": 1 }],
        "abc": [0.975088, 0.161906, 0.903659],
        "properties": { "magmom": -0.01 },
        "label": "F",
        "xyz": [4.110422769497999, 10.073229671916998, 6.497250375824001]
      },
      {
        "species": [{ "element": "F", "occu": 1 }],
        "abc": [0.838094, 0.024912, 0.596341],
        "properties": { "magmom": -0.01 },
        "label": "F",
        "xyz": [4.110422769497999, 7.501034828082999, 4.287653624176]
      },
      {
        "species": [{ "element": "F", "occu": 1 }],
        "abc": [0.438930999999999, 0.773636, 0.487633],
        "properties": { "magmom": -0.037 },
        "label": "F",
        "xyz": [-1.6918464169950052, 9.973065359188992, 3.506050061488]
      },
      {
        "species": [{ "element": "F", "occu": 1 }],
        "abc": [0.824805999999999, 0.623092, 0.603011],
        "properties": { "magmom": -0.037 },
        "label": "F",
        "xyz": [1.0196116226459955, 11.942135464772992, 4.335610497296]
      },
      {
        "species": [{ "element": "F", "occu": 1 }],
        "abc": [0.386415, 0.095013, 0.306819],
        "properties": { "magmom": -0.037 },
        "label": "F",
        "xyz": [1.4729610540779998, 4.142661048657, 2.2060089735840003]
      },
      {
        "species": [{ "element": "F", "occu": 1 }],
        "abc": [0.376907999999999, 0.175194, 0.896988999999999],
        "properties": { "magmom": -0.037 },
        "label": "F",
        "xyz": [1.019611622645995, 5.632129035226991, 6.449293502703993]
      },
      {
        "species": [{ "element": "F", "occu": 1 }],
        "abc": [0.308212, 0.691788, 0.25],
        "properties": { "magmom": 0.02 },
        "label": "F",
        "xyz": [-1.938876566664, 7.978770749999999, 1.797484]
      },
      {
        "species": [{ "element": "F", "occu": 1 }],
        "abc": [0.882533999999999, 0.761145, 0.851843],
        "properties": { "magmom": 0.012 },
        "label": "F",
        "xyz": [0.6135897124709953, 13.827388687098992, 6.124696652048001]
      },
      {
        "species": [{ "element": "F", "occu": 1 }],
        "abc": [0.756501, 0.04043, 0.9994329999999991],
        "properties": { "magmom": -0.013000000000000001 },
        "label": "F",
        "xyz": [3.6195520104689995, 7.652231901348998, 7.185859306287994]
      },
      {
        "species": [{ "element": "F", "occu": 1 }],
        "abc": [0.561068999999999, 0.226363999999999, 0.512367],
        "properties": { "magmom": -0.037 },
        "label": "F",
        "xyz": [1.6918464169949998, 6.792837640810985, 3.683885938512]
      },
      {
        "species": [{ "element": "F", "occu": 1 }],
        "abc": [0.318175999999999, 0.544999, 0.591322],
        "properties": { "magmom": -0.036000000000000004 },
        "label": "F",
        "xyz": [-1.146531064197005, 7.494200601055993, 4.251567335392]
      },
      {
        "species": [{ "element": "F", "occu": 1 }],
        "abc": [0.613584999999999, 0.904987999999999, 0.693180999999999],
        "properties": { "magmom": -0.037 },
        "label": "F",
        "xyz": [-1.4729661088169999, 12.623249525932982, 4.983927026415993]
      },
      {
        "species": [{ "element": "F", "occu": 1 }],
        "abc": [0.681824, 0.455001, 0.408678],
        "properties": { "magmom": -0.036000000000000004 },
        "label": "F",
        "xyz": [1.1465310641970001, 9.271702398943999, 2.938368664608]
      }
    ]
  },
  "task_ids": null,
  "uncorrected_energy_per_atom": null,
  "energy_per_atom": -6.068441684000001,
  "formation_energy_per_atom": -2.60675029,
  "energy_above_hull": 0.0,
  "is_stable": true,
  "equilibrium_reaction_energy_per_atom": null,
  "decomposes_to": null,
  "xas": null,
  "grain_boundaries": null,
  "band_gap": 1.5712000000000002,
  "cbm": null,
  "vbm": null,
  "efermi": -2.78443802,
  "is_gap_direct": null,
  "is_metal": null,
  "es_source_calc_id": null,
  "bandstructure": null,
  "dos": null,
  "dos_energy_up": null,
  "dos_energy_down": null,
  "is_magnetic": null,
  "ordering": null,
  "total_magnetization": 16.0001535,
  "total_magnetization_normalized_vol": null,
  "total_magnetization_normalized_formula_units": null,
  "num_magnetic_sites": null,
  "num_unique_magnetic_sites": null,
  "types_of_magnetic_species": null,
  "bulk_modulus": null,
  "shear_modulus": null,
  "universal_anisotropy": null,
  "homogeneous_poisson": null,
  "e_total": null,
  "e_ionic": null,
  "e_electronic": null,
  "n": null,
  "e_ij_max": null,
  "weighted_surface_energy_EV_PER_ANG2": null,
  "weighted_surface_energy": null,
  "weighted_work_function": null,
  "surface_anisotropy": null,
  "shape_factor": null,
  "has_reconstructed": null,
  "possible_species": null,
  "has_props": null,
  "theoretical": null,
  "database_IDs": null,
  "fields_not_requested": [
    "builder_meta",
    "nsites",
    "elements",
    "nelements",
    "composition",
    "composition_reduced",
    "chemsys",
    "symmetry",
    "property_name",
    "deprecated",
    "deprecation_reasons",
    "last_updated",
    "origins",
    "warnings",
    "task_ids",
    "uncorrected_energy_per_atom",
    "equilibrium_reaction_energy_per_atom",
    "decomposes_to",
    "xas",
    "grain_boundaries",
    "cbm",
    "vbm",
    "is_gap_direct",
    "is_metal",
    "es_source_calc_id",
    "bandstructure",
    "dos",
    "dos_energy_up",
    "dos_energy_down",
    "is_magnetic",
    "ordering",
    "total_magnetization_normalized_vol",
    "total_magnetization_normalized_formula_units",
    "num_magnetic_sites",
    "num_unique_magnetic_sites",
    "types_of_magnetic_species",
    "bulk_modulus",
    "shear_modulus",
    "universal_anisotropy",
    "homogeneous_poisson",
    "e_total",
    "e_ionic",
    "e_electronic",
    "n",
    "e_ij_max",
    "weighted_surface_energy_EV_PER_ANG2",
    "weighted_surface_energy",
    "weighted_work_function",
    "surface_anisotropy",
    "shape_factor",
    "has_reconstructed",
    "possible_species",
    "has_props",
    "theoretical",
    "database_IDs"
  ]
}
