{"builder_meta": null, "nsites": null, "elements": null, "nelements": null, "composition": null, "composition_reduced": null, "formula_pretty": "CrF5", "formula_anonymous": "AB5", "chemsys": null, "volume": 316.9246532315126, "density": 3.08059983917544, "density_atomic": 13.205193884646357, "symmetry": null, "property_name": null, "material_id": "mp-639662", "deprecated": null, "deprecation_reasons": null, "last_updated": null, "origins": null, "warnings": null, "structure": {"@module": "pymatgen.core.structure", "@class": "Structure", "charge": 0, "lattice": {"matrix": [[5.49097775, 1e-08, -1e-07], [-5e-08, 7.530832, 0.00047003], [-1.5e-07, 0.00049724, 7.66413917]], "pbc": [true, true, true], "a": 5.490977750000001, "b": 7.530832014668246, "c": 7.664139186130164, "alpha": 89.99270665598951, "beta": 90.00000216482043, "gamma": 90.00000027612785, "volume": 316.9246532315126}, "properties": {}, "sites": [{"species": [{"element": "Cr", "occu": 1}], "abc": [0.24999999, 0.588306, 0.25750175000000003], "properties": {"magmom": 1.194}, "label": "Cr", "xyz": [1.37274431454966, 4.43056169326217, 1.9738057449877289]}, {"species": [{"element": "Cr", "occu": 1}], "abc": [0.25, 0.08831912, 0.74248886], "properties": {"magmom": 1.195}, "label": "Cr", "xyz": [1.372744321710715, 0.6654856527685864, 5.690579442850621]}, {"species": [{"element": "Cr", "occu": 1}], "abc": [0.75, 0.91168088, 0.25751114], "properties": {"magmom": 1.195}, "label": "Cr", "xyz": [4.118233228289285, 6.865843597231414, 1.9740296571493805]}, {"species": [{"element": "Cr", "occu": 1}], "abc": [0.75000001, 0.411694, 0.74249825], "properties": {"magmom": 1.194}, "label": "Cr", "xyz": [4.118233235450339, 3.1007675567378303, 5.690803355012272]}, {"species": [{"element": "F", "occu": 1}], "abc": [0.75000003, 0.47966983, 0.53019474], "properties": {"magmom": -0.059000000000000004}, "label": "F", "xyz": [4.11823337371663, 3.612576546731078, 4.063711658772158]}, {"species": [{"element": "F", "occu": 1}], "abc": [0.24999999, 0.22648651, 0.91893934], "properties": {"magmom": -0.06}, "label": "F", "xyz": [1.3727442334249962, 1.7060887929737416, 7.042985421002244]}, {"species": [{"element": "F", "occu": 1}], "abc": [0.25, 0.72645457, 0.08108616], "properties": {"magmom": -0.06}, "label": "F", "xyz": [1.3727443890143474, 5.470847644084439, 0.6217970454424244]}, {"species": [{"element": "F", "occu": 1}], "abc": [0.25000003, 0.020395820000000002, 0.53016167], "properties": {"magmom": -0.059000000000000004}, "label": "F", "xyz": [1.372744521685291, 0.15386111401103109, 4.063242383126886]}, {"species": [{"element": "F", "occu": 1}], "abc": [-1.2260000000000001e-05, 0.25003538000000003, 0.6553359400000001], "properties": {"magmom": 0.021}, "label": "F", "xyz": [-6.743018937500001e-05, 1.8833003000788433, 5.022703371393658]}, {"species": [{"element": "F", "occu": 1}], "abc": [0.24999997000000002, 0.52033017, 0.46980526], "properties": {"magmom": -0.059000000000000004}, "label": "F", "xyz": [1.37274417628337, 3.9187527032689227, 3.6008974412278425]}, {"species": [{"element": "F", "occu": 1}], "abc": [0.74999997, 0.97960418, 0.46983833], "properties": {"magmom": -0.059000000000000004}, "label": "F", "xyz": [4.118233028314708, 7.37746813598897, 3.6013667168731147]}, {"species": [{"element": "F", "occu": 1}], "abc": [0.02311338, 0.44908569, 0.18627967], "properties": {"magmom": 0.028}, "label": "F", "xyz": [0.12691500491106, 3.3820815109283244, 1.4278843968572068]}, {"species": [{"element": "F", "occu": 1}], "abc": [0.52311338, 0.55091433, 0.81372023], "properties": {"magmom": 0.028}, "label": "F", "xyz": [2.872403780703544, 4.149247885100858, 6.236723982115602]}, {"species": [{"element": "F", "occu": 1}], "abc": [0.97688662, 0.55091431, 0.81372033], "properties": {"magmom": 0.028}, "label": "F", "xyz": [5.364062545088939, 4.149247739071677, 6.2367247031427935]}, {"species": [{"element": "F", "occu": 1}], "abc": [0.47688662, 0.44908567, 0.18627977], "properties": {"magmom": 0.028}, "label": "F", "xyz": [2.618573769296456, 3.382081364899141, 1.4278851178843992]}, {"species": [{"element": "F", "occu": 1}], "abc": [0.75, 0.27354543, 0.91891384], "properties": {"magmom": -0.06}, "label": "F", "xyz": [4.118233160985652, 2.060481605915562, 7.042812054557576]}, {"species": [{"element": "F", "occu": 1}], "abc": [0.50001229, 0.25003537, 0.6553359400000001], "properties": {"magmom": 0.021}, "label": "F", "xyz": [2.7455562483143883, 1.8833002297707686, 5.022703321386502]}, {"species": [{"element": "F", "occu": 1}], "abc": [0.47691535, 0.94913307, 0.81370704], "properties": {"magmom": 0.028}, "label": "F", "xyz": [2.618731405970753, 7.148166308271962, 6.236810071494115]}, {"species": [{"element": "F", "occu": 1}], "abc": [0.75000001, 0.77351349, 0.08106066], "properties": {"magmom": -0.06}, "label": "F", "xyz": [4.1182333165750045, 5.825240457026259, 0.621623678997756]}, {"species": [{"element": "F", "occu": 1}], "abc": [0.52308465, 0.05086693, 0.18629296], "properties": {"magmom": 0.028}, "label": "F", "xyz": [2.8722461440292473, 0.3831629417280369, 1.4277990285058861]}, {"species": [{"element": "F", "occu": 1}], "abc": [0.97691538, 0.05086694, 0.18629308], "properties": {"magmom": 0.028}, "label": "F", "xyz": [5.364220584725486, 0.383163021634333, 1.4277999028242139]}, {"species": [{"element": "F", "occu": 1}], "abc": [1.2260000000000001e-05, 0.74996462, 0.34466406], "properties": {"magmom": 0.021}, "label": "F", "xyz": [6.723018937500002e-05, 5.648028939921157, 2.641905828606343]}, {"species": [{"element": "F", "occu": 1}], "abc": [0.49998771000000003, 0.74996463, 0.34466406], "properties": {"magmom": 0.021}, "label": "F", "xyz": [2.745421301685612, 5.648029020229232, 2.641905778613498]}, {"species": [{"element": "F", "occu": 1}], "abc": [0.02308462, 0.94913306, 0.81370692], "properties": {"magmom": 0.028}, "label": "F", "xyz": [0.126756965274514, 7.148166228365667, 6.236809197175786]}]}, "task_ids": null, "uncorrected_energy_per_atom": null, "energy_per_atom": -5.513520727499999, "formation_energy_per_atom": -2.309802503333333, "energy_above_hull": 0.0, "is_stable": true, "equilibrium_reaction_energy_per_atom": null, "decomposes_to": null, "xas": null, "grain_boundaries": null, "band_gap": 1.4475, "cbm": null, "vbm": null, "efermi": -3.52017803, "is_gap_direct": null, "is_metal": null, "es_source_calc_id": null, "bandstructure": null, "dos": null, "dos_energy_up": null, "dos_energy_down": null, "is_magnetic": null, "ordering": null, "total_magnetization": 3.9999998, "total_magnetization_normalized_vol": null, "total_magnetization_normalized_formula_units": null, "num_magnetic_sites": null, "num_unique_magnetic_sites": null, "types_of_magnetic_species": null, "bulk_modulus": null, "shear_modulus": null, "universal_anisotropy": null, "homogeneous_poisson": null, "e_total": null, "e_ionic": null, "e_electronic": null, "n": null, "e_ij_max": null, "weighted_surface_energy_EV_PER_ANG2": null, "weighted_surface_energy": null, "weighted_work_function": null, "surface_anisotropy": null, "shape_factor": null, "has_reconstructed": null, "possible_species": null, "has_props": null, "theoretical": null, "database_IDs": null, "fields_not_requested": ["builder_meta", "nsites", "elements", "nelements", "composition", "composition_reduced", "chemsys", "symmetry", "property_name", "deprecated", "deprecation_reasons", "last_updated", "origins", "warnings", "task_ids", "uncorrected_energy_per_atom", "equilibrium_reaction_energy_per_atom", "decomposes_to", "xas", "grain_boundaries", "cbm", "vbm", "is_gap_direct", "is_metal", "es_source_calc_id", "bandstructure", "dos", "dos_energy_up", "dos_energy_down", "is_magnetic", "ordering", "total_magnetization_normalized_vol", "total_magnetization_normalized_formula_units", "num_magnetic_sites", "num_unique_magnetic_sites", "types_of_magnetic_species", "bulk_modulus", "shear_modulus", "universal_anisotropy", "homogeneous_poisson", "e_total", "e_ionic", "e_electronic", "n", "e_ij_max", "weighted_surface_energy_EV_PER_ANG2", "weighted_surface_energy", "weighted_work_function", "surface_anisotropy", "shape_factor", "has_reconstructed", "possible_species", "has_props", "theoretical", "database_IDs"]}