{"builder_meta": null, "nsites": null, "elements": null, "nelements": null, "composition": null, "composition_reduced": null, "formula_pretty": "CrF6", "formula_anonymous": "AB6", "chemsys": null, "volume": 87.35464078304243, "density": 3.155265675525009, "density_atomic": 12.479234397577489, "symmetry": null, "property_name": null, "material_id": "mp-1391848", "deprecated": null, "deprecation_reasons": null, "last_updated": null, "origins": null, "warnings": null, "structure": {"@module": "pymatgen.core.structure", "@class": "Structure", "charge": 0, "lattice": {"matrix": [[4.31038284, 0.06767177, 2.86381699], [1.57041585, 4.01466441, 2.86386021], [0.09745879, 0.06759591, 5.17410536]], "pbc": [true, true, true], "a": 5.175463983840874, "b": 5.17546438199251, "c": 5.175464587761926, "alpha": 55.315760644069655, "beta": 55.31573240418593, "gamma": 55.31574478238545, "volume": 87.35464078304243}, "properties": {}, "sites": [{"species": [{"element": "Cr", "occu": 1}], "abc": [0.0, -0.0, 0.0], "properties": {"magmom": -0.0}, "label": "Cr", "xyz": [0.0, 0.0, 0.0]}, {"species": [{"element": "F", "occu": 1}], "abc": [0.36859872, 0.0818433, 0.77900413], "properties": {"magmom": -0.0}, "label": "F", "xyz": [1.7932504129850722, 0.40617460457019566, 5.320636491648482]}, {"species": [{"element": "F", "occu": 1}], "abc": [0.0818433, 0.77900413, 0.36859872], "properties": {"magmom": -0.0}, "label": "F", "xyz": [1.6120595741031813, 3.1578944028308893, 4.372511777231473]}, {"species": [{"element": "F", "occu": 1}], "abc": [0.22099587, 0.6314012800000001, 0.918156699999999], "properties": {"magmom": -0.0}, "label": "F", "xyz": [2.0336218245935522, 2.6118830665891317, 7.191776232350808]}, {"species": [{"element": "F", "occu": 1}], "abc": [0.918156699999999, 0.22099587, 0.6314012800000001], "properties": {"magmom": -0.0}, "label": "F", "xyz": [4.366197905896814, 0.9920376871691104, 6.529270782768524]}, {"species": [{"element": "F", "occu": 1}], "abc": [0.6314012800000001, 0.918156699999999, 0.22099587], "properties": {"magmom": -0.0}, "label": "F", "xyz": [4.185007067014927, 3.7437574854298004, 5.581146068351515]}, {"species": [{"element": "F", "occu": 1}], "abc": [0.77900413, 0.36859872, 0.0818433], "properties": {"magmom": -0.0}, "label": "F", "xyz": [3.944635655406448, 1.5380490234108684, 3.7100063276491877]}]}, "task_ids": null, "uncorrected_energy_per_atom": null, "energy_per_atom": -5.08317507142857, "formation_energy_per_atom": -2.063723397142856, "energy_above_hull": 0.0, "is_stable": true, "equilibrium_reaction_energy_per_atom": null, "decomposes_to": null, "xas": null, "grain_boundaries": null, "band_gap": 2.0863, "cbm": null, "vbm": null, "efermi": -5.36751013, "is_gap_direct": null, "is_metal": null, "es_source_calc_id": null, "bandstructure": null, "dos": null, "dos_energy_up": null, "dos_energy_down": null, "is_magnetic": null, "ordering": null, "total_magnetization": 0.0, "total_magnetization_normalized_vol": null, "total_magnetization_normalized_formula_units": null, "num_magnetic_sites": null, "num_unique_magnetic_sites": null, "types_of_magnetic_species": null, "bulk_modulus": null, "shear_modulus": null, "universal_anisotropy": null, "homogeneous_poisson": null, "e_total": null, "e_ionic": null, "e_electronic": null, "n": null, "e_ij_max": null, "weighted_surface_energy_EV_PER_ANG2": null, "weighted_surface_energy": null, "weighted_work_function": null, "surface_anisotropy": null, "shape_factor": null, "has_reconstructed": null, "possible_species": null, "has_props": null, "theoretical": null, "database_IDs": null, "fields_not_requested": ["builder_meta", "nsites", "elements", "nelements", "composition", "composition_reduced", "chemsys", "symmetry", "property_name", "deprecated", "deprecation_reasons", "last_updated", "origins", "warnings", "task_ids", "uncorrected_energy_per_atom", "equilibrium_reaction_energy_per_atom", "decomposes_to", "xas", "grain_boundaries", "cbm", "vbm", "is_gap_direct", "is_metal", "es_source_calc_id", "bandstructure", "dos", "dos_energy_up", "dos_energy_down", "is_magnetic", "ordering", "total_magnetization_normalized_vol", "total_magnetization_normalized_formula_units", "num_magnetic_sites", "num_unique_magnetic_sites", "types_of_magnetic_species", "bulk_modulus", "shear_modulus", "universal_anisotropy", "homogeneous_poisson", "e_total", "e_ionic", "e_electronic", "n", "e_ij_max", "weighted_surface_energy_EV_PER_ANG2", "weighted_surface_energy", "weighted_work_function", "surface_anisotropy", "shape_factor", "has_reconstructed", "possible_species", "has_props", "theoretical", "database_IDs"]}