{"builder_meta": null, "nsites": null, "elements": null, "nelements": null, "composition": null, "composition_reduced": null, "formula_pretty": "CrFe4", "formula_anonymous": "AB4", "chemsys": null, "volume": 57.25187645456947, "density": 7.987035541460435, "density_atomic": 11.450375290913893, "symmetry": null, "property_name": null, "material_id": "mp-1226230", "deprecated": null, "deprecation_reasons": null, "last_updated": null, "origins": null, "warnings": null, "structure": {"@module": "pymatgen.core.structure", "@class": "Structure", "charge": 0, "lattice": {"matrix": [[0.0, 1.997128, 10.055634], [1.425425, 0.0, 10.055634], [1.425425, 1.997128, 0.0]], "pbc": [true, true, true], "a": 10.252038596803077, "b": 10.156161261647089, "c": 2.4536415139561445, "alpha": 85.32315413085364, "beta": 80.87674400952748, "gamma": 13.80010185961886, "volume": 57.25187645456947}, "properties": {}, "sites": [{"species": [{"element": "Cr", "occu": 1}], "abc": [0.0, 0.0, 0.0], "properties": {"magmom": -0.217}, "label": "Cr", "xyz": [0.0, 0.0, 0.0]}, {"species": [{"element": "Fe", "occu": 1}], "abc": [0.400364, 0.400364, 0.599636], "properties": {"magmom": 2.054}, "label": "Fe", "xyz": [1.4254249999999997, 1.9971279999999998, 8.051827701552]}, {"species": [{"element": "Fe", "occu": 1}], "abc": [0.800236, 0.800236, 0.199764], "properties": {"magmom": 2.39}, "label": "Fe", "xyz": [1.4254249999999997, 1.997128, 16.093760659247998]}, {"species": [{"element": "Fe", "occu": 1}], "abc": [0.199764, 0.199764, 0.800236], "properties": {"magmom": 2.39}, "label": "Fe", "xyz": [1.4254249999999997, 1.997128, 4.017507340752]}, {"species": [{"element": "Fe", "occu": 1}], "abc": [0.599636, 0.599636, 0.400364], "properties": {"magmom": 2.054}, "label": "Fe", "xyz": [1.4254249999999997, 1.9971279999999998, 12.059440298448]}]}, "task_ids": null, "uncorrected_energy_per_atom": null, "energy_per_atom": -8.676668456, "formation_energy_per_atom": 0.029958005999999003, "energy_above_hull": 0.029958005999999003, "is_stable": false, "equilibrium_reaction_energy_per_atom": null, "decomposes_to": null, "xas": null, "grain_boundaries": null, "band_gap": 0.0, "cbm": null, "vbm": null, "efermi": 5.79070458, "is_gap_direct": null, "is_metal": null, "es_source_calc_id": null, "bandstructure": null, "dos": null, "dos_energy_up": null, "dos_energy_down": null, "is_magnetic": null, "ordering": null, "total_magnetization": 8.5684951, "total_magnetization_normalized_vol": null, "total_magnetization_normalized_formula_units": null, "num_magnetic_sites": null, "num_unique_magnetic_sites": null, "types_of_magnetic_species": null, "bulk_modulus": null, "shear_modulus": null, "universal_anisotropy": null, "homogeneous_poisson": null, "e_total": null, "e_ionic": null, "e_electronic": null, "n": null, "e_ij_max": null, "weighted_surface_energy_EV_PER_ANG2": null, "weighted_surface_energy": null, "weighted_work_function": null, "surface_anisotropy": null, "shape_factor": null, "has_reconstructed": null, "possible_species": null, "has_props": null, "theoretical": null, "database_IDs": null, "fields_not_requested": ["builder_meta", "nsites", "elements", "nelements", "composition", "composition_reduced", "chemsys", "symmetry", "property_name", "deprecated", "deprecation_reasons", "last_updated", "origins", "warnings", "task_ids", "uncorrected_energy_per_atom", "equilibrium_reaction_energy_per_atom", "decomposes_to", "xas", "grain_boundaries", "cbm", "vbm", "is_gap_direct", "is_metal", "es_source_calc_id", "bandstructure", "dos", "dos_energy_up", "dos_energy_down", "is_magnetic", "ordering", "total_magnetization_normalized_vol", "total_magnetization_normalized_formula_units", "num_magnetic_sites", "num_unique_magnetic_sites", "types_of_magnetic_species", "bulk_modulus", "shear_modulus", "universal_anisotropy", "homogeneous_poisson", "e_total", "e_ionic", "e_electronic", "n", "e_ij_max", "weighted_surface_energy_EV_PER_ANG2", "weighted_surface_energy", "weighted_work_function", "surface_anisotropy", "shape_factor", "has_reconstructed", "possible_species", "has_props", "theoretical", "database_IDs"]}