{
  "builder_meta": null,
  "nsites": null,
  "elements": null,
  "nelements": null,
  "composition": null,
  "composition_reduced": null,
  "formula_pretty": "CrGa",
  "formula_anonymous": "AB",
  "chemsys": null,
  "volume": 365.8259288089834,
  "density": 7.182517591556712,
  "density_atomic": 14.070228031114747,
  "symmetry": null,
  "property_name": null,
  "material_id": "mp-1182452",
  "deprecated": null,
  "deprecation_reasons": null,
  "last_updated": null,
  "origins": null,
  "warnings": null,
  "structure": {
    "@module": "pymatgen.core.structure",
    "@class": "Structure",
    "charge": 0,
    "lattice": {
      "matrix": [
        [4.505503, -6.35621, 0.0],
        [4.505503, 6.35621, 0.0],
        [-4.46162, 0.0, 6.387089]
      ],
      "pbc": [true, true, true],
      "a": 7.791082264172866,
      "b": 7.791082264172866,
      "c": 7.7910820120392135,
      "alpha": 109.33931001937854,
      "beta": 109.33931001937854,
      "gamma": 109.33931535693402,
      "volume": 365.8259288089834
    },
    "properties": {},
    "sites": [
      {
        "species": [{ "element": "Cr", "occu": 1 }],
        "abc": [0.5, 0.5, 0.5],
        "properties": { "magmom": -1.056 },
        "label": "Cr",
        "xyz": [2.274693, 0.0, 3.1935445]
      },
      {
        "species": [{ "element": "Cr", "occu": 1 }],
        "abc": [0.854213, 0.197967, 0.197967],
        "properties": { "magmom": -1.345 },
        "label": "Cr",
        "xyz": [3.8573466200000004, -4.17123738766, 1.264432848063]
      },
      {
        "species": [{ "element": "Cr", "occu": 1 }],
        "abc": [0.197967, 0.854213, 0.197967],
        "properties": { "magmom": -1.369 },
        "label": "Cr",
        "xyz": [3.8573466200000004, 4.17123738766, 1.264432848063]
      },
      {
        "species": [{ "element": "Cr", "occu": 1 }],
        "abc": [0.197967, 0.197967, 0.854213],
        "properties": { "magmom": -1.387 },
        "label": "Cr",
        "xyz": [-2.027291980258, 0.0, 5.455934455956999]
      },
      {
        "species": [{ "element": "Cr", "occu": 1 }],
        "abc": [0.145787, 0.802033, 0.802033],
        "properties": { "magmom": -1.345 },
        "label": "Cr",
        "xyz": [0.6920393799999998, 4.17123738766, 5.122656151937]
      },
      {
        "species": [{ "element": "Cr", "occu": 1 }],
        "abc": [0.802033, 0.145787, 0.802033],
        "properties": { "magmom": -1.369 },
        "label": "Cr",
        "xyz": [0.6920393799999998, -4.17123738766, 5.122656151937]
      },
      {
        "species": [{ "element": "Cr", "occu": 1 }],
        "abc": [0.802033, 0.802033, 0.145787],
        "properties": { "magmom": -1.387 },
        "label": "Cr",
        "xyz": [6.576677980258, 0.0, 0.9311545440429999]
      },
      {
        "species": [{ "element": "Cr", "occu": 1 }],
        "abc": [0.393509, 0.176905999999999, 0.176905999999999],
        "properties": { "magmom": 1.874 },
        "label": "Cr",
        "xyz": [1.7807191460249998, -1.3767741546300065, 1.1299143666339937]
      },
      {
        "species": [{ "element": "Cr", "occu": 1 }],
        "abc": [0.176905999999999, 0.393509, 0.176905999999999],
        "properties": { "magmom": 1.891 },
        "label": "Cr",
        "xyz": [1.7807191460249998, 1.3767741546300065, 1.1299143666339937]
      },
      {
        "species": [{ "element": "Cr", "occu": 1 }],
        "abc": [0.176905999999999, 0.176905999999999, 0.393509],
        "properties": { "magmom": 1.98 },
        "label": "Cr",
        "xyz": [-0.16158659714400891, 0.0, 2.513377005301]
      },
      {
        "species": [{ "element": "Cr", "occu": 1 }],
        "abc": [0.606491, 0.823094, 0.823094],
        "properties": { "magmom": 1.874 },
        "label": "Cr",
        "xyz": [2.7686668539750006, 1.3767741546299996, 5.257174633366]
      },
      {
        "species": [{ "element": "Cr", "occu": 1 }],
        "abc": [0.823094, 0.606491, 0.823094],
        "properties": { "magmom": 1.891 },
        "label": "Cr",
        "xyz": [2.7686668539750006, -1.3767741546299996, 5.257174633366]
      },
      {
        "species": [{ "element": "Cr", "occu": 1 }],
        "abc": [0.823094, 0.823094, 0.606491],
        "properties": { "magmom": 1.98 },
        "label": "Cr",
        "xyz": [4.710972597144, 0.0, 3.8737119946989997]
      },
      {
        "species": [{ "element": "Ga", "occu": 1 }],
        "abc": [0.0, 0.0, 0.0],
        "properties": { "magmom": -0.013000000000000001 },
        "label": "Ga",
        "xyz": [0.0, 0.0, 0.0]
      },
      {
        "species": [{ "element": "Ga", "occu": 1 }],
        "abc": [0.191622, 0.542902, 0.542902],
        "properties": { "magmom": 0.013000000000000001 },
        "label": "Ga",
        "xyz": [0.887177664332, 2.2328094488, 3.4675633922779996]
      },
      {
        "species": [{ "element": "Ga", "occu": 1 }],
        "abc": [0.542902, 0.191622, 0.542902],
        "properties": { "magmom": 0.013000000000000001 },
        "label": "Ga",
        "xyz": [0.887177664332, -2.2328094488, 3.4675633922779996]
      },
      {
        "species": [{ "element": "Ga", "occu": 1 }],
        "abc": [0.542902, 0.542902, 0.191622],
        "properties": { "magmom": 0.02 },
        "label": "Ga",
        "xyz": [4.037148631772, 0.0, 1.2239067683579998]
      },
      {
        "species": [{ "element": "Ga", "occu": 1 }],
        "abc": [0.808377999999999, 0.457098, 0.457098],
        "properties": { "magmom": 0.013000000000000001 },
        "label": "Ga",
        "xyz": [3.6622083356679953, -2.2328094487999937, 2.919525607722]
      },
      {
        "species": [{ "element": "Ga", "occu": 1 }],
        "abc": [0.457098, 0.808377999999999, 0.457098],
        "properties": { "magmom": 0.013000000000000001 },
        "label": "Ga",
        "xyz": [3.6622083356679953, 2.2328094487999937, 2.919525607722]
      },
      {
        "species": [{ "element": "Ga", "occu": 1 }],
        "abc": [0.457098, 0.457098, 0.808377999999999],
        "properties": { "magmom": 0.02 },
        "label": "Ga",
        "xyz": [0.5122373682280044, 0.0, 5.1631822316419935]
      },
      {
        "species": [{ "element": "Ga", "occu": 1 }],
        "abc": [0.11484899999999901, 0.5, 0.885150999999999],
        "properties": { "magmom": 0.044 },
        "label": "Ga",
        "xyz": [-1.179003390573, 2.4481006377100063, 5.653538215438993]
      },
      {
        "species": [{ "element": "Ga", "occu": 1 }],
        "abc": [0.885150999999999, 0.11484899999999901, 0.5],
        "properties": { "magmom": 0.036000000000000004 },
        "label": "Ga",
        "xyz": [2.274692999999991, -4.89620127542, 3.1935445]
      },
      {
        "species": [{ "element": "Ga", "occu": 1 }],
        "abc": [0.5, 0.885150999999999, 0.11484899999999901],
        "properties": { "magmom": 0.047 },
        "label": "Ga",
        "xyz": [5.728389390573, 2.448100637709994, 0.7335507845609937]
      },
      {
        "species": [{ "element": "Ga", "occu": 1 }],
        "abc": [0.885150999999999, 0.5, 0.11484899999999901],
        "properties": { "magmom": 0.044 },
        "label": "Ga",
        "xyz": [5.728389390573, -2.448100637709994, 0.7335507845609937]
      },
      {
        "species": [{ "element": "Ga", "occu": 1 }],
        "abc": [0.11484899999999901, 0.885150999999999, 0.5],
        "properties": { "magmom": 0.036000000000000004 },
        "label": "Ga",
        "xyz": [2.274692999999991, 4.89620127542, 3.1935445]
      },
      {
        "species": [{ "element": "Ga", "occu": 1 }],
        "abc": [0.5, 0.11484899999999901, 0.885150999999999],
        "properties": { "magmom": 0.047 },
        "label": "Ga",
        "xyz": [-1.179003390573, -2.4481006377100063, 5.653538215438993]
      }
    ]
  },
  "task_ids": null,
  "uncorrected_energy_per_atom": null,
  "energy_per_atom": -13.24143449269231,
  "formation_energy_per_atom": 0.016624677307690003,
  "energy_above_hull": 0.08224818605769,
  "is_stable": false,
  "equilibrium_reaction_energy_per_atom": null,
  "decomposes_to": null,
  "xas": null,
  "grain_boundaries": null,
  "band_gap": 0.0,
  "cbm": null,
  "vbm": null,
  "efermi": 5.48190041,
  "is_gap_direct": null,
  "is_metal": null,
  "es_source_calc_id": null,
  "bandstructure": null,
  "dos": null,
  "dos_energy_up": null,
  "dos_energy_down": null,
  "is_magnetic": null,
  "ordering": null,
  "total_magnetization": 3.1540711,
  "total_magnetization_normalized_vol": null,
  "total_magnetization_normalized_formula_units": null,
  "num_magnetic_sites": null,
  "num_unique_magnetic_sites": null,
  "types_of_magnetic_species": null,
  "bulk_modulus": null,
  "shear_modulus": null,
  "universal_anisotropy": null,
  "homogeneous_poisson": null,
  "e_total": null,
  "e_ionic": null,
  "e_electronic": null,
  "n": null,
  "e_ij_max": null,
  "weighted_surface_energy_EV_PER_ANG2": null,
  "weighted_surface_energy": null,
  "weighted_work_function": null,
  "surface_anisotropy": null,
  "shape_factor": null,
  "has_reconstructed": null,
  "possible_species": null,
  "has_props": null,
  "theoretical": null,
  "database_IDs": null,
  "fields_not_requested": [
    "builder_meta",
    "nsites",
    "elements",
    "nelements",
    "composition",
    "composition_reduced",
    "chemsys",
    "symmetry",
    "property_name",
    "deprecated",
    "deprecation_reasons",
    "last_updated",
    "origins",
    "warnings",
    "task_ids",
    "uncorrected_energy_per_atom",
    "equilibrium_reaction_energy_per_atom",
    "decomposes_to",
    "xas",
    "grain_boundaries",
    "cbm",
    "vbm",
    "is_gap_direct",
    "is_metal",
    "es_source_calc_id",
    "bandstructure",
    "dos",
    "dos_energy_up",
    "dos_energy_down",
    "is_magnetic",
    "ordering",
    "total_magnetization_normalized_vol",
    "total_magnetization_normalized_formula_units",
    "num_magnetic_sites",
    "num_unique_magnetic_sites",
    "types_of_magnetic_species",
    "bulk_modulus",
    "shear_modulus",
    "universal_anisotropy",
    "homogeneous_poisson",
    "e_total",
    "e_ionic",
    "e_electronic",
    "n",
    "e_ij_max",
    "weighted_surface_energy_EV_PER_ANG2",
    "weighted_surface_energy",
    "weighted_work_function",
    "surface_anisotropy",
    "shape_factor",
    "has_reconstructed",
    "possible_species",
    "has_props",
    "theoretical",
    "database_IDs"
  ]
}
