{
  "builder_meta": null,
  "nsites": null,
  "elements": null,
  "nelements": null,
  "composition": null,
  "composition_reduced": null,
  "formula_pretty": "CrGe",
  "formula_anonymous": "AB",
  "chemsys": null,
  "volume": 108.36370774657664,
  "density": 7.639572970045499,
  "density_atomic": 13.54546346832208,
  "symmetry": null,
  "property_name": null,
  "material_id": "mp-20861",
  "deprecated": null,
  "deprecation_reasons": null,
  "last_updated": null,
  "origins": null,
  "warnings": null,
  "structure": {
    "@module": "pymatgen.core.structure",
    "@class": "Structure",
    "charge": 0,
    "lattice": {
      "matrix": [
        [4.767543, 0.0, 0.0],
        [0.0, 4.767543, 0.0],
        [0.0, 0.0, 4.767543]
      ],
      "pbc": [true, true, true],
      "a": 4.767543,
      "b": 4.767543,
      "c": 4.767543,
      "alpha": 90.0,
      "beta": 90.0,
      "gamma": 90.0,
      "volume": 108.36370774657664
    },
    "properties": {},
    "sites": [
      {
        "species": [{ "element": "Cr", "occu": 1 }],
        "abc": [0.13713, 0.13713, 0.13713],
        "properties": { "magmom": 1.014 },
        "label": "Cr",
        "xyz": [0.65377317159, 0.65377317159, 0.65377317159]
      },
      {
        "species": [{ "element": "Cr", "occu": 1 }],
        "abc": [0.36287, 0.86287, 0.6371300000000001],
        "properties": { "magmom": 1.017 },
        "label": "Cr",
        "xyz": [1.72999832841, 4.11376982841, 3.0375446715900005]
      },
      {
        "species": [{ "element": "Cr", "occu": 1 }],
        "abc": [0.6371300000000001, 0.36287, 0.86287],
        "properties": { "magmom": 0.9570000000000001 },
        "label": "Cr",
        "xyz": [3.0375446715900005, 1.72999832841, 4.11376982841]
      },
      {
        "species": [{ "element": "Cr", "occu": 1 }],
        "abc": [0.86287, 0.6371300000000001, 0.36287],
        "properties": { "magmom": 0.993 },
        "label": "Cr",
        "xyz": [4.11376982841, 3.0375446715900005, 1.72999832841]
      },
      {
        "species": [{ "element": "Ge", "occu": 1 }],
        "abc": [0.844874999999999, 0.844874999999999, 0.844874999999999],
        "properties": { "magmom": -0.053 },
        "label": "Ge",
        "xyz": [4.027977892124995, 4.027977892124995, 4.027977892124995]
      },
      {
        "species": [{ "element": "Ge", "occu": 1 }],
        "abc": [0.655125, 0.155124999999999, 0.344875],
        "properties": { "magmom": -0.061 },
        "label": "Ge",
        "xyz": [3.123336607875, 0.7395651078749953, 1.6442063921249999]
      },
      {
        "species": [{ "element": "Ge", "occu": 1 }],
        "abc": [0.344875, 0.655125, 0.155124999999999],
        "properties": { "magmom": -0.055 },
        "label": "Ge",
        "xyz": [1.6442063921249999, 3.123336607875, 0.7395651078749953]
      },
      {
        "species": [{ "element": "Ge", "occu": 1 }],
        "abc": [0.155124999999999, 0.344875, 0.655125],
        "properties": { "magmom": -0.056 },
        "label": "Ge",
        "xyz": [0.7395651078749953, 1.6442063921249999, 3.123336607875]
      }
    ]
  },
  "task_ids": null,
  "uncorrected_energy_per_atom": null,
  "energy_per_atom": -14.38345440125,
  "formation_energy_per_atom": 0.08920558374999901,
  "energy_above_hull": 0.08920558374999901,
  "is_stable": false,
  "equilibrium_reaction_energy_per_atom": null,
  "decomposes_to": null,
  "xas": null,
  "grain_boundaries": null,
  "band_gap": 0.0,
  "cbm": null,
  "vbm": null,
  "efermi": 7.9297723399999995,
  "is_gap_direct": null,
  "is_metal": null,
  "es_source_calc_id": null,
  "bandstructure": null,
  "dos": null,
  "dos_energy_up": null,
  "dos_energy_down": null,
  "is_magnetic": null,
  "ordering": null,
  "total_magnetization": 3.8421005,
  "total_magnetization_normalized_vol": null,
  "total_magnetization_normalized_formula_units": null,
  "num_magnetic_sites": null,
  "num_unique_magnetic_sites": null,
  "types_of_magnetic_species": null,
  "bulk_modulus": null,
  "shear_modulus": null,
  "universal_anisotropy": null,
  "homogeneous_poisson": null,
  "e_total": null,
  "e_ionic": null,
  "e_electronic": null,
  "n": null,
  "e_ij_max": null,
  "weighted_surface_energy_EV_PER_ANG2": null,
  "weighted_surface_energy": null,
  "weighted_work_function": null,
  "surface_anisotropy": null,
  "shape_factor": null,
  "has_reconstructed": null,
  "possible_species": null,
  "has_props": null,
  "theoretical": null,
  "database_IDs": null,
  "fields_not_requested": [
    "builder_meta",
    "nsites",
    "elements",
    "nelements",
    "composition",
    "composition_reduced",
    "chemsys",
    "symmetry",
    "property_name",
    "deprecated",
    "deprecation_reasons",
    "last_updated",
    "origins",
    "warnings",
    "task_ids",
    "uncorrected_energy_per_atom",
    "equilibrium_reaction_energy_per_atom",
    "decomposes_to",
    "xas",
    "grain_boundaries",
    "cbm",
    "vbm",
    "is_gap_direct",
    "is_metal",
    "es_source_calc_id",
    "bandstructure",
    "dos",
    "dos_energy_up",
    "dos_energy_down",
    "is_magnetic",
    "ordering",
    "total_magnetization_normalized_vol",
    "total_magnetization_normalized_formula_units",
    "num_magnetic_sites",
    "num_unique_magnetic_sites",
    "types_of_magnetic_species",
    "bulk_modulus",
    "shear_modulus",
    "universal_anisotropy",
    "homogeneous_poisson",
    "e_total",
    "e_ionic",
    "e_electronic",
    "n",
    "e_ij_max",
    "weighted_surface_energy_EV_PER_ANG2",
    "weighted_surface_energy",
    "weighted_work_function",
    "surface_anisotropy",
    "shape_factor",
    "has_reconstructed",
    "possible_species",
    "has_props",
    "theoretical",
    "database_IDs"
  ]
}
