{
  "builder_meta": null,
  "nsites": null,
  "elements": null,
  "nelements": null,
  "composition": null,
  "composition_reduced": null,
  "formula_pretty": "CrI3",
  "formula_anonymous": "AB3",
  "chemsys": null,
  "volume": 872.8717033277052,
  "density": 4.93908355446768,
  "density_atomic": 36.36965430532105,
  "symmetry": null,
  "property_name": null,
  "material_id": "mp-1213805",
  "deprecated": null,
  "deprecation_reasons": null,
  "last_updated": null,
  "origins": null,
  "warnings": null,
  "structure": {
    "@module": "pymatgen.core.structure",
    "@class": "Structure",
    "charge": 0,
    "lattice": {
      "matrix": [
        [-3.48411924, -6.0349274, 0.00071019],
        [-3.48429615, 6.03502988, 6.543e-5],
        [0.0023003900000000002, 0.00111969, -20.75585619]
      ],
      "pbc": [true, true, true],
      "a": 6.968460095758515,
      "b": 6.968637264033673,
      "c": 20.755856347678385,
      "alpha": 90.00103624094321,
      "beta": 90.01169105884112,
      "gamma": 120.00126505058162,
      "volume": 872.8717033277052
    },
    "properties": {},
    "sites": [
      {
        "species": [{ "element": "Cr", "occu": 1 }],
        "abc": [0.22278869, 0.44556935000000003, 0.66667978],
        "properties": { "magmom": 3.144 },
        "label": "Cr",
        "xyz": [-2.327184308547284, 1.34525724585394, -13.837322262558517]
      },
      {
        "species": [{ "element": "Cr", "occu": 1 }],
        "abc": [0.22283973, 0.77722354, 0.33332746],
        "properties": { "magmom": 3.145 },
        "label": "Cr",
        "xyz": [-3.4837103956850672, 3.34611891837746, -6.918287711653907]
      },
      {
        "species": [{ "element": "Cr", "occu": 1 }],
        "abc": [0.5543414600000001, 0.77716103, -1.3870000000000001e-5],
        "properties": { "magmom": 3.144 },
        "label": "Cr",
        "xyz": [-4.6392509629811345, 1.3447795561814715, 0.0007324211330256001]
      },
      {
        "species": [{ "element": "Cr", "occu": 1 }],
        "abc": [0.55588629, 0.11183074, 0.66667217],
        "properties": { "magmom": 3.143 },
        "label": "Cr",
        "xyz": [-2.3248919290817245, -2.679085079240808, -13.83694958442562]
      },
      {
        "species": [{ "element": "Cr", "occu": 1 }],
        "abc": [0.55591702, 0.44402782, 0.33333474],
        "properties": { "magmom": 3.143 },
        "label": "Cr",
        "xyz": [-3.483238809041809, -0.6748244632980559, -6.918224067122344]
      },
      {
        "species": [{ "element": "Cr", "occu": 1 }],
        "abc": [0.88806418, 0.4440269, 0.99999299],
        "properties": { "magmom": 3.143 },
        "label": "Cr",
        "xyz": [-4.638942340184992, -2.678567561665787, -20.755050944468046]
      },
      {
        "species": [{ "element": "I", "occu": 1 }],
        "abc": [0.53421776, 0.77885355, 0.74179739],
        "properties": { "magmom": -0.089 },
        "label": "I",
        "xyz": [-4.573328378346553, 1.477269632123059, -15.396209592458593]
      },
      {
        "species": [{ "element": "I", "occu": 1 }],
        "abc": [0.24462534, 0.46569462, 0.40849738],
        "properties": { "magmom": -0.089 },
        "label": "I",
        "xyz": [-2.4739821219392764, 1.3346421699863418, -8.478508672402581]
      },
      {
        "species": [{ "element": "I", "occu": 1 }],
        "abc": [0.24458678, 0.77883039, 0.5915555100000001],
        "properties": { "magmom": -0.089 },
        "label": "I",
        "xyz": [-3.5644844270479967, 3.224863573591273, -12.278016432004401]
      },
      {
        "species": [{ "element": "I", "occu": 1 }],
        "abc": [0.22116547, 0.75535523, 0.07515664],
        "properties": { "magmom": -0.089 },
        "label": "I",
        "xyz": [-3.402275299438918, 3.223957980365636, -1.5597339191657633]
      },
      {
        "species": [{ "element": "I", "occu": 1 }],
        "abc": [0.22119227, 0.46580806, 0.92485994],
        "properties": { "magmom": -0.089 },
        "label": "I",
        "xyz": [-2.3915459351858672, 1.4773218259798533, -19.196072344172432]
      },
      {
        "species": [{ "element": "I", "occu": 1 }],
        "abc": [0.53406024, 0.7552770600000001, 0.25813842],
        "properties": { "magmom": -0.089 },
        "label": "I",
        "xyz": [-4.491744690804353, 1.3353938841594668, -5.357455220613938]
      },
      {
        "species": [{ "element": "I", "occu": 1 }],
        "abc": [0.88911969, 0.42243451, 0.74200033],
        "properties": { "magmom": -0.088 },
        "label": "I",
        "xyz": [-4.567979065272843, -2.815537078517849, -15.400193058609911]
      },
      {
        "species": [{ "element": "I", "occu": 1 }],
        "abc": [0.53309896, 0.11090169, 0.4086996],
        "properties": { "magmom": -0.088 },
        "label": "I",
        "xyz": [-2.2428545063826397, -2.547460890867883, -8.482524264662544]
      },
      {
        "species": [{ "element": "I", "occu": 1 }],
        "abc": [0.53327154, 0.42236426, 0.59129958],
        "properties": { "magmom": -0.088 },
        "label": "I",
        "xyz": [-3.3282635780331926, -0.6686120268153769, -12.272522688278876]
      },
      {
        "species": [{ "element": "I", "occu": 1 }],
        "abc": [0.57782524, 0.46687022, 0.07534267],
        "properties": { "magmom": -0.088 },
        "label": "I",
        "xyz": [-3.6397528286126297, -0.6694732850712304, -1.5633607104649372]
      },
      {
        "species": [{ "element": "I", "occu": 1 }],
        "abc": [0.57786231, 0.11098163, 0.92463808],
        "properties": { "magmom": -0.088 },
        "label": "I",
        "xyz": [-2.3979070302787173, -2.8165443268533945, -19.191237362715725]
      },
      {
        "species": [{ "element": "I", "occu": 1 }],
        "abc": [0.8891046100000001, 0.46667236, 0.25799451],
        "properties": { "magmom": -0.088 },
        "label": "I",
        "xyz": [-4.723177697342252, -2.5490112617122955, -5.354234979794026]
      },
      {
        "species": [{ "element": "I", "occu": 1 }],
        "abc": [0.88938606, 0.13478567, 0.59101383],
        "properties": { "magmom": -0.089 },
        "label": "I",
        "xyz": [-3.567000712185571, -4.553283004550912, -12.266357609668768]
      },
      {
        "species": [{ "element": "I", "occu": 1 }],
        "abc": [0.2454566, 0.11056871, 0.25762609000000003],
        "properties": { "magmom": -0.089 },
        "label": "I",
        "xyz": [-1.2398615527272754, -0.8137388308510731, -5.347068519498548]
      },
      {
        "species": [{ "element": "I", "occu": 1 }],
        "abc": [0.24543611, 0.13483972, 0.74236711],
        "properties": { "magmom": -0.089 },
        "label": "I",
        "xyz": [-1.3232424564286616, -0.6665961449481846, -15.40828184651207]
      },
      {
        "species": [{ "element": "I", "occu": 1 }],
        "abc": [0.8651956, 0.75462039, 0.92430163],
        "properties": { "magmom": -0.089 },
        "label": "I",
        "xyz": [-5.641639301685207, -0.6662010998000918, -19.184007880387306]
      },
      {
        "species": [{ "element": "I", "occu": 1 }],
        "abc": [0.86525369, 0.11072074, 0.07568712],
        "properties": { "magmom": -0.089 },
        "label": "I",
        "xyz": [-3.4002567670231696, -4.553455481385003, -1.5703292391791532]
      },
      {
        "species": [{ "element": "I", "occu": 1 }],
        "abc": [0.88930633, 0.75457981, 0.4090289],
        "properties": { "magmom": -0.089 },
        "label": "I",
        "xyz": [-5.726687895466249, -0.8125294521466793, -8.489064077334419]
      }
    ]
  },
  "task_ids": null,
  "uncorrected_energy_per_atom": null,
  "energy_per_atom": -4.279313184583334,
  "formation_energy_per_atom": -0.723041855833334,
  "energy_above_hull": 0.0,
  "is_stable": true,
  "equilibrium_reaction_energy_per_atom": null,
  "decomposes_to": null,
  "xas": null,
  "grain_boundaries": null,
  "band_gap": 1.159,
  "cbm": null,
  "vbm": null,
  "efermi": 2.23481613,
  "is_gap_direct": null,
  "is_metal": null,
  "es_source_calc_id": null,
  "bandstructure": null,
  "dos": null,
  "dos_energy_up": null,
  "dos_energy_down": null,
  "is_magnetic": null,
  "ordering": null,
  "total_magnetization": 18.0000009,
  "total_magnetization_normalized_vol": null,
  "total_magnetization_normalized_formula_units": null,
  "num_magnetic_sites": null,
  "num_unique_magnetic_sites": null,
  "types_of_magnetic_species": null,
  "bulk_modulus": null,
  "shear_modulus": null,
  "universal_anisotropy": null,
  "homogeneous_poisson": null,
  "e_total": null,
  "e_ionic": null,
  "e_electronic": null,
  "n": null,
  "e_ij_max": null,
  "weighted_surface_energy_EV_PER_ANG2": null,
  "weighted_surface_energy": null,
  "weighted_work_function": null,
  "surface_anisotropy": null,
  "shape_factor": null,
  "has_reconstructed": null,
  "possible_species": null,
  "has_props": null,
  "theoretical": null,
  "database_IDs": null,
  "fields_not_requested": [
    "builder_meta",
    "nsites",
    "elements",
    "nelements",
    "composition",
    "composition_reduced",
    "chemsys",
    "symmetry",
    "property_name",
    "deprecated",
    "deprecation_reasons",
    "last_updated",
    "origins",
    "warnings",
    "task_ids",
    "uncorrected_energy_per_atom",
    "equilibrium_reaction_energy_per_atom",
    "decomposes_to",
    "xas",
    "grain_boundaries",
    "cbm",
    "vbm",
    "is_gap_direct",
    "is_metal",
    "es_source_calc_id",
    "bandstructure",
    "dos",
    "dos_energy_up",
    "dos_energy_down",
    "is_magnetic",
    "ordering",
    "total_magnetization_normalized_vol",
    "total_magnetization_normalized_formula_units",
    "num_magnetic_sites",
    "num_unique_magnetic_sites",
    "types_of_magnetic_species",
    "bulk_modulus",
    "shear_modulus",
    "universal_anisotropy",
    "homogeneous_poisson",
    "e_total",
    "e_ionic",
    "e_electronic",
    "n",
    "e_ij_max",
    "weighted_surface_energy_EV_PER_ANG2",
    "weighted_surface_energy",
    "weighted_work_function",
    "surface_anisotropy",
    "shape_factor",
    "has_reconstructed",
    "possible_species",
    "has_props",
    "theoretical",
    "database_IDs"
  ]
}
