{"builder_meta": null, "nsites": null, "elements": null, "nelements": null, "composition": null, "composition_reduced": null, "formula_pretty": "CrIn3", "formula_anonymous": "AB3", "chemsys": null, "volume": 179.1973627465826, "density": 7.347439369835605, "density_atomic": 22.399670343322825, "symmetry": null, "property_name": null, "material_id": "mp-1183750", "deprecated": null, "deprecation_reasons": null, "last_updated": null, "origins": null, "warnings": null, "structure": {"@module": "pymatgen.core.structure", "@class": "Structure", "charge": 0, "lattice": {"matrix": [[3.112677, -5.391315, 0.0], [3.112677, 5.391315, 0.0], [0.0, 0.0, 5.339159]], "pbc": [true, true, true], "a": 6.225354249804102, "b": 6.225354249804102, "c": 5.339159, "alpha": 90.0, "beta": 90.0, "gamma": 120.00000265477362, "volume": 179.1973627465826}, "properties": {}, "sites": [{"species": [{"element": "Cr", "occu": 1}], "abc": [0.333333, 0.666667, 0.75], "properties": {"magmom": 3.553}, "label": "Cr", "xyz": [3.1126770000000006, 1.79710859421, 4.00436925]}, {"species": [{"element": "Cr", "occu": 1}], "abc": [0.666667, 0.333333, 0.25], "properties": {"magmom": 3.553}, "label": "Cr", "xyz": [3.1126770000000006, -1.79710859421, 1.33478975]}, {"species": [{"element": "In", "occu": 1}], "abc": [0.170063, 0.340126, 0.25], "properties": {"magmom": -0.07200000000000001}, "label": "In", "xyz": [1.588053565953, 0.9168632028449999, 1.33478975]}, {"species": [{"element": "In", "occu": 1}], "abc": [0.659874, 0.829936999999999, 0.25], "properties": {"magmom": -0.07100000000000001}, "label": "In", "xyz": [4.637300434046997, 0.9168632028449952, 1.33478975]}, {"species": [{"element": "In", "occu": 1}], "abc": [0.170063, 0.829936999999999, 0.25], "properties": {"magmom": -0.07100000000000001}, "label": "In", "xyz": [3.112676999999997, 3.557588594309995, 1.33478975]}, {"species": [{"element": "In", "occu": 1}], "abc": [0.829936999999999, 0.659874, 0.75], "properties": {"magmom": -0.07200000000000001}, "label": "In", "xyz": [4.637300434046997, -0.9168632028449952, 4.00436925]}, {"species": [{"element": "In", "occu": 1}], "abc": [0.340126, 0.170063, 0.75], "properties": {"magmom": -0.07100000000000001}, "label": "In", "xyz": [1.588053565953, -0.9168632028449999, 4.00436925]}, {"species": [{"element": "In", "occu": 1}], "abc": [0.829936999999999, 0.170063, 0.75], "properties": {"magmom": -0.07100000000000001}, "label": "In", "xyz": [3.112676999999997, -3.557588594309995, 4.00436925]}]}, "task_ids": null, "uncorrected_energy_per_atom": null, "energy_per_atom": -20.393969186249997, "formation_energy_per_atom": 0.30830919625000003, "energy_above_hull": 0.30830919625000003, "is_stable": false, "equilibrium_reaction_energy_per_atom": null, "decomposes_to": null, "xas": null, "grain_boundaries": null, "band_gap": 0.0, "cbm": null, "vbm": null, "efermi": 7.68409868, "is_gap_direct": null, "is_metal": null, "es_source_calc_id": null, "bandstructure": null, "dos": null, "dos_energy_up": null, "dos_energy_down": null, "is_magnetic": null, "ordering": null, "total_magnetization": 7.1067947, "total_magnetization_normalized_vol": null, "total_magnetization_normalized_formula_units": null, "num_magnetic_sites": null, "num_unique_magnetic_sites": null, "types_of_magnetic_species": null, "bulk_modulus": null, "shear_modulus": null, "universal_anisotropy": null, "homogeneous_poisson": null, "e_total": null, "e_ionic": null, "e_electronic": null, "n": null, "e_ij_max": null, "weighted_surface_energy_EV_PER_ANG2": null, "weighted_surface_energy": null, "weighted_work_function": null, "surface_anisotropy": null, "shape_factor": null, "has_reconstructed": null, "possible_species": null, "has_props": null, "theoretical": null, "database_IDs": null, "fields_not_requested": ["builder_meta", "nsites", "elements", "nelements", "composition", "composition_reduced", "chemsys", "symmetry", "property_name", "deprecated", "deprecation_reasons", "last_updated", "origins", "warnings", "task_ids", "uncorrected_energy_per_atom", "equilibrium_reaction_energy_per_atom", "decomposes_to", "xas", "grain_boundaries", "cbm", "vbm", "is_gap_direct", "is_metal", "es_source_calc_id", "bandstructure", "dos", "dos_energy_up", "dos_energy_down", "is_magnetic", "ordering", "total_magnetization_normalized_vol", "total_magnetization_normalized_formula_units", "num_magnetic_sites", "num_unique_magnetic_sites", "types_of_magnetic_species", "bulk_modulus", "shear_modulus", "universal_anisotropy", "homogeneous_poisson", "e_total", "e_ionic", "e_electronic", "n", "e_ij_max", "weighted_surface_energy_EV_PER_ANG2", "weighted_surface_energy", "weighted_work_function", "surface_anisotropy", "shape_factor", "has_reconstructed", "possible_species", "has_props", "theoretical", "database_IDs"]}