{"builder_meta": null, "nsites": null, "elements": null, "nelements": null, "composition": null, "composition_reduced": null, "formula_pretty": "CrN", "formula_anonymous": "AB", "chemsys": null, "volume": 70.70922167159108, "density": 6.200052853871006, "density_atomic": 8.838652708948885, "symmetry": null, "property_name": null, "material_id": "mp-1232890", "deprecated": null, "deprecation_reasons": null, "last_updated": null, "origins": null, "warnings": null, "structure": {"@module": "pymatgen.core.structure", "@class": "Structure", "charge": 0, "lattice": {"matrix": [[-2.123567, 2.123548, 3e-06], [-4.999999999999999e-06, 1e-06, 4.109614], [4.051172, 4.051178, -3e-06]], "pbc": [true, true, true], "a": 3.003163817010654, "b": 4.1096140000031625, "c": 5.72922662854918, "alpha": 90.00006943541098, "beta": 90.0002138908552, "gamma": 89.99988361398215, "volume": 70.70922167159108}, "properties": {}, "sites": [{"species": [{"element": "Cr", "occu": 1}], "abc": [0.5, 0.5, 0.228614999999999], "properties": {"magmom": -2.382}, "label": "Cr", "xyz": [-0.13562731322000388, 1.9879345584699961, 2.054807814155]}, {"species": [{"element": "Cr", "occu": 1}], "abc": [0.0, 0.0, 0.521367999999999], "properties": {"magmom": -2.382}, "label": "Cr", "xyz": [2.1121514432959962, 2.1121545715039964, -1.5641039999999971e-06]}, {"species": [{"element": "Cr", "occu": 1}], "abc": [0.499998, 0.499998999999999, 0.728677999999999], "properties": {"magmom": 2.383}, "label": "Cr", "xyz": [1.8902181577549964, 4.013774535586997, 2.0548022043459957]}, {"species": [{"element": "Cr", "occu": 1}], "abc": [2e-06, 0.999999, 0.021320000000000002], "properties": {"magmom": 2.383}, "label": "Cr", "xyz": [0.08636173991100002, 0.086376362055, 4.109609826431999]}, {"species": [{"element": "N", "occu": 1}], "abc": [0.0, 0.5, 0.48243199999999903], "properties": {"magmom": 0.015}, "label": "N", "xyz": [1.9544125103039962, 1.9544184048959963, 2.054805552704]}, {"species": [{"element": "N", "occu": 1}], "abc": [0.5, 0.0, 0.767424999999999], "properties": {"magmom": -0.015}, "label": "N", "xyz": [2.0471871720999966, 4.170749276649996, -8.022749999999969e-07]}, {"species": [{"element": "N", "occu": 1}], "abc": [0.0, 0.5, 0.9825900000000001], "properties": {"magmom": -0.015}, "label": "N", "xyz": [3.9806385954800008, 3.9806474910200005, 2.0548040522299997]}, {"species": [{"element": "N", "occu": 1}], "abc": [0.500001, 1e-06, 0.267573], "properties": {"magmom": 0.015}, "label": "N", "xyz": [0.022198621984000022, 2.1457619745430003, 4.806897999999999e-06]}]}, "task_ids": null, "uncorrected_energy_per_atom": null, "energy_per_atom": -12.827721695, "formation_energy_per_atom": -0.726675164374999, "energy_above_hull": 0.022511655000000002, "is_stable": false, "equilibrium_reaction_energy_per_atom": null, "decomposes_to": null, "xas": null, "grain_boundaries": null, "band_gap": 0.0, "cbm": null, "vbm": null, "efermi": 7.87390946, "is_gap_direct": null, "is_metal": null, "es_source_calc_id": null, "bandstructure": null, "dos": null, "dos_energy_up": null, "dos_energy_down": null, "is_magnetic": null, "ordering": null, "total_magnetization": 0.0001518, "total_magnetization_normalized_vol": null, "total_magnetization_normalized_formula_units": null, "num_magnetic_sites": null, "num_unique_magnetic_sites": null, "types_of_magnetic_species": null, "bulk_modulus": null, "shear_modulus": null, "universal_anisotropy": null, "homogeneous_poisson": null, "e_total": null, "e_ionic": null, "e_electronic": null, "n": null, "e_ij_max": null, "weighted_surface_energy_EV_PER_ANG2": null, "weighted_surface_energy": null, "weighted_work_function": null, "surface_anisotropy": null, "shape_factor": null, "has_reconstructed": null, "possible_species": null, "has_props": null, "theoretical": null, "database_IDs": null, "fields_not_requested": ["builder_meta", "nsites", "elements", "nelements", "composition", "composition_reduced", "chemsys", "symmetry", "property_name", "deprecated", "deprecation_reasons", "last_updated", "origins", "warnings", "task_ids", "uncorrected_energy_per_atom", "equilibrium_reaction_energy_per_atom", "decomposes_to", "xas", "grain_boundaries", "cbm", "vbm", "is_gap_direct", "is_metal", "es_source_calc_id", "bandstructure", "dos", "dos_energy_up", "dos_energy_down", "is_magnetic", "ordering", "total_magnetization_normalized_vol", "total_magnetization_normalized_formula_units", "num_magnetic_sites", "num_unique_magnetic_sites", "types_of_magnetic_species", "bulk_modulus", "shear_modulus", "universal_anisotropy", "homogeneous_poisson", "e_total", "e_ionic", "e_electronic", "n", "e_ij_max", "weighted_surface_energy_EV_PER_ANG2", "weighted_surface_energy", "weighted_work_function", "surface_anisotropy", "shape_factor", "has_reconstructed", "possible_species", "has_props", "theoretical", "database_IDs"]}