{
  "builder_meta": null,
  "nsites": null,
  "elements": null,
  "nelements": null,
  "composition": null,
  "composition_reduced": null,
  "formula_pretty": "CrN2",
  "formula_anonymous": "AB2",
  "chemsys": null,
  "volume": 52.24686162891472,
  "density": 5.085813628109109,
  "density_atomic": 8.707810271485787,
  "symmetry": null,
  "property_name": null,
  "material_id": "mp-1080200",
  "deprecated": null,
  "deprecation_reasons": null,
  "last_updated": null,
  "origins": null,
  "warnings": null,
  "structure": {
    "@module": "pymatgen.core.structure",
    "@class": "Structure",
    "charge": 0,
    "lattice": {
      "matrix": [
        [2.78417, 0.0, 0.0],
        [0.0, 3.901786, 0.0],
        [0.0, 0.0, 4.809512]
      ],
      "pbc": [true, true, true],
      "a": 2.78417,
      "b": 3.901786,
      "c": 4.809512,
      "alpha": 90.0,
      "beta": 90.0,
      "gamma": 90.0,
      "volume": 52.24686162891472
    },
    "properties": {},
    "sites": [
      {
        "species": [{ "element": "Cr", "occu": 1 }],
        "abc": [0.5, 0.5, 0.5],
        "properties": { "magmom": 2.186 },
        "label": "Cr",
        "xyz": [1.392085, 1.950893, 2.404756]
      },
      {
        "species": [{ "element": "Cr", "occu": 1 }],
        "abc": [0.0, 0.0, 0.0],
        "properties": { "magmom": 2.186 },
        "label": "Cr",
        "xyz": [0.0, 0.0, 0.0]
      },
      {
        "species": [{ "element": "N", "occu": 1 }],
        "abc": [0.5, 0.63383, 0.08877499999999901],
        "properties": { "magmom": -0.094 },
        "label": "N",
        "xyz": [1.392085, 2.47306902038, 0.4269644277999952]
      },
      {
        "species": [{ "element": "N", "occu": 1 }],
        "abc": [0.5, 0.36617000000000005, 0.911225],
        "properties": { "magmom": -0.094 },
        "label": "N",
        "xyz": [1.392085, 1.42871697962, 4.382547572199999]
      },
      {
        "species": [{ "element": "N", "occu": 1 }],
        "abc": [0.0, 0.13383, 0.411225],
        "properties": { "magmom": -0.094 },
        "label": "N",
        "xyz": [0.0, 0.52217602038, 1.9777915722]
      },
      {
        "species": [{ "element": "N", "occu": 1 }],
        "abc": [0.0, 0.8661700000000001, 0.588774999999999],
        "properties": { "magmom": -0.094 },
        "label": "N",
        "xyz": [0.0, 3.3796099796200005, 2.831720427799995]
      }
    ]
  },
  "task_ids": null,
  "uncorrected_energy_per_atom": null,
  "energy_per_atom": -11.45137793375,
  "formation_energy_per_atom": -0.341096689583333,
  "energy_above_hull": 0.158361189999999,
  "is_stable": false,
  "equilibrium_reaction_energy_per_atom": null,
  "decomposes_to": null,
  "xas": null,
  "grain_boundaries": null,
  "band_gap": 0.0,
  "cbm": null,
  "vbm": null,
  "efermi": 7.20926346,
  "is_gap_direct": null,
  "is_metal": null,
  "es_source_calc_id": null,
  "bandstructure": null,
  "dos": null,
  "dos_energy_up": null,
  "dos_energy_down": null,
  "is_magnetic": null,
  "ordering": null,
  "total_magnetization": 4.200455,
  "total_magnetization_normalized_vol": null,
  "total_magnetization_normalized_formula_units": null,
  "num_magnetic_sites": null,
  "num_unique_magnetic_sites": null,
  "types_of_magnetic_species": null,
  "bulk_modulus": null,
  "shear_modulus": null,
  "universal_anisotropy": null,
  "homogeneous_poisson": null,
  "e_total": null,
  "e_ionic": null,
  "e_electronic": null,
  "n": null,
  "e_ij_max": null,
  "weighted_surface_energy_EV_PER_ANG2": null,
  "weighted_surface_energy": null,
  "weighted_work_function": null,
  "surface_anisotropy": null,
  "shape_factor": null,
  "has_reconstructed": null,
  "possible_species": null,
  "has_props": null,
  "theoretical": null,
  "database_IDs": null,
  "fields_not_requested": [
    "builder_meta",
    "nsites",
    "elements",
    "nelements",
    "composition",
    "composition_reduced",
    "chemsys",
    "symmetry",
    "property_name",
    "deprecated",
    "deprecation_reasons",
    "last_updated",
    "origins",
    "warnings",
    "task_ids",
    "uncorrected_energy_per_atom",
    "equilibrium_reaction_energy_per_atom",
    "decomposes_to",
    "xas",
    "grain_boundaries",
    "cbm",
    "vbm",
    "is_gap_direct",
    "is_metal",
    "es_source_calc_id",
    "bandstructure",
    "dos",
    "dos_energy_up",
    "dos_energy_down",
    "is_magnetic",
    "ordering",
    "total_magnetization_normalized_vol",
    "total_magnetization_normalized_formula_units",
    "num_magnetic_sites",
    "num_unique_magnetic_sites",
    "types_of_magnetic_species",
    "bulk_modulus",
    "shear_modulus",
    "universal_anisotropy",
    "homogeneous_poisson",
    "e_total",
    "e_ionic",
    "e_electronic",
    "n",
    "e_ij_max",
    "weighted_surface_energy_EV_PER_ANG2",
    "weighted_surface_energy",
    "weighted_work_function",
    "surface_anisotropy",
    "shape_factor",
    "has_reconstructed",
    "possible_species",
    "has_props",
    "theoretical",
    "database_IDs"
  ]
}
