{"builder_meta": null, "nsites": null, "elements": null, "nelements": null, "composition": null, "composition_reduced": null, "formula_pretty": "CrNi2", "formula_anonymous": "AB2", "chemsys": null, "volume": 31.7966211933915, "density": 8.845811665123044, "density_atomic": 10.5988737311305, "symmetry": null, "property_name": null, "material_id": "mp-784631", "deprecated": null, "deprecation_reasons": null, "last_updated": null, "origins": null, "warnings": null, "structure": {"@module": "pymatgen.core.structure", "@class": "Structure", "charge": 0, "lattice": {"matrix": [[-1.22427981, 1.76621008, 3.67618988], [1.22427981, -1.76621008, 3.67618988], [1.22427981, 1.76621008, -3.67618988]], "pbc": [true, true, true], "a": 4.25825447028259, "b": 4.25825447028259, "c": 4.25825447028259, "alpha": 146.58242331361123, "beta": 130.98992345481966, "gamma": 60.619629903721616, "volume": 31.796621193391495}, "properties": {}, "sites": [{"species": [{"element": "Cr", "occu": 1}], "abc": [-0.0, -0.0, 0.0], "properties": {"magmom": 0.437}, "label": "Cr", "xyz": [0.0, 0.0, 0.0]}, {"species": [{"element": "Ni", "occu": 1}], "abc": [0.66655583, 0.66655583, -0.0], "properties": {"magmom": -0.008}, "label": "Ni", "xyz": [0.0, 0.0, 4.900771593402]}, {"species": [{"element": "Ni", "occu": 1}], "abc": [0.33344417, 0.33344417, 0.0], "properties": {"magmom": -0.008}, "label": "Ni", "xyz": [0.0, 0.0, 2.451608166597999]}]}, "task_ids": null, "uncorrected_energy_per_atom": null, "energy_per_atom": -12.90066773, "formation_energy_per_atom": 0.111591173333332, "energy_above_hull": 0.111591173333332, "is_stable": false, "equilibrium_reaction_energy_per_atom": null, "decomposes_to": null, "xas": null, "grain_boundaries": null, "band_gap": 0.0, "cbm": null, "vbm": null, "efermi": 8.0020981, "is_gap_direct": null, "is_metal": null, "es_source_calc_id": null, "bandstructure": null, "dos": null, "dos_energy_up": null, "dos_energy_down": null, "is_magnetic": null, "ordering": null, "total_magnetization": 0.4049827, "total_magnetization_normalized_vol": null, "total_magnetization_normalized_formula_units": null, "num_magnetic_sites": null, "num_unique_magnetic_sites": null, "types_of_magnetic_species": null, "bulk_modulus": null, "shear_modulus": null, "universal_anisotropy": null, "homogeneous_poisson": null, "e_total": null, "e_ionic": null, "e_electronic": null, "n": null, "e_ij_max": null, "weighted_surface_energy_EV_PER_ANG2": null, "weighted_surface_energy": null, "weighted_work_function": null, "surface_anisotropy": null, "shape_factor": null, "has_reconstructed": null, "possible_species": null, "has_props": null, "theoretical": null, "database_IDs": null, "fields_not_requested": ["builder_meta", "nsites", "elements", "nelements", "composition", "composition_reduced", "chemsys", "symmetry", "property_name", "deprecated", "deprecation_reasons", "last_updated", "origins", "warnings", "task_ids", "uncorrected_energy_per_atom", "equilibrium_reaction_energy_per_atom", "decomposes_to", "xas", "grain_boundaries", "cbm", "vbm", "is_gap_direct", "is_metal", "es_source_calc_id", "bandstructure", "dos", "dos_energy_up", "dos_energy_down", "is_magnetic", "ordering", "total_magnetization_normalized_vol", "total_magnetization_normalized_formula_units", "num_magnetic_sites", "num_unique_magnetic_sites", "types_of_magnetic_species", "bulk_modulus", "shear_modulus", "universal_anisotropy", "homogeneous_poisson", "e_total", "e_ionic", "e_electronic", "n", "e_ij_max", "weighted_surface_energy_EV_PER_ANG2", "weighted_surface_energy", "weighted_work_function", "surface_anisotropy", "shape_factor", "has_reconstructed", "possible_species", "has_props", "theoretical", "database_IDs"]}