{
  "builder_meta": null,
  "nsites": null,
  "elements": null,
  "nelements": null,
  "composition": null,
  "composition_reduced": null,
  "formula_pretty": "CrO",
  "formula_anonymous": "AB",
  "chemsys": null,
  "volume": 94.07361691322753,
  "density": 4.800886276421006,
  "density_atomic": 11.75920211415344,
  "symmetry": null,
  "property_name": null,
  "material_id": "mp-755073",
  "deprecated": null,
  "deprecation_reasons": null,
  "last_updated": null,
  "origins": null,
  "warnings": null,
  "structure": {
    "@module": "pymatgen.core.structure",
    "@class": "Structure",
    "charge": 0,
    "lattice": {
      "matrix": [
        [-2.00506438, 3.47319609, 1.28375502],
        [0.81238946, -1.40714385, 5.03445018],
        [3.65721708, 2.11167437, 3.4630000000000006e-5]
      ],
      "pbc": [true, true, true],
      "a": 4.2108670364796925,
      "b": 5.290153028430647,
      "c": 4.22308008642482,
      "alpha": 90.00043765758855,
      "beta": 89.99565702430642,
      "gamma": 90.1367802552046,
      "volume": 94.07361691322753
    },
    "properties": {},
    "sites": [
      {
        "species": [{ "element": "Cr", "occu": 1 }],
        "abc": [0.40011579, 0.90003658, 0.50019806],
        "properties": { "magmom": 3.29 },
        "label": "Cr",
        "xyz": [1.7582552012167516, 1.1794550822789505, 5.044857298040168]
      },
      {
        "species": [{ "element": "Cr", "occu": 1 }],
        "abc": [0.40011421, 0.40003647000000003, -0.00019979],
        "properties": { "magmom": 3.29 },
        "label": "Cr",
        "xyz": [-0.47800001395964675, 0.8263443597668472, 2.527612297140171]
      },
      {
        "species": [{ "element": "Cr", "occu": 1 }],
        "abc": [0.900115599999999, 0.9000366, 1.00019842],
        "properties": { "magmom": 3.29 },
        "label": "Cr",
        "xyz": [2.5843332650249238, 3.9718903844315863, 5.686751979828184]
      },
      {
        "species": [{ "element": "Cr", "occu": 1 }],
        "abc": [0.9001135100000001, 0.40003653, 0.49979949999999906],
        "properties": { "magmom": 3.29 },
        "label": "Cr",
        "xyz": [0.3480751917046565, 3.6187755748121484, 3.1695065255540813]
      },
      {
        "species": [{ "element": "O", "occu": 1 }],
        "abc": [0.64993787, 0.14999664000000001, 0.24902937],
        "properties": { "magmom": 0.015 },
        "label": "O",
        "xyz": [-0.2705571175930166, 2.5721637573365115, 1.589520238435086]
      },
      {
        "species": [{ "element": "O", "occu": 1 }],
        "abc": [0.14993753, 0.14999643000000001, 0.74902954],
        "properties": { "magmom": 0.015 },
        "label": "O",
        "xyz": [2.5605847452539896, 1.8914023709346919, 0.9476585497297284]
      },
      {
        "species": [{ "element": "O", "occu": 1 }],
        "abc": [0.6499348500000001, 0.6499298, 0.25097244],
        "properties": { "magmom": 0.015 },
        "label": "O",
        "xyz": [0.14269559638154028, 1.8727785278973694, 4.106405016133408]
      },
      {
        "species": [{ "element": "O", "occu": 1 }],
        "abc": [0.14993464, 0.64992996, 0.7509724600000001],
        "properties": { "magmom": 0.015 },
        "label": "O",
        "xyz": [2.973836950571716, 1.1920167556166619, 3.4645453570575757]
      }
    ]
  },
  "task_ids": null,
  "uncorrected_energy_per_atom": null,
  "energy_per_atom": -9.2675932175,
  "formation_energy_per_atom": -1.967088979999999,
  "energy_above_hull": 0.005067494166667,
  "is_stable": false,
  "equilibrium_reaction_energy_per_atom": null,
  "decomposes_to": null,
  "xas": null,
  "grain_boundaries": null,
  "band_gap": 0.0,
  "cbm": null,
  "vbm": null,
  "efermi": 3.80229717,
  "is_gap_direct": null,
  "is_metal": null,
  "es_source_calc_id": null,
  "bandstructure": null,
  "dos": null,
  "dos_energy_up": null,
  "dos_energy_down": null,
  "is_magnetic": null,
  "ordering": null,
  "total_magnetization": 14.2414555,
  "total_magnetization_normalized_vol": null,
  "total_magnetization_normalized_formula_units": null,
  "num_magnetic_sites": null,
  "num_unique_magnetic_sites": null,
  "types_of_magnetic_species": null,
  "bulk_modulus": null,
  "shear_modulus": null,
  "universal_anisotropy": null,
  "homogeneous_poisson": null,
  "e_total": null,
  "e_ionic": null,
  "e_electronic": null,
  "n": null,
  "e_ij_max": null,
  "weighted_surface_energy_EV_PER_ANG2": null,
  "weighted_surface_energy": null,
  "weighted_work_function": null,
  "surface_anisotropy": null,
  "shape_factor": null,
  "has_reconstructed": null,
  "possible_species": null,
  "has_props": null,
  "theoretical": null,
  "database_IDs": null,
  "fields_not_requested": [
    "builder_meta",
    "nsites",
    "elements",
    "nelements",
    "composition",
    "composition_reduced",
    "chemsys",
    "symmetry",
    "property_name",
    "deprecated",
    "deprecation_reasons",
    "last_updated",
    "origins",
    "warnings",
    "task_ids",
    "uncorrected_energy_per_atom",
    "equilibrium_reaction_energy_per_atom",
    "decomposes_to",
    "xas",
    "grain_boundaries",
    "cbm",
    "vbm",
    "is_gap_direct",
    "is_metal",
    "es_source_calc_id",
    "bandstructure",
    "dos",
    "dos_energy_up",
    "dos_energy_down",
    "is_magnetic",
    "ordering",
    "total_magnetization_normalized_vol",
    "total_magnetization_normalized_formula_units",
    "num_magnetic_sites",
    "num_unique_magnetic_sites",
    "types_of_magnetic_species",
    "bulk_modulus",
    "shear_modulus",
    "universal_anisotropy",
    "homogeneous_poisson",
    "e_total",
    "e_ionic",
    "e_electronic",
    "n",
    "e_ij_max",
    "weighted_surface_energy_EV_PER_ANG2",
    "weighted_surface_energy",
    "weighted_work_function",
    "surface_anisotropy",
    "shape_factor",
    "has_reconstructed",
    "possible_species",
    "has_props",
    "theoretical",
    "database_IDs"
  ]
}
