{
  "builder_meta": null,
  "nsites": null,
  "elements": null,
  "nelements": null,
  "composition": null,
  "composition_reduced": null,
  "formula_pretty": "CrO2",
  "formula_anonymous": "AB2",
  "chemsys": null,
  "volume": 56.64882570127859,
  "density": 4.924261398838221,
  "density_atomic": 9.441470950213098,
  "symmetry": null,
  "property_name": null,
  "material_id": "mp-19177",
  "deprecated": null,
  "deprecation_reasons": null,
  "last_updated": null,
  "origins": null,
  "warnings": null,
  "structure": {
    "@module": "pymatgen.core.structure",
    "@class": "Structure",
    "charge": 0,
    "lattice": {
      "matrix": [
        [2.91388854, 0.0, 0.0],
        [0.0, 4.40919177, -3.8520000000000004e-5],
        [0.0, -3.8520000000000004e-5, 4.40919177]
      ],
      "pbc": [true, true, true],
      "a": 2.91388854,
      "b": 4.409191770168261,
      "c": 4.409191770168261,
      "alpha": 90.00100110566376,
      "beta": 90.0,
      "gamma": 90.0,
      "volume": 56.64882570127859
    },
    "properties": {},
    "sites": [
      {
        "species": [{ "element": "Cr", "occu": 1 }],
        "abc": [0.500001, 0.500001, 0.500001],
        "properties": { "magmom": 2.357 },
        "label": "Cr",
        "xyz": [1.45694718388854, 2.2045810341532497, 2.2045810341532497]
      },
      {
        "species": [{ "element": "Cr", "occu": 1 }],
        "abc": [-0.0, 0.0, 0.0],
        "properties": { "magmom": 2.356 },
        "label": "Cr",
        "xyz": [0.0, 0.0, 0.0]
      },
      {
        "species": [{ "element": "O", "occu": 1 }],
        "abc": [-0.0, 0.69725751, 0.69725751],
        "properties": { "magmom": -0.126 },
        "label": "O",
        "xyz": [0.0, 3.0743152163034075, 3.0743152163034075]
      },
      {
        "species": [{ "element": "O", "occu": 1 }],
        "abc": [0.500001, 0.80277488, 0.19722412],
        "properties": { "magmom": -0.126 },
        "label": "O",
        "xyz": [1.45694718388854, 3.5395807969856348, 0.8695680438611147]
      },
      {
        "species": [{ "element": "O", "occu": 1 }],
        "abc": [0.0, 0.30274349, 0.30274349],
        "properties": { "magmom": -0.126 },
        "label": "O",
        "xyz": [0.0, 1.3348424428498424, 1.3348424428498424]
      },
      {
        "species": [{ "element": "O", "occu": 1 }],
        "abc": [0.500001, 0.19722412, 0.80277488],
        "properties": { "magmom": -0.126 },
        "label": "O",
        "xyz": [1.45694718388854, 0.8695680438611147, 3.5395807969856348]
      }
    ]
  },
  "task_ids": null,
  "uncorrected_energy_per_atom": null,
  "energy_per_atom": -8.56402402166665,
  "formation_energy_per_atom": -2.04770086166665,
  "energy_above_hull": 0.0,
  "is_stable": true,
  "equilibrium_reaction_energy_per_atom": null,
  "decomposes_to": null,
  "xas": null,
  "grain_boundaries": null,
  "band_gap": 0.041999999999999,
  "cbm": null,
  "vbm": null,
  "efermi": 3.07056539,
  "is_gap_direct": null,
  "is_metal": null,
  "es_source_calc_id": null,
  "bandstructure": null,
  "dos": null,
  "dos_energy_up": null,
  "dos_energy_down": null,
  "is_magnetic": null,
  "ordering": null,
  "total_magnetization": 4.0000004,
  "total_magnetization_normalized_vol": null,
  "total_magnetization_normalized_formula_units": null,
  "num_magnetic_sites": null,
  "num_unique_magnetic_sites": null,
  "types_of_magnetic_species": null,
  "bulk_modulus": null,
  "shear_modulus": null,
  "universal_anisotropy": null,
  "homogeneous_poisson": null,
  "e_total": null,
  "e_ionic": null,
  "e_electronic": null,
  "n": null,
  "e_ij_max": null,
  "weighted_surface_energy_EV_PER_ANG2": null,
  "weighted_surface_energy": null,
  "weighted_work_function": null,
  "surface_anisotropy": null,
  "shape_factor": null,
  "has_reconstructed": null,
  "possible_species": null,
  "has_props": null,
  "theoretical": null,
  "database_IDs": null,
  "fields_not_requested": [
    "builder_meta",
    "nsites",
    "elements",
    "nelements",
    "composition",
    "composition_reduced",
    "chemsys",
    "symmetry",
    "property_name",
    "deprecated",
    "deprecation_reasons",
    "last_updated",
    "origins",
    "warnings",
    "task_ids",
    "uncorrected_energy_per_atom",
    "equilibrium_reaction_energy_per_atom",
    "decomposes_to",
    "xas",
    "grain_boundaries",
    "cbm",
    "vbm",
    "is_gap_direct",
    "is_metal",
    "es_source_calc_id",
    "bandstructure",
    "dos",
    "dos_energy_up",
    "dos_energy_down",
    "is_magnetic",
    "ordering",
    "total_magnetization_normalized_vol",
    "total_magnetization_normalized_formula_units",
    "num_magnetic_sites",
    "num_unique_magnetic_sites",
    "types_of_magnetic_species",
    "bulk_modulus",
    "shear_modulus",
    "universal_anisotropy",
    "homogeneous_poisson",
    "e_total",
    "e_ionic",
    "e_electronic",
    "n",
    "e_ij_max",
    "weighted_surface_energy_EV_PER_ANG2",
    "weighted_surface_energy",
    "weighted_work_function",
    "surface_anisotropy",
    "shape_factor",
    "has_reconstructed",
    "possible_species",
    "has_props",
    "theoretical",
    "database_IDs"
  ]
}
