{"builder_meta": null, "nsites": null, "elements": null, "nelements": null, "composition": null, "composition_reduced": null, "formula_pretty": "CrO3", "formula_anonymous": "AB3", "chemsys": null, "volume": 115.10670088636584, "density": 2.885052569636943, "density_atomic": 14.38833761079573, "symmetry": null, "property_name": null, "material_id": "mp-510421", "deprecated": null, "deprecation_reasons": null, "last_updated": null, "origins": null, "warnings": null, "structure": {"@module": "pymatgen.core.structure", "@class": "Structure", "charge": 0, "lattice": {"matrix": [[4.71687202, 0.00399559, 0.0], [-2.35483288, 4.27547712, 0.0], [0.0, 0.0, 5.70504865]], "pbc": [true, true, true], "a": 4.716873712301224, "b": 4.8810800542884545, "c": 5.70504865, "alpha": 90.0, "beta": 90.0, "gamma": 118.79641141683062, "volume": 115.10670088636584}, "properties": {}, "sites": [{"species": [{"element": "Cr", "occu": 1}], "abc": [0.59026076, 0.19721755, 0.25], "properties": {"magmom": -0.0}, "label": "Cr", "xyz": [2.319770092094892, 0.8455575626775043, 1.4262621625]}, {"species": [{"element": "Cr", "occu": 1}], "abc": [0.39335096, 0.8029469, 0.75], "properties": {"magmom": 0.0}, "label": "Cr", "xyz": [-0.03541962374993268, 3.434552768687194, 4.2787864875]}, {"species": [{"element": "O", "occu": 1}], "abc": [0.7159787, 0.78197229, 0.75], "properties": {"magmom": -0.0}, "label": "O", "xyz": [1.5357658372050786, 3.3461653917029377, 4.2787864875]}, {"species": [{"element": "O", "occu": 1}], "abc": [0.09763957000000001, 0.46047082, 0.75], "properties": {"magmom": 0.0}, "label": "O", "xyz": [-0.6237784714387302, 1.9691225830271344, 4.2787864875]}, {"species": [{"element": "O", "occu": 1}], "abc": [0.63689256, 0.54006001, 0.25], "properties": {"magmom": 0.0}, "label": "O", "xyz": [1.7323896272890429, 2.311558977725782, 1.4262621625]}, {"species": [{"element": "O", "occu": 1}], "abc": [0.93320636, 0.216884599999999, 0.25], "properties": {"magmom": 0.0}, "label": "O", "xyz": [3.8910879811244015, 0.9310138549803002, 1.4262621625]}, {"species": [{"element": "O", "occu": 1}], "abc": [0.37533504, 0.00022392, 2.27e-06], "properties": {"magmom": -0.0}, "label": "O", "xyz": [1.7698800541230915, 0.002457049769184, 1.2950460435499999e-05]}, {"species": [{"element": "O", "occu": 1}], "abc": [0.37533504, 0.00022392, 0.49999773000000003], "properties": {"magmom": -0.0}, "label": "O", "xyz": [1.7698800541230915, 0.002457049769184, 2.852511374539565]}]}, "task_ids": null, "uncorrected_energy_per_atom": null, "energy_per_atom": -7.63543999875, "formation_energy_per_atom": -1.5112073775, "energy_above_hull": 0.0461691845, "is_stable": false, "equilibrium_reaction_energy_per_atom": null, "decomposes_to": null, "xas": null, "grain_boundaries": null, "band_gap": 2.2699, "cbm": null, "vbm": null, "efermi": -2.07815605, "is_gap_direct": null, "is_metal": null, "es_source_calc_id": null, "bandstructure": null, "dos": null, "dos_energy_up": null, "dos_energy_down": null, "is_magnetic": null, "ordering": null, "total_magnetization": 0.0, "total_magnetization_normalized_vol": null, "total_magnetization_normalized_formula_units": null, "num_magnetic_sites": null, "num_unique_magnetic_sites": null, "types_of_magnetic_species": null, "bulk_modulus": null, "shear_modulus": null, "universal_anisotropy": null, "homogeneous_poisson": null, "e_total": null, "e_ionic": null, "e_electronic": null, "n": null, "e_ij_max": null, "weighted_surface_energy_EV_PER_ANG2": null, "weighted_surface_energy": null, "weighted_work_function": null, "surface_anisotropy": null, "shape_factor": null, "has_reconstructed": null, "possible_species": null, "has_props": null, "theoretical": null, "database_IDs": null, "fields_not_requested": ["builder_meta", "nsites", "elements", "nelements", "composition", "composition_reduced", "chemsys", "symmetry", "property_name", "deprecated", "deprecation_reasons", "last_updated", "origins", "warnings", "task_ids", "uncorrected_energy_per_atom", "equilibrium_reaction_energy_per_atom", "decomposes_to", "xas", "grain_boundaries", "cbm", "vbm", "is_gap_direct", "is_metal", "es_source_calc_id", "bandstructure", "dos", "dos_energy_up", "dos_energy_down", "is_magnetic", "ordering", "total_magnetization_normalized_vol", "total_magnetization_normalized_formula_units", "num_magnetic_sites", "num_unique_magnetic_sites", "types_of_magnetic_species", "bulk_modulus", "shear_modulus", "universal_anisotropy", "homogeneous_poisson", "e_total", "e_ionic", "e_electronic", "n", "e_ij_max", "weighted_surface_energy_EV_PER_ANG2", "weighted_surface_energy", "weighted_work_function", "surface_anisotropy", "shape_factor", "has_reconstructed", "possible_species", "has_props", "theoretical", "database_IDs"]}