{"builder_meta": null, "nsites": null, "elements": null, "nelements": null, "composition": null, "composition_reduced": null, "formula_pretty": "CrP", "formula_anonymous": "AB", "chemsys": null, "volume": 95.65654587486888, "density": 5.761224009975769, "density_atomic": 11.95706823435861, "symmetry": null, "property_name": null, "material_id": "mp-21048", "deprecated": null, "deprecation_reasons": null, "last_updated": null, "origins": null, "warnings": null, "structure": {"@module": "pymatgen.core.structure", "@class": "Structure", "charge": 0, "lattice": {"matrix": [[3.05751337, -0.0, 0.0], [0.0, 5.3143109, 6.03e-06], [0.0, 6.089999999999998e-06, 5.88707233]], "pbc": [true, true, true], "a": 3.05751337, "b": 5.314310900003421, "c": 5.88707233000315, "alpha": 89.99987571731305, "beta": 90.0, "gamma": 90.0, "volume": 95.65654587486888}, "properties": {}, "sites": [{"species": [{"element": "Cr", "occu": 1}], "abc": [0.25, 0.50892305, 0.3112256], "properties": {"magmom": 0.0}, "label": "Cr", "xyz": [0.7643783425, 2.704577207240149, 1.8322106869536394]}, {"species": [{"element": "Cr", "occu": 1}], "abc": [0.75, 0.49107695, 0.6887744], "properties": {"magmom": 0.0}, "label": "Cr", "xyz": [2.2931350275, 2.6097397827598505, 4.05486767304636]}, {"species": [{"element": "Cr", "occu": 1}], "abc": [0.25, 0.00892405, 0.188775399999999], "properties": {"magmom": 0.0}, "label": "Cr", "xyz": [0.7643783425, 0.04742632582933099, 1.1113344877366975]}, {"species": [{"element": "Cr", "occu": 1}], "abc": [0.75, 0.99107595, 0.8112246], "properties": {"magmom": 0.0}, "label": "Cr", "xyz": [2.2931350275, 5.26689066417067, 4.775743872263296]}, {"species": [{"element": "P", "occu": 1}], "abc": [0.25, 0.68303908, 0.9337181600000001], "properties": {"magmom": -0.0}, "label": "P", "xyz": [0.7643783425, 3.629887714313566, 5.496870462480165]}, {"species": [{"element": "P", "occu": 1}], "abc": [0.75, 0.31696092, 0.06628184], "properties": {"magmom": -0.0}, "label": "P", "xyz": [2.2931350275, 1.6844292756864334, 0.39020789751983476]}, {"species": [{"element": "P", "occu": 1}], "abc": [0.25, 0.18303808, 0.56628084], "properties": {"magmom": -0.0}, "label": "P", "xyz": [0.7643783425, 0.9727247123093875, 3.3337373678927795]}, {"species": [{"element": "P", "occu": 1}], "abc": [0.75, 0.81696192, 0.43371916], "properties": {"magmom": -0.0}, "label": "P", "xyz": [2.2931350275, 4.341592277690612, 2.55334099210722]}]}, "task_ids": null, "uncorrected_energy_per_atom": null, "energy_per_atom": -12.44451068375, "formation_energy_per_atom": -0.40680133273809405, "energy_above_hull": 0.0, "is_stable": true, "equilibrium_reaction_energy_per_atom": null, "decomposes_to": null, "xas": null, "grain_boundaries": null, "band_gap": 0.0, "cbm": null, "vbm": null, "efermi": 9.26953995, "is_gap_direct": null, "is_metal": null, "es_source_calc_id": null, "bandstructure": null, "dos": null, "dos_energy_up": null, "dos_energy_down": null, "is_magnetic": null, "ordering": null, "total_magnetization": 8.250000000000004e-05, "total_magnetization_normalized_vol": null, "total_magnetization_normalized_formula_units": null, "num_magnetic_sites": null, "num_unique_magnetic_sites": null, "types_of_magnetic_species": null, "bulk_modulus": null, "shear_modulus": null, "universal_anisotropy": null, "homogeneous_poisson": null, "e_total": null, "e_ionic": null, "e_electronic": null, "n": null, "e_ij_max": null, "weighted_surface_energy_EV_PER_ANG2": null, "weighted_surface_energy": null, "weighted_work_function": null, "surface_anisotropy": null, "shape_factor": null, "has_reconstructed": null, "possible_species": null, "has_props": null, "theoretical": null, "database_IDs": null, "fields_not_requested": ["builder_meta", "nsites", "elements", "nelements", "composition", "composition_reduced", "chemsys", "symmetry", "property_name", "deprecated", "deprecation_reasons", "last_updated", "origins", "warnings", "task_ids", "uncorrected_energy_per_atom", "equilibrium_reaction_energy_per_atom", "decomposes_to", "xas", "grain_boundaries", "cbm", "vbm", "is_gap_direct", "is_metal", "es_source_calc_id", "bandstructure", "dos", "dos_energy_up", "dos_energy_down", "is_magnetic", "ordering", "total_magnetization_normalized_vol", "total_magnetization_normalized_formula_units", "num_magnetic_sites", "num_unique_magnetic_sites", "types_of_magnetic_species", "bulk_modulus", "shear_modulus", "universal_anisotropy", "homogeneous_poisson", "e_total", "e_ionic", "e_electronic", "n", "e_ij_max", "weighted_surface_energy_EV_PER_ANG2", "weighted_surface_energy", "weighted_work_function", "surface_anisotropy", "shape_factor", "has_reconstructed", "possible_species", "has_props", "theoretical", "database_IDs"]}