{
  "builder_meta": null,
  "nsites": null,
  "elements": null,
  "nelements": null,
  "composition": null,
  "composition_reduced": null,
  "formula_pretty": "CrP2",
  "formula_anonymous": "AB2",
  "chemsys": null,
  "volume": 74.9798194776809,
  "density": 5.046900362258206,
  "density_atomic": 12.496636579613485,
  "symmetry": null,
  "property_name": null,
  "material_id": "mp-7291",
  "deprecated": null,
  "deprecation_reasons": null,
  "last_updated": null,
  "origins": null,
  "warnings": null,
  "structure": {
    "@module": "pymatgen.core.structure",
    "@class": "Structure",
    "charge": 0,
    "lattice": {
      "matrix": [
        [2.91963028, -0.0, 0.71320584],
        [1.36527882, 4.04259949, 0.74359703],
        [-0.00445321, -0.00737392, 6.35082711]
      ],
      "pbc": [true, true, true],
      "a": 3.0054789205886943,
      "b": 4.3312277053872,
      "c": 6.350832952210791,
      "alpha": 80.19021250115885,
      "beta": 76.31283480275472,
      "gamma": 69.6988630350523,
      "volume": 74.9798194776809
    },
    "properties": {},
    "sites": [
      {
        "species": [{ "element": "Cr", "occu": 1 }],
        "abc": [0.84209247, 0.6109760200000001, 0.70483904],
        "properties": { "magmom": 0.0 },
        "label": "Cr",
        "xyz": [3.2896124973445695, 2.4647339201603935, 5.531216104715619]
      },
      {
        "species": [{ "element": "Cr", "occu": 1 }],
        "abc": [0.15790753, 0.38902398, 0.29516096],
        "properties": { "magmom": 0.0 },
        "label": "Cr",
        "xyz": [0.9908433926554303, 1.5704916498396069, 2.2764138752843803]
      },
      {
        "species": [{ "element": "P", "occu": 1 }],
        "abc": [0.14450105, 0.73991614, 0.9710837600000001],
        "properties": { "magmom": 0.0 },
        "label": "P",
        "xyz": [1.4277570356790794, 2.9840239162472297, 6.82044350598793]
      },
      {
        "species": [{ "element": "P", "occu": 1 }],
        "abc": [0.85549895, 0.26008386, 0.02891624],
        "properties": { "magmom": 0.0 },
        "label": "P",
        "xyz": [2.8526988543209204, 1.0512016537527704, 0.9871864740120702]
      },
      {
        "species": [{ "element": "P", "occu": 1 }],
        "abc": [0.39864935, 0.798962899999999, 0.4037384],
        "properties": { "magmom": 0.0 },
        "label": "P",
        "xyz": [2.2529179068178307, 3.226909877406389, 3.442498260120414]
      },
      {
        "species": [{ "element": "P", "occu": 1 }],
        "abc": [0.60135065, 0.2010371, 0.5962616],
        "properties": { "magmom": 0.0 },
        "label": "P",
        "xyz": [2.027537983182168, 0.8083156925936069, 4.365131719879584]
      }
    ]
  },
  "task_ids": null,
  "uncorrected_energy_per_atom": null,
  "energy_per_atom": -11.351907881666667,
  "formation_energy_per_atom": -0.32607621031745904,
  "energy_above_hull": 0.001482781666666,
  "is_stable": false,
  "equilibrium_reaction_energy_per_atom": null,
  "decomposes_to": null,
  "xas": null,
  "grain_boundaries": null,
  "band_gap": 0.0,
  "cbm": null,
  "vbm": null,
  "efermi": 9.72982348,
  "is_gap_direct": null,
  "is_metal": null,
  "es_source_calc_id": null,
  "bandstructure": null,
  "dos": null,
  "dos_energy_up": null,
  "dos_energy_down": null,
  "is_magnetic": null,
  "ordering": null,
  "total_magnetization": 0.0,
  "total_magnetization_normalized_vol": null,
  "total_magnetization_normalized_formula_units": null,
  "num_magnetic_sites": null,
  "num_unique_magnetic_sites": null,
  "types_of_magnetic_species": null,
  "bulk_modulus": null,
  "shear_modulus": null,
  "universal_anisotropy": null,
  "homogeneous_poisson": null,
  "e_total": null,
  "e_ionic": null,
  "e_electronic": null,
  "n": null,
  "e_ij_max": null,
  "weighted_surface_energy_EV_PER_ANG2": null,
  "weighted_surface_energy": null,
  "weighted_work_function": null,
  "surface_anisotropy": null,
  "shape_factor": null,
  "has_reconstructed": null,
  "possible_species": null,
  "has_props": null,
  "theoretical": null,
  "database_IDs": null,
  "fields_not_requested": [
    "builder_meta",
    "nsites",
    "elements",
    "nelements",
    "composition",
    "composition_reduced",
    "chemsys",
    "symmetry",
    "property_name",
    "deprecated",
    "deprecation_reasons",
    "last_updated",
    "origins",
    "warnings",
    "task_ids",
    "uncorrected_energy_per_atom",
    "equilibrium_reaction_energy_per_atom",
    "decomposes_to",
    "xas",
    "grain_boundaries",
    "cbm",
    "vbm",
    "is_gap_direct",
    "is_metal",
    "es_source_calc_id",
    "bandstructure",
    "dos",
    "dos_energy_up",
    "dos_energy_down",
    "is_magnetic",
    "ordering",
    "total_magnetization_normalized_vol",
    "total_magnetization_normalized_formula_units",
    "num_magnetic_sites",
    "num_unique_magnetic_sites",
    "types_of_magnetic_species",
    "bulk_modulus",
    "shear_modulus",
    "universal_anisotropy",
    "homogeneous_poisson",
    "e_total",
    "e_ionic",
    "e_electronic",
    "n",
    "e_ij_max",
    "weighted_surface_energy_EV_PER_ANG2",
    "weighted_surface_energy",
    "weighted_work_function",
    "surface_anisotropy",
    "shape_factor",
    "has_reconstructed",
    "possible_species",
    "has_props",
    "theoretical",
    "database_IDs"
  ]
}
