{
  "builder_meta": null,
  "nsites": null,
  "elements": null,
  "nelements": null,
  "composition": null,
  "composition_reduced": null,
  "formula_pretty": "CrP4",
  "formula_anonymous": "AB4",
  "chemsys": null,
  "volume": 148.26998443214006,
  "density": 3.939760617656209,
  "density_atomic": 14.826998443214006,
  "symmetry": null,
  "property_name": null,
  "material_id": "mp-7302",
  "deprecated": null,
  "deprecation_reasons": null,
  "last_updated": null,
  "origins": null,
  "warnings": null,
  "structure": {
    "@module": "pymatgen.core.structure",
    "@class": "Structure",
    "charge": 0,
    "lattice": {
      "matrix": [
        [4.66040625, -0.0057874, 2.24805412],
        [1.82104467, 5.35589778, 0.87872278],
        [0.00648003, -0.0025420300000000002, 5.94076552]
      ],
      "pbc": [true, true, true],
      "a": 5.174279392870741,
      "b": 5.724857940947991,
      "c": 5.940769597983597,
      "alpha": 81.17372258491861,
      "beta": 64.18608647550886,
      "gamma": 69.38146532851424,
      "volume": 148.26998443214006
    },
    "properties": {},
    "sites": [
      {
        "species": [{ "element": "Cr", "occu": 1 }],
        "abc": [0.06106794, 0.25004487000000003, 0.87789761],
        "properties": { "magmom": 0.0 },
        "label": "Cr",
        "xyz": [0.7456330898746962, 1.3366296974758847, 5.572388008986459]
      },
      {
        "species": [{ "element": "Cr", "occu": 1 }],
        "abc": [0.9389320600000001, 0.74995513, 0.12210239],
        "properties": { "magmom": 0.0 },
        "label": "Cr",
        "xyz": [5.742297860125304, 4.010938652524116, 3.4951544110135417]
      },
      {
        "species": [{ "element": "P", "occu": 1 }],
        "abc": [0.49363718, 0.30974021, 0.56019143],
        "properties": { "magmom": -0.0 },
        "label": "P",
        "xyz": [2.868230614681699, 1.654656003879399, 4.709864806636659]
      },
      {
        "species": [{ "element": "P", "occu": 1 }],
        "abc": [0.94632209, 0.19023165, 0.56014752],
        "properties": { "magmom": 0.0 },
        "label": "P",
        "xyz": [4.760295487780893, 1.0119606156568053, 5.622249230533009]
      },
      {
        "species": [{ "element": "P", "occu": 1 }],
        "abc": [0.1840953, 0.32262259, 0.17712905],
        "properties": { "magmom": 0.0 },
        "label": "P",
        "xyz": [1.4466168362145917, 1.7264179130606587, 1.7496341696435922]
      },
      {
        "species": [{ "element": "P", "occu": 1 }],
        "abc": [0.63881025, 0.17754929, 0.17713123],
        "properties": { "magmom": 0.0 },
        "label": "P",
        "xyz": [3.301588285565184, 0.9467885248101294, 2.6443917238057457]
      },
      {
        "species": [{ "element": "P", "occu": 1 }],
        "abc": [0.815904699999999, 0.6773774100000001, 0.82287095],
        "properties": { "magmom": 0.0 },
        "label": "P",
        "xyz": [5.041314113785404, 3.6211504369393417, 7.317908250356405]
      },
      {
        "species": [{ "element": "P", "occu": 1 }],
        "abc": [0.36118975000000003, 0.82245071, 0.82286877],
        "properties": { "magmom": 0.0 },
        "label": "P",
        "xyz": [3.1863426644348167, 4.400779825189871, 6.423150696194254]
      },
      {
        "species": [{ "element": "P", "occu": 1 }],
        "abc": [0.05367791, 0.80976835, 0.43985248],
        "properties": { "magmom": 0.0 },
        "label": "P",
        "xyz": [1.7276354622191064, 4.335607734343195, 3.445293189466992]
      },
      {
        "species": [{ "element": "P", "occu": 1 }],
        "abc": [0.50636282, 0.69025979, 0.43980857],
        "properties": { "magmom": -0.0 },
        "label": "P",
        "xyz": [3.6197003353183015, 3.6929123461206017, 4.357677613363341]
      }
    ]
  },
  "task_ids": null,
  "uncorrected_energy_per_atom": null,
  "energy_per_atom": -10.480494647,
  "formation_energy_per_atom": -0.264165119380952,
  "energy_above_hull": 0.0,
  "is_stable": true,
  "equilibrium_reaction_energy_per_atom": null,
  "decomposes_to": null,
  "xas": null,
  "grain_boundaries": null,
  "band_gap": 0.0,
  "cbm": null,
  "vbm": null,
  "efermi": 8.47275225,
  "is_gap_direct": null,
  "is_metal": null,
  "es_source_calc_id": null,
  "bandstructure": null,
  "dos": null,
  "dos_energy_up": null,
  "dos_energy_down": null,
  "is_magnetic": null,
  "ordering": null,
  "total_magnetization": 0.0,
  "total_magnetization_normalized_vol": null,
  "total_magnetization_normalized_formula_units": null,
  "num_magnetic_sites": null,
  "num_unique_magnetic_sites": null,
  "types_of_magnetic_species": null,
  "bulk_modulus": null,
  "shear_modulus": null,
  "universal_anisotropy": null,
  "homogeneous_poisson": null,
  "e_total": null,
  "e_ionic": null,
  "e_electronic": null,
  "n": null,
  "e_ij_max": null,
  "weighted_surface_energy_EV_PER_ANG2": null,
  "weighted_surface_energy": null,
  "weighted_work_function": null,
  "surface_anisotropy": null,
  "shape_factor": null,
  "has_reconstructed": null,
  "possible_species": null,
  "has_props": null,
  "theoretical": null,
  "database_IDs": null,
  "fields_not_requested": [
    "builder_meta",
    "nsites",
    "elements",
    "nelements",
    "composition",
    "composition_reduced",
    "chemsys",
    "symmetry",
    "property_name",
    "deprecated",
    "deprecation_reasons",
    "last_updated",
    "origins",
    "warnings",
    "task_ids",
    "uncorrected_energy_per_atom",
    "equilibrium_reaction_energy_per_atom",
    "decomposes_to",
    "xas",
    "grain_boundaries",
    "cbm",
    "vbm",
    "is_gap_direct",
    "is_metal",
    "es_source_calc_id",
    "bandstructure",
    "dos",
    "dos_energy_up",
    "dos_energy_down",
    "is_magnetic",
    "ordering",
    "total_magnetization_normalized_vol",
    "total_magnetization_normalized_formula_units",
    "num_magnetic_sites",
    "num_unique_magnetic_sites",
    "types_of_magnetic_species",
    "bulk_modulus",
    "shear_modulus",
    "universal_anisotropy",
    "homogeneous_poisson",
    "e_total",
    "e_ionic",
    "e_electronic",
    "n",
    "e_ij_max",
    "weighted_surface_energy_EV_PER_ANG2",
    "weighted_surface_energy",
    "weighted_work_function",
    "surface_anisotropy",
    "shape_factor",
    "has_reconstructed",
    "possible_species",
    "has_props",
    "theoretical",
    "database_IDs"
  ]
}
