{"builder_meta": null, "nsites": null, "elements": null, "nelements": null, "composition": null, "composition_reduced": null, "formula_pretty": "CrPb2", "formula_anonymous": "AB2", "chemsys": null, "volume": 160.28441647395064, "density": 9.663683614379899, "density_atomic": 26.714069412325106, "symmetry": null, "property_name": null, "material_id": "mp-1072023", "deprecated": null, "deprecation_reasons": null, "last_updated": null, "origins": null, "warnings": null, "structure": {"@module": "pymatgen.core.structure", "@class": "Structure", "charge": 0, "lattice": {"matrix": [[2.492063, 5.731028, 0.0], [-2.492063, 5.731028, 0.0], [0.0, 3.1957, 5.611381]], "pbc": [true, true, true], "a": 6.249404766275985, "b": 6.249404766275985, "c": 6.457561088922117, "alpha": 63.01044441074717, "beta": 63.01044441074717, "gamma": 47.00237275102591, "volume": 160.28441647395064}, "properties": {}, "sites": [{"species": [{"element": "Cr", "occu": 1}], "abc": [0.826654999999999, 0.826654999999999, 0.60524], "properties": {"magmom": 3.836999999999999}, "label": "Cr", "xyz": [0.0, 11.40933137067999, 3.39623223644]}, {"species": [{"element": "Cr", "occu": 1}], "abc": [0.173345, 0.173345, 0.39476000000000006], "properties": {"magmom": 3.836999999999999}, "label": "Cr", "xyz": [0.0, 3.2484246293200005, 2.2151487635600002]}, {"species": [{"element": "Pb", "occu": 1}], "abc": [0.1756, 0.1756, 0.892212999999999], "properties": {"magmom": -0.012}, "label": "Pb", "xyz": [0.0, 4.863982117699997, 5.006547076152994]}, {"species": [{"element": "Pb", "occu": 1}], "abc": [0.8244, 0.8244, 0.107787], "properties": {"magmom": -0.012}, "label": "Pb", "xyz": [0.0, 9.7937738823, 0.604833923847]}, {"species": [{"element": "Pb", "occu": 1}], "abc": [0.534013, 0.534013, 0.709781], "properties": {"magmom": -0.033}, "label": "Pb", "xyz": [0.0, 8.389134052428, 3.982851617561]}, {"species": [{"element": "Pb", "occu": 1}], "abc": [0.465987, 0.465987, 0.290219], "properties": {"magmom": -0.033}, "label": "Pb", "xyz": [0.0, 6.268621947572, 1.628529382439]}]}, "task_ids": null, "uncorrected_energy_per_atom": null, "energy_per_atom": -42.040618105, "formation_energy_per_atom": 0.5072520983333291, "energy_above_hull": 0.5072520983333321, "is_stable": false, "equilibrium_reaction_energy_per_atom": null, "decomposes_to": null, "xas": null, "grain_boundaries": null, "band_gap": 0.0, "cbm": null, "vbm": null, "efermi": 6.25847716, "is_gap_direct": null, "is_metal": null, "es_source_calc_id": null, "bandstructure": null, "dos": null, "dos_energy_up": null, "dos_energy_down": null, "is_magnetic": null, "ordering": null, "total_magnetization": 8.4961725, "total_magnetization_normalized_vol": null, "total_magnetization_normalized_formula_units": null, "num_magnetic_sites": null, "num_unique_magnetic_sites": null, "types_of_magnetic_species": null, "bulk_modulus": null, "shear_modulus": null, "universal_anisotropy": null, "homogeneous_poisson": null, "e_total": null, "e_ionic": null, "e_electronic": null, "n": null, "e_ij_max": null, "weighted_surface_energy_EV_PER_ANG2": null, "weighted_surface_energy": null, "weighted_work_function": null, "surface_anisotropy": null, "shape_factor": null, "has_reconstructed": null, "possible_species": null, "has_props": null, "theoretical": null, "database_IDs": null, "fields_not_requested": ["builder_meta", "nsites", "elements", "nelements", "composition", "composition_reduced", "chemsys", "symmetry", "property_name", "deprecated", "deprecation_reasons", "last_updated", "origins", "warnings", "task_ids", "uncorrected_energy_per_atom", "equilibrium_reaction_energy_per_atom", "decomposes_to", "xas", "grain_boundaries", "cbm", "vbm", "is_gap_direct", "is_metal", "es_source_calc_id", "bandstructure", "dos", "dos_energy_up", "dos_energy_down", "is_magnetic", "ordering", "total_magnetization_normalized_vol", "total_magnetization_normalized_formula_units", "num_magnetic_sites", "num_unique_magnetic_sites", "types_of_magnetic_species", "bulk_modulus", "shear_modulus", "universal_anisotropy", "homogeneous_poisson", "e_total", "e_ionic", "e_electronic", "n", "e_ij_max", "weighted_surface_energy_EV_PER_ANG2", "weighted_surface_energy", "weighted_work_function", "surface_anisotropy", "shape_factor", "has_reconstructed", "possible_species", "has_props", "theoretical", "database_IDs"]}