{
  "builder_meta": null,
  "nsites": null,
  "elements": null,
  "nelements": null,
  "composition": null,
  "composition_reduced": null,
  "formula_pretty": "CrPt4",
  "formula_anonymous": "AB4",
  "chemsys": null,
  "volume": 75.17538801596963,
  "density": 18.385272160372644,
  "density_atomic": 15.035077603193926,
  "symmetry": null,
  "property_name": null,
  "material_id": "mp-1226207",
  "deprecated": null,
  "deprecation_reasons": null,
  "last_updated": null,
  "origins": null,
  "warnings": null,
  "structure": {
    "@module": "pymatgen.core.structure",
    "@class": "Structure",
    "charge": 0,
    "lattice": {
      "matrix": [
        [11.321199, -1.386245999999999, 0.0],
        [11.321199, 1.386245999999999, 0.0],
        [11.151458, 0.0, 2.395041]
      ],
      "pbc": [true, true, true],
      "a": 11.405754020235443,
      "b": 11.405754020235443,
      "c": 11.405754552744199,
      "alpha": 13.961882003143781,
      "beta": 13.961882003143781,
      "gamma": 13.96188280418872,
      "volume": 75.17538801596957
    },
    "properties": {},
    "sites": [
      {
        "species": [{ "element": "Cr", "occu": 1 }],
        "abc": [0.0, 0.0, 0.0],
        "properties": { "magmom": 1.2610000000000001 },
        "label": "Cr",
        "xyz": [0.0, 0.0, 0.0]
      },
      {
        "species": [{ "element": "Pt", "occu": 1 }],
        "abc": [0.605777999999999, 0.605777999999999, 0.605777999999999],
        "properties": { "magmom": 0.017 },
        "label": "Pt",
        "xyz": [20.471574499967968, 0.0, 1.4508631468979978]
      },
      {
        "species": [{ "element": "Pt", "occu": 1 }],
        "abc": [0.201625, 0.201625, 0.201625],
        "properties": { "magmom": 0.019 },
        "label": "Pt",
        "xyz": [6.813686216, 0.0, 0.482900141625]
      },
      {
        "species": [{ "element": "Pt", "occu": 1 }],
        "abc": [0.798375, 0.798375, 0.798375],
        "properties": { "magmom": 0.019 },
        "label": "Pt",
        "xyz": [26.980169783999997, 0.0, 1.912140858375]
      },
      {
        "species": [{ "element": "Pt", "occu": 1 }],
        "abc": [0.394221999999999, 0.394221999999999, 0.394221999999999],
        "properties": { "magmom": 0.017 },
        "label": "Pt",
        "xyz": [13.322281500031966, 0.0, 0.9441778531019976]
      }
    ]
  },
  "task_ids": null,
  "uncorrected_energy_per_atom": null,
  "energy_per_atom": -44.371908888,
  "formation_energy_per_atom": -0.16706689000000002,
  "energy_above_hull": 0.107068264000005,
  "is_stable": false,
  "equilibrium_reaction_energy_per_atom": null,
  "decomposes_to": null,
  "xas": null,
  "grain_boundaries": null,
  "band_gap": 0.0,
  "cbm": null,
  "vbm": null,
  "efermi": 7.17020851,
  "is_gap_direct": null,
  "is_metal": null,
  "es_source_calc_id": null,
  "bandstructure": null,
  "dos": null,
  "dos_energy_up": null,
  "dos_energy_down": null,
  "is_magnetic": null,
  "ordering": null,
  "total_magnetization": 1.4237844,
  "total_magnetization_normalized_vol": null,
  "total_magnetization_normalized_formula_units": null,
  "num_magnetic_sites": null,
  "num_unique_magnetic_sites": null,
  "types_of_magnetic_species": null,
  "bulk_modulus": null,
  "shear_modulus": null,
  "universal_anisotropy": null,
  "homogeneous_poisson": null,
  "e_total": null,
  "e_ionic": null,
  "e_electronic": null,
  "n": null,
  "e_ij_max": null,
  "weighted_surface_energy_EV_PER_ANG2": null,
  "weighted_surface_energy": null,
  "weighted_work_function": null,
  "surface_anisotropy": null,
  "shape_factor": null,
  "has_reconstructed": null,
  "possible_species": null,
  "has_props": null,
  "theoretical": null,
  "database_IDs": null,
  "fields_not_requested": [
    "builder_meta",
    "nsites",
    "elements",
    "nelements",
    "composition",
    "composition_reduced",
    "chemsys",
    "symmetry",
    "property_name",
    "deprecated",
    "deprecation_reasons",
    "last_updated",
    "origins",
    "warnings",
    "task_ids",
    "uncorrected_energy_per_atom",
    "equilibrium_reaction_energy_per_atom",
    "decomposes_to",
    "xas",
    "grain_boundaries",
    "cbm",
    "vbm",
    "is_gap_direct",
    "is_metal",
    "es_source_calc_id",
    "bandstructure",
    "dos",
    "dos_energy_up",
    "dos_energy_down",
    "is_magnetic",
    "ordering",
    "total_magnetization_normalized_vol",
    "total_magnetization_normalized_formula_units",
    "num_magnetic_sites",
    "num_unique_magnetic_sites",
    "types_of_magnetic_species",
    "bulk_modulus",
    "shear_modulus",
    "universal_anisotropy",
    "homogeneous_poisson",
    "e_total",
    "e_ionic",
    "e_electronic",
    "n",
    "e_ij_max",
    "weighted_surface_energy_EV_PER_ANG2",
    "weighted_surface_energy",
    "weighted_work_function",
    "surface_anisotropy",
    "shape_factor",
    "has_reconstructed",
    "possible_species",
    "has_props",
    "theoretical",
    "database_IDs"
  ]
}
