{
  "builder_meta": null,
  "nsites": null,
  "elements": null,
  "nelements": null,
  "composition": null,
  "composition_reduced": null,
  "formula_pretty": "CrS2",
  "formula_anonymous": "AB2",
  "chemsys": null,
  "volume": 53.14912501828691,
  "density": 3.628129825948234,
  "density_atomic": 17.716375006095635,
  "symmetry": null,
  "property_name": null,
  "material_id": "mp-755263",
  "deprecated": null,
  "deprecation_reasons": null,
  "last_updated": null,
  "origins": null,
  "warnings": null,
  "structure": {
    "@module": "pymatgen.core.structure",
    "@class": "Structure",
    "charge": 0,
    "lattice": {
      "matrix": [
        [1.67890049, -2.90797387, 1.8420000000000003e-5],
        [1.67889558, 2.9079714, -2.4670000000000003e-5],
        [-3.87e-6, -2.375e-5, 5.44316485]
      ],
      "pbc": [true, true, true],
      "a": 3.3578294900522145,
      "b": 3.3578248960257153,
      "c": 5.443164850053189,
      "alpha": 90.00065782555333,
      "beta": 89.99948955696948,
      "gamma": 120.00061321804107,
      "volume": 53.14912501828691
    },
    "properties": {},
    "sites": [
      {
        "species": [{ "element": "Cr", "occu": 1 }],
        "abc": [4.5e-7, 9.5e-7, -8.8e-7],
        "properties": { "magmom": 2.719999999999999 },
        "label": "Cr",
        "xyz": [2.3504594271e-6, 1.4540054885e-6, -4.7900002155e-6]
      },
      {
        "species": [{ "element": "S", "occu": 1 }],
        "abc": [0.333334099999999, 0.66666423, 0.24588567],
        "properties": { "magmom": -0.258 },
        "label": "S",
        "xyz": [1.678893461337268, 0.9693078216783951, 1.3383859294702671]
      },
      {
        "species": [{ "element": "S", "occu": 1 }],
        "abc": [0.66666545, 0.33333482000000003, 0.7541142],
        "properties": { "magmom": -0.258 },
        "label": "S",
        "xyz": [1.678896388207212, -0.9693354956598935, 4.104771962933449]
      }
    ]
  },
  "task_ids": null,
  "uncorrected_energy_per_atom": null,
  "energy_per_atom": -6.845135976666667,
  "formation_energy_per_atom": -0.868547108333332,
  "energy_above_hull": 0.0,
  "is_stable": true,
  "equilibrium_reaction_energy_per_atom": null,
  "decomposes_to": null,
  "xas": null,
  "grain_boundaries": null,
  "band_gap": 0.0,
  "cbm": null,
  "vbm": null,
  "efermi": 4.09055787,
  "is_gap_direct": null,
  "is_metal": null,
  "es_source_calc_id": null,
  "bandstructure": null,
  "dos": null,
  "dos_energy_up": null,
  "dos_energy_down": null,
  "is_magnetic": null,
  "ordering": null,
  "total_magnetization": 2.0934925,
  "total_magnetization_normalized_vol": null,
  "total_magnetization_normalized_formula_units": null,
  "num_magnetic_sites": null,
  "num_unique_magnetic_sites": null,
  "types_of_magnetic_species": null,
  "bulk_modulus": null,
  "shear_modulus": null,
  "universal_anisotropy": null,
  "homogeneous_poisson": null,
  "e_total": null,
  "e_ionic": null,
  "e_electronic": null,
  "n": null,
  "e_ij_max": null,
  "weighted_surface_energy_EV_PER_ANG2": null,
  "weighted_surface_energy": null,
  "weighted_work_function": null,
  "surface_anisotropy": null,
  "shape_factor": null,
  "has_reconstructed": null,
  "possible_species": null,
  "has_props": null,
  "theoretical": null,
  "database_IDs": null,
  "fields_not_requested": [
    "builder_meta",
    "nsites",
    "elements",
    "nelements",
    "composition",
    "composition_reduced",
    "chemsys",
    "symmetry",
    "property_name",
    "deprecated",
    "deprecation_reasons",
    "last_updated",
    "origins",
    "warnings",
    "task_ids",
    "uncorrected_energy_per_atom",
    "equilibrium_reaction_energy_per_atom",
    "decomposes_to",
    "xas",
    "grain_boundaries",
    "cbm",
    "vbm",
    "is_gap_direct",
    "is_metal",
    "es_source_calc_id",
    "bandstructure",
    "dos",
    "dos_energy_up",
    "dos_energy_down",
    "is_magnetic",
    "ordering",
    "total_magnetization_normalized_vol",
    "total_magnetization_normalized_formula_units",
    "num_magnetic_sites",
    "num_unique_magnetic_sites",
    "types_of_magnetic_species",
    "bulk_modulus",
    "shear_modulus",
    "universal_anisotropy",
    "homogeneous_poisson",
    "e_total",
    "e_ionic",
    "e_electronic",
    "n",
    "e_ij_max",
    "weighted_surface_energy_EV_PER_ANG2",
    "weighted_surface_energy",
    "weighted_work_function",
    "surface_anisotropy",
    "shape_factor",
    "has_reconstructed",
    "possible_species",
    "has_props",
    "theoretical",
    "database_IDs"
  ]
}
