{"builder_meta": null, "nsites": null, "elements": null, "nelements": null, "composition": null, "composition_reduced": null, "formula_pretty": "CrSb", "formula_anonymous": "AB", "chemsys": null, "volume": 82.33617992502029, "density": 7.008554255803608, "density_atomic": 20.584044981255072, "symmetry": null, "property_name": null, "material_id": "mp-1641", "deprecated": null, "deprecation_reasons": null, "last_updated": null, "origins": null, "warnings": null, "structure": {"@module": "pymatgen.core.structure", "@class": "Structure", "charge": 0, "lattice": {"matrix": [[-2.008784, -3.479315, 0.0], [-2.008784, 3.479315, 0.0], [0.0, 0.0, -5.89025]], "pbc": [true, true, true], "a": 4.017567177768282, "b": 4.017567177768282, "c": 5.89025, "alpha": 90.0, "beta": 90.0, "gamma": 119.9999864598619, "volume": 82.33617992502029}, "properties": {}, "sites": [{"species": [{"element": "Cr", "occu": 1}], "abc": [0.0, 0.0, 0.0], "properties": {"magmom": -2.87}, "label": "Cr", "xyz": [0.0, 0.0, 0.0]}, {"species": [{"element": "Cr", "occu": 1}], "abc": [0.0, 0.0, 0.5], "properties": {"magmom": -2.87}, "label": "Cr", "xyz": [0.0, 0.0, -2.945125]}, {"species": [{"element": "Sb", "occu": 1}], "abc": [0.333333, 0.666667, 0.75], "properties": {"magmom": 0.169}, "label": "Sb", "xyz": [-2.008784, 1.15977398621, -4.4176874999999995]}, {"species": [{"element": "Sb", "occu": 1}], "abc": [0.666667, 0.333333, 0.25], "properties": {"magmom": 0.169}, "label": "Sb", "xyz": [-2.008784, -1.15977398621, -1.4725625]}]}, "task_ids": null, "uncorrected_energy_per_atom": null, "energy_per_atom": -20.3968586975, "formation_energy_per_atom": -0.007029637500000001, "energy_above_hull": 0.027645343750002, "is_stable": false, "equilibrium_reaction_energy_per_atom": null, "decomposes_to": null, "xas": null, "grain_boundaries": null, "band_gap": 0.0, "cbm": null, "vbm": null, "efermi": 7.35969896, "is_gap_direct": null, "is_metal": null, "es_source_calc_id": null, "bandstructure": null, "dos": null, "dos_energy_up": null, "dos_energy_down": null, "is_magnetic": null, "ordering": null, "total_magnetization": 5.6954538, "total_magnetization_normalized_vol": null, "total_magnetization_normalized_formula_units": null, "num_magnetic_sites": null, "num_unique_magnetic_sites": null, "types_of_magnetic_species": null, "bulk_modulus": null, "shear_modulus": null, "universal_anisotropy": null, "homogeneous_poisson": null, "e_total": null, "e_ionic": null, "e_electronic": null, "n": null, "e_ij_max": null, "weighted_surface_energy_EV_PER_ANG2": null, "weighted_surface_energy": null, "weighted_work_function": null, "surface_anisotropy": null, "shape_factor": null, "has_reconstructed": null, "possible_species": null, "has_props": null, "theoretical": null, "database_IDs": null, "fields_not_requested": ["builder_meta", "nsites", "elements", "nelements", "composition", "composition_reduced", "chemsys", "symmetry", "property_name", "deprecated", "deprecation_reasons", "last_updated", "origins", "warnings", "task_ids", "uncorrected_energy_per_atom", "equilibrium_reaction_energy_per_atom", "decomposes_to", "xas", "grain_boundaries", "cbm", "vbm", "is_gap_direct", "is_metal", "es_source_calc_id", "bandstructure", "dos", "dos_energy_up", "dos_energy_down", "is_magnetic", "ordering", "total_magnetization_normalized_vol", "total_magnetization_normalized_formula_units", "num_magnetic_sites", "num_unique_magnetic_sites", "types_of_magnetic_species", "bulk_modulus", "shear_modulus", "universal_anisotropy", "homogeneous_poisson", "e_total", "e_ionic", "e_electronic", "n", "e_ij_max", "weighted_surface_energy_EV_PER_ANG2", "weighted_surface_energy", "weighted_work_function", "surface_anisotropy", "shape_factor", "has_reconstructed", "possible_species", "has_props", "theoretical", "database_IDs"]}