{"builder_meta": null, "nsites": null, "elements": null, "nelements": null, "composition": null, "composition_reduced": null, "formula_pretty": "CrSb2", "formula_anonymous": "AB2", "chemsys": null, "volume": 143.6720464567725, "density": 6.831057828732424, "density_atomic": 23.945341076128752, "symmetry": null, "property_name": null, "material_id": "mp-22498", "deprecated": null, "deprecation_reasons": null, "last_updated": null, "origins": null, "warnings": null, "structure": {"@module": "pymatgen.core.structure", "@class": "Structure", "charge": 0, "lattice": {"matrix": [[3.43708937, 0.0, 0.0], [0.0, 6.03132998, -0.0], [0.0, 0.0, 6.93056057]], "pbc": [true, true, true], "a": 3.43708937, "b": 6.03132998, "c": 6.93056057, "alpha": 90.0, "beta": 90.0, "gamma": 90.0, "volume": 143.6720464567725}, "properties": {}, "sites": [{"species": [{"element": "Cr", "occu": 1}], "abc": [0.0, -0.0, 0.0], "properties": {"magmom": 3.271}, "label": "Cr", "xyz": [0.0, 0.0, 0.0]}, {"species": [{"element": "Cr", "occu": 1}], "abc": [0.5, 0.5, 0.5], "properties": {"magmom": 3.271}, "label": "Cr", "xyz": [1.718544685, 3.01566499, 3.465280285]}, {"species": [{"element": "Sb", "occu": 1}], "abc": [-0.0, 0.8225720400000001, 0.63601436], "properties": {"magmom": -0.14100000000000001}, "label": "Sb", "xyz": [0.0, 4.9612034055617595, 4.407936045369786]}, {"species": [{"element": "Sb", "occu": 1}], "abc": [0.5, 0.67742796, 0.13601436], "properties": {"magmom": -0.14100000000000001}, "label": "Sb", "xyz": [1.718544685, 4.0857915644382405, 0.9426557603697852]}, {"species": [{"element": "Sb", "occu": 1}], "abc": [0.0, 0.17742796, 0.36398564], "properties": {"magmom": -0.14100000000000001}, "label": "Sb", "xyz": [0.0, 1.0701265744382407, 2.522624524630215]}, {"species": [{"element": "Sb", "occu": 1}], "abc": [0.5, 0.32257204, 0.86398564], "properties": {"magmom": -0.14100000000000001}, "label": "Sb", "xyz": [1.718544685, 1.9455384155617592, 5.987904809630215]}]}, "task_ids": null, "uncorrected_energy_per_atom": null, "energy_per_atom": -22.208224591666667, "formation_energy_per_atom": -0.046233308333337005, "energy_above_hull": 0.0, "is_stable": true, "equilibrium_reaction_energy_per_atom": null, "decomposes_to": null, "xas": null, "grain_boundaries": null, "band_gap": 0.0, "cbm": null, "vbm": null, "efermi": 6.72464428, "is_gap_direct": null, "is_metal": null, "es_source_calc_id": null, "bandstructure": null, "dos": null, "dos_energy_up": null, "dos_energy_down": null, "is_magnetic": null, "ordering": null, "total_magnetization": 6.1304185, "total_magnetization_normalized_vol": null, "total_magnetization_normalized_formula_units": null, "num_magnetic_sites": null, "num_unique_magnetic_sites": null, "types_of_magnetic_species": null, "bulk_modulus": null, "shear_modulus": null, "universal_anisotropy": null, "homogeneous_poisson": null, "e_total": null, "e_ionic": null, "e_electronic": null, "n": null, "e_ij_max": null, "weighted_surface_energy_EV_PER_ANG2": null, "weighted_surface_energy": null, "weighted_work_function": null, "surface_anisotropy": null, "shape_factor": null, "has_reconstructed": null, "possible_species": null, "has_props": null, "theoretical": null, "database_IDs": null, "fields_not_requested": ["builder_meta", "nsites", "elements", "nelements", "composition", "composition_reduced", "chemsys", "symmetry", "property_name", "deprecated", "deprecation_reasons", "last_updated", "origins", "warnings", "task_ids", "uncorrected_energy_per_atom", "equilibrium_reaction_energy_per_atom", "decomposes_to", "xas", "grain_boundaries", "cbm", "vbm", "is_gap_direct", "is_metal", "es_source_calc_id", "bandstructure", "dos", "dos_energy_up", "dos_energy_down", "is_magnetic", "ordering", "total_magnetization_normalized_vol", "total_magnetization_normalized_formula_units", "num_magnetic_sites", "num_unique_magnetic_sites", "types_of_magnetic_species", "bulk_modulus", "shear_modulus", "universal_anisotropy", "homogeneous_poisson", "e_total", "e_ionic", "e_electronic", "n", "e_ij_max", "weighted_surface_energy_EV_PER_ANG2", "weighted_surface_energy", "weighted_work_function", "surface_anisotropy", "shape_factor", "has_reconstructed", "possible_species", "has_props", "theoretical", "database_IDs"]}