{
  "builder_meta": null,
  "nsites": null,
  "elements": null,
  "nelements": null,
  "composition": null,
  "composition_reduced": null,
  "formula_pretty": "CrSn2",
  "formula_anonymous": "AB2",
  "chemsys": null,
  "volume": 233.8646526321776,
  "density": 8.219912417613262,
  "density_atomic": 19.488721052681466,
  "symmetry": null,
  "property_name": null,
  "material_id": "mp-609",
  "deprecated": null,
  "deprecation_reasons": null,
  "last_updated": null,
  "origins": null,
  "warnings": null,
  "structure": {
    "@module": "pymatgen.core.structure",
    "@class": "Structure",
    "charge": 0,
    "lattice": {
      "matrix": [
        [0.0, 4.675038, 9.227751],
        [2.710525999999999, 0.0, 9.227751],
        [2.710525999999999, 4.675038, 0.0]
      ],
      "pbc": [true, true, true],
      "a": 10.34443661198835,
      "b": 9.617605716324462,
      "c": 5.403973676667938,
      "alpha": 81.87344077040665,
      "beta": 66.98475044693205,
      "gamma": 31.141808782661315,
      "volume": 233.86465263217752
    },
    "properties": {},
    "sites": [
      {
        "species": [{ "element": "Cr", "occu": 1 }],
        "abc": [0.373344, 0.373344, 0.626656],
        "properties": { "magmom": 0.666 },
        "label": "Cr",
        "xyz": [2.710525999999999, 4.675038, 6.890250938688]
      },
      {
        "species": [{ "element": "Cr", "occu": 1 }],
        "abc": [0.626656, 0.626656, 0.373344],
        "properties": { "magmom": 0.666 },
        "label": "Cr",
        "xyz": [2.710525999999999, 4.675038, 11.565251061311999]
      },
      {
        "species": [{ "element": "Cr", "occu": 1 }],
        "abc": [0.876656, 0.876656, 0.623344],
        "properties": { "magmom": 0.666 },
        "label": "Cr",
        "xyz": [4.065788999999998, 7.012557, 16.179126561312]
      },
      {
        "species": [{ "element": "Cr", "occu": 1 }],
        "abc": [0.623344, 0.623344, 0.876656],
        "properties": { "magmom": 0.666 },
        "label": "Cr",
        "xyz": [4.065788999999998, 7.012557, 11.504126438688]
      },
      {
        "species": [{ "element": "Sn", "occu": 1 }],
        "abc": [0.081344, 0.081344, 0.918655999999999],
        "properties": { "magmom": -0.03 },
        "label": "Sn",
        "xyz": [2.710525999999996, 4.675037999999995, 1.5012443546879999]
      },
      {
        "species": [{ "element": "Sn", "occu": 1 }],
        "abc": [0.918655999999999, 0.918655999999999, 0.081344],
        "properties": { "magmom": -0.03 },
        "label": "Sn",
        "xyz": [2.710525999999996, 4.675037999999995, 16.95425764531198]
      },
      {
        "species": [{ "element": "Sn", "occu": 1 }],
        "abc": [0.168656, 0.168656, 0.33134399999999903],
        "properties": { "magmom": -0.03 },
        "label": "Sn",
        "xyz": [1.3552629999999968, 2.3375189999999955, 3.1126311453119997]
      },
      {
        "species": [{ "element": "Sn", "occu": 1 }],
        "abc": [0.33134399999999903, 0.33134399999999903, 0.168656],
        "properties": { "magmom": -0.03 },
        "label": "Sn",
        "xyz": [1.3552629999999968, 2.3375189999999955, 6.115119854687982]
      },
      {
        "species": [{ "element": "Sn", "occu": 1 }],
        "abc": [0.335092, 0.664907999999999, 0.335092],
        "properties": { "magmom": -0.028 },
        "label": "Sn",
        "xyz": [2.710525999999996, 3.133135666992, 9.22775099999999]
      },
      {
        "species": [{ "element": "Sn", "occu": 1 }],
        "abc": [0.664907999999999, 0.335092, 0.664907999999999],
        "properties": { "magmom": -0.028 },
        "label": "Sn",
        "xyz": [2.710525999999996, 6.216940333007991, 9.22775099999999]
      },
      {
        "species": [{ "element": "Sn", "occu": 1 }],
        "abc": [0.914907999999999, 0.585092, 0.914907999999999],
        "properties": { "magmom": -0.028 },
        "label": "Sn",
        "xyz": [4.065788999999995, 8.55445933300799, 13.84162649999999]
      },
      {
        "species": [{ "element": "Sn", "occu": 1 }],
        "abc": [0.585092, 0.914907999999999, 0.585092],
        "properties": { "magmom": -0.028 },
        "label": "Sn",
        "xyz": [4.065788999999995, 5.470654666991999, 13.84162649999999]
      }
    ]
  },
  "task_ids": null,
  "uncorrected_energy_per_atom": null,
  "energy_per_atom": -21.372372690833334,
  "formation_energy_per_atom": 0.14953062583333102,
  "energy_above_hull": 0.14953062583333201,
  "is_stable": false,
  "equilibrium_reaction_energy_per_atom": null,
  "decomposes_to": null,
  "xas": null,
  "grain_boundaries": null,
  "band_gap": 0.0,
  "cbm": null,
  "vbm": null,
  "efermi": 9.20911981,
  "is_gap_direct": null,
  "is_metal": null,
  "es_source_calc_id": null,
  "bandstructure": null,
  "dos": null,
  "dos_energy_up": null,
  "dos_energy_down": null,
  "is_magnetic": null,
  "ordering": null,
  "total_magnetization": 2.5103879,
  "total_magnetization_normalized_vol": null,
  "total_magnetization_normalized_formula_units": null,
  "num_magnetic_sites": null,
  "num_unique_magnetic_sites": null,
  "types_of_magnetic_species": null,
  "bulk_modulus": null,
  "shear_modulus": null,
  "universal_anisotropy": null,
  "homogeneous_poisson": null,
  "e_total": null,
  "e_ionic": null,
  "e_electronic": null,
  "n": null,
  "e_ij_max": null,
  "weighted_surface_energy_EV_PER_ANG2": null,
  "weighted_surface_energy": null,
  "weighted_work_function": null,
  "surface_anisotropy": null,
  "shape_factor": null,
  "has_reconstructed": null,
  "possible_species": null,
  "has_props": null,
  "theoretical": null,
  "database_IDs": null,
  "fields_not_requested": [
    "builder_meta",
    "nsites",
    "elements",
    "nelements",
    "composition",
    "composition_reduced",
    "chemsys",
    "symmetry",
    "property_name",
    "deprecated",
    "deprecation_reasons",
    "last_updated",
    "origins",
    "warnings",
    "task_ids",
    "uncorrected_energy_per_atom",
    "equilibrium_reaction_energy_per_atom",
    "decomposes_to",
    "xas",
    "grain_boundaries",
    "cbm",
    "vbm",
    "is_gap_direct",
    "is_metal",
    "es_source_calc_id",
    "bandstructure",
    "dos",
    "dos_energy_up",
    "dos_energy_down",
    "is_magnetic",
    "ordering",
    "total_magnetization_normalized_vol",
    "total_magnetization_normalized_formula_units",
    "num_magnetic_sites",
    "num_unique_magnetic_sites",
    "types_of_magnetic_species",
    "bulk_modulus",
    "shear_modulus",
    "universal_anisotropy",
    "homogeneous_poisson",
    "e_total",
    "e_ionic",
    "e_electronic",
    "n",
    "e_ij_max",
    "weighted_surface_energy_EV_PER_ANG2",
    "weighted_surface_energy",
    "weighted_work_function",
    "surface_anisotropy",
    "shape_factor",
    "has_reconstructed",
    "possible_species",
    "has_props",
    "theoretical",
    "database_IDs"
  ]
}
