{
  "builder_meta": null,
  "nsites": null,
  "elements": null,
  "nelements": null,
  "composition": null,
  "composition_reduced": null,
  "formula_pretty": "CrTe",
  "formula_anonymous": "AB",
  "chemsys": null,
  "volume": 185.68203681192833,
  "density": 6.424452152279319,
  "density_atomic": 23.21025460149104,
  "symmetry": null,
  "property_name": null,
  "material_id": "mp-1079818",
  "deprecated": null,
  "deprecation_reasons": null,
  "last_updated": null,
  "origins": null,
  "warnings": null,
  "structure": {
    "@module": "pymatgen.core.structure",
    "@class": "Structure",
    "charge": 0,
    "lattice": {
      "matrix": [
        [4.123281, 0.0, 0.0],
        [0.0, 6.27327, 0.0],
        [0.0, 0.0, 7.178488]
      ],
      "pbc": [true, true, true],
      "a": 4.123281,
      "b": 6.27327,
      "c": 7.178488,
      "alpha": 90.0,
      "beta": 90.0,
      "gamma": 90.0,
      "volume": 185.68203681192833
    },
    "properties": {},
    "sites": [
      {
        "species": [{ "element": "Cr", "occu": 1 }],
        "abc": [0.75, 0.496952, 0.254729],
        "properties": { "magmom": 3.649 },
        "label": "Cr",
        "xyz": [3.0924607500000003, 3.11751407304, 1.8285690697519998]
      },
      {
        "species": [{ "element": "Cr", "occu": 1 }],
        "abc": [0.75, 0.996952, 0.245271],
        "properties": { "magmom": 3.649 },
        "label": "Cr",
        "xyz": [3.0924607500000003, 6.25414907304, 1.7606749302479998]
      },
      {
        "species": [{ "element": "Cr", "occu": 1 }],
        "abc": [0.25, 0.503047999999999, 0.745271],
        "properties": { "magmom": 3.649 },
        "label": "Cr",
        "xyz": [1.03082025, 3.155755926959994, 5.349918930248]
      },
      {
        "species": [{ "element": "Cr", "occu": 1 }],
        "abc": [0.25, 0.003048, 0.754729],
        "properties": { "magmom": 3.649 },
        "label": "Cr",
        "xyz": [1.03082025, 0.01912092696, 5.4178130697519995]
      },
      {
        "species": [{ "element": "Te", "occu": 1 }],
        "abc": [0.75, 0.253876, 0.916771999999999],
        "properties": { "magmom": -0.113 },
        "label": "Te",
        "xyz": [3.0924607500000003, 1.59263269452, 6.581036800735993]
      },
      {
        "species": [{ "element": "Te", "occu": 1 }],
        "abc": [0.75, 0.753876, 0.583228],
        "properties": { "magmom": -0.113 },
        "label": "Te",
        "xyz": [3.0924607500000003, 4.72926769452, 4.186695199263999]
      },
      {
        "species": [{ "element": "Te", "occu": 1 }],
        "abc": [0.25, 0.746124, 0.083228],
        "properties": { "magmom": -0.113 },
        "label": "Te",
        "xyz": [1.03082025, 4.68063730548, 0.5974511992639999]
      },
      {
        "species": [{ "element": "Te", "occu": 1 }],
        "abc": [0.25, 0.246123999999999, 0.416772],
        "properties": { "magmom": -0.113 },
        "label": "Te",
        "xyz": [1.03082025, 1.5440023054799938, 2.9917928007359995]
      }
    ]
  },
  "task_ids": null,
  "uncorrected_energy_per_atom": null,
  "energy_per_atom": -6.645402966250001,
  "formation_energy_per_atom": -0.247226284583333,
  "energy_above_hull": 0.140691407499997,
  "is_stable": false,
  "equilibrium_reaction_energy_per_atom": null,
  "decomposes_to": null,
  "xas": null,
  "grain_boundaries": null,
  "band_gap": 0.0,
  "cbm": null,
  "vbm": null,
  "efermi": 6.40052163,
  "is_gap_direct": null,
  "is_metal": null,
  "es_source_calc_id": null,
  "bandstructure": null,
  "dos": null,
  "dos_energy_up": null,
  "dos_energy_down": null,
  "is_magnetic": null,
  "ordering": null,
  "total_magnetization": 15.7066071,
  "total_magnetization_normalized_vol": null,
  "total_magnetization_normalized_formula_units": null,
  "num_magnetic_sites": null,
  "num_unique_magnetic_sites": null,
  "types_of_magnetic_species": null,
  "bulk_modulus": null,
  "shear_modulus": null,
  "universal_anisotropy": null,
  "homogeneous_poisson": null,
  "e_total": null,
  "e_ionic": null,
  "e_electronic": null,
  "n": null,
  "e_ij_max": null,
  "weighted_surface_energy_EV_PER_ANG2": null,
  "weighted_surface_energy": null,
  "weighted_work_function": null,
  "surface_anisotropy": null,
  "shape_factor": null,
  "has_reconstructed": null,
  "possible_species": null,
  "has_props": null,
  "theoretical": null,
  "database_IDs": null,
  "fields_not_requested": [
    "builder_meta",
    "nsites",
    "elements",
    "nelements",
    "composition",
    "composition_reduced",
    "chemsys",
    "symmetry",
    "property_name",
    "deprecated",
    "deprecation_reasons",
    "last_updated",
    "origins",
    "warnings",
    "task_ids",
    "uncorrected_energy_per_atom",
    "equilibrium_reaction_energy_per_atom",
    "decomposes_to",
    "xas",
    "grain_boundaries",
    "cbm",
    "vbm",
    "is_gap_direct",
    "is_metal",
    "es_source_calc_id",
    "bandstructure",
    "dos",
    "dos_energy_up",
    "dos_energy_down",
    "is_magnetic",
    "ordering",
    "total_magnetization_normalized_vol",
    "total_magnetization_normalized_formula_units",
    "num_magnetic_sites",
    "num_unique_magnetic_sites",
    "types_of_magnetic_species",
    "bulk_modulus",
    "shear_modulus",
    "universal_anisotropy",
    "homogeneous_poisson",
    "e_total",
    "e_ionic",
    "e_electronic",
    "n",
    "e_ij_max",
    "weighted_surface_energy_EV_PER_ANG2",
    "weighted_surface_energy",
    "weighted_work_function",
    "surface_anisotropy",
    "shape_factor",
    "has_reconstructed",
    "possible_species",
    "has_props",
    "theoretical",
    "database_IDs"
  ]
}
