{"builder_meta": null, "nsites": null, "elements": null, "nelements": null, "composition": null, "composition_reduced": null, "formula_pretty": "CrTe2", "formula_anonymous": "AB2", "chemsys": null, "volume": 641.0541416054041, "density": 6.3659038081205335, "density_atomic": 26.710589233558505, "symmetry": null, "property_name": null, "material_id": "mp-685055", "deprecated": null, "deprecation_reasons": null, "last_updated": null, "origins": null, "warnings": null, "structure": {"@module": "pymatgen.core.structure", "@class": "Structure", "charge": 0, "lattice": {"matrix": [[7.72645489, 5.3460000000000007e-05, -0.00033507000000000003], [-3.86318007, 6.6914820299999995, 2.6230000000000005e-05], [-0.00053299, -0.00026873, 12.39910641]], "pbc": [true, true, true], "a": 7.7264548974503695, "b": 7.726583463067368, "c": 12.399106424367734, "alpha": 89.99964949920735, "beta": 90.0049476568313, "gamma": 119.99864743835568, "volume": 641.054141605404}, "properties": {}, "sites": [{"species": [{"element": "Cr", "occu": 1}], "abc": [-8.280000000000002e-05, 0.49997059, 0.25005579], "properties": {"magmom": 3.079}, "label": "Cr", "xyz": [-1.9322494465745452, 3.3454770165945624, 3.1004814906189857]}, {"species": [{"element": "Cr", "occu": 1}], "abc": [0.50003652, 9.809e-05, 0.2500571], "properties": {"magmom": 3.079}, "label": "Cr", "xyz": [3.8629973978657874, 0.0006159015801989, 3.100317046812155]}, {"species": [{"element": "Cr", "occu": 1}], "abc": [-5.78e-06, -2.7e-07, 0.25003208], "properties": {"magmom": 3.079}, "label": "Cr", "xyz": [-0.0001768804489645, -6.89981300053e-05, 3.1001743677632554]}, {"species": [{"element": "Cr", "occu": 1}], "abc": [-6.07e-06, -4.02e-06, 0.74998049], "properties": {"magmom": 3.078}, "label": "Cr", "xyz": [-0.000431101698666, -0.00022844233934050001, 9.299087902862372]}, {"species": [{"element": "Cr", "occu": 1}], "abc": [0.5000702300000001, 0.49992161, 0.25004077], "properties": {"magmom": 3.079}, "label": "Cr", "xyz": [1.9323496043826103, 3.345176010022042, 3.1001276684802]}, {"species": [{"element": "Cr", "occu": 1}], "abc": [0.50004812, 0.49998208, 0.74995351], "properties": {"magmom": 3.078}, "label": "Cr", "xyz": [1.9316787174748666, 3.345446301207775, 9.29859893644939]}, {"species": [{"element": "Cr", "occu": 1}], "abc": [0.50005173, 7.701000000000002e-05, 0.7499507400000001], "properties": {"magmom": 3.078}, "label": "Cr", "xyz": [3.8629299147693565, 0.00034050953425590006, 9.298551477205045]}, {"species": [{"element": "Cr", "occu": 1}], "abc": [0.99993632, 0.49998079, 0.74995956], "properties": {"magmom": 3.078}, "label": "Cr", "xyz": [5.794047325095866, 3.3454643915933118, 9.298506453470159]}, {"species": [{"element": "Te", "occu": 1}], "abc": [0.16664034, 0.83332527, 0.12609226], "properties": {"magmom": -0.246}, "label": "Te", "xyz": [-1.9318137109407638, 5.576156093169444, 1.5633973711604952]}, {"species": [{"element": "Te", "occu": 1}], "abc": [0.16665061, 0.83334422, 0.62610663], "properties": {"magmom": -0.245}, "label": "Te", "xyz": [-1.932074070170436, 5.576148528441296, 7.763128748375496]}, {"species": [{"element": "Te", "occu": 1}], "abc": [0.33334119, 0.66666238, 0.37389009], "properties": {"magmom": -0.246}, "label": "Te", "xyz": [-9.043199991645397e-05, 4.460876680783162, 4.635808805476171]}, {"species": [{"element": "Te", "occu": 1}], "abc": [0.33335456, 0.66668221, 0.87381673], "properties": {"magmom": -0.245}, "label": "Te", "xyz": [-0.00033019205867900283, 4.460875028300611, 10.834452408070188]}, {"species": [{"element": "Te", "occu": 1}], "abc": [0.16667257, 0.33334082, 0.62609979], "properties": {"magmom": -0.245}, "label": "Te", "xyz": [-0.0003012237631620192, 2.2303847654144895, 7.763030816040333]}, {"species": [{"element": "Te", "occu": 1}], "abc": [0.16667457, 0.33334884, 0.1260995], "properties": {"magmom": -0.246}, "label": "Te", "xyz": [-5.025840297627178e-05, 2.230572796285222, 1.5634740148396984]}, {"species": [{"element": "Te", "occu": 1}], "abc": [0.6666733300000001, 0.83333307, 0.62609759], "properties": {"magmom": -0.245}, "label": "Te", "xyz": [1.931371999160676, 5.5761006520605925, 7.762849117548295]}, {"species": [{"element": "Te", "occu": 1}], "abc": [0.6666402100000001, 0.83331761, 0.12606374], "properties": {"magmom": -0.246}, "label": "Te", "xyz": [1.9314423367803126, 5.576131574074324, 1.5628762134883192]}, {"species": [{"element": "Te", "occu": 1}], "abc": [0.33333078, 0.16665792000000001, 0.8738957700000001], "properties": {"magmom": -0.245}, "label": "Te", "xyz": [1.9311699023604076, 1.1149714546904044, 10.835419325771673]}, {"species": [{"element": "Te", "occu": 1}], "abc": [0.33336672, 0.16667127, 0.37403068], "properties": {"magmom": -0.246}, "label": "Te", "xyz": [1.9316624407895389, 1.115195116642493, 4.6375388725252]}, {"species": [{"element": "Te", "occu": 1}], "abc": [0.83332098, 0.66662418, 0.37403252000000003], "properties": {"magmom": -0.246}, "label": "Te", "xyz": [3.863128358911665, 4.460647756813976, 4.637407280971926]}, {"species": [{"element": "Te", "occu": 1}], "abc": [0.8333425600000001, 0.66667539, 0.87389344], "properties": {"magmom": -0.245}, "label": "Te", "xyz": [3.862830841485057, 4.460856101137368, 10.83523601236485]}, {"species": [{"element": "Te", "occu": 1}], "abc": [0.6666157500000001, 0.33330841, 0.6259540100000001], "properties": {"magmom": -0.245}, "label": "Te", "xyz": [3.8626124874353396, 2.23019466061976, 7.761055757496447]}, {"species": [{"element": "Te", "occu": 1}], "abc": [0.6666639, 0.33331374, 0.12598459], "properties": {"magmom": -0.246}, "label": "Te", "xyz": [3.863230404189685, 2.2303646855753154, 1.561881701176649]}, {"species": [{"element": "Te", "occu": 1}], "abc": [0.83331702, 0.16669916, 0.374029], "properties": {"magmom": -0.246}, "label": "Te", "xyz": [5.794398137784777, 1.115408469870814, 4.637350524410965]}, {"species": [{"element": "Te", "occu": 1}], "abc": [0.83334964, 0.16667062, 0.87388462], "properties": {"magmom": -0.245}, "label": "Te", "xyz": [5.7944940118555825, 1.1150831705167803, 10.835113534748903]}]}, "task_ids": null, "uncorrected_energy_per_atom": null, "energy_per_atom": -5.790014763333334, "formation_energy_per_atom": -0.47679501111111106, "energy_above_hull": 0.0, "is_stable": true, "equilibrium_reaction_energy_per_atom": null, "decomposes_to": null, "xas": null, "grain_boundaries": null, "band_gap": 0.0, "cbm": null, "vbm": null, "efermi": 5.71917653, "is_gap_direct": null, "is_metal": null, "es_source_calc_id": null, "bandstructure": null, "dos": null, "dos_energy_up": null, "dos_energy_down": null, "is_magnetic": null, "ordering": null, "total_magnetization": 20.3687669, "total_magnetization_normalized_vol": null, "total_magnetization_normalized_formula_units": null, "num_magnetic_sites": null, "num_unique_magnetic_sites": null, "types_of_magnetic_species": null, "bulk_modulus": null, "shear_modulus": null, "universal_anisotropy": null, "homogeneous_poisson": null, "e_total": null, "e_ionic": null, "e_electronic": null, "n": null, "e_ij_max": null, "weighted_surface_energy_EV_PER_ANG2": null, "weighted_surface_energy": null, "weighted_work_function": null, "surface_anisotropy": null, "shape_factor": null, "has_reconstructed": null, "possible_species": null, "has_props": null, "theoretical": null, "database_IDs": null, "fields_not_requested": ["builder_meta", "nsites", "elements", "nelements", "composition", "composition_reduced", "chemsys", "symmetry", "property_name", "deprecated", "deprecation_reasons", "last_updated", "origins", "warnings", "task_ids", "uncorrected_energy_per_atom", "equilibrium_reaction_energy_per_atom", "decomposes_to", "xas", "grain_boundaries", "cbm", "vbm", "is_gap_direct", "is_metal", "es_source_calc_id", "bandstructure", "dos", "dos_energy_up", "dos_energy_down", "is_magnetic", "ordering", "total_magnetization_normalized_vol", "total_magnetization_normalized_formula_units", "num_magnetic_sites", "num_unique_magnetic_sites", "types_of_magnetic_species", "bulk_modulus", "shear_modulus", "universal_anisotropy", "homogeneous_poisson", "e_total", "e_ionic", "e_electronic", "n", "e_ij_max", "weighted_surface_energy_EV_PER_ANG2", "weighted_surface_energy", "weighted_work_function", "surface_anisotropy", "shape_factor", "has_reconstructed", "possible_species", "has_props", "theoretical", "database_IDs"]}