{"builder_meta": null, "nsites": null, "elements": null, "nelements": null, "composition": null, "composition_reduced": null, "formula_pretty": "CS2", "formula_anonymous": "AB2", "chemsys": null, "volume": 215.08513519181068, "density": 1.17567033905451, "density_atomic": 35.847522531968444, "symmetry": null, "property_name": null, "material_id": "mp-2232", "deprecated": null, "deprecation_reasons": null, "last_updated": null, "origins": null, "warnings": null, "structure": {"@module": "pymatgen.core.structure", "@class": "Structure", "charge": 0, "lattice": {"matrix": [[-2.994314, -3.645788, 0.0], [-2.994314, 3.645788, 0.0], [0.0, 0.0, -9.851257]], "pbc": [true, true, true], "a": 4.717805260027166, "b": 4.717805260027166, "c": 9.851257, "alpha": 90.0, "beta": 90.0, "gamma": 101.20694502269271, "volume": 215.08513519181068}, "properties": {}, "sites": [{"species": [{"element": "C", "occu": 1}], "abc": [0.0, 0.0, 0.0], "properties": {"magmom": 0.0}, "label": "C", "xyz": [0.0, 0.0, 0.0]}, {"species": [{"element": "C", "occu": 1}], "abc": [0.5, 0.5, 0.5], "properties": {"magmom": 0.0}, "label": "C", "xyz": [-2.994314, 0.0, -4.9256285]}, {"species": [{"element": "S", "occu": 1}], "abc": [0.818479, 0.818479, 0.886867], "properties": {"magmom": 0.0}, "label": "S", "xyz": [-4.901566256812, 0.0, -8.736754741819]}, {"species": [{"element": "S", "occu": 1}], "abc": [0.681520999999999, 0.681520999999999, 0.386866999999999], "properties": {"magmom": 0.0}, "label": "S", "xyz": [-4.081375743187994, 0.0, -3.8111262418189904]}, {"species": [{"element": "S", "occu": 1}], "abc": [0.318479, 0.318479, 0.613132999999999], "properties": {"magmom": -0.0}, "label": "S", "xyz": [-1.907252256812, 0.0, -6.04013075818099]}, {"species": [{"element": "S", "occu": 1}], "abc": [0.181521, 0.181521, 0.113133], "properties": {"magmom": -0.0}, "label": "S", "xyz": [-1.087061743188, 0.0, -1.114502258181]}]}, "task_ids": null, "uncorrected_energy_per_atom": null, "energy_per_atom": -5.8985451, "formation_energy_per_atom": -0.063416890833333, "energy_above_hull": 0.22579864928571403, "is_stable": false, "equilibrium_reaction_energy_per_atom": null, "decomposes_to": null, "xas": null, "grain_boundaries": null, "band_gap": 3.4316, "cbm": null, "vbm": null, "efermi": -2.11786231, "is_gap_direct": null, "is_metal": null, "es_source_calc_id": null, "bandstructure": null, "dos": null, "dos_energy_up": null, "dos_energy_down": null, "is_magnetic": null, "ordering": null, "total_magnetization": 0.0, "total_magnetization_normalized_vol": null, "total_magnetization_normalized_formula_units": null, "num_magnetic_sites": null, "num_unique_magnetic_sites": null, "types_of_magnetic_species": null, "bulk_modulus": null, "shear_modulus": null, "universal_anisotropy": null, "homogeneous_poisson": null, "e_total": null, "e_ionic": null, "e_electronic": null, "n": null, "e_ij_max": null, "weighted_surface_energy_EV_PER_ANG2": null, "weighted_surface_energy": null, "weighted_work_function": null, "surface_anisotropy": null, "shape_factor": null, "has_reconstructed": null, "possible_species": null, "has_props": null, "theoretical": null, "database_IDs": null, "fields_not_requested": ["builder_meta", "nsites", "elements", "nelements", "composition", "composition_reduced", "chemsys", "symmetry", "property_name", "deprecated", "deprecation_reasons", "last_updated", "origins", "warnings", "task_ids", "uncorrected_energy_per_atom", "equilibrium_reaction_energy_per_atom", "decomposes_to", "xas", "grain_boundaries", "cbm", "vbm", "is_gap_direct", "is_metal", "es_source_calc_id", "bandstructure", "dos", "dos_energy_up", "dos_energy_down", "is_magnetic", "ordering", "total_magnetization_normalized_vol", "total_magnetization_normalized_formula_units", "num_magnetic_sites", "num_unique_magnetic_sites", "types_of_magnetic_species", "bulk_modulus", "shear_modulus", "universal_anisotropy", "homogeneous_poisson", "e_total", "e_ionic", "e_electronic", "n", "e_ij_max", "weighted_surface_energy_EV_PER_ANG2", "weighted_surface_energy", "weighted_work_function", "surface_anisotropy", "shape_factor", "has_reconstructed", "possible_species", "has_props", "theoretical", "database_IDs"]}