{"builder_meta": null, "nsites": null, "elements": null, "nelements": null, "composition": null, "composition_reduced": null, "formula_pretty": "Cs2As3", "formula_anonymous": "A2B3", "chemsys": null, "volume": 405.2072893085265, "density": 4.020757487728385, "density_atomic": 40.520728930852655, "symmetry": null, "property_name": null, "material_id": "mp-15557", "deprecated": null, "deprecation_reasons": null, "last_updated": null, "origins": null, "warnings": null, "structure": {"@module": "pymatgen.core.structure", "@class": "Structure", "charge": 0, "lattice": {"matrix": [[6.70075153, -0.08283249000000001, -2.58004219], [-1.57113445, 6.51448325, -2.58004116], [0.04600621, 0.05768532, 9.26416556]], "pbc": [true, true, true], "a": 7.180776419745774, "b": 7.180777664139275, "c": 9.264459384691165, "alpha": 110.7765698708906, "beta": 110.77659177385101, "gamma": 94.90711177462887, "volume": 405.2072893085265}, "properties": {}, "sites": [{"species": [{"element": "Cs", "occu": 1}], "abc": [0.75004742, 0.2499527, 0.49999988], "properties": {"magmom": 0.0}, "label": "Cs", "xyz": [4.6561751987762925, 1.5950270351033609, 2.052039426146351]}, {"species": [{"element": "Cs", "occu": 1}], "abc": [0.2499527, 0.75004742, 0.49999988], "properties": {"magmom": 0.0}, "label": "Cs", "xyz": [0.5194486957362666, 4.894309802850254, 2.0520399412439128]}, {"species": [{"element": "Cs", "occu": 1}], "abc": [0.272241199999999, 0.72775983, 2e-08], "properties": {"magmom": -0.0}, "label": "Cs", "xyz": [0.6808120981100101, 4.718428807234965, -2.580043912567517]}, {"species": [{"element": "Cs", "occu": 1}], "abc": [0.72775983, 0.2722402, 0.9999990200000001], "properties": {"magmom": -0.0}, "label": "Cs", "xyz": [4.494818002364063, 1.7709073275041596, 6.684114494123892]}, {"species": [{"element": "As", "occu": 1}], "abc": [0.7115804, 0.7115804, 0.84850988], "properties": {"magmom": -0.0}, "label": "As", "xyz": [3.6891716973595865, 4.625583184412065, 4.1889218333893945]}, {"species": [{"element": "As", "occu": 1}], "abc": [0.86290627, 0.86290627, 0.15129185], "properties": {"magmom": 0.0}, "label": "As", "xyz": [4.43333910565348, 5.5586390860349075, -3.0510755301589185]}, {"species": [{"element": "As", "occu": 1}], "abc": [0.28841894, 0.28841894, 0.15149039], "properties": {"magmom": -0.0}, "label": "As", "xyz": [1.486448219514817, 1.863748666273469, -0.08483371640968063]}, {"species": [{"element": "As", "occu": 1}], "abc": [0.13709351, 0.13709351, 0.84870842], "properties": {"magmom": -0.0}, "label": "As", "xyz": [0.742283068252439, 0.9306955945769619, 7.155161376701957]}, {"species": [{"element": "As", "occu": 1}], "abc": [0.84774726, 0.84774726, 0.69562314], "properties": {"magmom": -0.0}, "label": "As", "xyz": [4.380621808678901, 5.492541552497222, 2.0699214149929386]}, {"species": [{"element": "As", "occu": 1}], "abc": [0.15225246, 0.15225246, 0.30437752], "properties": {"magmom": -0.0}, "label": "As", "xyz": [0.7950000753924161, 0.9967927647128759, 2.0341683541796707]}]}, "task_ids": null, "uncorrected_energy_per_atom": null, "energy_per_atom": -3.597984170999999, "formation_energy_per_atom": -0.43271962336206904, "energy_above_hull": 0.0, "is_stable": true, "equilibrium_reaction_energy_per_atom": null, "decomposes_to": null, "xas": null, "grain_boundaries": null, "band_gap": 0.447499999999999, "cbm": null, "vbm": null, "efermi": 2.12090482, "is_gap_direct": null, "is_metal": null, "es_source_calc_id": null, "bandstructure": null, "dos": null, "dos_energy_up": null, "dos_energy_down": null, "is_magnetic": null, "ordering": null, "total_magnetization": 0.0, "total_magnetization_normalized_vol": null, "total_magnetization_normalized_formula_units": null, "num_magnetic_sites": null, "num_unique_magnetic_sites": null, "types_of_magnetic_species": null, "bulk_modulus": null, "shear_modulus": null, "universal_anisotropy": null, "homogeneous_poisson": null, "e_total": null, "e_ionic": null, "e_electronic": null, "n": null, "e_ij_max": null, "weighted_surface_energy_EV_PER_ANG2": null, "weighted_surface_energy": null, "weighted_work_function": null, "surface_anisotropy": null, "shape_factor": null, "has_reconstructed": null, "possible_species": null, "has_props": null, "theoretical": null, "database_IDs": null, "fields_not_requested": ["builder_meta", "nsites", "elements", "nelements", "composition", "composition_reduced", "chemsys", "symmetry", "property_name", "deprecated", "deprecation_reasons", "last_updated", "origins", "warnings", "task_ids", "uncorrected_energy_per_atom", "equilibrium_reaction_energy_per_atom", "decomposes_to", "xas", "grain_boundaries", "cbm", "vbm", "is_gap_direct", "is_metal", "es_source_calc_id", "bandstructure", "dos", "dos_energy_up", "dos_energy_down", "is_magnetic", "ordering", "total_magnetization_normalized_vol", "total_magnetization_normalized_formula_units", "num_magnetic_sites", "num_unique_magnetic_sites", "types_of_magnetic_species", "bulk_modulus", "shear_modulus", "universal_anisotropy", "homogeneous_poisson", "e_total", "e_ionic", "e_electronic", "n", "e_ij_max", "weighted_surface_energy_EV_PER_ANG2", "weighted_surface_energy", "weighted_work_function", "surface_anisotropy", "shape_factor", "has_reconstructed", "possible_species", "has_props", "theoretical", "database_IDs"]}