{"builder_meta": null, "nsites": null, "elements": null, "nelements": null, "composition": null, "composition_reduced": null, "formula_pretty": "Cs2In3", "formula_anonymous": "A2B3", "chemsys": null, "volume": 409.05736453607915, "density": 4.954653315600731, "density_atomic": 40.905736453607915, "symmetry": null, "property_name": null, "material_id": "mp-2049132", "deprecated": null, "deprecation_reasons": null, "last_updated": null, "origins": null, "warnings": null, "structure": {"@module": "pymatgen.core.structure", "@class": "Structure", "charge": 0, "lattice": {"matrix": [[6.5153096900000005, 1e-08, -2.51518979], [-0.9709703900000001, 6.44255059, -2.51518979], [0.014020010000000001, 0.01629194, 9.73249189]], "pbc": [true, true, true], "a": 6.983941583112515, "b": 6.983940240486479, "c": 9.73251562428261, "alpha": 111.0261664174629, "beta": 111.026165728873, "gamma": 89.99999183185462, "volume": 409.05736453607926}, "properties": {}, "sites": [{"species": [{"element": "Cs", "occu": 1}], "abc": [0.38840243, 0.38840243, 0.77680487], "properties": {"magmom": -0.0}, "label": "Cs", "xyz": [2.1643256689099477, 2.5149579667717057, 5.606435444693125]}, {"species": [{"element": "Cs", "occu": 1}], "abc": [0.61159757, 0.61159757, 0.22319513], "properties": {"magmom": -0.0}, "label": "Cs", "xyz": [3.394033641090053, 3.9438845732282943, -0.9043231346931249]}, {"species": [{"element": "Cs", "occu": 1}], "abc": [0.25, 0.75, 0.5], "properties": {"magmom": 0.0}, "label": "Cs", "xyz": [0.9076096350000001, 4.840058915, 2.351056155]}, {"species": [{"element": "Cs", "occu": 1}], "abc": [0.75, 0.25, 0.5], "properties": {"magmom": 0.0}, "label": "Cs", "xyz": [4.650749674999999, 1.6187836249999998, 2.351056155]}, {"species": [{"element": "In", "occu": 1}], "abc": [0.0007148300000000001, 0.70629195, 0.00143066], "properties": {"magmom": -0.0}, "label": "In", "xyz": [-0.6811111734521512, 4.550344927418778, -1.7643323476694288]}, {"species": [{"element": "In", "occu": 1}], "abc": [0.13934687, 0.13934687, 0.27869373000000003], "properties": {"magmom": 0.0}, "label": "In", "xyz": [0.7764936165545284, 0.9022897224541582, 2.0114168176339353]}, {"species": [{"element": "In", "occu": 1}], "abc": [0.86065313, 0.86065313, 0.72130627], "properties": {"magmom": 0.0}, "label": "In", "xyz": [4.781865693445472, 5.556552817545842, 2.690695492366066]}, {"species": [{"element": "In", "occu": 1}], "abc": [0.0007148300000000001, 0.29513871, 0.00143066], "properties": {"magmom": -0.0}, "label": "In", "xyz": [-0.2818935516595877, 1.9014693784763677, -0.7302039162960093]}, {"species": [{"element": "In", "occu": 1}], "abc": [0.29370805, 0.9992851700000001, 0.99856934], "properties": {"magmom": -0.0}, "label": "In", "xyz": [0.9573225450923816, 6.45421389627195, 6.466444657669429]}, {"species": [{"element": "In", "occu": 1}], "abc": [0.70486129, 0.9992851700000001, 0.99856934], "properties": {"magmom": -0.0}, "label": "In", "xyz": [3.6361132337392768, 6.454213900383483, 5.43231622629601]}]}, "task_ids": null, "uncorrected_energy_per_atom": null, "energy_per_atom": -23.889140269000002, "formation_energy_per_atom": -0.298604841000002, "energy_above_hull": 0.0, "is_stable": true, "equilibrium_reaction_energy_per_atom": null, "decomposes_to": null, "xas": null, "grain_boundaries": null, "band_gap": 0.21629999999999902, "cbm": null, "vbm": null, "efermi": 4.04744778, "is_gap_direct": null, "is_metal": null, "es_source_calc_id": null, "bandstructure": null, "dos": null, "dos_energy_up": null, "dos_energy_down": null, "is_magnetic": null, "ordering": null, "total_magnetization": 0.0, "total_magnetization_normalized_vol": null, "total_magnetization_normalized_formula_units": null, "num_magnetic_sites": null, "num_unique_magnetic_sites": null, "types_of_magnetic_species": null, "bulk_modulus": null, "shear_modulus": null, "universal_anisotropy": null, "homogeneous_poisson": null, "e_total": null, "e_ionic": null, "e_electronic": null, "n": null, "e_ij_max": null, "weighted_surface_energy_EV_PER_ANG2": null, "weighted_surface_energy": null, "weighted_work_function": null, "surface_anisotropy": null, "shape_factor": null, "has_reconstructed": null, "possible_species": null, "has_props": null, "theoretical": null, "database_IDs": null, "fields_not_requested": ["builder_meta", "nsites", "elements", "nelements", "composition", "composition_reduced", "chemsys", "symmetry", "property_name", "deprecated", "deprecation_reasons", "last_updated", "origins", "warnings", "task_ids", "uncorrected_energy_per_atom", "equilibrium_reaction_energy_per_atom", "decomposes_to", "xas", "grain_boundaries", "cbm", "vbm", "is_gap_direct", "is_metal", "es_source_calc_id", "bandstructure", "dos", "dos_energy_up", "dos_energy_down", "is_magnetic", "ordering", "total_magnetization_normalized_vol", "total_magnetization_normalized_formula_units", "num_magnetic_sites", "num_unique_magnetic_sites", "types_of_magnetic_species", "bulk_modulus", "shear_modulus", "universal_anisotropy", "homogeneous_poisson", "e_total", "e_ionic", "e_electronic", "n", "e_ij_max", "weighted_surface_energy_EV_PER_ANG2", "weighted_surface_energy", "weighted_work_function", "surface_anisotropy", "shape_factor", "has_reconstructed", "possible_species", "has_props", "theoretical", "database_IDs"]}