{
  "builder_meta": null,
  "nsites": null,
  "elements": null,
  "nelements": null,
  "composition": null,
  "composition_reduced": null,
  "formula_pretty": "Cs2O3",
  "formula_anonymous": "A2B3",
  "chemsys": null,
  "volume": 483.0414253319752,
  "density": 4.315093894537169,
  "density_atomic": 24.15207126659876,
  "symmetry": null,
  "property_name": null,
  "material_id": "mp-1213719",
  "deprecated": null,
  "deprecation_reasons": null,
  "last_updated": null,
  "origins": null,
  "warnings": null,
  "structure": {
    "@module": "pymatgen.core.structure",
    "@class": "Structure",
    "charge": 0,
    "lattice": {
      "matrix": [
        [-4.94282, 4.94282, 4.94282],
        [4.94282, -4.94282, 4.94282],
        [4.94282, 4.94282, -4.94282]
      ],
      "pbc": [true, true, true],
      "a": 8.561215372667599,
      "b": 8.561215372667599,
      "c": 8.561215372667599,
      "alpha": 109.47122063449069,
      "beta": 109.47122063449069,
      "gamma": 109.47122063449069,
      "volume": 483.0414253319752
    },
    "properties": {},
    "sites": [
      {
        "species": [{ "element": "Cs", "occu": 1 }],
        "abc": [0.39824000000000004, 0.39824000000000004, 0.39824000000000004],
        "properties": { "magmom": 0.006 },
        "label": "Cs",
        "xyz": [1.9684286368000004, 1.9684286368000004, 1.9684286368000004]
      },
      {
        "species": [{ "element": "Cs", "occu": 1 }],
        "abc": [0.10176, 0.5, 0.0],
        "properties": { "magmom": 0.006 },
        "label": "Cs",
        "xyz": [1.9684286368000001, -1.9684286368000001, 2.9743913632]
      },
      {
        "species": [{ "element": "Cs", "occu": 1 }],
        "abc": [0.0, 0.10176, 0.5],
        "properties": { "magmom": 0.006 },
        "label": "Cs",
        "xyz": [2.9743913632, 1.9684286368000001, -1.9684286368000001]
      },
      {
        "species": [{ "element": "Cs", "occu": 1 }],
        "abc": [0.89824, 0.89824, 0.89824],
        "properties": { "magmom": 0.006 },
        "label": "Cs",
        "xyz": [4.4398386368, 4.4398386368, 4.4398386368]
      },
      {
        "species": [{ "element": "Cs", "occu": 1 }],
        "abc": [0.5, 0.0, 0.10176],
        "properties": { "magmom": 0.006 },
        "label": "Cs",
        "xyz": [-1.9684286368000001, 2.9743913632, 1.9684286368000001]
      },
      {
        "species": [{ "element": "Cs", "occu": 1 }],
        "abc": [0.6017600000000001, 0.5, 0.0],
        "properties": { "magmom": 0.006 },
        "label": "Cs",
        "xyz": [-0.5029813632000004, 0.5029813632000004, 5.445801363200001]
      },
      {
        "species": [{ "element": "Cs", "occu": 1 }],
        "abc": [0.5, 0.0, 0.6017600000000001],
        "properties": { "magmom": 0.006 },
        "label": "Cs",
        "xyz": [0.5029813632000004, 5.445801363200001, -0.5029813632000004]
      },
      {
        "species": [{ "element": "Cs", "occu": 1 }],
        "abc": [0.0, 0.6017600000000001, 0.5],
        "properties": { "magmom": 0.006 },
        "label": "Cs",
        "xyz": [5.445801363200001, -0.5029813632000004, 0.5029813632000004]
      },
      {
        "species": [{ "element": "O", "occu": 1 }],
        "abc": [0.195746, 0.945746, 0.25],
        "properties": { "magmom": 0.269 },
        "label": "O",
        "xyz": [4.94282, -2.4714099999999997, 4.406484487439999]
      },
      {
        "species": [{ "element": "O", "occu": 1 }],
        "abc": [0.304253999999999, 0.554254, 0.75],
        "properties": { "magmom": 0.269 },
        "label": "O",
        "xyz": [4.942820000000005, 2.471409999999995, 0.5363355125599956]
      },
      {
        "species": [{ "element": "O", "occu": 1 }],
        "abc": [0.945746, 0.25, 0.195746],
        "properties": { "magmom": 0.269 },
        "label": "O",
        "xyz": [-2.4714099999999997, 4.406484487439999, 4.94282]
      },
      {
        "species": [{ "element": "O", "occu": 1 }],
        "abc": [0.695746, 0.75, 0.445746],
        "properties": { "magmom": 0.269 },
        "label": "O",
        "xyz": [2.47141, 1.93507448744, 4.942819999999999]
      },
      {
        "species": [{ "element": "O", "occu": 1 }],
        "abc": [0.554254, 0.75, 0.304253999999999],
        "properties": { "magmom": 0.269 },
        "label": "O",
        "xyz": [2.471409999999995, 0.5363355125599953, 4.942820000000005]
      },
      {
        "species": [{ "element": "O", "occu": 1 }],
        "abc": [0.804253999999999, 0.25, 0.054254],
        "properties": { "magmom": 0.269 },
        "label": "O",
        "xyz": [-2.4714099999999957, 3.0077455125599957, 4.942819999999996]
      },
      {
        "species": [{ "element": "O", "occu": 1 }],
        "abc": [0.25, 0.195746, 0.945746],
        "properties": { "magmom": 0.269 },
        "label": "O",
        "xyz": [4.40648448744, 4.942819999999999, -2.4714099999999997]
      },
      {
        "species": [{ "element": "O", "occu": 1 }],
        "abc": [0.445746, 0.695746, 0.75],
        "properties": { "magmom": 0.269 },
        "label": "O",
        "xyz": [4.942819999999999, 2.47141, 1.9350744874399997]
      },
      {
        "species": [{ "element": "O", "occu": 1 }],
        "abc": [0.75, 0.304253999999999, 0.554254],
        "properties": { "magmom": 0.269 },
        "label": "O",
        "xyz": [0.5363355125599956, 4.942820000000005, 2.471409999999995]
      },
      {
        "species": [{ "element": "O", "occu": 1 }],
        "abc": [0.054254, 0.804253999999999, 0.25],
        "properties": { "magmom": 0.269 },
        "label": "O",
        "xyz": [4.942819999999996, -2.471409999999995, 3.0077455125599952]
      },
      {
        "species": [{ "element": "O", "occu": 1 }],
        "abc": [0.75, 0.445746, 0.695746],
        "properties": { "magmom": 0.269 },
        "label": "O",
        "xyz": [1.93507448744, 4.942819999999999, 2.47141]
      },
      {
        "species": [{ "element": "O", "occu": 1 }],
        "abc": [0.25, 0.054254, 0.804253999999999],
        "properties": { "magmom": 0.269 },
        "label": "O",
        "xyz": [3.0077455125599952, 4.942819999999996, -2.471409999999995]
      }
    ]
  },
  "task_ids": null,
  "uncorrected_energy_per_atom": null,
  "energy_per_atom": -4.3551941005,
  "formation_energy_per_atom": -1.023226469362069,
  "energy_above_hull": 0.07277228049999801,
  "is_stable": false,
  "equilibrium_reaction_energy_per_atom": null,
  "decomposes_to": null,
  "xas": null,
  "grain_boundaries": null,
  "band_gap": 0.0,
  "cbm": null,
  "vbm": null,
  "efermi": 1.88813791,
  "is_gap_direct": null,
  "is_metal": null,
  "es_source_calc_id": null,
  "bandstructure": null,
  "dos": null,
  "dos_energy_up": null,
  "dos_energy_down": null,
  "is_magnetic": null,
  "ordering": null,
  "total_magnetization": 3.9981511,
  "total_magnetization_normalized_vol": null,
  "total_magnetization_normalized_formula_units": null,
  "num_magnetic_sites": null,
  "num_unique_magnetic_sites": null,
  "types_of_magnetic_species": null,
  "bulk_modulus": null,
  "shear_modulus": null,
  "universal_anisotropy": null,
  "homogeneous_poisson": null,
  "e_total": null,
  "e_ionic": null,
  "e_electronic": null,
  "n": null,
  "e_ij_max": null,
  "weighted_surface_energy_EV_PER_ANG2": null,
  "weighted_surface_energy": null,
  "weighted_work_function": null,
  "surface_anisotropy": null,
  "shape_factor": null,
  "has_reconstructed": null,
  "possible_species": null,
  "has_props": null,
  "theoretical": null,
  "database_IDs": null,
  "fields_not_requested": [
    "builder_meta",
    "nsites",
    "elements",
    "nelements",
    "composition",
    "composition_reduced",
    "chemsys",
    "symmetry",
    "property_name",
    "deprecated",
    "deprecation_reasons",
    "last_updated",
    "origins",
    "warnings",
    "task_ids",
    "uncorrected_energy_per_atom",
    "equilibrium_reaction_energy_per_atom",
    "decomposes_to",
    "xas",
    "grain_boundaries",
    "cbm",
    "vbm",
    "is_gap_direct",
    "is_metal",
    "es_source_calc_id",
    "bandstructure",
    "dos",
    "dos_energy_up",
    "dos_energy_down",
    "is_magnetic",
    "ordering",
    "total_magnetization_normalized_vol",
    "total_magnetization_normalized_formula_units",
    "num_magnetic_sites",
    "num_unique_magnetic_sites",
    "types_of_magnetic_species",
    "bulk_modulus",
    "shear_modulus",
    "universal_anisotropy",
    "homogeneous_poisson",
    "e_total",
    "e_ionic",
    "e_electronic",
    "n",
    "e_ij_max",
    "weighted_surface_energy_EV_PER_ANG2",
    "weighted_surface_energy",
    "weighted_work_function",
    "surface_anisotropy",
    "shape_factor",
    "has_reconstructed",
    "possible_species",
    "has_props",
    "theoretical",
    "database_IDs"
  ]
}
