{
  "builder_meta": null,
  "nsites": null,
  "elements": null,
  "nelements": null,
  "composition": null,
  "composition_reduced": null,
  "formula_pretty": "Cs2O",
  "formula_anonymous": "AB2",
  "chemsys": null,
  "volume": 102.22237851217304,
  "density": 4.577833402444146,
  "density_atomic": 34.07412617072435,
  "symmetry": null,
  "property_name": null,
  "material_id": "mp-7988",
  "deprecated": null,
  "deprecation_reasons": null,
  "last_updated": null,
  "origins": null,
  "warnings": null,
  "structure": {
    "@module": "pymatgen.core.structure",
    "@class": "Structure",
    "charge": 0,
    "lattice": {
      "matrix": [
        [4.12624015, 0.08657458, 5.80551726],
        [1.915926279999999, 3.65548482, 5.80551727],
        [0.13978601000000002, 0.08657458, 7.12112045]
      ],
      "pbc": [true, true, true],
      "a": 7.123017870926066,
      "b": 7.123017166335718,
      "c": 7.12301844374294,
      "alpha": 34.27591700838999,
      "beta": 34.2759373943704,
      "gamma": 34.275919850843465,
      "volume": 102.22237851217304
    },
    "properties": {},
    "sites": [
      {
        "species": [{ "element": "Cs", "occu": 1 }],
        "abc": [0.25788143, 0.25788143, 0.25788143],
        "properties": { "magmom": -0.0 },
        "label": "Cs",
        "xyz": [1.5942107354191892, 0.9873336057089914, 4.830674913224022]
      },
      {
        "species": [{ "element": "Cs", "occu": 1 }],
        "abc": [0.74211857, 0.74211857, 0.74211857],
        "properties": { "magmom": -0.0 },
        "label": "Cs",
        "xyz": [4.587741704580811, 2.8413003742910092, 13.901480066775978]
      },
      {
        "species": [{ "element": "O", "occu": 1 }],
        "abc": [-0.0, 0.0, 0.0],
        "properties": { "magmom": 0.0 },
        "label": "O",
        "xyz": [0.0, 0.0, 0.0]
      }
    ]
  },
  "task_ids": null,
  "uncorrected_energy_per_atom": null,
  "energy_per_atom": -3.434885260000001,
  "formation_energy_per_atom": -1.180246544770117,
  "energy_above_hull": 0.0,
  "is_stable": true,
  "equilibrium_reaction_energy_per_atom": null,
  "decomposes_to": null,
  "xas": null,
  "grain_boundaries": null,
  "band_gap": 0.583199999999999,
  "cbm": null,
  "vbm": null,
  "efermi": 1.61294492,
  "is_gap_direct": null,
  "is_metal": null,
  "es_source_calc_id": null,
  "bandstructure": null,
  "dos": null,
  "dos_energy_up": null,
  "dos_energy_down": null,
  "is_magnetic": null,
  "ordering": null,
  "total_magnetization": 0.0,
  "total_magnetization_normalized_vol": null,
  "total_magnetization_normalized_formula_units": null,
  "num_magnetic_sites": null,
  "num_unique_magnetic_sites": null,
  "types_of_magnetic_species": null,
  "bulk_modulus": null,
  "shear_modulus": null,
  "universal_anisotropy": null,
  "homogeneous_poisson": null,
  "e_total": null,
  "e_ionic": null,
  "e_electronic": null,
  "n": null,
  "e_ij_max": null,
  "weighted_surface_energy_EV_PER_ANG2": null,
  "weighted_surface_energy": null,
  "weighted_work_function": null,
  "surface_anisotropy": null,
  "shape_factor": null,
  "has_reconstructed": null,
  "possible_species": null,
  "has_props": null,
  "theoretical": null,
  "database_IDs": null,
  "fields_not_requested": [
    "builder_meta",
    "nsites",
    "elements",
    "nelements",
    "composition",
    "composition_reduced",
    "chemsys",
    "symmetry",
    "property_name",
    "deprecated",
    "deprecation_reasons",
    "last_updated",
    "origins",
    "warnings",
    "task_ids",
    "uncorrected_energy_per_atom",
    "equilibrium_reaction_energy_per_atom",
    "decomposes_to",
    "xas",
    "grain_boundaries",
    "cbm",
    "vbm",
    "is_gap_direct",
    "is_metal",
    "es_source_calc_id",
    "bandstructure",
    "dos",
    "dos_energy_up",
    "dos_energy_down",
    "is_magnetic",
    "ordering",
    "total_magnetization_normalized_vol",
    "total_magnetization_normalized_formula_units",
    "num_magnetic_sites",
    "num_unique_magnetic_sites",
    "types_of_magnetic_species",
    "bulk_modulus",
    "shear_modulus",
    "universal_anisotropy",
    "homogeneous_poisson",
    "e_total",
    "e_ionic",
    "e_electronic",
    "n",
    "e_ij_max",
    "weighted_surface_energy_EV_PER_ANG2",
    "weighted_surface_energy",
    "weighted_work_function",
    "surface_anisotropy",
    "shape_factor",
    "has_reconstructed",
    "possible_species",
    "has_props",
    "theoretical",
    "database_IDs"
  ]
}
