{"builder_meta": null, "nsites": null, "elements": null, "nelements": null, "composition": null, "composition_reduced": null, "formula_pretty": "Cs2O2", "formula_anonymous": "AB", "chemsys": null, "volume": 105.42063966239483, "density": 4.690966106411125, "density_atomic": 26.35515991559871, "symmetry": null, "property_name": null, "material_id": "mp-7896", "deprecated": null, "deprecation_reasons": null, "last_updated": null, "origins": null, "warnings": null, "structure": {"@module": "pymatgen.core.structure", "@class": "Structure", "charge": 0, "lattice": {"matrix": [[3.97120196, -0.0, 1.7351062800000001], [1.67356605, 4.90225465, 1.58171785], [-0.00177823, 0.010417, 5.41614683]], "pbc": [true, true, true], "a": 4.33370958994754, "b": 5.416156878651859, "c": 5.416157139532602, "alpha": 72.92185299976752, "beta": 66.41727290017873, "gamma": 66.41730183256082, "volume": 105.42063966239483}, "properties": {}, "sites": [{"species": [{"element": "Cs", "occu": 1}], "abc": [0.74643967, 0.25356033, 0.25356033], "properties": {"magmom": 0.0}, "label": "Cs", "xyz": [3.3881617518549336, 1.2456586447556444, 3.069533036614272]}, {"species": [{"element": "Cs", "occu": 1}], "abc": [0.25356033, 0.74643967, 0.74643967], "properties": {"magmom": 0.0}, "label": "Cs", "xyz": [2.254828028145066, 3.667013005244355, 5.663437923385728]}, {"species": [{"element": "O", "occu": 1}], "abc": [-0.0, 0.6171968, 0.3828032], "properties": {"magmom": -0.0}, "label": "O", "xyz": [1.032238898514304, 3.0296435436995197, 3.049549533716736]}, {"species": [{"element": "O", "occu": 1}], "abc": [0.0, 0.3828032, 0.6171968], "properties": {"magmom": -0.0}, "label": "O", "xyz": [0.639548921485696, 1.88302810630048, 3.9483151462832637]}]}, "task_ids": null, "uncorrected_energy_per_atom": null, "energy_per_atom": -4.152192639999999, "formation_energy_per_atom": -1.224223352327586, "energy_above_hull": 0.0, "is_stable": true, "equilibrium_reaction_energy_per_atom": null, "decomposes_to": null, "xas": null, "grain_boundaries": null, "band_gap": 1.6496, "cbm": null, "vbm": null, "efermi": 2.45455361, "is_gap_direct": null, "is_metal": null, "es_source_calc_id": null, "bandstructure": null, "dos": null, "dos_energy_up": null, "dos_energy_down": null, "is_magnetic": null, "ordering": null, "total_magnetization": 0.0, "total_magnetization_normalized_vol": null, "total_magnetization_normalized_formula_units": null, "num_magnetic_sites": null, "num_unique_magnetic_sites": null, "types_of_magnetic_species": null, "bulk_modulus": null, "shear_modulus": null, "universal_anisotropy": null, "homogeneous_poisson": null, "e_total": null, "e_ionic": null, "e_electronic": null, "n": null, "e_ij_max": null, "weighted_surface_energy_EV_PER_ANG2": null, "weighted_surface_energy": null, "weighted_work_function": null, "surface_anisotropy": null, "shape_factor": null, "has_reconstructed": null, "possible_species": null, "has_props": null, "theoretical": null, "database_IDs": null, "fields_not_requested": ["builder_meta", "nsites", "elements", "nelements", "composition", "composition_reduced", "chemsys", "symmetry", "property_name", "deprecated", "deprecation_reasons", "last_updated", "origins", "warnings", "task_ids", "uncorrected_energy_per_atom", "equilibrium_reaction_energy_per_atom", "decomposes_to", "xas", "grain_boundaries", "cbm", "vbm", "is_gap_direct", "is_metal", "es_source_calc_id", "bandstructure", "dos", "dos_energy_up", "dos_energy_down", "is_magnetic", "ordering", "total_magnetization_normalized_vol", "total_magnetization_normalized_formula_units", "num_magnetic_sites", "num_unique_magnetic_sites", "types_of_magnetic_species", "bulk_modulus", "shear_modulus", "universal_anisotropy", "homogeneous_poisson", "e_total", "e_ionic", "e_electronic", "n", "e_ij_max", "weighted_surface_energy_EV_PER_ANG2", "weighted_surface_energy", "weighted_work_function", "surface_anisotropy", "shape_factor", "has_reconstructed", "possible_species", "has_props", "theoretical", "database_IDs"]}