{
  "builder_meta": null,
  "nsites": null,
  "elements": null,
  "nelements": null,
  "composition": null,
  "composition_reduced": null,
  "formula_pretty": "Cs2Se5",
  "formula_anonymous": "A2B5",
  "chemsys": null,
  "volume": 1037.1543444648842,
  "density": 4.23069225688993,
  "density_atomic": 37.04122658803158,
  "symmetry": null,
  "property_name": null,
  "material_id": "mp-541055",
  "deprecated": null,
  "deprecation_reasons": null,
  "last_updated": null,
  "origins": null,
  "warnings": null,
  "structure": {
    "@module": "pymatgen.core.structure",
    "@class": "Structure",
    "charge": 0,
    "lattice": {
      "matrix": [
        [7.20806419, 0.0, 0.0],
        [0.0, 7.5494162, 0.0],
        [0.0, 0.0, 19.05949444]
      ],
      "pbc": [true, true, true],
      "a": 7.20806419,
      "b": 7.5494162,
      "c": 19.05949444,
      "alpha": 90.0,
      "beta": 90.0,
      "gamma": 90.0,
      "volume": 1037.1543444648842
    },
    "properties": {},
    "sites": [
      {
        "species": [{ "element": "Cs", "occu": 1 }],
        "abc": [0.61936331, 0.41798516, 0.51307206],
        "properties": { "magmom": 0.0 },
        "label": "Cs",
        "xyz": [4.464410495410869, 3.155543938263592, 9.77889407488935]
      },
      {
        "species": [{ "element": "Cs", "occu": 1 }],
        "abc": [0.11936331, 0.08201484, 0.48692794],
        "properties": { "magmom": 0.0 },
        "label": "Cs",
        "xyz": [0.8603784004108689, 0.619164161736408, 9.280600365110654]
      },
      {
        "species": [{ "element": "Cs", "occu": 1 }],
        "abc": [0.38063669, 0.91798516, 0.9869279400000001],
        "properties": { "magmom": 0.0 },
        "label": "Cs",
        "xyz": [2.743653694589131, 6.930252038263592, 18.810347585110655]
      },
      {
        "species": [{ "element": "Cs", "occu": 1 }],
        "abc": [0.88063669, 0.58201484, 0.01307206],
        "properties": { "magmom": 0.0 },
        "label": "Cs",
        "xyz": [6.347685789589131, 4.393872261736408, 0.24914685488934643]
      },
      {
        "species": [{ "element": "Cs", "occu": 1 }],
        "abc": [0.08047376, 0.25002519, 0.83899431],
        "properties": { "magmom": -0.0 },
        "label": "Cs",
        "xyz": [0.5800600276906545, 1.887544219794078, 15.990807386636638]
      },
      {
        "species": [{ "element": "Cs", "occu": 1 }],
        "abc": [0.5804737600000001, 0.24997481, 0.16100569],
        "properties": { "magmom": -0.0 },
        "label": "Cs",
        "xyz": [4.184092122690655, 1.8871638802059219, 3.068687053363364]
      },
      {
        "species": [{ "element": "Cs", "occu": 1 }],
        "abc": [0.91952624, 0.75002519, 0.66100569],
        "properties": { "magmom": -0.0 },
        "label": "Cs",
        "xyz": [6.628004162309346, 5.662252319794078, 12.598434273363365]
      },
      {
        "species": [{ "element": "Cs", "occu": 1 }],
        "abc": [0.41952624, 0.74997481, 0.33899431],
        "properties": { "magmom": -0.0 },
        "label": "Cs",
        "xyz": [3.0239720673093458, 5.661871980205921, 6.461060166636638]
      },
      {
        "species": [{ "element": "Se", "occu": 1 }],
        "abc": [0.5997086500000001, 0.92241194, 0.52080419],
        "properties": { "magmom": 0.0 },
        "label": "Se",
        "xyz": [4.322738444498244, 6.963671642909428, 9.926264563633705]
      },
      {
        "species": [{ "element": "Se", "occu": 1 }],
        "abc": [0.09970865, 0.57758806, 0.47919581],
        "properties": { "magmom": 0.0 },
        "label": "Se",
        "xyz": [0.7187063494982435, 4.360452657090572, 9.133229876366297]
      },
      {
        "species": [{ "element": "Se", "occu": 1 }],
        "abc": [0.40029135, 0.42241194, 0.97919581],
        "properties": { "magmom": 0.0 },
        "label": "Se",
        "xyz": [2.8853257455017562, 3.188963542909428, 18.662977096366298]
      },
      {
        "species": [{ "element": "Se", "occu": 1 }],
        "abc": [0.90029135, 0.07758806, 0.02080419],
        "properties": { "magmom": 0.0 },
        "label": "Se",
        "xyz": [6.489357840501757, 0.5857445570905719, 0.3965173436337036]
      },
      {
        "species": [{ "element": "Se", "occu": 1 }],
        "abc": [0.43232643, 0.87580835, 0.62374666],
        "properties": { "magmom": 0.0 },
        "label": "Se",
        "xyz": [3.1162366584735417, 6.61184174558527, 11.888295998238572]
      },
      {
        "species": [{ "element": "Se", "occu": 1 }],
        "abc": [0.93232643, 0.62419165, 0.37625334],
        "properties": { "magmom": 0.0 },
        "label": "Se",
        "xyz": [6.720268753473542, 4.712282554414729, 7.1711984417614305]
      },
      {
        "species": [{ "element": "Se", "occu": 1 }],
        "abc": [0.56767357, 0.37580735, 0.87625334],
        "properties": { "magmom": 0.0 },
        "label": "Se",
        "xyz": [4.091827531526458, 2.8371260961690696, 16.70094566176143]
      },
      {
        "species": [{ "element": "Se", "occu": 1 }],
        "abc": [0.06767357, 0.12419265, 0.12374666000000001],
        "properties": { "magmom": 0.0 },
        "label": "Se",
        "xyz": [0.4877954365264583, 0.9375820038309299, 2.358548778238571]
      },
      {
        "species": [{ "element": "Se", "occu": 1 }],
        "abc": [0.45572639000000004, 0.12769921, 0.69776223],
        "properties": { "magmom": -0.0 },
        "label": "Se",
        "xyz": [3.2849050721969744, 0.964054484701202, 13.298995343127004]
      },
      {
        "species": [{ "element": "Se", "occu": 1 }],
        "abc": [0.95572539, 0.37230079, 0.30223777],
        "properties": { "magmom": -0.0 },
        "label": "Se",
        "xyz": [6.888929959132784, 2.810653615298798, 5.760499096873]
      },
      {
        "species": [{ "element": "Se", "occu": 1 }],
        "abc": [0.54427461, 0.6276992100000001, 0.8022377700000001],
        "properties": { "magmom": -0.0 },
        "label": "Se",
        "xyz": [3.923166325867216, 4.7387625847012025, 15.290246316873002]
      },
      {
        "species": [{ "element": "Se", "occu": 1 }],
        "abc": [0.04427361, 0.87230079, 0.19776223],
        "properties": { "magmom": -0.0 },
        "label": "Se",
        "xyz": [0.3191270228030259, 6.585361715298798, 3.7692481231270016]
      },
      {
        "species": [{ "element": "Se", "occu": 1 }],
        "abc": [0.25057905, 0.34638908, 0.65080441],
        "properties": { "magmom": 0.0 },
        "label": "Se",
        "xyz": [1.8061898770692197, 2.615035332055096, 12.404003033922482]
      },
      {
        "species": [{ "element": "Se", "occu": 1 }],
        "abc": [0.75057905, 0.15361092, 0.34919559],
        "properties": { "magmom": 0.0 },
        "label": "Se",
        "xyz": [5.41022197206922, 1.159672767944904, 6.6554914060775205]
      },
      {
        "species": [{ "element": "Se", "occu": 1 }],
        "abc": [0.74942095, 0.84638908, 0.84919559],
        "properties": { "magmom": 0.0 },
        "label": "Se",
        "xyz": [5.40187431293078, 6.389743432055096, 16.18523862607752]
      },
      {
        "species": [{ "element": "Se", "occu": 1 }],
        "abc": [0.24942095, 0.65361092, 0.15080441],
        "properties": { "magmom": 0.0 },
        "label": "Se",
        "xyz": [1.7978422179307805, 4.9343808679449035, 2.8742558139224808]
      },
      {
        "species": [{ "element": "Se", "occu": 1 }],
        "abc": [0.94448959, 0.24616292, 0.6579421],
        "properties": { "magmom": -0.0 },
        "label": "Se",
        "xyz": [6.807941591506782, 1.8583863360873039, 12.540043796791924]
      },
      {
        "species": [{ "element": "Se", "occu": 1 }],
        "abc": [0.44448959, 0.25383708, 0.342057899999999],
        "properties": { "magmom": -0.0 },
        "label": "Se",
        "xyz": [3.203909496506782, 1.916321763912696, 6.519450643208058]
      },
      {
        "species": [{ "element": "Se", "occu": 1 }],
        "abc": [0.05551041, 0.7461629200000001, 0.842057899999999],
        "properties": { "magmom": -0.0 },
        "label": "Se",
        "xyz": [0.4001225984932179, 5.633094436087304, 16.049197863208057]
      },
      {
        "species": [{ "element": "Se", "occu": 1 }],
        "abc": [0.55551041, 0.75383708, 0.1579421],
        "properties": { "magmom": -0.0 },
        "label": "Se",
        "xyz": [4.004154693493218, 5.691029863912696, 3.0102965767919243]
      }
    ]
  },
  "task_ids": null,
  "uncorrected_energy_per_atom": null,
  "energy_per_atom": -18.129228242857142,
  "formation_energy_per_atom": -0.7328415064732151,
  "energy_above_hull": 0.0,
  "is_stable": true,
  "equilibrium_reaction_energy_per_atom": null,
  "decomposes_to": null,
  "xas": null,
  "grain_boundaries": null,
  "band_gap": 0.9618000000000001,
  "cbm": null,
  "vbm": null,
  "efermi": 1.01137219,
  "is_gap_direct": null,
  "is_metal": null,
  "es_source_calc_id": null,
  "bandstructure": null,
  "dos": null,
  "dos_energy_up": null,
  "dos_energy_down": null,
  "is_magnetic": null,
  "ordering": null,
  "total_magnetization": 0.0,
  "total_magnetization_normalized_vol": null,
  "total_magnetization_normalized_formula_units": null,
  "num_magnetic_sites": null,
  "num_unique_magnetic_sites": null,
  "types_of_magnetic_species": null,
  "bulk_modulus": null,
  "shear_modulus": null,
  "universal_anisotropy": null,
  "homogeneous_poisson": null,
  "e_total": null,
  "e_ionic": null,
  "e_electronic": null,
  "n": null,
  "e_ij_max": null,
  "weighted_surface_energy_EV_PER_ANG2": null,
  "weighted_surface_energy": null,
  "weighted_work_function": null,
  "surface_anisotropy": null,
  "shape_factor": null,
  "has_reconstructed": null,
  "possible_species": null,
  "has_props": null,
  "theoretical": null,
  "database_IDs": null,
  "fields_not_requested": [
    "builder_meta",
    "nsites",
    "elements",
    "nelements",
    "composition",
    "composition_reduced",
    "chemsys",
    "symmetry",
    "property_name",
    "deprecated",
    "deprecation_reasons",
    "last_updated",
    "origins",
    "warnings",
    "task_ids",
    "uncorrected_energy_per_atom",
    "equilibrium_reaction_energy_per_atom",
    "decomposes_to",
    "xas",
    "grain_boundaries",
    "cbm",
    "vbm",
    "is_gap_direct",
    "is_metal",
    "es_source_calc_id",
    "bandstructure",
    "dos",
    "dos_energy_up",
    "dos_energy_down",
    "is_magnetic",
    "ordering",
    "total_magnetization_normalized_vol",
    "total_magnetization_normalized_formula_units",
    "num_magnetic_sites",
    "num_unique_magnetic_sites",
    "types_of_magnetic_species",
    "bulk_modulus",
    "shear_modulus",
    "universal_anisotropy",
    "homogeneous_poisson",
    "e_total",
    "e_ionic",
    "e_electronic",
    "n",
    "e_ij_max",
    "weighted_surface_energy_EV_PER_ANG2",
    "weighted_surface_energy",
    "weighted_work_function",
    "surface_anisotropy",
    "shape_factor",
    "has_reconstructed",
    "possible_species",
    "has_props",
    "theoretical",
    "database_IDs"
  ]
}
