{"builder_meta": null, "nsites": null, "elements": null, "nelements": null, "composition": null, "composition_reduced": null, "formula_pretty": "Cs2S", "formula_anonymous": "AB2", "chemsys": null, "volume": 491.3935080242464, "density": 4.026382662216831, "density_atomic": 40.94945900202053, "symmetry": null, "property_name": null, "material_id": "mp-540703", "deprecated": null, "deprecation_reasons": null, "last_updated": null, "origins": null, "warnings": null, "structure": {"@module": "pymatgen.core.structure", "@class": "Structure", "charge": 0, "lattice": {"matrix": [[5.3896224, 0.0, 0.0], [0.0, 8.67889093, 0.0], [0.0, 0.0, 10.50526095]], "pbc": [true, true, true], "a": 5.3896224, "b": 8.67889093, "c": 10.50526095, "alpha": 90.0, "beta": 90.0, "gamma": 90.0, "volume": 491.3935080242464}, "properties": {}, "sites": [{"species": [{"element": "Cs", "occu": 1}], "abc": [0.75, 0.9757937600000001, 0.82887612], "properties": {"magmom": -0.0}, "label": "Cs", "xyz": [4.0422168, 8.468807613214597, 8.707559935823515]}, {"species": [{"element": "Cs", "occu": 1}], "abc": [0.25, 0.02420624, 0.17112388], "properties": {"magmom": -0.0}, "label": "Cs", "xyz": [1.3474056, 0.2100833167854032, 1.7977010141764862]}, {"species": [{"element": "Cs", "occu": 1}], "abc": [0.75, 0.47579376, 0.67112388], "properties": {"magmom": -0.0}, "label": "Cs", "xyz": [4.0422168, 4.129362148214597, 7.050331489176486]}, {"species": [{"element": "Cs", "occu": 1}], "abc": [0.25, 0.52420624, 0.32887612], "properties": {"magmom": -0.0}, "label": "Cs", "xyz": [1.3474056, 4.549528781785403, 3.454929460823514]}, {"species": [{"element": "Cs", "occu": 1}], "abc": [0.75, 0.85515434, 0.42590942], "properties": {"magmom": 0.0}, "label": "Cs", "xyz": [4.0422168, 7.421791245176136, 4.474289598163149]}, {"species": [{"element": "Cs", "occu": 1}], "abc": [0.25, 0.14484566000000001, 0.57409058], "properties": {"magmom": 0.0}, "label": "Cs", "xyz": [1.3474056, 1.2570996848238638, 6.030971351836851]}, {"species": [{"element": "Cs", "occu": 1}], "abc": [0.75, 0.35515434, 0.07409058], "properties": {"magmom": 0.0}, "label": "Cs", "xyz": [4.0422168, 3.0823457801761363, 0.778340876836851]}, {"species": [{"element": "Cs", "occu": 1}], "abc": [0.25, 0.64484566, 0.92590942], "properties": {"magmom": 0.0}, "label": "Cs", "xyz": [1.3474056, 5.596545149823863, 9.726920073163148]}, {"species": [{"element": "S", "occu": 1}], "abc": [0.75, 0.75470159, 0.11089072], "properties": {"magmom": -0.0}, "label": "S", "xyz": [4.0422168, 6.549972784307578, 1.164935950533384]}, {"species": [{"element": "S", "occu": 1}], "abc": [0.25, 0.24529941, 0.88910928], "properties": {"magmom": -0.0}, "label": "S", "xyz": [1.3474056, 2.1289268245833513, 9.340324999466617]}, {"species": [{"element": "S", "occu": 1}], "abc": [0.75, 0.25470159, 0.38910928], "properties": {"magmom": -0.0}, "label": "S", "xyz": [4.0422168, 2.2105273193075785, 4.087694524466616]}, {"species": [{"element": "S", "occu": 1}], "abc": [0.25, 0.74529841, 0.61089072], "properties": {"magmom": -0.0}, "label": "S", "xyz": [1.3474056, 6.468363610692421, 6.417566425533384]}]}, "task_ids": null, "uncorrected_energy_per_atom": null, "energy_per_atom": -20.609419424166667, "formation_energy_per_atom": -1.192117730104165, "energy_above_hull": 0.0, "is_stable": true, "equilibrium_reaction_energy_per_atom": null, "decomposes_to": null, "xas": null, "grain_boundaries": null, "band_gap": 2.0952, "cbm": null, "vbm": null, "efermi": 1.43487357, "is_gap_direct": null, "is_metal": null, "es_source_calc_id": null, "bandstructure": null, "dos": null, "dos_energy_up": null, "dos_energy_down": null, "is_magnetic": null, "ordering": null, "total_magnetization": 0.0, "total_magnetization_normalized_vol": null, "total_magnetization_normalized_formula_units": null, "num_magnetic_sites": null, "num_unique_magnetic_sites": null, "types_of_magnetic_species": null, "bulk_modulus": null, "shear_modulus": null, "universal_anisotropy": null, "homogeneous_poisson": null, "e_total": null, "e_ionic": null, "e_electronic": null, "n": null, "e_ij_max": null, "weighted_surface_energy_EV_PER_ANG2": null, "weighted_surface_energy": null, "weighted_work_function": null, "surface_anisotropy": null, "shape_factor": null, "has_reconstructed": null, "possible_species": null, "has_props": null, "theoretical": null, "database_IDs": null, "fields_not_requested": ["builder_meta", "nsites", "elements", "nelements", "composition", "composition_reduced", "chemsys", "symmetry", "property_name", "deprecated", "deprecation_reasons", "last_updated", "origins", "warnings", "task_ids", "uncorrected_energy_per_atom", "equilibrium_reaction_energy_per_atom", "decomposes_to", "xas", "grain_boundaries", "cbm", "vbm", "is_gap_direct", "is_metal", "es_source_calc_id", "bandstructure", "dos", "dos_energy_up", "dos_energy_down", "is_magnetic", "ordering", "total_magnetization_normalized_vol", "total_magnetization_normalized_formula_units", "num_magnetic_sites", "num_unique_magnetic_sites", "types_of_magnetic_species", "bulk_modulus", "shear_modulus", "universal_anisotropy", "homogeneous_poisson", "e_total", "e_ionic", "e_electronic", "n", "e_ij_max", "weighted_surface_energy_EV_PER_ANG2", "weighted_surface_energy", "weighted_work_function", "surface_anisotropy", "shape_factor", "has_reconstructed", "possible_species", "has_props", "theoretical", "database_IDs"]}