{"builder_meta": null, "nsites": null, "elements": null, "nelements": null, "composition": null, "composition_reduced": null, "formula_pretty": "Cs2Sb", "formula_anonymous": "AB2", "chemsys": null, "volume": 1187.825884244079, "density": 4.334484610070179, "density_atomic": 49.49274517683662, "symmetry": null, "property_name": null, "material_id": "mp-1191118", "deprecated": null, "deprecation_reasons": null, "last_updated": null, "origins": null, "warnings": null, "structure": {"@module": "pymatgen.core.structure", "@class": "Structure", "charge": 0, "lattice": {"matrix": [[0.0, 6.44204108, -0.0], [0.0, 0.0, 11.28236038], [16.34290767, 0.0, 0.0]], "pbc": [true, true, true], "a": 6.44204108, "b": 11.28236038, "c": 16.34290767, "alpha": 90.0, "beta": 90.0, "gamma": 90.0, "volume": 1187.825884244079}, "properties": {}, "sites": [{"species": [{"element": "Cs", "occu": 1}], "abc": [0.25, 0.26086198, 0.74415204], "properties": {"magmom": -0.0}, "label": "Cs", "xyz": [12.161608082162147, 1.61051027, 2.9431388678003523]}, {"species": [{"element": "Cs", "occu": 1}], "abc": [0.25, 0.23913802, 0.24415204000000001], "properties": {"magmom": -0.0}, "label": "Cs", "xyz": [3.9901542471621467, 1.61051027, 2.6980413221996478]}, {"species": [{"element": "Cs", "occu": 1}], "abc": [0.75, 0.7391380200000001, 0.25584796], "properties": {"magmom": -0.0}, "label": "Cs", "xyz": [4.181299587837852, 4.83153081, 8.339221512199648]}, {"species": [{"element": "Cs", "occu": 1}], "abc": [0.75, 0.76086198, 0.75584796], "properties": {"magmom": -0.0}, "label": "Cs", "xyz": [12.352753422837852, 4.83153081, 8.584319057800354]}, {"species": [{"element": "Cs", "occu": 1}], "abc": [0.75, 0.09404893, 0.70871892], "properties": {"magmom": -0.0}, "label": "Cs", "xyz": [11.582527873542116, 4.83153081, 1.0610939216133934]}, {"species": [{"element": "Cs", "occu": 1}], "abc": [0.75, 0.40595107, 0.20871892], "properties": {"magmom": -0.0}, "label": "Cs", "xyz": [3.4110740385421163, 4.83153081, 4.580086268386607]}, {"species": [{"element": "Cs", "occu": 1}], "abc": [0.25, 0.90595107, 0.29128108], "properties": {"magmom": -0.0}, "label": "Cs", "xyz": [4.760379796457884, 1.61051027, 10.221266458386607]}, {"species": [{"element": "Cs", "occu": 1}], "abc": [0.25, 0.59404893, 0.79128108], "properties": {"magmom": -0.0}, "label": "Cs", "xyz": [12.931833631457883, 1.61051027, 6.702274111613394]}, {"species": [{"element": "Cs", "occu": 1}], "abc": [0.75, 0.08623821, 0.942344899999999], "properties": {"magmom": -0.0}, "label": "Cs", "xyz": [15.400655693995366, 4.83153081, 0.9729705637461198]}, {"species": [{"element": "Cs", "occu": 1}], "abc": [0.75, 0.41376179, 0.4423449], "properties": {"magmom": -0.0}, "label": "Cs", "xyz": [7.229201858995382, 4.83153081, 4.668209626253881]}, {"species": [{"element": "Cs", "occu": 1}], "abc": [0.25, 0.91376179, 0.0576551], "properties": {"magmom": -0.0}, "label": "Cs", "xyz": [0.942251976004617, 1.61051027, 10.30938981625388]}, {"species": [{"element": "Cs", "occu": 1}], "abc": [0.25, 0.58623821, 0.5576551], "properties": {"magmom": -0.0}, "label": "Cs", "xyz": [9.113705811004616, 1.61051027, 6.614150753746119]}, {"species": [{"element": "Cs", "occu": 1}], "abc": [0.25, 0.333480899999999, 0.99178445], "properties": {"magmom": 0.0}, "label": "Cs", "xyz": [16.208641694891732, 1.61051027, 3.762451693646731]}, {"species": [{"element": "Cs", "occu": 1}], "abc": [0.25, 0.1665191, 0.49178445], "properties": {"magmom": 0.0}, "label": "Cs", "xyz": [8.03718785989173, 1.61051027, 1.878728496353258]}, {"species": [{"element": "Cs", "occu": 1}], "abc": [0.75, 0.666519099999999, 0.00821555], "properties": {"magmom": 0.0}, "label": "Cs", "xyz": [0.1342659751082685, 4.83153081, 7.519908686353247]}, {"species": [{"element": "Cs", "occu": 1}], "abc": [0.75, 0.8334809, 0.50821555], "properties": {"magmom": 0.0}, "label": "Cs", "xyz": [8.305719810108267, 4.83153081, 9.403631883646742]}, {"species": [{"element": "Sb", "occu": 1}], "abc": [0.25, 0.90987481, 0.654894], "properties": {"magmom": -0.0}, "label": "Sb", "xyz": [10.702872175636978, 1.61051027, 10.265535507104028]}, {"species": [{"element": "Sb", "occu": 1}], "abc": [0.25, 0.59012519, 0.154894], "properties": {"magmom": -0.0}, "label": "Sb", "xyz": [2.53141834063698, 1.61051027, 6.658005062895972]}, {"species": [{"element": "Sb", "occu": 1}], "abc": [0.75, 0.09012519000000001, 0.345105999999999], "properties": {"magmom": -0.0}, "label": "Sb", "xyz": [5.640035494363004, 4.83153081, 1.0168248728959723]}, {"species": [{"element": "Sb", "occu": 1}], "abc": [0.75, 0.40987481000000003, 0.845105999999999], "properties": {"magmom": -0.0}, "label": "Sb", "xyz": [13.811489329363003, 4.83153081, 4.624355317104028]}, {"species": [{"element": "Sb", "occu": 1}], "abc": [0.75, 0.43668979, 0.6666373], "properties": {"magmom": -0.0}, "label": "Sb", "xyz": [10.89479184327809, 4.83153081, 4.926891585046521]}, {"species": [{"element": "Sb", "occu": 1}], "abc": [0.75, 0.06331021, 0.1666373], "properties": {"magmom": -0.0}, "label": "Sb", "xyz": [2.7233380082780907, 4.83153081, 0.7142886049534799]}, {"species": [{"element": "Sb", "occu": 1}], "abc": [0.25, 0.56331021, 0.3333627], "properties": {"magmom": -0.0}, "label": "Sb", "xyz": [5.448115826721909, 1.61051027, 6.35546879495348]}, {"species": [{"element": "Sb", "occu": 1}], "abc": [0.25, 0.93668979, 0.8333627], "properties": {"magmom": -0.0}, "label": "Sb", "xyz": [13.619569661721908, 1.61051027, 10.56807177504652]}]}, "task_ids": null, "uncorrected_energy_per_atom": null, "energy_per_atom": -25.868267950416666, "formation_energy_per_atom": -0.5605273737500001, "energy_above_hull": 0.0, "is_stable": true, "equilibrium_reaction_energy_per_atom": null, "decomposes_to": null, "xas": null, "grain_boundaries": null, "band_gap": 0.28390000000000004, "cbm": null, "vbm": null, "efermi": 2.84879161, "is_gap_direct": null, "is_metal": null, "es_source_calc_id": null, "bandstructure": null, "dos": null, "dos_energy_up": null, "dos_energy_down": null, "is_magnetic": null, "ordering": null, "total_magnetization": 0.0, "total_magnetization_normalized_vol": null, "total_magnetization_normalized_formula_units": null, "num_magnetic_sites": null, "num_unique_magnetic_sites": null, "types_of_magnetic_species": null, "bulk_modulus": null, "shear_modulus": null, "universal_anisotropy": null, "homogeneous_poisson": null, "e_total": null, "e_ionic": null, "e_electronic": null, "n": null, "e_ij_max": null, "weighted_surface_energy_EV_PER_ANG2": null, "weighted_surface_energy": null, "weighted_work_function": null, "surface_anisotropy": null, "shape_factor": null, "has_reconstructed": null, "possible_species": null, "has_props": null, "theoretical": null, "database_IDs": null, "fields_not_requested": ["builder_meta", "nsites", "elements", "nelements", "composition", "composition_reduced", "chemsys", "symmetry", "property_name", "deprecated", "deprecation_reasons", "last_updated", "origins", "warnings", "task_ids", "uncorrected_energy_per_atom", "equilibrium_reaction_energy_per_atom", "decomposes_to", "xas", "grain_boundaries", "cbm", "vbm", "is_gap_direct", "is_metal", "es_source_calc_id", "bandstructure", "dos", "dos_energy_up", "dos_energy_down", "is_magnetic", "ordering", "total_magnetization_normalized_vol", "total_magnetization_normalized_formula_units", "num_magnetic_sites", "num_unique_magnetic_sites", "types_of_magnetic_species", "bulk_modulus", "shear_modulus", "universal_anisotropy", "homogeneous_poisson", "e_total", "e_ionic", "e_electronic", "n", "e_ij_max", "weighted_surface_energy_EV_PER_ANG2", "weighted_surface_energy", "weighted_work_function", "surface_anisotropy", "shape_factor", "has_reconstructed", "possible_species", "has_props", "theoretical", "database_IDs"]}