{"builder_meta": null, "nsites": null, "elements": null, "nelements": null, "composition": null, "composition_reduced": null, "formula_pretty": "Cs2Se3", "formula_anonymous": "A2B3", "chemsys": null, "volume": 391.7321954929755, "density": 4.261778295418819, "density_atomic": 39.17321954929755, "symmetry": null, "property_name": null, "material_id": "mp-7449", "deprecated": null, "deprecation_reasons": null, "last_updated": null, "origins": null, "warnings": null, "structure": {"@module": "pymatgen.core.structure", "@class": "Structure", "charge": 0, "lattice": {"matrix": [[7.0720944, -0.06749067, -0.0], [-2.46007561, 6.63076984, -0.0], [0.0, 0.0, 8.38335134]], "pbc": [true, true, true], "a": 7.072416432383518, "b": 7.0724168908493015, "c": 8.38335134, "alpha": 90.0, "beta": 90.0, "gamma": 110.90208010128985, "volume": 391.7321954929755}, "properties": {}, "sites": [{"species": [{"element": "Cs", "occu": 1}], "abc": [0.41952972, 0.58047028, 0.82004247], "properties": {"magmom": 0.0}, "label": "Cs", "xyz": [1.5389530052876972, 3.820650483752643, 6.87470413973141]}, {"species": [{"element": "Cs", "occu": 1}], "abc": [0.58047028, 0.41952972, 0.32004247], "properties": {"magmom": 0.0}, "label": "Cs", "xyz": [3.073065784712303, 2.7426286862473575, 2.6830284697314104]}, {"species": [{"element": "Cs", "occu": 1}], "abc": [0.902332999999999, 0.097666999999999, 0.54279882], "properties": {"magmom": -0.0}, "label": "Cs", "xyz": [6.141115951633326, 0.5867083392301634, 4.550473214997419]}, {"species": [{"element": "Cs", "occu": 1}], "abc": [0.097666999999999, 0.902332999999999, 0.04279882], "properties": {"magmom": -0.0}, "label": "Cs", "xyz": [-1.5290971616333349, 5.976570830769824, 0.35879754499741884]}, {"species": [{"element": "Se", "occu": 1}], "abc": [0.39937873, 0.07184293, 0.6665371800000001], "properties": {"magmom": -0.0}, "label": "Se", "xyz": [2.6477050400681748, 0.4494195953897821, 5.587815361112822]}, {"species": [{"element": "Se", "occu": 1}], "abc": [0.60062127, 0.92815707, 0.16653718], "properties": {"magmom": -0.0}, "label": "Se", "xyz": [1.9643137499318248, 6.113859574610219, 1.3961396911128214]}, {"species": [{"element": "Se", "occu": 1}], "abc": [0.92815707, 0.60062127, 0.6665371800000001], "properties": {"magmom": -0.0}, "label": "Se", "xyz": [5.086440679893183, 3.91993945985896, 5.587815361112822]}, {"species": [{"element": "Se", "occu": 1}], "abc": [0.07184293, 0.39937873, 0.16653718], "properties": {"magmom": -0.0}, "label": "Se", "xyz": [-0.47442188989318335, 2.6433397101410403, 1.3961396911128214]}, {"species": [{"element": "Se", "occu": 1}], "abc": [0.79219351, 0.20780649, 0.0050843500000000005], "properties": {"magmom": -0.0}, "label": "Se", "xyz": [5.0912476081386355, 1.32445133568871, 0.04262389238552901]}, {"species": [{"element": "Se", "occu": 1}], "abc": [0.20780649, 0.79219351, 0.50508435], "properties": {"magmom": -0.0}, "label": "Se", "xyz": [-0.47922881813863527, 5.23882783431129, 4.234299562385529]}]}, "task_ids": null, "uncorrected_energy_per_atom": null, "energy_per_atom": -19.614348623, "formation_energy_per_atom": -0.9840312844375001, "energy_above_hull": 0.0, "is_stable": true, "equilibrium_reaction_energy_per_atom": null, "decomposes_to": null, "xas": null, "grain_boundaries": null, "band_gap": 0.7396, "cbm": null, "vbm": null, "efermi": 1.26110201, "is_gap_direct": null, "is_metal": null, "es_source_calc_id": null, "bandstructure": null, "dos": null, "dos_energy_up": null, "dos_energy_down": null, "is_magnetic": null, "ordering": null, "total_magnetization": 0.0, "total_magnetization_normalized_vol": null, "total_magnetization_normalized_formula_units": null, "num_magnetic_sites": null, "num_unique_magnetic_sites": null, "types_of_magnetic_species": null, "bulk_modulus": null, "shear_modulus": null, "universal_anisotropy": null, "homogeneous_poisson": null, "e_total": null, "e_ionic": null, "e_electronic": null, "n": null, "e_ij_max": null, "weighted_surface_energy_EV_PER_ANG2": null, "weighted_surface_energy": null, "weighted_work_function": null, "surface_anisotropy": null, "shape_factor": null, "has_reconstructed": null, "possible_species": null, "has_props": null, "theoretical": null, "database_IDs": null, "fields_not_requested": ["builder_meta", "nsites", "elements", "nelements", "composition", "composition_reduced", "chemsys", "symmetry", "property_name", "deprecated", "deprecation_reasons", "last_updated", "origins", "warnings", "task_ids", "uncorrected_energy_per_atom", "equilibrium_reaction_energy_per_atom", "decomposes_to", "xas", "grain_boundaries", "cbm", "vbm", "is_gap_direct", "is_metal", "es_source_calc_id", "bandstructure", "dos", "dos_energy_up", "dos_energy_down", "is_magnetic", "ordering", "total_magnetization_normalized_vol", "total_magnetization_normalized_formula_units", "num_magnetic_sites", "num_unique_magnetic_sites", "types_of_magnetic_species", "bulk_modulus", "shear_modulus", "universal_anisotropy", "homogeneous_poisson", "e_total", "e_ionic", "e_electronic", "n", "e_ij_max", "weighted_surface_energy_EV_PER_ANG2", "weighted_surface_energy", "weighted_work_function", "surface_anisotropy", "shape_factor", "has_reconstructed", "possible_species", "has_props", "theoretical", "database_IDs"]}