{
  "builder_meta": null,
  "nsites": null,
  "elements": null,
  "nelements": null,
  "composition": null,
  "composition_reduced": null,
  "formula_pretty": "Cs2S3",
  "formula_anonymous": "A2B3",
  "chemsys": null,
  "volume": 351.8730811412738,
  "density": 3.416714592943785,
  "density_atomic": 35.18730811412738,
  "symmetry": null,
  "property_name": null,
  "material_id": "mp-1079600",
  "deprecated": null,
  "deprecation_reasons": null,
  "last_updated": null,
  "origins": null,
  "warnings": null,
  "structure": {
    "@module": "pymatgen.core.structure",
    "@class": "Structure",
    "charge": 0,
    "lattice": {
      "matrix": [
        [-3.87606471, -5.525978849999999, 0.0],
        [-3.87606471, 5.525978849999999, 0.0],
        [0.0, -0.0, -8.21402104]
      ],
      "pbc": [true, true, true],
      "a": 6.749838508198155,
      "b": 6.749838508198155,
      "c": 8.21402104,
      "alpha": 90.0,
      "beta": 90.0,
      "gamma": 109.90637093083761,
      "volume": 351.8730811412737
    },
    "properties": {},
    "sites": [
      {
        "species": [{ "element": "Cs", "occu": 1 }],
        "abc": [0.10282726, 0.89717274, 0.53018758],
        "properties": { "magmom": -0.0 },
        "label": "Cs",
        "xyz": [-3.87606471, 4.389536322073098, -4.354971937266684]
      },
      {
        "species": [{ "element": "Cs", "occu": 1 }],
        "abc": [0.89717274, 0.10282726, 0.030187580000000002],
        "properties": { "magmom": -0.0 },
        "label": "Cs",
        "xyz": [-3.87606471, -4.389536322073098, -0.24796141726668322]
      },
      {
        "species": [{ "element": "Cs", "occu": 1 }],
        "abc": [0.57003123, 0.42996877, 0.80968158],
        "properties": { "magmom": 0.0 },
        "label": "Cs",
        "xyz": [-3.8760647099999996, -0.7739821916389706, -6.650741533820444]
      },
      {
        "species": [{ "element": "Cs", "occu": 1 }],
        "abc": [0.42996877, 0.57003123, 0.30968158],
        "properties": { "magmom": 0.0 },
        "label": "Cs",
        "xyz": [-3.8760647099999996, 0.7739821916389706, -2.5437310138204436]
      },
      {
        "species": [{ "element": "S", "occu": 1 }],
        "abc": [0.61775897, 0.94794923, 0.64641169],
        "properties": { "magmom": -0.0 },
        "label": "S",
        "xyz": [-6.0687863001776226, 1.8246243932360007, -5.309639222161958]
      },
      {
        "species": [{ "element": "S", "occu": 1 }],
        "abc": [0.05205077, 0.38224103, 0.64641169],
        "properties": { "magmom": -0.0 },
        "label": "S",
        "xyz": [-1.683343119822378, 1.8246243932360005, -5.309639222161958]
      },
      {
        "species": [{ "element": "S", "occu": 1 }],
        "abc": [0.38224103, 0.05205077, 0.14641169],
        "properties": { "magmom": -0.0 },
        "label": "S",
        "xyz": [-1.683343119822378, -1.8246243932360005, -1.2026287021619577]
      },
      {
        "species": [{ "element": "S", "occu": 1 }],
        "abc": [0.94794923, 0.61775897, 0.14641169],
        "properties": { "magmom": -0.0 },
        "label": "S",
        "xyz": [-6.0687863001776226, -1.8246243932360007, -1.2026287021619577]
      },
      {
        "species": [{ "element": "S", "occu": 1 }],
        "abc": [0.79412801, 0.20587199, 0.50780546],
        "properties": { "magmom": 0.0 },
        "label": "S",
        "xyz": [-3.87606471, -3.250690324905176, -4.171124732666879]
      },
      {
        "species": [{ "element": "S", "occu": 1 }],
        "abc": [0.20587199, 0.79412801, 0.00780546],
        "properties": { "magmom": 0.0 },
        "label": "S",
        "xyz": [-3.87606471, 3.250690324905176, -0.0641142126668784]
      }
    ]
  },
  "task_ids": null,
  "uncorrected_energy_per_atom": null,
  "energy_per_atom": -15.833502490999999,
  "formation_energy_per_atom": -0.969121841687498,
  "energy_above_hull": 0.0,
  "is_stable": true,
  "equilibrium_reaction_energy_per_atom": null,
  "decomposes_to": null,
  "xas": null,
  "grain_boundaries": null,
  "band_gap": 1.3635,
  "cbm": null,
  "vbm": null,
  "efermi": 1.84171097,
  "is_gap_direct": null,
  "is_metal": null,
  "es_source_calc_id": null,
  "bandstructure": null,
  "dos": null,
  "dos_energy_up": null,
  "dos_energy_down": null,
  "is_magnetic": null,
  "ordering": null,
  "total_magnetization": 0.0,
  "total_magnetization_normalized_vol": null,
  "total_magnetization_normalized_formula_units": null,
  "num_magnetic_sites": null,
  "num_unique_magnetic_sites": null,
  "types_of_magnetic_species": null,
  "bulk_modulus": null,
  "shear_modulus": null,
  "universal_anisotropy": null,
  "homogeneous_poisson": null,
  "e_total": null,
  "e_ionic": null,
  "e_electronic": null,
  "n": null,
  "e_ij_max": null,
  "weighted_surface_energy_EV_PER_ANG2": null,
  "weighted_surface_energy": null,
  "weighted_work_function": null,
  "surface_anisotropy": null,
  "shape_factor": null,
  "has_reconstructed": null,
  "possible_species": null,
  "has_props": null,
  "theoretical": null,
  "database_IDs": null,
  "fields_not_requested": [
    "builder_meta",
    "nsites",
    "elements",
    "nelements",
    "composition",
    "composition_reduced",
    "chemsys",
    "symmetry",
    "property_name",
    "deprecated",
    "deprecation_reasons",
    "last_updated",
    "origins",
    "warnings",
    "task_ids",
    "uncorrected_energy_per_atom",
    "equilibrium_reaction_energy_per_atom",
    "decomposes_to",
    "xas",
    "grain_boundaries",
    "cbm",
    "vbm",
    "is_gap_direct",
    "is_metal",
    "es_source_calc_id",
    "bandstructure",
    "dos",
    "dos_energy_up",
    "dos_energy_down",
    "is_magnetic",
    "ordering",
    "total_magnetization_normalized_vol",
    "total_magnetization_normalized_formula_units",
    "num_magnetic_sites",
    "num_unique_magnetic_sites",
    "types_of_magnetic_species",
    "bulk_modulus",
    "shear_modulus",
    "universal_anisotropy",
    "homogeneous_poisson",
    "e_total",
    "e_ionic",
    "e_electronic",
    "n",
    "e_ij_max",
    "weighted_surface_energy_EV_PER_ANG2",
    "weighted_surface_energy",
    "weighted_work_function",
    "surface_anisotropy",
    "shape_factor",
    "has_reconstructed",
    "possible_species",
    "has_props",
    "theoretical",
    "database_IDs"
  ]
}
