{"builder_meta": null, "nsites": null, "elements": null, "nelements": null, "composition": null, "composition_reduced": null, "formula_pretty": "Cs2S5", "formula_anonymous": "A2B5", "chemsys": null, "volume": 929.2044401895766, "density": 3.046112503708791, "density_atomic": 33.18587286391345, "symmetry": null, "property_name": null, "material_id": "mp-1193140", "deprecated": null, "deprecation_reasons": null, "last_updated": null, "origins": null, "warnings": null, "structure": {"@module": "pymatgen.core.structure", "@class": "Structure", "charge": 0, "lattice": {"matrix": [[0.0, 0.0, 6.88181348], [7.27034598, 0.0, 0.0], [0.0, 18.57177016, 0.0]], "pbc": [true, true, true], "a": 6.88181348, "b": 7.27034598, "c": 18.57177016, "alpha": 90.0, "beta": 90.0, "gamma": 90.0, "volume": 929.2044401895766}, "properties": {}, "sites": [{"species": [{"element": "Cs", "occu": 1}], "abc": [0.11318986, 0.577676299999999, 0.01738187], "properties": {"magmom": 0.0}, "label": "Cs", "xyz": [4.199906565446267, 0.3228120945909992, 0.7789515043473129]}, {"species": [{"element": "Cs", "occu": 1}], "abc": [0.61318986, 0.9223237, 0.98261813], "properties": {"magmom": 0.0}, "label": "Cs", "xyz": [6.705612404553726, 18.248958065409, 4.2198582443473125]}, {"species": [{"element": "Cs", "occu": 1}], "abc": [0.88681014, 0.077676299999999, 0.48261813000000003], "properties": {"magmom": 0.0}, "label": "Cs", "xyz": [0.5647335754462668, 8.963072985409001, 6.102861975652687]}, {"species": [{"element": "Cs", "occu": 1}], "abc": [0.38681014, 0.422323699999999, 0.51738187], "properties": {"magmom": 0.0}, "label": "Cs", "xyz": [3.070439414553719, 9.608697174590999, 2.6619552356526874]}, {"species": [{"element": "Cs", "occu": 1}], "abc": [0.575402, 0.75671686, 0.33662851], "properties": {"magmom": 0.0}, "label": "Cs", "xyz": [5.501593381099223, 6.251787317023261, 3.9598092400189597]}, {"species": [{"element": "Cs", "occu": 1}], "abc": [0.075402, 0.7432831400000001, 0.6633714900000001], "properties": {"magmom": 0.0}, "label": "Cs", "xyz": [5.403925588900778, 12.319982842976739, 0.51890250001896]}, {"species": [{"element": "Cs", "occu": 1}], "abc": [0.424598, 0.25671686, 0.16337149], "properties": {"magmom": 0.0}, "label": "Cs", "xyz": [1.8664203910992228, 3.0340977629767387, 2.9220042399810398]}, {"species": [{"element": "Cs", "occu": 1}], "abc": [0.924597999999999, 0.24328314, 0.83662851], "properties": {"magmom": 0.0}, "label": "Cs", "xyz": [1.7687525989007773, 15.537672397023263, 6.3629109799810335]}, {"species": [{"element": "S", "occu": 1}], "abc": [0.08948443, 0.07554471, 0.02725538], "properties": {"magmom": -0.0}, "label": "S", "xyz": [0.5492361786587658, 0.5061806529834608, 0.6158151566241165]}, {"species": [{"element": "S", "occu": 1}], "abc": [0.5894844300000001, 0.42445529, 0.9727446200000001], "properties": {"magmom": -0.0}, "label": "S", "xyz": [3.085936811341234, 18.06558950701654, 4.056721896624117]}, {"species": [{"element": "S", "occu": 1}], "abc": [0.91051557, 0.57554471, 0.47274462], "properties": {"magmom": -0.0}, "label": "S", "xyz": [4.184409168658766, 8.779704427016538, 6.265998323375884]}, {"species": [{"element": "S", "occu": 1}], "abc": [0.41051557, 0.92445529, 0.52725538], "properties": {"magmom": -0.0}, "label": "S", "xyz": [6.7211098013412345, 9.792065732983462, 2.8250915833758836]}, {"species": [{"element": "S", "occu": 1}], "abc": [0.46583966, 0.76362885, 0.15402095], "properties": {"magmom": 0.0}, "label": "S", "xyz": [5.551845939809524, 2.8604416832248516, 3.2058216517066165]}, {"species": [{"element": "S", "occu": 1}], "abc": [0.96583966, 0.73637115, 0.8459790500000001], "properties": {"magmom": 0.0}, "label": "S", "xyz": [5.3536730301904765, 15.711328476775149, 6.646728391706617]}, {"species": [{"element": "S", "occu": 1}], "abc": [0.53416034, 0.26362885, 0.34597905], "properties": {"magmom": 0.0}, "label": "S", "xyz": [1.9166729498095232, 6.425443396775148, 3.6759918282933834]}, {"species": [{"element": "S", "occu": 1}], "abc": [0.03416034, 0.23637115, 0.65402095], "properties": {"magmom": 0.0}, "label": "S", "xyz": [1.718500040190477, 12.146326763224852, 0.23508508829338318]}, {"species": [{"element": "S", "occu": 1}], "abc": [0.93084603, 0.12018763, 0.11831134], "properties": {"magmom": -0.0}, "label": "S", "xyz": [0.8738056526162274, 2.1972510138016146, 6.4059087570584845]}, {"species": [{"element": "S", "occu": 1}], "abc": [0.43084603, 0.37981237, 0.88168866], "properties": {"magmom": -0.0}, "label": "S", "xyz": [2.761367337383773, 16.374519146198384, 2.965002017058484]}, {"species": [{"element": "S", "occu": 1}], "abc": [0.06915397, 0.62018763, 0.38168866], "properties": {"magmom": -0.0}, "label": "S", "xyz": [4.508978642616228, 7.088634066198386, 0.47590472294151553]}, {"species": [{"element": "S", "occu": 1}], "abc": [0.56915397, 0.87981237, 0.61831134], "properties": {"magmom": -0.0}, "label": "S", "xyz": [6.396540327383772, 11.483136093801614, 3.916811462941516]}, {"species": [{"element": "S", "occu": 1}], "abc": [0.9334355200000001, 0.89612923, 0.18778284], "properties": {"magmom": -0.0}, "label": "S", "xyz": [6.515169544890996, 3.4874597444720545, 6.42372914424681]}, {"species": [{"element": "S", "occu": 1}], "abc": [0.43343552, 0.60387077, 0.81221716], "properties": {"magmom": -0.0}, "label": "S", "xyz": [4.3903494251090045, 15.084310415527945, 2.98282240424681]}, {"species": [{"element": "S", "occu": 1}], "abc": [0.06656348000000001, 0.39612923, 0.31221716], "properties": {"magmom": -0.0}, "label": "S", "xyz": [2.8799965548909956, 5.798425335527946, 0.45807745393971044]}, {"species": [{"element": "S", "occu": 1}], "abc": [0.56656448, 0.10387077, 0.68778284], "properties": {"magmom": -0.0}, "label": "S", "xyz": [0.7551764351090047, 12.773344824472055, 3.8989910757531905]}, {"species": [{"element": "S", "occu": 1}], "abc": [0.75124773, 0.68985638, 0.14902447], "properties": {"magmom": -0.0}, "label": "S", "xyz": [5.015494559110353, 2.767648205055815, 5.169946755133401]}, {"species": [{"element": "S", "occu": 1}], "abc": [0.25124773, 0.8101436200000001, 0.85097553], "properties": {"magmom": -0.0}, "label": "S", "xyz": [5.890024410889648, 15.804121954944184, 1.7290400151334004]}, {"species": [{"element": "S", "occu": 1}], "abc": [0.24875227, 0.18985638, 0.35097553], "properties": {"magmom": -0.0}, "label": "S", "xyz": [1.3803215691103523, 6.518236874944185, 1.7118667248665995]}, {"species": [{"element": "S", "occu": 1}], "abc": [0.74875227, 0.31014362, 0.64902447], "properties": {"magmom": -0.0}, "label": "S", "xyz": [2.2548514208896475, 12.053533285055815, 5.152773464866599]}]}, "task_ids": null, "uncorrected_energy_per_atom": null, "energy_per_atom": -13.6561229875, "formation_energy_per_atom": -0.7429942145089291, "energy_above_hull": 0.0, "is_stable": true, "equilibrium_reaction_energy_per_atom": null, "decomposes_to": null, "xas": null, "grain_boundaries": null, "band_gap": 1.8661999999999992, "cbm": null, "vbm": null, "efermi": 1.27235871, "is_gap_direct": null, "is_metal": null, "es_source_calc_id": null, "bandstructure": null, "dos": null, "dos_energy_up": null, "dos_energy_down": null, "is_magnetic": null, "ordering": null, "total_magnetization": 0.0, "total_magnetization_normalized_vol": null, "total_magnetization_normalized_formula_units": null, "num_magnetic_sites": null, "num_unique_magnetic_sites": null, "types_of_magnetic_species": null, "bulk_modulus": null, "shear_modulus": null, "universal_anisotropy": null, "homogeneous_poisson": null, "e_total": null, "e_ionic": null, "e_electronic": null, "n": null, "e_ij_max": null, "weighted_surface_energy_EV_PER_ANG2": null, "weighted_surface_energy": null, "weighted_work_function": null, "surface_anisotropy": null, "shape_factor": null, "has_reconstructed": null, "possible_species": null, "has_props": null, "theoretical": null, "database_IDs": null, "fields_not_requested": ["builder_meta", "nsites", "elements", "nelements", "composition", "composition_reduced", "chemsys", "symmetry", "property_name", "deprecated", "deprecation_reasons", "last_updated", "origins", "warnings", "task_ids", "uncorrected_energy_per_atom", "equilibrium_reaction_energy_per_atom", "decomposes_to", "xas", "grain_boundaries", "cbm", "vbm", "is_gap_direct", "is_metal", "es_source_calc_id", "bandstructure", "dos", "dos_energy_up", "dos_energy_down", "is_magnetic", "ordering", "total_magnetization_normalized_vol", "total_magnetization_normalized_formula_units", "num_magnetic_sites", "num_unique_magnetic_sites", "types_of_magnetic_species", "bulk_modulus", "shear_modulus", "universal_anisotropy", "homogeneous_poisson", "e_total", "e_ionic", "e_electronic", "n", "e_ij_max", "weighted_surface_energy_EV_PER_ANG2", "weighted_surface_energy", "weighted_work_function", "surface_anisotropy", "shape_factor", "has_reconstructed", "possible_species", "has_props", "theoretical", "database_IDs"]}