{"builder_meta": null, "nsites": null, "elements": null, "nelements": null, "composition": null, "composition_reduced": null, "formula_pretty": "Cs2Te5", "formula_anonymous": "A2B5", "chemsys": null, "volume": 629.1820661994817, "density": 4.77068052382511, "density_atomic": 44.941576157105835, "symmetry": null, "property_name": null, "material_id": "mp-1104010", "deprecated": null, "deprecation_reasons": null, "last_updated": null, "origins": null, "warnings": null, "structure": {"@module": "pymatgen.core.structure", "@class": "Structure", "charge": 0, "lattice": {"matrix": [[-4.8575800000000005, -6.25296, 0.0], [-4.8575800000000005, 6.25296, 0.0], [0.0, 0.0, -10.357161]], "pbc": [true, true, true], "a": 7.91805482539746, "b": 7.91805482539746, "c": 10.357161, "alpha": 90.0, "beta": 90.0, "gamma": 104.31667067035688, "volume": 629.1820661994819}, "properties": {}, "sites": [{"species": [{"element": "Cs", "occu": 1}], "abc": [0.429772999999999, 0.570226999999999, 0.25], "properties": {"magmom": 0.0}, "label": "Cs", "xyz": [-4.857579999999992, 0.8782532438400001, -2.58929025]}, {"species": [{"element": "Cs", "occu": 1}], "abc": [0.570226999999999, 0.429772999999999, 0.75], "properties": {"magmom": 0.0}, "label": "Cs", "xyz": [-4.857579999999992, -0.8782532438400001, -7.76787075]}, {"species": [{"element": "Cs", "occu": 1}], "abc": [0.791748, 0.208252, 0.25], "properties": {"magmom": 0.0}, "label": "Cs", "xyz": [-4.8575800000000005, -3.6485771481599993, -2.58929025]}, {"species": [{"element": "Cs", "occu": 1}], "abc": [0.208252, 0.791748, 0.75], "properties": {"magmom": 0.0}, "label": "Cs", "xyz": [-4.8575800000000005, 3.6485771481599993, -7.76787075]}, {"species": [{"element": "Te", "occu": 1}], "abc": [0.12019099999999901, 0.33265, 0.541903], "properties": {"magmom": 0.0}, "label": "Te", "xyz": [-2.199711384779995, 1.328497628640006, -5.612576617383]}, {"species": [{"element": "Te", "occu": 1}], "abc": [0.33265, 0.12019099999999901, 0.458097], "properties": {"magmom": 0.0}, "label": "Te", "xyz": [-2.199711384779995, -1.328497628640006, -4.744584382617]}, {"species": [{"element": "Te", "occu": 1}], "abc": [0.12019099999999901, 0.33265, 0.958097], "properties": {"magmom": 0.0}, "label": "Te", "xyz": [-2.199711384779995, 1.328497628640006, -9.923164882617]}, {"species": [{"element": "Te", "occu": 1}], "abc": [0.33265, 0.12019099999999901, 0.041902999999999004], "properties": {"magmom": 0.0}, "label": "Te", "xyz": [-2.199711384779995, -1.328497628640006, -0.43399611738298965]}, {"species": [{"element": "Te", "occu": 1}], "abc": [0.879809, 0.6673500000000001, 0.458097], "properties": {"magmom": 0.0}, "label": "Te", "xyz": [-7.515448615220001, -1.3284976286399983, -4.744584382617]}, {"species": [{"element": "Te", "occu": 1}], "abc": [0.6673500000000001, 0.879809, 0.541903], "properties": {"magmom": 0.0}, "label": "Te", "xyz": [-7.515448615220001, 1.3284976286399983, -5.612576617383]}, {"species": [{"element": "Te", "occu": 1}], "abc": [0.879809, 0.6673500000000001, 0.041902999999999004], "properties": {"magmom": 0.0}, "label": "Te", "xyz": [-7.515448615220001, -1.3284976286399983, -0.43399611738298965]}, {"species": [{"element": "Te", "occu": 1}], "abc": [0.6673500000000001, 0.879809, 0.958097], "properties": {"magmom": 0.0}, "label": "Te", "xyz": [-7.515448615220001, 1.3284976286399983, -9.923164882617]}, {"species": [{"element": "Te", "occu": 1}], "abc": [0.109523, 0.890477, 0.25], "properties": {"magmom": 0.0}, "label": "Te", "xyz": [-4.8575800000000005, 4.88327412384, -2.58929025]}, {"species": [{"element": "Te", "occu": 1}], "abc": [0.890477, 0.109523, 0.75], "properties": {"magmom": 0.0}, "label": "Te", "xyz": [-4.8575800000000005, -4.88327412384, -7.76787075]}]}, "task_ids": null, "uncorrected_energy_per_atom": null, "energy_per_atom": -25.839826658476188, "formation_energy_per_atom": -0.510822722761901, "energy_above_hull": 0.15204987452381102, "is_stable": false, "equilibrium_reaction_energy_per_atom": null, "decomposes_to": null, "xas": null, "grain_boundaries": null, "band_gap": 0.39980000000000004, "cbm": null, "vbm": null, "efermi": 2.99162855, "is_gap_direct": null, "is_metal": null, "es_source_calc_id": null, "bandstructure": null, "dos": null, "dos_energy_up": null, "dos_energy_down": null, "is_magnetic": null, "ordering": null, "total_magnetization": 0.013438799999999002, "total_magnetization_normalized_vol": null, "total_magnetization_normalized_formula_units": null, "num_magnetic_sites": null, "num_unique_magnetic_sites": null, "types_of_magnetic_species": null, "bulk_modulus": null, "shear_modulus": null, "universal_anisotropy": null, "homogeneous_poisson": null, "e_total": null, "e_ionic": null, "e_electronic": null, "n": null, "e_ij_max": null, "weighted_surface_energy_EV_PER_ANG2": null, "weighted_surface_energy": null, "weighted_work_function": null, "surface_anisotropy": null, "shape_factor": null, "has_reconstructed": null, "possible_species": null, "has_props": null, "theoretical": null, "database_IDs": null, "fields_not_requested": ["builder_meta", "nsites", "elements", "nelements", "composition", "composition_reduced", "chemsys", "symmetry", "property_name", "deprecated", "deprecation_reasons", "last_updated", "origins", "warnings", "task_ids", "uncorrected_energy_per_atom", "equilibrium_reaction_energy_per_atom", "decomposes_to", "xas", "grain_boundaries", "cbm", "vbm", "is_gap_direct", "is_metal", "es_source_calc_id", "bandstructure", "dos", "dos_energy_up", "dos_energy_down", "is_magnetic", "ordering", "total_magnetization_normalized_vol", "total_magnetization_normalized_formula_units", "num_magnetic_sites", "num_unique_magnetic_sites", "types_of_magnetic_species", "bulk_modulus", "shear_modulus", "universal_anisotropy", "homogeneous_poisson", "e_total", "e_ionic", "e_electronic", "n", "e_ij_max", "weighted_surface_energy_EV_PER_ANG2", "weighted_surface_energy", "weighted_work_function", "surface_anisotropy", "shape_factor", "has_reconstructed", "possible_species", "has_props", "theoretical", "database_IDs"]}