{
  "builder_meta": null,
  "nsites": null,
  "elements": null,
  "nelements": null,
  "composition": null,
  "composition_reduced": null,
  "formula_pretty": "Cs2Te3",
  "formula_anonymous": "A2B3",
  "chemsys": null,
  "volume": 470.6798386886195,
  "density": 4.576545057818624,
  "density_atomic": 47.06798386886195,
  "symmetry": null,
  "property_name": null,
  "material_id": "mp-505634",
  "deprecated": null,
  "deprecation_reasons": null,
  "last_updated": null,
  "origins": null,
  "warnings": null,
  "structure": {
    "@module": "pymatgen.core.structure",
    "@class": "Structure",
    "charge": 0,
    "lattice": {
      "matrix": [
        [7.55253189, -0.07807512, 0.0],
        [-2.47824068, 7.13478569, -0.0],
        [0.0, 0.0, 8.76625977]
      ],
      "pbc": [true, true, true],
      "a": 7.552935434242106,
      "b": 7.5529360986463825,
      "c": 8.76625977,
      "alpha": 90.0,
      "beta": 90.0,
      "gamma": 109.74675648317013,
      "volume": 470.6798386886195
    },
    "properties": {},
    "sites": [
      {
        "species": [{ "element": "Cs", "occu": 1 }],
        "abc": [0.09234452, 0.9076554800000001, 0.869474],
        "properties": { "magmom": -0.0 },
        "label": "Cs",
        "xyz": [-1.5519538017941836, 6.4687175206737395, 7.622034947260979]
      },
      {
        "species": [{ "element": "Cs", "occu": 1 }],
        "abc": [0.9076554800000001, 0.09234452, 0.369473999999999],
        "properties": { "magmom": -0.0 },
        "label": "Cs",
        "xyz": [6.626245011794184, 0.5879930493262612, 3.2389050622609714]
      },
      {
        "species": [{ "element": "Cs", "occu": 1 }],
        "abc": [0.58282613, 0.41717387, 0.15242855],
        "properties": { "magmom": -0.0 },
        "label": "Cs",
        "xyz": [3.3679556778832547, 2.9309419378790347, 1.3362282656644333]
      },
      {
        "species": [{ "element": "Cs", "occu": 1 }],
        "abc": [0.41717387, 0.58282613, 0.65242855],
        "properties": { "magmom": -0.0 },
        "label": "Cs",
        "xyz": [1.706335532116746, 4.125768632120966, 5.7193581506644335]
      },
      {
        "species": [{ "element": "Te", "occu": 1 }],
        "abc": [0.78378994, 0.21621006, 0.81163737],
        "properties": { "magmom": -0.0 },
        "label": "Te",
        "xyz": [5.383777950793945, 1.4814179485017487, 7.115024024459605]
      },
      {
        "species": [{ "element": "Te", "occu": 1 }],
        "abc": [0.21621006, 0.78378994, 0.31163737],
        "properties": { "magmom": -0.0 },
        "label": "Te",
        "xyz": [-0.30948674079394567, 5.575292621498252, 2.731894139459605]
      },
      {
        "species": [{ "element": "Te", "occu": 1 }],
        "abc": [0.08114471, 0.41553715, 0.00272904],
        "properties": { "magmom": -0.0 },
        "label": "Te",
        "xyz": [-0.4169530592014602, 2.9584331285127687, 0.023923473562720798]
      },
      {
        "species": [{ "element": "Te", "occu": 1 }],
        "abc": [0.91885529, 0.58446285, 0.50272904],
        "properties": { "magmom": -0.0 },
        "label": "Te",
        "xyz": [5.491244269201459, 4.098277441487231, 4.40705335856272]
      },
      {
        "species": [{ "element": "Te", "occu": 1 }],
        "abc": [0.58446285, 0.91885529, 0.00272904],
        "properties": { "magmom": -0.0 },
        "label": "Te",
        "xyz": [2.1370297544340895, 6.510203567123508, 0.023923473562720798]
      },
      {
        "species": [{ "element": "Te", "occu": 1 }],
        "abc": [0.41553715, 0.08114471, 0.50272904],
        "properties": { "magmom": -0.0 },
        "label": "Te",
        "xyz": [2.937261455565911, 0.5465070028764919, 4.40705335856272]
      }
    ]
  },
  "task_ids": null,
  "uncorrected_energy_per_atom": null,
  "energy_per_atom": -26.202443477000003,
  "formation_energy_per_atom": -0.9087276910000011,
  "energy_above_hull": 0.0,
  "is_stable": true,
  "equilibrium_reaction_energy_per_atom": null,
  "decomposes_to": null,
  "xas": null,
  "grain_boundaries": null,
  "band_gap": 0.5258,
  "cbm": null,
  "vbm": null,
  "efermi": 2.2710084200000002,
  "is_gap_direct": null,
  "is_metal": null,
  "es_source_calc_id": null,
  "bandstructure": null,
  "dos": null,
  "dos_energy_up": null,
  "dos_energy_down": null,
  "is_magnetic": null,
  "ordering": null,
  "total_magnetization": 0.0,
  "total_magnetization_normalized_vol": null,
  "total_magnetization_normalized_formula_units": null,
  "num_magnetic_sites": null,
  "num_unique_magnetic_sites": null,
  "types_of_magnetic_species": null,
  "bulk_modulus": null,
  "shear_modulus": null,
  "universal_anisotropy": null,
  "homogeneous_poisson": null,
  "e_total": null,
  "e_ionic": null,
  "e_electronic": null,
  "n": null,
  "e_ij_max": null,
  "weighted_surface_energy_EV_PER_ANG2": null,
  "weighted_surface_energy": null,
  "weighted_work_function": null,
  "surface_anisotropy": null,
  "shape_factor": null,
  "has_reconstructed": null,
  "possible_species": null,
  "has_props": null,
  "theoretical": null,
  "database_IDs": null,
  "fields_not_requested": [
    "builder_meta",
    "nsites",
    "elements",
    "nelements",
    "composition",
    "composition_reduced",
    "chemsys",
    "symmetry",
    "property_name",
    "deprecated",
    "deprecation_reasons",
    "last_updated",
    "origins",
    "warnings",
    "task_ids",
    "uncorrected_energy_per_atom",
    "equilibrium_reaction_energy_per_atom",
    "decomposes_to",
    "xas",
    "grain_boundaries",
    "cbm",
    "vbm",
    "is_gap_direct",
    "is_metal",
    "es_source_calc_id",
    "bandstructure",
    "dos",
    "dos_energy_up",
    "dos_energy_down",
    "is_magnetic",
    "ordering",
    "total_magnetization_normalized_vol",
    "total_magnetization_normalized_formula_units",
    "num_magnetic_sites",
    "num_unique_magnetic_sites",
    "types_of_magnetic_species",
    "bulk_modulus",
    "shear_modulus",
    "universal_anisotropy",
    "homogeneous_poisson",
    "e_total",
    "e_ionic",
    "e_electronic",
    "n",
    "e_ij_max",
    "weighted_surface_energy_EV_PER_ANG2",
    "weighted_surface_energy",
    "weighted_work_function",
    "surface_anisotropy",
    "shape_factor",
    "has_reconstructed",
    "possible_species",
    "has_props",
    "theoretical",
    "database_IDs"
  ]
}
