{
  "builder_meta": null,
  "nsites": null,
  "elements": null,
  "nelements": null,
  "composition": null,
  "composition_reduced": null,
  "formula_pretty": "Cs2Te",
  "formula_anonymous": "AB2",
  "chemsys": null,
  "volume": 640.9059681586167,
  "density": 4.077192021558062,
  "density_atomic": 53.40883067988472,
  "symmetry": null,
  "property_name": null,
  "material_id": "mp-573763",
  "deprecated": null,
  "deprecation_reasons": null,
  "last_updated": null,
  "origins": null,
  "warnings": null,
  "structure": {
    "@module": "pymatgen.core.structure",
    "@class": "Structure",
    "charge": 0,
    "lattice": {
      "matrix": [
        [5.82121553, 0.0, 0.0],
        [0.0, 9.44850141, 0.0],
        [0.0, 0.0, 11.65246224]
      ],
      "pbc": [true, true, true],
      "a": 5.82121553,
      "b": 9.44850141,
      "c": 11.65246224,
      "alpha": 90.0,
      "beta": 90.0,
      "gamma": 90.0,
      "volume": 640.9059681586167
    },
    "properties": {},
    "sites": [
      {
        "species": [{ "element": "Cs", "occu": 1 }],
        "abc": [0.75, 0.46834924, 0.67581068],
        "properties": { "magmom": 0.0 },
        "label": "Cs",
        "xyz": [4.3659116475, 4.4251984545124285, 7.874858430088723]
      },
      {
        "species": [{ "element": "Cs", "occu": 1 }],
        "abc": [0.25, 0.03165076, 0.17581068],
        "properties": { "magmom": 0.0 },
        "label": "Cs",
        "xyz": [1.4553038825, 0.2990522504875716, 2.0486273100887233]
      },
      {
        "species": [{ "element": "Cs", "occu": 1 }],
        "abc": [0.75, 0.85230924, 0.42795166],
        "properties": { "magmom": -0.0 },
        "label": "Cs",
        "xyz": [4.3659116475, 8.053045055896028, 4.986690558695319]
      },
      {
        "species": [{ "element": "Cs", "occu": 1 }],
        "abc": [0.25, 0.14769076, 0.57204834],
        "properties": { "magmom": -0.0 },
        "label": "Cs",
        "xyz": [1.4553038825, 1.3954563541039717, 6.665771681304682]
      },
      {
        "species": [{ "element": "Cs", "occu": 1 }],
        "abc": [0.25, 0.53165076, 0.32418832000000003],
        "properties": { "magmom": 0.0 },
        "label": "Cs",
        "xyz": [1.4553038825, 5.023302955487572, 3.777592157449037]
      },
      {
        "species": [{ "element": "Cs", "occu": 1 }],
        "abc": [0.25, 0.64769076, 0.9279516600000001],
        "properties": { "magmom": -0.0 },
        "label": "Cs",
        "xyz": [1.4553038825, 6.119707059103972, 10.81292167869532]
      },
      {
        "species": [{ "element": "Cs", "occu": 1 }],
        "abc": [0.75, 0.35230924, 0.07204834],
        "properties": { "magmom": -0.0 },
        "label": "Cs",
        "xyz": [4.3659116475, 3.328794350896029, 0.8395405613046817]
      },
      {
        "species": [{ "element": "Cs", "occu": 1 }],
        "abc": [0.75, 0.96834924, 0.82418932],
        "properties": { "magmom": 0.0 },
        "label": "Cs",
        "xyz": [4.3659116475, 9.149449159512429, 9.603834929911278]
      },
      {
        "species": [{ "element": "Te", "occu": 1 }],
        "abc": [0.25, 0.24541893, 0.883998699999999],
        "properties": { "magmom": 0.0 },
        "label": "Te",
        "xyz": [1.4553038825, 2.3188411061456913, 10.300761471959078]
      },
      {
        "species": [{ "element": "Te", "occu": 1 }],
        "abc": [0.75, 0.25458007, 0.383998699999999],
        "properties": { "magmom": 0.0 },
        "label": "Te",
        "xyz": [4.3659116475, 2.405400150352899, 4.474530351959077]
      },
      {
        "species": [{ "element": "Te", "occu": 1 }],
        "abc": [0.25, 0.74541893, 0.6160013],
        "properties": { "magmom": 0.0 },
        "label": "Te",
        "xyz": [1.4553038825, 7.043091811145692, 7.177931888040912]
      },
      {
        "species": [{ "element": "Te", "occu": 1 }],
        "abc": [0.75, 0.75458107, 0.1160013],
        "properties": { "magmom": 0.0 },
        "label": "Te",
        "xyz": [4.3659116475, 7.129660303854308, 1.351700768040912]
      }
    ]
  },
  "task_ids": null,
  "uncorrected_energy_per_atom": null,
  "energy_per_atom": -26.431477753333336,
  "formation_energy_per_atom": -1.220100983333334,
  "energy_above_hull": 0.0,
  "is_stable": true,
  "equilibrium_reaction_energy_per_atom": null,
  "decomposes_to": null,
  "xas": null,
  "grain_boundaries": null,
  "band_gap": 1.774,
  "cbm": null,
  "vbm": null,
  "efermi": 1.23386583,
  "is_gap_direct": null,
  "is_metal": null,
  "es_source_calc_id": null,
  "bandstructure": null,
  "dos": null,
  "dos_energy_up": null,
  "dos_energy_down": null,
  "is_magnetic": null,
  "ordering": null,
  "total_magnetization": 0.0,
  "total_magnetization_normalized_vol": null,
  "total_magnetization_normalized_formula_units": null,
  "num_magnetic_sites": null,
  "num_unique_magnetic_sites": null,
  "types_of_magnetic_species": null,
  "bulk_modulus": null,
  "shear_modulus": null,
  "universal_anisotropy": null,
  "homogeneous_poisson": null,
  "e_total": null,
  "e_ionic": null,
  "e_electronic": null,
  "n": null,
  "e_ij_max": null,
  "weighted_surface_energy_EV_PER_ANG2": null,
  "weighted_surface_energy": null,
  "weighted_work_function": null,
  "surface_anisotropy": null,
  "shape_factor": null,
  "has_reconstructed": null,
  "possible_species": null,
  "has_props": null,
  "theoretical": null,
  "database_IDs": null,
  "fields_not_requested": [
    "builder_meta",
    "nsites",
    "elements",
    "nelements",
    "composition",
    "composition_reduced",
    "chemsys",
    "symmetry",
    "property_name",
    "deprecated",
    "deprecation_reasons",
    "last_updated",
    "origins",
    "warnings",
    "task_ids",
    "uncorrected_energy_per_atom",
    "equilibrium_reaction_energy_per_atom",
    "decomposes_to",
    "xas",
    "grain_boundaries",
    "cbm",
    "vbm",
    "is_gap_direct",
    "is_metal",
    "es_source_calc_id",
    "bandstructure",
    "dos",
    "dos_energy_up",
    "dos_energy_down",
    "is_magnetic",
    "ordering",
    "total_magnetization_normalized_vol",
    "total_magnetization_normalized_formula_units",
    "num_magnetic_sites",
    "num_unique_magnetic_sites",
    "types_of_magnetic_species",
    "bulk_modulus",
    "shear_modulus",
    "universal_anisotropy",
    "homogeneous_poisson",
    "e_total",
    "e_ionic",
    "e_electronic",
    "n",
    "e_ij_max",
    "weighted_surface_energy_EV_PER_ANG2",
    "weighted_surface_energy",
    "weighted_work_function",
    "surface_anisotropy",
    "shape_factor",
    "has_reconstructed",
    "possible_species",
    "has_props",
    "theoretical",
    "database_IDs"
  ]
}
