{"builder_meta": null, "nsites": null, "elements": null, "nelements": null, "composition": null, "composition_reduced": null, "formula_pretty": "CS3", "formula_anonymous": "AB3", "chemsys": null, "volume": 1829.4898356863273, "density": 1.5714089344378852, "density_atomic": 28.585778682598864, "symmetry": null, "property_name": null, "material_id": "mp-734582", "deprecated": null, "deprecation_reasons": null, "last_updated": null, "origins": null, "warnings": null, "structure": {"@module": "pymatgen.core.structure", "@class": "Structure", "charge": 0, "lattice": {"matrix": [[22.906306, 0.0, 0.0], [0.0, 5.918542, 0.0], [0.0, 0.019212999999999, 13.494606]], "pbc": [true, true, true], "a": 22.906306, "b": 5.918542, "c": 13.494619677286389, "alpha": 89.91842495675915, "beta": 90.0, "gamma": 90.0, "volume": 1829.4898356863273}, "properties": {}, "sites": [{"species": [{"element": "C", "occu": 1}], "abc": [0.645324999999999, 0.550354999999999, 0.456101999999999], "properties": {"magmom": -0.0}, "label": "C", "xyz": [14.782011919449978, 3.266062270135994, 6.154916785811986]}, {"species": [{"element": "C", "occu": 1}], "abc": [0.145324999999999, 0.449644999999999, 0.043898], "properties": {"magmom": -0.0}, "label": "C", "xyz": [3.3288589194499774, 2.6620862298639945, 0.592386214188]}, {"species": [{"element": "C", "occu": 1}], "abc": [0.354674999999999, 0.449644999999999, 0.543898], "properties": {"magmom": -0.0}, "label": "C", "xyz": [8.124294080549978, 2.671692729863994, 7.339689214188]}, {"species": [{"element": "C", "occu": 1}], "abc": [0.854675, 0.550354999999999, 0.956102], "properties": {"magmom": -0.0}, "label": "C", "xyz": [19.577447080549998, 3.2756687701359932, 12.902219785812]}, {"species": [{"element": "C", "occu": 1}], "abc": [0.485433, 0.062175999999999, 0.280520999999999], "properties": {"magmom": 0.0}, "label": "C", "xyz": [11.119476840498, 0.3733809173649938, 3.7855203697259867]}, {"species": [{"element": "C", "occu": 1}], "abc": [0.985433, 0.937824, 0.219478999999999], "properties": {"magmom": 0.0}, "label": "C", "xyz": [22.572629840498, 5.554767582635, 2.9617826302739862]}, {"species": [{"element": "C", "occu": 1}], "abc": [0.514567, 0.937824, 0.719479], "properties": {"magmom": 0.0}, "label": "C", "xyz": [11.786829159502, 5.564374082634999, 9.709085630273998]}, {"species": [{"element": "C", "occu": 1}], "abc": [0.014567, 0.062175999999999, 0.780520999999999], "properties": {"magmom": 0.0}, "label": "C", "xyz": [0.333676159502, 0.3829874173649933, 10.532823369725985]}, {"species": [{"element": "C", "occu": 1}], "abc": [0.604495, 0.518780999999999, 0.044087], "properties": {"magmom": 0.0}, "label": "C", "xyz": [13.846747445470001, 3.0712741808329946, 0.594936694722]}, {"species": [{"element": "C", "occu": 1}], "abc": [0.104494999999999, 0.48121899999999906, 0.455912999999999], "properties": {"magmom": 0.0}, "label": "C", "xyz": [2.393594445469977, 2.856874319166994, 6.152366305277987]}, {"species": [{"element": "C", "occu": 1}], "abc": [0.395505, 0.48121899999999906, 0.9559129999999991], "properties": {"magmom": 0.0}, "label": "C", "xyz": [9.05955855453, 2.8664808191669935, 12.899669305277987]}, {"species": [{"element": "C", "occu": 1}], "abc": [0.895505, 0.518780999999999, 0.544087], "properties": {"magmom": 0.0}, "label": "C", "xyz": [20.51271155453, 3.080880680832994, 7.342239694721999]}, {"species": [{"element": "C", "occu": 1}], "abc": [0.762927999999999, 0.079985, 0.217473], "properties": {"magmom": 0.0}, "label": "C", "xyz": [17.47586222396798, 0.4775728906189998, 2.934712450638]}, {"species": [{"element": "C", "occu": 1}], "abc": [0.262928, 0.920014999999999, 0.282527], "properties": {"magmom": 0.0}, "label": "C", "xyz": [6.0227092239680005, 5.450575609380995, 3.8125905493619996]}, {"species": [{"element": "C", "occu": 1}], "abc": [0.237071999999999, 0.920014999999999, 0.782527], "properties": {"magmom": 0.0}, "label": "C", "xyz": [5.430443776031978, 5.460182109380995, 10.559893549361998]}, {"species": [{"element": "C", "occu": 1}], "abc": [0.737072, 0.079985, 0.717472999999999], "properties": {"magmom": 0.0}, "label": "C", "xyz": [16.883596776032, 0.48717939061899934, 9.682015450637987]}, {"species": [{"element": "S", "occu": 1}], "abc": [0.585432, 0.662011999999999, 0.507425999999999], "properties": {"magmom": -0.003}, "label": "S", "xyz": [13.410084534191999, 3.927895002241994, 6.8475139441559865]}, {"species": [{"element": "S", "occu": 1}], "abc": [0.085432, 0.337988, 0.992574], "properties": {"magmom": -0.003}, "label": "S", "xyz": [1.956931534192, 2.0194664977579992, 13.394395055843999]}, {"species": [{"element": "S", "occu": 1}], "abc": [0.414568, 0.337988, 0.492573999999999], "properties": {"magmom": -0.003}, "label": "S", "xyz": [9.496221465808, 2.0098599977579994, 6.647092055843986]}, {"species": [{"element": "S", "occu": 1}], "abc": [0.914567999999999, 0.662011999999999, 0.007425999999999], "properties": {"magmom": -0.003}, "label": "S", "xyz": [20.949374465807978, 3.9182885022419947, 0.1002109441559865]}, {"species": [{"element": "S", "occu": 1}], "abc": [0.667549, 0.295902, 0.493772999999999], "properties": {"magmom": -0.003}, "label": "S", "xyz": [15.291081663994, 1.7607952755329996, 6.663272088437987]}, {"species": [{"element": "S", "occu": 1}], "abc": [0.167549, 0.704098, 0.006227], "properties": {"magmom": -0.003}, "label": "S", "xyz": [3.837928663994, 4.167353224467001, 0.08403091156199999]}, {"species": [{"element": "S", "occu": 1}], "abc": [0.332451, 0.704098, 0.506227], "properties": {"magmom": -0.003}, "label": "S", "xyz": [7.615224336006, 4.176959724467, 6.831333911561999]}, {"species": [{"element": "S", "occu": 1}], "abc": [0.832450999999999, 0.295902, 0.9937729999999991], "properties": {"magmom": -0.003}, "label": "S", "xyz": [19.06837733600598, 1.770401775532999, 13.410575088437987]}, {"species": [{"element": "S", "occu": 1}], "abc": [0.680739, 0.695427999999999, 0.368455], "properties": {"magmom": 0.006}, "label": "S", "xyz": [15.593215840134, 4.122998951890994, 4.972155053729999]}, {"species": [{"element": "S", "occu": 1}], "abc": [0.180738999999999, 0.304572, 0.131545], "properties": {"magmom": 0.006}, "label": "S", "xyz": [4.140062840133978, 1.805149548109, 1.77514794627]}, {"species": [{"element": "S", "occu": 1}], "abc": [0.319260999999999, 0.304572, 0.631545], "properties": {"magmom": 0.006}, "label": "S", "xyz": [7.313090159865978, 1.8147560481089997, 8.52245094627]}, {"species": [{"element": "S", "occu": 1}], "abc": [0.819261, 0.695427999999999, 0.868455], "properties": {"magmom": 0.006}, "label": "S", "xyz": [18.766243159866, 4.132605451890994, 11.71945805373]}, {"species": [{"element": "S", "occu": 1}], "abc": [0.545598, 0.179845, 0.327886], "properties": {"magmom": 0.012}, "label": "S", "xyz": [12.497634740988001, 1.0707198597079999, 4.424692382916]}, {"species": [{"element": "S", "occu": 1}], "abc": [0.045598, 0.820155, 0.172114], "properties": {"magmom": 0.012}, "label": "S", "xyz": [1.044481740988, 4.8574286402919995, 2.3226106170839995]}, {"species": [{"element": "S", "occu": 1}], "abc": [0.454402, 0.820155, 0.672114], "properties": {"magmom": 0.012}, "label": "S", "xyz": [10.408671259012, 4.867035140291999, 9.069913617084]}, {"species": [{"element": "S", "occu": 1}], "abc": [0.954402, 0.179845, 0.827886], "properties": {"magmom": 0.012}, "label": "S", "xyz": [21.861824259012, 1.0803263597079993, 11.171995382916]}, {"species": [{"element": "S", "occu": 1}], "abc": [0.449575, 0.190141, 0.18846000000000002], "properties": {"magmom": -0.005}, "label": "S", "xyz": [10.29810251995, 1.128978376402, 2.54319344676]}, {"species": [{"element": "S", "occu": 1}], "abc": [0.949575, 0.809859, 0.31154000000000004], "properties": {"magmom": -0.005}, "label": "S", "xyz": [21.75125551995, 4.7991701235979995, 4.20410955324]}, {"species": [{"element": "S", "occu": 1}], "abc": [0.550424999999999, 0.809859, 0.81154], "properties": {"magmom": -0.005}, "label": "S", "xyz": [12.608203480049978, 4.808776623597999, 10.951412553239999]}, {"species": [{"element": "S", "occu": 1}], "abc": [0.050425, 0.190141, 0.6884600000000001], "properties": {"magmom": -0.005}, "label": "S", "xyz": [1.1550504800499999, 1.1385848764019995, 9.29049644676]}, {"species": [{"element": "S", "occu": 1}], "abc": [0.461379, 0.817778999999999, 0.326861], "properties": {"magmom": -0.006}, "label": "S", "xyz": [10.568488555974, 4.846339338610995, 4.4108604117659995]}, {"species": [{"element": "S", "occu": 1}], "abc": [0.961379, 0.182221, 0.173139], "properties": {"magmom": -0.006}, "label": "S", "xyz": [22.021641555974, 1.081809161389, 2.3364425882339996]}, {"species": [{"element": "S", "occu": 1}], "abc": [0.538621, 0.182221, 0.673138999999999], "properties": {"magmom": -0.006}, "label": "S", "xyz": [12.337817444026001, 1.0914156613889994, 9.083745588233986]}, {"species": [{"element": "S", "occu": 1}], "abc": [0.038620999999999, 0.817778999999999, 0.826861], "properties": {"magmom": -0.006}, "label": "S", "xyz": [0.8846644440259772, 4.855945838610994, 11.158163411766]}, {"species": [{"element": "S", "occu": 1}], "abc": [0.661853, 0.6450600000000001, 0.991176], "properties": {"magmom": 0.005}, "label": "S", "xyz": [15.160607345018, 3.8368581670079998, 13.375529596655998]}, {"species": [{"element": "S", "occu": 1}], "abc": [0.161853, 0.35494000000000003, 0.508823999999999], "properties": {"magmom": 0.005}, "label": "S", "xyz": [3.707454345018, 2.1105033329919998, 6.866379403343987]}, {"species": [{"element": "S", "occu": 1}], "abc": [0.338147, 0.35494000000000003, 0.008824], "properties": {"magmom": 0.005}, "label": "S", "xyz": [7.745698654981999, 2.1008968329920004, 0.11907640334399999]}, {"species": [{"element": "S", "occu": 1}], "abc": [0.838147, 0.6450600000000001, 0.491176], "properties": {"magmom": 0.005}, "label": "S", "xyz": [19.198851654982, 3.8272516670080003, 6.628226596656]}, {"species": [{"element": "S", "occu": 1}], "abc": [0.582577999999999, 0.268846, 0.000551], "properties": {"magmom": -0.024}, "label": "S", "xyz": [13.344709936867979, 1.591186928895, 0.007435527905999999]}, {"species": [{"element": "S", "occu": 1}], "abc": [0.082578, 0.731154, 0.499449], "properties": {"magmom": -0.024}, "label": "S", "xyz": [1.891556936868, 4.336961571105, 6.739867472094]}, {"species": [{"element": "S", "occu": 1}], "abc": [0.417421999999999, 0.731154, 0.999448999999999], "properties": {"magmom": -0.024}, "label": "S", "xyz": [9.561596063131978, 4.346568071105, 13.487170472093986]}, {"species": [{"element": "S", "occu": 1}], "abc": [0.917422, 0.268846, 0.500551], "properties": {"magmom": -0.024}, "label": "S", "xyz": [21.014749063132, 1.6007934288949994, 6.7547385279059995]}, {"species": [{"element": "S", "occu": 1}], "abc": [0.569955, 0.640907, 0.13902], "properties": {"magmom": 0.019}, "label": "S", "xyz": [13.05556363623, 3.7959059888540003, 1.87602012612]}, {"species": [{"element": "S", "occu": 1}], "abc": [0.069955, 0.359093, 0.36098], "properties": {"magmom": 0.019}, "label": "S", "xyz": [1.6024106362300001, 2.132242511146, 4.87128287388]}, {"species": [{"element": "S", "occu": 1}], "abc": [0.430044999999999, 0.359093, 0.8609800000000001], "properties": {"magmom": 0.019}, "label": "S", "xyz": [9.850742363769978, 2.1418490111459993, 11.61858587388]}, {"species": [{"element": "S", "occu": 1}], "abc": [0.930045, 0.640907, 0.63902], "properties": {"magmom": 0.019}, "label": "S", "xyz": [21.30389536377, 3.8055124888539997, 8.62332312612]}, {"species": [{"element": "S", "occu": 1}], "abc": [0.796342999999999, 0.240781, 0.301491], "properties": {"magmom": 0.0}, "label": "S", "xyz": [18.24127643895798, 1.4308650078849998, 4.068502257546]}, {"species": [{"element": "S", "occu": 1}], "abc": [0.296342999999999, 0.759219, 0.198509], "properties": {"magmom": 0.0}, "label": "S", "xyz": [6.788123438957978, 4.497283492115, 2.678800742454]}, {"species": [{"element": "S", "occu": 1}], "abc": [0.203656999999999, 0.759219, 0.698508999999999], "properties": {"magmom": 0.0}, "label": "S", "xyz": [4.665029561041977, 4.506889992114999, 9.426103742453986]}, {"species": [{"element": "S", "occu": 1}], "abc": [0.703657, 0.240781, 0.801491], "properties": {"magmom": 0.0}, "label": "S", "xyz": [16.118182561042, 1.4404715078849992, 10.815805257545998]}, {"species": [{"element": "S", "occu": 1}], "abc": [0.697719, 0.155219, 0.173009], "properties": {"magmom": 0.001}, "label": "S", "xyz": [15.982164916014, 0.9219941926149999, 2.3346882894539998]}, {"species": [{"element": "S", "occu": 1}], "abc": [0.197718999999999, 0.844781, 0.326991], "properties": {"magmom": 0.001}, "label": "S", "xyz": [4.529011916013977, 5.006154307385, 4.412614710545999]}, {"species": [{"element": "S", "occu": 1}], "abc": [0.302280999999999, 0.844781, 0.826990999999999], "properties": {"magmom": 0.001}, "label": "S", "xyz": [6.924141083985978, 5.015760807384999, 11.159917710545987]}, {"species": [{"element": "S", "occu": 1}], "abc": [0.802280999999999, 0.155219, 0.673009], "properties": {"magmom": 0.001}, "label": "S", "xyz": [18.37729408398598, 0.9316006926149993, 9.081991289453999]}, {"species": [{"element": "S", "occu": 1}], "abc": [0.793909, 0.841733, 0.177334], "properties": {"magmom": -0.002}, "label": "S", "xyz": [18.185522490154, 4.985239231427999, 2.3930524604039998]}, {"species": [{"element": "S", "occu": 1}], "abc": [0.293909, 0.158267, 0.322666], "properties": {"magmom": -0.002}, "label": "S", "xyz": [6.732369490153999, 0.9429092685719997, 4.354250539596]}, {"species": [{"element": "S", "occu": 1}], "abc": [0.206091, 0.158267, 0.822666], "properties": {"magmom": -0.002}, "label": "S", "xyz": [4.720783509846, 0.9525157685719992, 11.101553539595999]}, {"species": [{"element": "S", "occu": 1}], "abc": [0.706090999999999, 0.841733, 0.677334], "properties": {"magmom": -0.002}, "label": "S", "xyz": [16.173936509845976, 4.994845731428, 9.140355460403999]}]}, "task_ids": null, "uncorrected_energy_per_atom": null, "energy_per_atom": -5.07783309875, "formation_energy_per_atom": 0.33310295, "energy_above_hull": 0.658470432633928, "is_stable": false, "equilibrium_reaction_energy_per_atom": null, "decomposes_to": null, "xas": null, "grain_boundaries": null, "band_gap": 0.168999999999999, "cbm": null, "vbm": null, "efermi": 0.20329015, "is_gap_direct": null, "is_metal": null, "es_source_calc_id": null, "bandstructure": null, "dos": null, "dos_energy_up": null, "dos_energy_down": null, "is_magnetic": null, "ordering": null, "total_magnetization": 0.0, "total_magnetization_normalized_vol": null, "total_magnetization_normalized_formula_units": null, "num_magnetic_sites": null, "num_unique_magnetic_sites": null, "types_of_magnetic_species": null, "bulk_modulus": null, "shear_modulus": null, "universal_anisotropy": null, "homogeneous_poisson": null, "e_total": null, "e_ionic": null, "e_electronic": null, "n": null, "e_ij_max": null, "weighted_surface_energy_EV_PER_ANG2": null, "weighted_surface_energy": null, "weighted_work_function": null, "surface_anisotropy": null, "shape_factor": null, "has_reconstructed": null, "possible_species": null, "has_props": null, "theoretical": null, "database_IDs": null, "fields_not_requested": ["builder_meta", "nsites", "elements", "nelements", "composition", "composition_reduced", "chemsys", "symmetry", "property_name", "deprecated", "deprecation_reasons", "last_updated", "origins", "warnings", "task_ids", "uncorrected_energy_per_atom", "equilibrium_reaction_energy_per_atom", "decomposes_to", "xas", "grain_boundaries", "cbm", "vbm", "is_gap_direct", "is_metal", "es_source_calc_id", "bandstructure", "dos", "dos_energy_up", "dos_energy_down", "is_magnetic", "ordering", "total_magnetization_normalized_vol", "total_magnetization_normalized_formula_units", "num_magnetic_sites", "num_unique_magnetic_sites", "types_of_magnetic_species", "bulk_modulus", "shear_modulus", "universal_anisotropy", "homogeneous_poisson", "e_total", "e_ionic", "e_electronic", "n", "e_ij_max", "weighted_surface_energy_EV_PER_ANG2", "weighted_surface_energy", "weighted_work_function", "surface_anisotropy", "shape_factor", "has_reconstructed", "possible_species", "has_props", "theoretical", "database_IDs"]}