{
  "builder_meta": null,
  "nsites": null,
  "elements": null,
  "nelements": null,
  "composition": null,
  "composition_reduced": null,
  "formula_pretty": "Cs3As",
  "formula_anonymous": "AB3",
  "chemsys": null,
  "volume": 1153.0072791496693,
  "density": 4.092746037706412,
  "density_atomic": 48.04196996456955,
  "symmetry": null,
  "property_name": null,
  "material_id": "mp-542220",
  "deprecated": null,
  "deprecation_reasons": null,
  "last_updated": null,
  "origins": null,
  "warnings": null,
  "structure": {
    "@module": "pymatgen.core.structure",
    "@class": "Structure",
    "charge": 0,
    "lattice": {
      "matrix": [
        [10.8583024, -0.0, 0.0],
        [-5.4291512, 9.40356565, -0.0],
        [-0.0, 0.0, 11.29217385]
      ],
      "pbc": [true, true, true],
      "a": 10.8583024,
      "b": 10.858302339054728,
      "c": 11.29217385,
      "alpha": 90.0,
      "beta": 90.0,
      "gamma": 120.0000001856693,
      "volume": 1153.0072791496693
    },
    "properties": {},
    "sites": [
      {
        "species": [{ "element": "Cs", "occu": 1 }],
        "abc": [0.62952875, 0.0, 0.50983908],
        "properties": { "magmom": -0.0 },
        "label": "Cs",
        "xyz": [6.835613536993999, 0.0, 5.757191526884058]
      },
      {
        "species": [{ "element": "Cs", "occu": 1 }],
        "abc": [0.62952875, 0.62952875, 0.00983908],
        "properties": { "magmom": -0.0 },
        "label": "Cs",
        "xyz": [3.4178067684969995, 5.919814929187438, 0.11110460188405799]
      },
      {
        "species": [{ "element": "Cs", "occu": 1 }],
        "abc": [-0.0, 0.37047125000000003, 0.00983908],
        "properties": { "magmom": -0.0 },
        "label": "Cs",
        "xyz": [-2.0113444315030002, 3.483750720812563, 0.11110460188405799]
      },
      {
        "species": [{ "element": "Cs", "occu": 1 }],
        "abc": [0.0, 0.62952875, 0.50983908],
        "properties": { "magmom": -0.0 },
        "label": "Cs",
        "xyz": [-3.4178067684969995, 5.919814929187438, 5.757191526884058]
      },
      {
        "species": [{ "element": "Cs", "occu": 1 }],
        "abc": [0.37047125000000003, 0.37047125000000003, 0.50983908],
        "properties": { "magmom": -0.0 },
        "label": "Cs",
        "xyz": [2.0113444315030002, 3.483750720812563, 5.757191526884058]
      },
      {
        "species": [{ "element": "Cs", "occu": 1 }],
        "abc": [0.37047125000000003, 0.0, 0.00983908],
        "properties": { "magmom": -0.0 },
        "label": "Cs",
        "xyz": [4.0226888630060005, 0.0, 0.11110460188405799]
      },
      {
        "species": [{ "element": "Cs", "occu": 1 }],
        "abc": [0.7101331200000001, 0.0, 0.17937678],
        "properties": { "magmom": -0.0 },
        "label": "Cs",
        "xyz": [7.710840161215488, 0.0, 2.025553784413203]
      },
      {
        "species": [{ "element": "Cs", "occu": 1 }],
        "abc": [0.7101331200000001, 0.7101331200000001, 0.67937678],
        "properties": { "magmom": -0.0 },
        "label": "Cs",
        "xyz": [3.855420080607744, 6.677783414159329, 7.671640709413203]
      },
      {
        "species": [{ "element": "Cs", "occu": 1 }],
        "abc": [0.0, 0.28986688, 0.67937678],
        "properties": { "magmom": -0.0 },
        "label": "Cs",
        "xyz": [-1.5737311193922559, 2.725782235840672, 7.671640709413203]
      },
      {
        "species": [{ "element": "Cs", "occu": 1 }],
        "abc": [-0.0, 0.7101331200000001, 0.17937678],
        "properties": { "magmom": -0.0 },
        "label": "Cs",
        "xyz": [-3.855420080607744, 6.677783414159329, 2.025553784413203]
      },
      {
        "species": [{ "element": "Cs", "occu": 1 }],
        "abc": [0.28986688, 0.28986688, 0.17937678],
        "properties": { "magmom": -0.0 },
        "label": "Cs",
        "xyz": [1.5737311193922559, 2.725782235840672, 2.025553784413203]
      },
      {
        "species": [{ "element": "Cs", "occu": 1 }],
        "abc": [0.28986688, 0.0, 0.67937678],
        "properties": { "magmom": -0.0 },
        "label": "Cs",
        "xyz": [3.1474622387845117, 0.0, 7.671640709413203]
      },
      {
        "species": [{ "element": "Cs", "occu": 1 }],
        "abc": [0.0, 0.0, 0.42827749],
        "properties": { "magmom": -0.0 },
        "label": "Cs",
        "xyz": [0.0, 0.0, 4.8361838731216364]
      },
      {
        "species": [{ "element": "Cs", "occu": 1 }],
        "abc": [0.0, 0.0, 0.92827749],
        "properties": { "magmom": -0.0 },
        "label": "Cs",
        "xyz": [0.0, 0.0, 10.482270798121636]
      },
      {
        "species": [{ "element": "Cs", "occu": 1 }],
        "abc": [0.666667, 0.333333, 0.29076627],
        "properties": { "magmom": -0.0 },
        "label": "Cs",
        "xyz": [5.4291566291511995, 3.13451874881145, 3.283383270556039]
      },
      {
        "species": [{ "element": "Cs", "occu": 1 }],
        "abc": [0.333333, 0.666667, 0.79076627],
        "properties": { "magmom": -0.0 },
        "label": "Cs",
        "xyz": [-5.429151200164739e-6, 6.269046901188551, 8.92947019555604]
      },
      {
        "species": [{ "element": "Cs", "occu": 1 }],
        "abc": [0.666667, 0.333333, 0.79076627],
        "properties": { "magmom": -0.0 },
        "label": "Cs",
        "xyz": [5.4291566291511995, 3.13451874881145, 8.92947019555604]
      },
      {
        "species": [{ "element": "Cs", "occu": 1 }],
        "abc": [0.333333, 0.666667, 0.29076627],
        "properties": { "magmom": -0.0 },
        "label": "Cs",
        "xyz": [-5.429151200164739e-6, 6.269046901188551, 3.283383270556039]
      },
      {
        "species": [{ "element": "As", "occu": 1 }],
        "abc": [0.0, 0.32677705, 0.3455118],
        "properties": { "magmom": 0.0 },
        "label": "As",
        "xyz": [-1.77412201313996, 3.072869442588333, 3.9015793128264296]
      },
      {
        "species": [{ "element": "As", "occu": 1 }],
        "abc": [0.67322295, 0.0, 0.845511799999999],
        "properties": { "magmom": 0.0 },
        "label": "As",
        "xyz": [7.3100583737200795, 0.0, 9.547666237826418]
      },
      {
        "species": [{ "element": "As", "occu": 1 }],
        "abc": [0.32677705, 0.32677705, 0.845511799999999],
        "properties": { "magmom": 0.0 },
        "label": "As",
        "xyz": [1.77412201313996, 3.072869442588333, 9.547666237826418]
      },
      {
        "species": [{ "element": "As", "occu": 1 }],
        "abc": [0.67322295, 0.67322295, 0.3455118],
        "properties": { "magmom": 0.0 },
        "label": "As",
        "xyz": [3.6550291868600397, 6.330696207411668, 3.9015793128264296]
      },
      {
        "species": [{ "element": "As", "occu": 1 }],
        "abc": [0.32677705, 0.0, 0.3455118],
        "properties": { "magmom": 0.0 },
        "label": "As",
        "xyz": [3.54824402627992, 0.0, 3.9015793128264296]
      },
      {
        "species": [{ "element": "As", "occu": 1 }],
        "abc": [-0.0, 0.67322295, 0.845511799999999],
        "properties": { "magmom": 0.0 },
        "label": "As",
        "xyz": [-3.6550291868600397, 6.330696207411668, 9.547666237826418]
      }
    ]
  },
  "task_ids": null,
  "uncorrected_energy_per_atom": null,
  "energy_per_atom": -2.064209426666669,
  "formation_energy_per_atom": -0.21569561578304902,
  "energy_above_hull": 0.0,
  "is_stable": true,
  "equilibrium_reaction_energy_per_atom": null,
  "decomposes_to": null,
  "xas": null,
  "grain_boundaries": null,
  "band_gap": 0.0,
  "cbm": null,
  "vbm": null,
  "efermi": 2.00891141,
  "is_gap_direct": null,
  "is_metal": null,
  "es_source_calc_id": null,
  "bandstructure": null,
  "dos": null,
  "dos_energy_up": null,
  "dos_energy_down": null,
  "is_magnetic": null,
  "ordering": null,
  "total_magnetization": 0.0,
  "total_magnetization_normalized_vol": null,
  "total_magnetization_normalized_formula_units": null,
  "num_magnetic_sites": null,
  "num_unique_magnetic_sites": null,
  "types_of_magnetic_species": null,
  "bulk_modulus": null,
  "shear_modulus": null,
  "universal_anisotropy": null,
  "homogeneous_poisson": null,
  "e_total": null,
  "e_ionic": null,
  "e_electronic": null,
  "n": null,
  "e_ij_max": null,
  "weighted_surface_energy_EV_PER_ANG2": null,
  "weighted_surface_energy": null,
  "weighted_work_function": null,
  "surface_anisotropy": null,
  "shape_factor": null,
  "has_reconstructed": null,
  "possible_species": null,
  "has_props": null,
  "theoretical": null,
  "database_IDs": null,
  "fields_not_requested": [
    "builder_meta",
    "nsites",
    "elements",
    "nelements",
    "composition",
    "composition_reduced",
    "chemsys",
    "symmetry",
    "property_name",
    "deprecated",
    "deprecation_reasons",
    "last_updated",
    "origins",
    "warnings",
    "task_ids",
    "uncorrected_energy_per_atom",
    "equilibrium_reaction_energy_per_atom",
    "decomposes_to",
    "xas",
    "grain_boundaries",
    "cbm",
    "vbm",
    "is_gap_direct",
    "is_metal",
    "es_source_calc_id",
    "bandstructure",
    "dos",
    "dos_energy_up",
    "dos_energy_down",
    "is_magnetic",
    "ordering",
    "total_magnetization_normalized_vol",
    "total_magnetization_normalized_formula_units",
    "num_magnetic_sites",
    "num_unique_magnetic_sites",
    "types_of_magnetic_species",
    "bulk_modulus",
    "shear_modulus",
    "universal_anisotropy",
    "homogeneous_poisson",
    "e_total",
    "e_ionic",
    "e_electronic",
    "n",
    "e_ij_max",
    "weighted_surface_energy_EV_PER_ANG2",
    "weighted_surface_energy",
    "weighted_work_function",
    "surface_anisotropy",
    "shape_factor",
    "has_reconstructed",
    "possible_species",
    "has_props",
    "theoretical",
    "database_IDs"
  ]
}
