{"builder_meta": null, "nsites": null, "elements": null, "nelements": null, "composition": null, "composition_reduced": null, "formula_pretty": "Cs3As7", "formula_anonymous": "A3B7", "chemsys": null, "volume": 3042.995595440295, "density": 4.030122931638817, "density_atomic": 38.037444943003685, "symmetry": null, "property_name": null, "material_id": "mp-573631", "deprecated": null, "deprecation_reasons": null, "last_updated": null, "origins": null, "warnings": null, "structure": {"@module": "pymatgen.core.structure", "@class": "Structure", "charge": 0, "lattice": {"matrix": [[10.3372453, -0.0, 0.0], [0.0, 13.27729846, 0.0], [0.0, 0.0, 22.17107667]], "pbc": [true, true, true], "a": 10.3372453, "b": 13.27729846, "c": 22.17107667, "alpha": 90.0, "beta": 90.0, "gamma": 90.0, "volume": 3042.995595440295}, "properties": {}, "sites": [{"species": [{"element": "Cs", "occu": 1}], "abc": [0.6980809, 0.97302448, 0.73179116], "properties": {"magmom": 0.0}, "label": "Cs", "xyz": [7.216233502544769, 12.9191364298463, 16.224597914788237]}, {"species": [{"element": "Cs", "occu": 1}], "abc": [0.3019191, 0.47302448, 0.76820884], "properties": {"magmom": 0.0}, "label": "Cs", "xyz": [3.1210117974552296, 6.280487199846301, 17.032017090211763]}, {"species": [{"element": "Cs", "occu": 1}], "abc": [0.40246175, 0.22577368, 0.6211845300000001], "properties": {"magmom": 0.0}, "label": "Cs", "xyz": [4.160345833617275, 2.997664533772533, 13.772329840847917]}, {"species": [{"element": "Cs", "occu": 1}], "abc": [0.1980809, 0.52697552, 0.26820884], "properties": {"magmom": 0.0}, "label": "Cs", "xyz": [2.04761085254477, 6.9968112601537, 5.946478755211763]}, {"species": [{"element": "Cs", "occu": 1}], "abc": [0.2369896, 0.95134034, 0.4786726], "properties": {"magmom": 0.0}, "label": "Cs", "xyz": [2.44981962874888, 12.631229631217877, 10.612686914428243]}, {"species": [{"element": "Cs", "occu": 1}], "abc": [0.2630104, 0.45134034, 0.4786726], "properties": {"magmom": 0.0}, "label": "Cs", "xyz": [2.7188030212511194, 5.992580401217877, 10.612686914428243]}, {"species": [{"element": "Cs", "occu": 1}], "abc": [0.9024617500000001, 0.22577368, 0.87881547], "properties": {"magmom": 0.0}, "label": "Cs", "xyz": [9.328968483617276, 2.997664533772533, 19.484285164152087]}, {"species": [{"element": "Cs", "occu": 1}], "abc": [0.59753825, 0.72577368, 0.87881547], "properties": {"magmom": 0.0}, "label": "Cs", "xyz": [6.176899466382725, 9.636313763772533, 19.484285164152087]}, {"species": [{"element": "Cs", "occu": 1}], "abc": [0.3019191, 0.02697552, 0.26820884], "properties": {"magmom": 0.0}, "label": "Cs", "xyz": [3.1210117974552296, 0.35816203015369924, 5.946478755211763]}, {"species": [{"element": "Cs", "occu": 1}], "abc": [0.7630104, 0.45134034, 0.0213274], "properties": {"magmom": 0.0}, "label": "Cs", "xyz": [7.887425671251119, 5.992580401217877, 0.47285142057175805]}, {"species": [{"element": "Cs", "occu": 1}], "abc": [0.2630104, 0.04865966, 0.9786726], "properties": {"magmom": 0.0}, "label": "Cs", "xyz": [2.7188030212511194, 0.6460688287821237, 21.698225249428244]}, {"species": [{"element": "Cs", "occu": 1}], "abc": [0.6980809, 0.52697552, 0.23179116], "properties": {"magmom": 0.0}, "label": "Cs", "xyz": [7.216233502544769, 6.9968112601537, 5.1390595797882375]}, {"species": [{"element": "Cs", "occu": 1}], "abc": [0.8019191, 0.47302448, 0.73179116], "properties": {"magmom": 0.0}, "label": "Cs", "xyz": [8.28963444745523, 6.280487199846301, 16.224597914788237]}, {"species": [{"element": "Cs", "occu": 1}], "abc": [0.09753825, 0.77422632, 0.12118453], "properties": {"magmom": 0.0}, "label": "Cs", "xyz": [1.008276816382725, 10.279633926227469, 2.686791505847915]}, {"species": [{"element": "Cs", "occu": 1}], "abc": [0.40246175, 0.27422632, 0.12118453], "properties": {"magmom": 0.0}, "label": "Cs", "xyz": [4.160345833617275, 3.6409846962274677, 2.686791505847915]}, {"species": [{"element": "Cs", "occu": 1}], "abc": [0.9024617500000001, 0.27422632, 0.37881547], "properties": {"magmom": 0.0}, "label": "Cs", "xyz": [9.328968483617276, 3.6409846962274677, 8.398746829152085]}, {"species": [{"element": "Cs", "occu": 1}], "abc": [0.59753825, 0.77422632, 0.37881547], "properties": {"magmom": 0.0}, "label": "Cs", "xyz": [6.176899466382725, 10.279633926227469, 8.398746829152085]}, {"species": [{"element": "Cs", "occu": 1}], "abc": [0.1980809, 0.97302448, 0.76820884], "properties": {"magmom": 0.0}, "label": "Cs", "xyz": [2.04761085254477, 12.9191364298463, 17.032017090211763]}, {"species": [{"element": "Cs", "occu": 1}], "abc": [0.736989599999999, 0.95134034, 0.0213274], "properties": {"magmom": 0.0}, "label": "Cs", "xyz": [7.618442278748869, 12.631229631217877, 0.47285142057175805]}, {"species": [{"element": "Cs", "occu": 1}], "abc": [0.09753825, 0.72577368, 0.6211845300000001], "properties": {"magmom": 0.0}, "label": "Cs", "xyz": [1.008276816382725, 9.636313763772533, 13.772329840847917]}, {"species": [{"element": "Cs", "occu": 1}], "abc": [0.8019191, 0.02697552, 0.23179116], "properties": {"magmom": 0.0}, "label": "Cs", "xyz": [8.28963444745523, 0.35816203015369924, 5.1390595797882375]}, {"species": [{"element": "Cs", "occu": 1}], "abc": [0.2369896, 0.54865966, 0.9786726], "properties": {"magmom": 0.0}, "label": "Cs", "xyz": [2.44981962874888, 7.284718058782124, 21.698225249428244]}, {"species": [{"element": "Cs", "occu": 1}], "abc": [0.736989599999999, 0.54865966, 0.5213274], "properties": {"magmom": 0.0}, "label": "Cs", "xyz": [7.618442278748869, 7.284718058782124, 11.558389755571758]}, {"species": [{"element": "Cs", "occu": 1}], "abc": [0.7630104, 0.04865966, 0.5213274], "properties": {"magmom": 0.0}, "label": "Cs", "xyz": [7.887425671251119, 0.6460688287821237, 11.558389755571758]}, {"species": [{"element": "As", "occu": 1}], "abc": [0.59190418, 0.08870523, 0.36669708], "properties": {"magmom": 0.0}, "label": "As", "xyz": [6.118658702755353, 1.1777658136729459, 8.130069075345125]}, {"species": [{"element": "As", "occu": 1}], "abc": [0.920709, 0.82173118, 0.45720727], "properties": {"magmom": -0.0}, "label": "As", "xyz": [9.5175947829177, 10.910370130747983, 10.136777437251391]}, {"species": [{"element": "As", "occu": 1}], "abc": [0.03244167, 0.83663094, 0.94824312], "properties": {"magmom": -0.0}, "label": "As", "xyz": [0.335357500731651, 11.108198691250355, 21.02357091532001]}, {"species": [{"element": "As", "occu": 1}], "abc": [0.23279624000000002, 0.7056825600000001, 0.39774767], "properties": {"magmom": -0.0}, "label": "As", "xyz": [2.406471837797672, 9.36955796713686, 8.81849408688386]}, {"species": [{"element": "As", "occu": 1}], "abc": [0.40809582, 0.91129477, 0.63330292], "properties": {"magmom": 0.0}, "label": "As", "xyz": [4.218586597244646, 12.099532646327056, 14.041007594654877]}, {"species": [{"element": "As", "occu": 1}], "abc": [0.579291, 0.17826882, 0.95720727], "properties": {"magmom": -0.0}, "label": "As", "xyz": [5.9882731670822995, 2.3669283292520173, 21.22231577225139]}, {"species": [{"element": "As", "occu": 1}], "abc": [0.052752560000000004, 0.37954945, 0.14260634], "properties": {"magmom": -0.0}, "label": "As", "xyz": [0.545316152922968, 5.039391327978848, 3.161736097768088]}, {"species": [{"element": "As", "occu": 1}], "abc": [0.85463875, 0.20371499, 0.68393568], "properties": {"magmom": 0.0}, "label": "As", "xyz": [8.834610401635375, 2.7047847230059157, 15.163590398628587]}, {"species": [{"element": "As", "occu": 1}], "abc": [0.44724744, 0.8795494500000001, 0.14260634], "properties": {"magmom": -0.0}, "label": "As", "xyz": [4.6233064970770315, 11.678040557978848, 3.161736097768088]}, {"species": [{"element": "As", "occu": 1}], "abc": [0.42771446, 0.78032695, 0.7054216], "properties": {"magmom": 0.0}, "label": "As", "xyz": [4.421389291377038, 10.360633811531498, 15.639956378274073]}, {"species": [{"element": "As", "occu": 1}], "abc": [0.94724744, 0.8795494500000001, 0.35739366], "properties": {"magmom": -0.0}, "label": "As", "xyz": [9.791929147077031, 11.678040557978848, 7.923802237231913]}, {"species": [{"element": "As", "occu": 1}], "abc": [0.64536125, 0.7962850100000001, 0.18393568], "properties": {"magmom": 0.0}, "label": "As", "xyz": [6.671257548364625, 10.572513736994086, 4.0780520636285855]}, {"species": [{"element": "As", "occu": 1}], "abc": [0.57228554, 0.28032695, 0.7945784], "properties": {"magmom": 0.0}, "label": "As", "xyz": [5.915856008622962, 3.7219845815314976, 17.61665862672593]}, {"species": [{"element": "As", "occu": 1}], "abc": [0.76720476, 0.20568256000000001, 0.10225233], "properties": {"magmom": -0.0}, "label": "As", "xyz": [7.930783799447628, 2.730908737136858, 2.2670442481161412]}, {"species": [{"element": "As", "occu": 1}], "abc": [0.07228554, 0.21967305, 0.205421599999999], "properties": {"magmom": 0.0}, "label": "As", "xyz": [0.7472333586229619, 2.9166646484685033, 4.55441804327405]}, {"species": [{"element": "As", "occu": 1}], "abc": [0.44724744, 0.62045055, 0.64260634], "properties": {"magmom": -0.0}, "label": "As", "xyz": [4.6233064970770315, 8.237907132021155, 14.24727443276809]}, {"species": [{"element": "As", "occu": 1}], "abc": [0.92771446, 0.71967305, 0.294578399999999], "properties": {"magmom": 0.0}, "label": "As", "xyz": [9.590011941377037, 9.555313878468503, 6.531120291725907]}, {"species": [{"element": "As", "occu": 1}], "abc": [0.90809582, 0.91129477, 0.86669708], "properties": {"magmom": 0.0}, "label": "As", "xyz": [9.387209247244645, 12.099532646327056, 19.215607410345125]}, {"species": [{"element": "As", "occu": 1}], "abc": [0.14536125, 0.7962850100000001, 0.31606432], "properties": {"magmom": 0.0}, "label": "As", "xyz": [1.502634898364625, 10.572513736994086, 7.007486271371415]}, {"species": [{"element": "As", "occu": 1}], "abc": [0.64536125, 0.70371499, 0.68393568], "properties": {"magmom": 0.0}, "label": "As", "xyz": [6.671257548364625, 9.343433953005917, 15.163590398628587]}, {"species": [{"element": "As", "occu": 1}], "abc": [0.14536125, 0.70371499, 0.8160643200000001], "properties": {"magmom": 0.0}, "label": "As", "xyz": [1.502634898364625, 9.343433953005917, 18.09302460637142]}, {"species": [{"element": "As", "occu": 1}], "abc": [0.079291, 0.17826882, 0.5427927300000001], "properties": {"magmom": -0.0}, "label": "As", "xyz": [0.8196505170823, 2.3669283292520173, 12.03429923274861]}, {"species": [{"element": "As", "occu": 1}], "abc": [0.53244167, 0.83663094, 0.55175688], "properties": {"magmom": -0.0}, "label": "As", "xyz": [5.503980150731651, 11.108198691250355, 12.233044089679991]}, {"species": [{"element": "As", "occu": 1}], "abc": [0.7327952400000001, 0.7056825600000001, 0.10225233], "properties": {"magmom": -0.0}, "label": "As", "xyz": [7.575084150552372, 9.36955796713686, 2.2670442481161412]}, {"species": [{"element": "As", "occu": 1}], "abc": [0.94724744, 0.62045055, 0.8573936600000001], "properties": {"magmom": -0.0}, "label": "As", "xyz": [9.791929147077031, 8.237907132021155, 19.009340572231913]}, {"species": [{"element": "As", "occu": 1}], "abc": [0.96755833, 0.33663094, 0.55175688], "properties": {"magmom": -0.0}, "label": "As", "xyz": [10.00188779926835, 4.469549461250352, 12.233044089679991]}, {"species": [{"element": "As", "occu": 1}], "abc": [0.052752560000000004, 0.12045055, 0.64260634], "properties": {"magmom": -0.0}, "label": "As", "xyz": [0.545316152922968, 1.599257902021153, 14.24727443276809]}, {"species": [{"element": "As", "occu": 1}], "abc": [0.09190418, 0.41129477000000003, 0.63330292], "properties": {"magmom": 0.0}, "label": "As", "xyz": [0.950036052755354, 5.4608834163270545, 14.041007594654877]}, {"species": [{"element": "As", "occu": 1}], "abc": [0.59190418, 0.41129477000000003, 0.86669708], "properties": {"magmom": 0.0}, "label": "As", "xyz": [6.118658702755353, 5.4608834163270545, 19.215607410345125]}, {"species": [{"element": "As", "occu": 1}], "abc": [0.7327952400000001, 0.79431744, 0.60225233], "properties": {"magmom": -0.0}, "label": "As", "xyz": [7.575084150552372, 10.546389722863143, 13.352582583116142]}, {"species": [{"element": "As", "occu": 1}], "abc": [0.03244167, 0.6633690600000001, 0.44824312], "properties": {"magmom": -0.0}, "label": "As", "xyz": [0.335357500731651, 8.807748998749648, 9.93803258032001]}, {"species": [{"element": "As", "occu": 1}], "abc": [0.079291, 0.32173118, 0.04279273], "properties": {"magmom": -0.0}, "label": "As", "xyz": [0.8196505170823, 4.271720900747983, 0.9487608977486092]}, {"species": [{"element": "As", "occu": 1}], "abc": [0.420709, 0.82173118, 0.04279273], "properties": {"magmom": -0.0}, "label": "As", "xyz": [4.3489721329177, 10.910370130747983, 0.9487608977486092]}, {"species": [{"element": "As", "occu": 1}], "abc": [0.35463875, 0.20371499, 0.8160643200000001], "properties": {"magmom": 0.0}, "label": "As", "xyz": [3.6659877516353747, 2.7047847230059157, 18.09302460637142]}, {"species": [{"element": "As", "occu": 1}], "abc": [0.96755833, 0.16336906, 0.05175688], "properties": {"magmom": -0.0}, "label": "As", "xyz": [10.00188779926835, 2.169099768749648, 1.1475057546799896]}, {"species": [{"element": "As", "occu": 1}], "abc": [0.40809582, 0.58870523, 0.13330292], "properties": {"magmom": 0.0}, "label": "As", "xyz": [4.218586597244646, 7.816415043672946, 2.9554692596548766]}, {"species": [{"element": "As", "occu": 1}], "abc": [0.46755833, 0.16336906, 0.44824312], "properties": {"magmom": -0.0}, "label": "As", "xyz": [4.833265149268349, 2.169099768749648, 9.93803258032001]}, {"species": [{"element": "As", "occu": 1}], "abc": [0.07228554, 0.28032695, 0.7054216], "properties": {"magmom": 0.0}, "label": "As", "xyz": [0.7472333586229619, 3.7219845815314976, 15.639956378274073]}, {"species": [{"element": "As", "occu": 1}], "abc": [0.5527525600000001, 0.37954945, 0.35739366], "properties": {"magmom": -0.0}, "label": "As", "xyz": [5.713938802922968, 5.039391327978848, 7.923802237231913]}, {"species": [{"element": "As", "occu": 1}], "abc": [0.85463875, 0.29628501, 0.18393568], "properties": {"magmom": 0.0}, "label": "As", "xyz": [8.834610401635375, 3.933864506994085, 4.0780520636285855]}, {"species": [{"element": "As", "occu": 1}], "abc": [0.42771446, 0.71967305, 0.205421599999999], "properties": {"magmom": 0.0}, "label": "As", "xyz": [4.421389291377038, 9.555313878468503, 4.55441804327405]}, {"species": [{"element": "As", "occu": 1}], "abc": [0.76720476, 0.29431744, 0.60225233], "properties": {"magmom": -0.0}, "label": "As", "xyz": [7.930783799447628, 3.9077404928631423, 13.352582583116142]}, {"species": [{"element": "As", "occu": 1}], "abc": [0.57228554, 0.21967305, 0.294578399999999], "properties": {"magmom": 0.0}, "label": "As", "xyz": [5.915856008622962, 2.9166646484685033, 6.531120291725907]}, {"species": [{"element": "As", "occu": 1}], "abc": [0.5527525600000001, 0.12045055, 0.8573936600000001], "properties": {"magmom": -0.0}, "label": "As", "xyz": [5.713938802922968, 1.599257902021153, 19.009340572231913]}, {"species": [{"element": "As", "occu": 1}], "abc": [0.09190418, 0.08870523, 0.13330292], "properties": {"magmom": 0.0}, "label": "As", "xyz": [0.950036052755354, 1.1777658136729459, 2.9554692596548766]}, {"species": [{"element": "As", "occu": 1}], "abc": [0.23279624000000002, 0.79431744, 0.89774767], "properties": {"magmom": -0.0}, "label": "As", "xyz": [2.406471837797672, 10.546389722863143, 19.90403242188386]}, {"species": [{"element": "As", "occu": 1}], "abc": [0.420709, 0.67826882, 0.5427927300000001], "properties": {"magmom": -0.0}, "label": "As", "xyz": [4.3489721329177, 9.005577559252018, 12.03429923274861]}, {"species": [{"element": "As", "occu": 1}], "abc": [0.26720476, 0.29431744, 0.89774767], "properties": {"magmom": -0.0}, "label": "As", "xyz": [2.7621611494476275, 3.9077404928631423, 19.90403242188386]}, {"species": [{"element": "As", "occu": 1}], "abc": [0.26720476, 0.20568256000000001, 0.39774767], "properties": {"magmom": -0.0}, "label": "As", "xyz": [2.7621611494476275, 2.730908737136858, 8.81849408688386]}, {"species": [{"element": "As", "occu": 1}], "abc": [0.92771446, 0.78032695, 0.7945784], "properties": {"magmom": 0.0}, "label": "As", "xyz": [9.590011941377037, 10.360633811531498, 17.61665862672593]}, {"species": [{"element": "As", "occu": 1}], "abc": [0.90809582, 0.58870523, 0.36669708], "properties": {"magmom": 0.0}, "label": "As", "xyz": [9.387209247244645, 7.816415043672946, 8.130069075345125]}, {"species": [{"element": "As", "occu": 1}], "abc": [0.53244167, 0.6633690600000001, 0.05175688], "properties": {"magmom": -0.0}, "label": "As", "xyz": [5.503980150731651, 8.807748998749648, 1.1475057546799896]}, {"species": [{"element": "As", "occu": 1}], "abc": [0.46755833, 0.33663094, 0.94824312], "properties": {"magmom": -0.0}, "label": "As", "xyz": [4.833265149268349, 4.469549461250352, 21.02357091532001]}, {"species": [{"element": "As", "occu": 1}], "abc": [0.920709, 0.67826882, 0.95720727], "properties": {"magmom": -0.0}, "label": "As", "xyz": [9.5175947829177, 9.005577559252018, 21.22231577225139]}, {"species": [{"element": "As", "occu": 1}], "abc": [0.579291, 0.32173118, 0.45720727], "properties": {"magmom": -0.0}, "label": "As", "xyz": [5.9882731670822995, 4.271720900747983, 10.136777437251391]}, {"species": [{"element": "As", "occu": 1}], "abc": [0.35463875, 0.29628501, 0.31606432], "properties": {"magmom": 0.0}, "label": "As", "xyz": [3.6659877516353747, 3.933864506994085, 7.007486271371415]}]}, "task_ids": null, "uncorrected_energy_per_atom": null, "energy_per_atom": -3.91864071175, "formation_energy_per_atom": -0.37716166789655303, "energy_above_hull": 0.0, "is_stable": true, "equilibrium_reaction_energy_per_atom": null, "decomposes_to": null, "xas": null, "grain_boundaries": null, "band_gap": 1.5702999999999991, "cbm": null, "vbm": null, "efermi": 1.46756867, "is_gap_direct": null, "is_metal": null, "es_source_calc_id": null, "bandstructure": null, "dos": null, "dos_energy_up": null, "dos_energy_down": null, "is_magnetic": null, "ordering": null, "total_magnetization": 4.5e-05, "total_magnetization_normalized_vol": null, "total_magnetization_normalized_formula_units": null, "num_magnetic_sites": null, "num_unique_magnetic_sites": null, "types_of_magnetic_species": null, "bulk_modulus": null, "shear_modulus": null, "universal_anisotropy": null, "homogeneous_poisson": null, "e_total": null, "e_ionic": null, "e_electronic": null, "n": null, "e_ij_max": null, "weighted_surface_energy_EV_PER_ANG2": null, "weighted_surface_energy": null, "weighted_work_function": null, "surface_anisotropy": null, "shape_factor": null, "has_reconstructed": null, "possible_species": null, "has_props": null, "theoretical": null, "database_IDs": null, "fields_not_requested": ["builder_meta", "nsites", "elements", "nelements", "composition", "composition_reduced", "chemsys", "symmetry", "property_name", "deprecated", "deprecation_reasons", "last_updated", "origins", "warnings", "task_ids", "uncorrected_energy_per_atom", "equilibrium_reaction_energy_per_atom", "decomposes_to", "xas", "grain_boundaries", "cbm", "vbm", "is_gap_direct", "is_metal", "es_source_calc_id", "bandstructure", "dos", "dos_energy_up", "dos_energy_down", "is_magnetic", "ordering", "total_magnetization_normalized_vol", "total_magnetization_normalized_formula_units", "num_magnetic_sites", "num_unique_magnetic_sites", "types_of_magnetic_species", "bulk_modulus", "shear_modulus", "universal_anisotropy", "homogeneous_poisson", "e_total", "e_ionic", "e_electronic", "n", "e_ij_max", "weighted_surface_energy_EV_PER_ANG2", "weighted_surface_energy", "weighted_work_function", "surface_anisotropy", "shape_factor", "has_reconstructed", "possible_species", "has_props", "theoretical", "database_IDs"]}