{
  "builder_meta": null,
  "nsites": null,
  "elements": null,
  "nelements": null,
  "composition": null,
  "composition_reduced": null,
  "formula_pretty": "Cs3Bi2",
  "formula_anonymous": "A2B3",
  "chemsys": null,
  "volume": 532.1976189955604,
  "density": 5.09631863591984,
  "density_atomic": 53.21976189955605,
  "symmetry": null,
  "property_name": null,
  "material_id": "mp-574498",
  "deprecated": null,
  "deprecation_reasons": null,
  "last_updated": null,
  "origins": null,
  "warnings": null,
  "structure": {
    "@module": "pymatgen.core.structure",
    "@class": "Structure",
    "charge": 0,
    "lattice": {
      "matrix": [
        [7.18139354, -0.05131984, -1.31371089],
        [-0.47784433, 7.1658071, -1.31434236],
        [0.05146597, 0.05470365, 10.3266081]
      ],
      "pbc": [true, true, true],
      "a": 7.300745386933854,
      "b": 7.301001468114763,
      "c": 10.326881237158533,
      "alpha": 100.08706717263506,
      "beta": 100.08286453417439,
      "gamma": 92.22850053017534,
      "volume": 532.1976189955604
    },
    "properties": {},
    "sites": [
      {
        "species": [{ "element": "Cs", "occu": 1 }],
        "abc": [0.8416169, 0.15846116, 0.74992558],
        "properties": { "magmom": 0.01 },
        "label": "Cs",
        "xyz": [6.006858049386116, 1.1333341272073072, 6.430274067084419]
      },
      {
        "species": [{ "element": "Cs", "occu": 1 }],
        "abc": [0.33844717, 0.24138779000000002, 0.016946990000000002],
        "properties": { "magmom": 0.012 },
        "label": "Cs",
        "xyz": [2.316048726765482, 1.7132963470319698, -0.5868830062978467]
      },
      {
        "species": [{ "element": "Cs", "occu": 1 }],
        "abc": [0.1583831, 0.84153884, 0.25007442],
        "properties": { "magmom": 0.01 },
        "label": "Cs",
        "xyz": [0.7481571306138843, 6.035856782792694, 1.268280782915581]
      },
      {
        "species": [{ "element": "Cs", "occu": 1 }],
        "abc": [0.24121198, 0.33841718, 0.51716744],
        "properties": { "magmom": 0.012 },
        "label": "Cs",
        "xyz": [1.5971439482570366, 2.4409442176154506, 4.578906635010057]
      },
      {
        "species": [{ "element": "Cs", "occu": 1 }],
        "abc": [0.75878802, 0.66158282, 0.48283256],
        "properties": { "magmom": 0.012 },
        "label": "Cs",
        "xyz": [5.157871231742964, 4.728246692384549, 3.1196482149899425]
      },
      {
        "species": [{ "element": "Cs", "occu": 1 }],
        "abc": [0.66155283, 0.75861221, 0.98305301],
        "properties": { "magmom": 0.012 },
        "label": "Cs",
        "xyz": [4.438966453234519, 5.45589456296803, 8.285437856297847]
      },
      {
        "species": [{ "element": "Bi", "occu": 1 }],
        "abc": [0.31113235, 0.88178384, 0.66332389],
        "properties": { "magmom": 0.253 },
        "label": "Bi",
        "xyz": [1.8471470475684153, 6.339011876831639, 5.282182045695755]
      },
      {
        "species": [{ "element": "Bi", "occu": 1 }],
        "abc": [0.68886765, 0.11821616, 0.33667611000000003],
        "properties": { "magmom": 0.253 },
        "label": "Bi",
        "xyz": [4.907868132431585, 0.8301790331683616, 2.416372804304245]
      },
      {
        "species": [{ "element": "Bi", "occu": 1 }],
        "abc": [0.88195177, 0.31059419, 0.16317578],
        "properties": { "magmom": 0.254 },
        "label": "Bi",
        "xyz": [6.1936250708453295, 2.1893227389542296, 0.11819558608115388]
      },
      {
        "species": [{ "element": "Bi", "occu": 1 }],
        "abc": [0.11804823, 0.68940581, 0.83682422],
        "properties": { "magmom": 0.254 },
        "label": "Bi",
        "xyz": [0.5613901091546704, 4.979868171045772, 7.5803592639188455]
      }
    ]
  },
  "task_ids": null,
  "uncorrected_energy_per_atom": null,
  "energy_per_atom": -38.957351462999995,
  "formation_energy_per_atom": -0.491370165,
  "energy_above_hull": 0.001425830125,
  "is_stable": false,
  "equilibrium_reaction_energy_per_atom": null,
  "decomposes_to": null,
  "xas": null,
  "grain_boundaries": null,
  "band_gap": 0.0,
  "cbm": null,
  "vbm": null,
  "efermi": 2.18304852,
  "is_gap_direct": null,
  "is_metal": null,
  "es_source_calc_id": null,
  "bandstructure": null,
  "dos": null,
  "dos_energy_up": null,
  "dos_energy_down": null,
  "is_magnetic": null,
  "ordering": null,
  "total_magnetization": 1.9979388,
  "total_magnetization_normalized_vol": null,
  "total_magnetization_normalized_formula_units": null,
  "num_magnetic_sites": null,
  "num_unique_magnetic_sites": null,
  "types_of_magnetic_species": null,
  "bulk_modulus": null,
  "shear_modulus": null,
  "universal_anisotropy": null,
  "homogeneous_poisson": null,
  "e_total": null,
  "e_ionic": null,
  "e_electronic": null,
  "n": null,
  "e_ij_max": null,
  "weighted_surface_energy_EV_PER_ANG2": null,
  "weighted_surface_energy": null,
  "weighted_work_function": null,
  "surface_anisotropy": null,
  "shape_factor": null,
  "has_reconstructed": null,
  "possible_species": null,
  "has_props": null,
  "theoretical": null,
  "database_IDs": null,
  "fields_not_requested": [
    "builder_meta",
    "nsites",
    "elements",
    "nelements",
    "composition",
    "composition_reduced",
    "chemsys",
    "symmetry",
    "property_name",
    "deprecated",
    "deprecation_reasons",
    "last_updated",
    "origins",
    "warnings",
    "task_ids",
    "uncorrected_energy_per_atom",
    "equilibrium_reaction_energy_per_atom",
    "decomposes_to",
    "xas",
    "grain_boundaries",
    "cbm",
    "vbm",
    "is_gap_direct",
    "is_metal",
    "es_source_calc_id",
    "bandstructure",
    "dos",
    "dos_energy_up",
    "dos_energy_down",
    "is_magnetic",
    "ordering",
    "total_magnetization_normalized_vol",
    "total_magnetization_normalized_formula_units",
    "num_magnetic_sites",
    "num_unique_magnetic_sites",
    "types_of_magnetic_species",
    "bulk_modulus",
    "shear_modulus",
    "universal_anisotropy",
    "homogeneous_poisson",
    "e_total",
    "e_ionic",
    "e_electronic",
    "n",
    "e_ij_max",
    "weighted_surface_energy_EV_PER_ANG2",
    "weighted_surface_energy",
    "weighted_work_function",
    "surface_anisotropy",
    "shape_factor",
    "has_reconstructed",
    "possible_species",
    "has_props",
    "theoretical",
    "database_IDs"
  ]
}
