{"builder_meta": null, "nsites": null, "elements": null, "nelements": null, "composition": null, "composition_reduced": null, "formula_pretty": "Cs3Ca", "formula_anonymous": "AB3", "chemsys": null, "volume": 716.6320641853534, "density": 2.033498656445738, "density_atomic": 89.57900802316918, "symmetry": null, "property_name": null, "material_id": "mp-1185563", "deprecated": null, "deprecation_reasons": null, "last_updated": null, "origins": null, "warnings": null, "structure": {"@module": "pymatgen.core.structure", "@class": "Structure", "charge": 0, "lattice": {"matrix": [[5.095609, -8.825854, 0.0], [5.095609, 8.825854, 0.0], [0.0, 0.0, 7.967341]], "pbc": [true, true, true], "a": 10.191218274092504, "b": 10.191218274092504, "c": 7.967341, "alpha": 90.0, "beta": 90.0, "gamma": 120.00000177935685, "volume": 716.6320641853534}, "properties": {}, "sites": [{"species": [{"element": "Cs", "occu": 1}], "abc": [0.173195, 0.346391, 0.25], "properties": {"magmom": 0.001}, "label": "Cs", "xyz": [2.647607097874, 1.528602609384, 1.99183525]}, {"species": [{"element": "Cs", "occu": 1}], "abc": [0.653609, 0.826805, 0.25], "properties": {"magmom": 0.001}, "label": "Cs", "xyz": [7.543610902125999, 1.5286026093840004, 1.99183525]}, {"species": [{"element": "Cs", "occu": 1}], "abc": [0.173195, 0.826805, 0.25], "properties": {"magmom": 0.001}, "label": "Cs", "xyz": [5.095609, 5.76866643294, 1.99183525]}, {"species": [{"element": "Cs", "occu": 1}], "abc": [0.826805, 0.653609, 0.75], "properties": {"magmom": 0.002}, "label": "Cs", "xyz": [7.543610902125999, -1.5286026093840004, 5.97550575]}, {"species": [{"element": "Cs", "occu": 1}], "abc": [0.346391, 0.173195, 0.75], "properties": {"magmom": 0.002}, "label": "Cs", "xyz": [2.647607097874, -1.528602609384, 5.97550575]}, {"species": [{"element": "Cs", "occu": 1}], "abc": [0.826805, 0.173195, 0.75], "properties": {"magmom": 0.002}, "label": "Cs", "xyz": [5.095609, -5.76866643294, 5.97550575]}, {"species": [{"element": "Ca", "occu": 1}], "abc": [0.333333, 0.666667, 0.75], "properties": {"magmom": 0.006}, "label": "Ca", "xyz": [5.095609, 2.9419572172360002, 5.97550575]}, {"species": [{"element": "Ca", "occu": 1}], "abc": [0.666667, 0.333333, 0.25], "properties": {"magmom": 0.0}, "label": "Ca", "xyz": [5.095609, -2.9419572172360002, 1.99183525]}]}, "task_ids": null, "uncorrected_energy_per_atom": null, "energy_per_atom": -20.373725893448277, "formation_energy_per_atom": 0.217187281551723, "energy_above_hull": 0.217187281551723, "is_stable": false, "equilibrium_reaction_energy_per_atom": null, "decomposes_to": null, "xas": null, "grain_boundaries": null, "band_gap": 0.0, "cbm": null, "vbm": null, "efermi": 0.84745429, "is_gap_direct": null, "is_metal": null, "es_source_calc_id": null, "bandstructure": null, "dos": null, "dos_energy_up": null, "dos_energy_down": null, "is_magnetic": null, "ordering": null, "total_magnetization": 0.1601032, "total_magnetization_normalized_vol": null, "total_magnetization_normalized_formula_units": null, "num_magnetic_sites": null, "num_unique_magnetic_sites": null, "types_of_magnetic_species": null, "bulk_modulus": null, "shear_modulus": null, "universal_anisotropy": null, "homogeneous_poisson": null, "e_total": null, "e_ionic": null, "e_electronic": null, "n": null, "e_ij_max": null, "weighted_surface_energy_EV_PER_ANG2": null, "weighted_surface_energy": null, "weighted_work_function": null, "surface_anisotropy": null, "shape_factor": null, "has_reconstructed": null, "possible_species": null, "has_props": null, "theoretical": null, "database_IDs": null, "fields_not_requested": ["builder_meta", "nsites", "elements", "nelements", "composition", "composition_reduced", "chemsys", "symmetry", "property_name", "deprecated", "deprecation_reasons", "last_updated", "origins", "warnings", "task_ids", "uncorrected_energy_per_atom", "equilibrium_reaction_energy_per_atom", "decomposes_to", "xas", "grain_boundaries", "cbm", "vbm", "is_gap_direct", "is_metal", "es_source_calc_id", "bandstructure", "dos", "dos_energy_up", "dos_energy_down", "is_magnetic", "ordering", "total_magnetization_normalized_vol", "total_magnetization_normalized_formula_units", "num_magnetic_sites", "num_unique_magnetic_sites", "types_of_magnetic_species", "bulk_modulus", "shear_modulus", "universal_anisotropy", "homogeneous_poisson", "e_total", "e_ionic", "e_electronic", "n", "e_ij_max", "weighted_surface_energy_EV_PER_ANG2", "weighted_surface_energy", "weighted_work_function", "surface_anisotropy", "shape_factor", "has_reconstructed", "possible_species", "has_props", "theoretical", "database_IDs"]}