{
  "builder_meta": null,
  "nsites": null,
  "elements": null,
  "nelements": null,
  "composition": null,
  "composition_reduced": null,
  "formula_pretty": "Cs3Ge",
  "formula_anonymous": "AB3",
  "chemsys": null,
  "volume": 472.6713400708837,
  "density": 3.311838804581119,
  "density_atomic": 59.08391750886046,
  "symmetry": null,
  "property_name": null,
  "material_id": "mp-1183903",
  "deprecated": null,
  "deprecation_reasons": null,
  "last_updated": null,
  "origins": null,
  "warnings": null,
  "structure": {
    "@module": "pymatgen.core.structure",
    "@class": "Structure",
    "charge": 0,
    "lattice": {
      "matrix": [
        [4.702282, -8.144591, 0.0],
        [4.702282, 8.144591, 0.0],
        [0.0, 0.0, 6.17094]
      ],
      "pbc": [true, true, true],
      "a": 9.404563709434106,
      "b": 9.404563709434106,
      "c": 6.17094,
      "alpha": 90.0,
      "beta": 90.0,
      "gamma": 119.99999795591955,
      "volume": 472.6713400708837
    },
    "properties": {},
    "sites": [
      {
        "species": [{ "element": "Cs", "occu": 1 }],
        "abc": [0.188871999999999, 0.377743999999999, 0.25],
        "properties": { "magmom": -0.011 },
        "label": "Cs",
        "xyz": [2.664388217711991, 1.5382851913520004, 1.542735]
      },
      {
        "species": [{ "element": "Cs", "occu": 1 }],
        "abc": [0.622255999999999, 0.811128, 0.25],
        "properties": { "magmom": -0.011 },
        "label": "Cs",
        "xyz": [6.740175782287995, 1.5382851913520081, 1.542735]
      },
      {
        "species": [{ "element": "Cs", "occu": 1 }],
        "abc": [0.188871999999999, 0.811128, 0.25],
        "properties": { "magmom": -0.012 },
        "label": "Cs",
        "xyz": [4.702281999999995, 5.068020617296008, 1.542735]
      },
      {
        "species": [{ "element": "Cs", "occu": 1 }],
        "abc": [0.811128, 0.622255999999999, 0.75],
        "properties": { "magmom": -0.012 },
        "label": "Cs",
        "xyz": [6.740175782287995, -1.5382851913520081, 4.6282049999999995]
      },
      {
        "species": [{ "element": "Cs", "occu": 1 }],
        "abc": [0.377743999999999, 0.188871999999999, 0.75],
        "properties": { "magmom": -0.012 },
        "label": "Cs",
        "xyz": [2.664388217711991, -1.5382851913520004, 4.6282049999999995]
      },
      {
        "species": [{ "element": "Cs", "occu": 1 }],
        "abc": [0.811128, 0.188871999999999, 0.75],
        "properties": { "magmom": -0.012 },
        "label": "Cs",
        "xyz": [4.702281999999995, -5.068020617296008, 4.6282049999999995]
      },
      {
        "species": [{ "element": "Ge", "occu": 1 }],
        "abc": [0.333333, 0.666667, 0.75],
        "properties": { "magmom": -0.352 },
        "label": "Ge",
        "xyz": [4.702282, 2.7148690963940005, 4.6282049999999995]
      },
      {
        "species": [{ "element": "Ge", "occu": 1 }],
        "abc": [0.666667, 0.333333, 0.25],
        "properties": { "magmom": -0.361 },
        "label": "Ge",
        "xyz": [4.702282, -2.7148690963940005, 1.542735]
      }
    ]
  },
  "task_ids": null,
  "uncorrected_energy_per_atom": null,
  "energy_per_atom": -1.60680794625,
  "formation_energy_per_atom": 0.22993219525861902,
  "energy_above_hull": 0.332649306422413,
  "is_stable": false,
  "equilibrium_reaction_energy_per_atom": null,
  "decomposes_to": null,
  "xas": null,
  "grain_boundaries": null,
  "band_gap": 0.0,
  "cbm": null,
  "vbm": null,
  "efermi": 1.83640412,
  "is_gap_direct": null,
  "is_metal": null,
  "es_source_calc_id": null,
  "bandstructure": null,
  "dos": null,
  "dos_energy_up": null,
  "dos_energy_down": null,
  "is_magnetic": null,
  "ordering": null,
  "total_magnetization": 2.0649254,
  "total_magnetization_normalized_vol": null,
  "total_magnetization_normalized_formula_units": null,
  "num_magnetic_sites": null,
  "num_unique_magnetic_sites": null,
  "types_of_magnetic_species": null,
  "bulk_modulus": null,
  "shear_modulus": null,
  "universal_anisotropy": null,
  "homogeneous_poisson": null,
  "e_total": null,
  "e_ionic": null,
  "e_electronic": null,
  "n": null,
  "e_ij_max": null,
  "weighted_surface_energy_EV_PER_ANG2": null,
  "weighted_surface_energy": null,
  "weighted_work_function": null,
  "surface_anisotropy": null,
  "shape_factor": null,
  "has_reconstructed": null,
  "possible_species": null,
  "has_props": null,
  "theoretical": null,
  "database_IDs": null,
  "fields_not_requested": [
    "builder_meta",
    "nsites",
    "elements",
    "nelements",
    "composition",
    "composition_reduced",
    "chemsys",
    "symmetry",
    "property_name",
    "deprecated",
    "deprecation_reasons",
    "last_updated",
    "origins",
    "warnings",
    "task_ids",
    "uncorrected_energy_per_atom",
    "equilibrium_reaction_energy_per_atom",
    "decomposes_to",
    "xas",
    "grain_boundaries",
    "cbm",
    "vbm",
    "is_gap_direct",
    "is_metal",
    "es_source_calc_id",
    "bandstructure",
    "dos",
    "dos_energy_up",
    "dos_energy_down",
    "is_magnetic",
    "ordering",
    "total_magnetization_normalized_vol",
    "total_magnetization_normalized_formula_units",
    "num_magnetic_sites",
    "num_unique_magnetic_sites",
    "types_of_magnetic_species",
    "bulk_modulus",
    "shear_modulus",
    "universal_anisotropy",
    "homogeneous_poisson",
    "e_total",
    "e_ionic",
    "e_electronic",
    "n",
    "e_ij_max",
    "weighted_surface_energy_EV_PER_ANG2",
    "weighted_surface_energy",
    "weighted_work_function",
    "surface_anisotropy",
    "shape_factor",
    "has_reconstructed",
    "possible_species",
    "has_props",
    "theoretical",
    "database_IDs"
  ]
}
