{
  "builder_meta": null,
  "nsites": null,
  "elements": null,
  "nelements": null,
  "composition": null,
  "composition_reduced": null,
  "formula_pretty": "Cs3K",
  "formula_anonymous": "AB3",
  "chemsys": null,
  "volume": 877.2091450875944,
  "density": 1.6575484735679131,
  "density_atomic": 109.6511431359493,
  "symmetry": null,
  "property_name": null,
  "material_id": "mp-1183940",
  "deprecated": null,
  "deprecation_reasons": null,
  "last_updated": null,
  "origins": null,
  "warnings": null,
  "structure": {
    "@module": "pymatgen.core.structure",
    "@class": "Structure",
    "charge": 0,
    "lattice": {
      "matrix": [
        [5.39322368, -9.34134309, -0.0],
        [5.39322804, 9.34134632, 0.0],
        [0.0, -0.0, 8.70592955]
      ],
      "pbc": [true, true, true],
      "a": 10.786452261406598,
      "b": 10.7864572386683,
      "c": 8.70592955,
      "alpha": 90.0,
      "beta": 90.0,
      "gamma": 120.00001858494605,
      "volume": 877.2091450875944
    },
    "properties": {},
    "sites": [
      {
        "species": [{ "element": "Cs", "occu": 1 }],
        "abc": [0.83045543, 0.16954457, 0.75],
        "properties": { "magmom": -0.001 },
        "label": "Cs",
        "xyz": [5.3932244192143255, -6.173794547537996, 6.5294471625]
      },
      {
        "species": [{ "element": "Cs", "occu": 1 }],
        "abc": [0.33909015000000003, 0.16954457, 0.75],
        "properties": { "magmom": -0.001 },
        "label": "Cs",
        "xyz": [2.743181555588495, -1.5837828845440816, 6.5294471625]
      },
      {
        "species": [{ "element": "Cs", "occu": 1 }],
        "abc": [0.83045543, 0.66090985, 0.75],
        "properties": { "magmom": -0.001 },
        "label": "Cs",
        "xyz": [8.043269425192776, -1.5837812974342267, 6.5294471625]
      },
      {
        "species": [{ "element": "Cs", "occu": 1 }],
        "abc": [0.16954457, 0.83045543, 0.25],
        "properties": { "magmom": -0.001 },
        "label": "Cs",
        "xyz": [5.393227300785676, 6.173797777537995, 2.1764823875]
      },
      {
        "species": [{ "element": "Cs", "occu": 1 }],
        "abc": [0.66090985, 0.83045543, 0.25],
        "properties": { "magmom": -0.001 },
        "label": "Cs",
        "xyz": [8.043270164411506, 1.58378611454408, 2.1764823875]
      },
      {
        "species": [{ "element": "Cs", "occu": 1 }],
        "abc": [0.16954457, 0.33909015000000003, 0.25],
        "properties": { "magmom": -0.001 },
        "label": "Cs",
        "xyz": [2.743182294807224, 1.5837845274342268, 2.1764823875]
      },
      {
        "species": [{ "element": "K", "occu": 1 }],
        "abc": [0.666667, 0.333333, 0.25],
        "properties": { "magmom": -0.001 },
        "label": "K",
        "xyz": [5.39322513333188, -3.113786180896471, 2.1764823875]
      },
      {
        "species": [{ "element": "K", "occu": 1 }],
        "abc": [0.333333, 0.666667, 0.75],
        "properties": { "magmom": -0.001 },
        "label": "K",
        "xyz": [5.393226586668121, 3.11378941089647, 6.5294471625]
      }
    ]
  },
  "task_ids": null,
  "uncorrected_energy_per_atom": null,
  "energy_per_atom": -20.33116360875,
  "formation_energy_per_atom": 0.0047421253125000005,
  "energy_above_hull": 0.0047421253125000005,
  "is_stable": false,
  "equilibrium_reaction_energy_per_atom": null,
  "decomposes_to": null,
  "xas": null,
  "grain_boundaries": null,
  "band_gap": 0.0,
  "cbm": null,
  "vbm": null,
  "efermi": 0.39159057,
  "is_gap_direct": null,
  "is_metal": null,
  "es_source_calc_id": null,
  "bandstructure": null,
  "dos": null,
  "dos_energy_up": null,
  "dos_energy_down": null,
  "is_magnetic": null,
  "ordering": null,
  "total_magnetization": 0.0799767,
  "total_magnetization_normalized_vol": null,
  "total_magnetization_normalized_formula_units": null,
  "num_magnetic_sites": null,
  "num_unique_magnetic_sites": null,
  "types_of_magnetic_species": null,
  "bulk_modulus": null,
  "shear_modulus": null,
  "universal_anisotropy": null,
  "homogeneous_poisson": null,
  "e_total": null,
  "e_ionic": null,
  "e_electronic": null,
  "n": null,
  "e_ij_max": null,
  "weighted_surface_energy_EV_PER_ANG2": null,
  "weighted_surface_energy": null,
  "weighted_work_function": null,
  "surface_anisotropy": null,
  "shape_factor": null,
  "has_reconstructed": null,
  "possible_species": null,
  "has_props": null,
  "theoretical": null,
  "database_IDs": null,
  "fields_not_requested": [
    "builder_meta",
    "nsites",
    "elements",
    "nelements",
    "composition",
    "composition_reduced",
    "chemsys",
    "symmetry",
    "property_name",
    "deprecated",
    "deprecation_reasons",
    "last_updated",
    "origins",
    "warnings",
    "task_ids",
    "uncorrected_energy_per_atom",
    "equilibrium_reaction_energy_per_atom",
    "decomposes_to",
    "xas",
    "grain_boundaries",
    "cbm",
    "vbm",
    "is_gap_direct",
    "is_metal",
    "es_source_calc_id",
    "bandstructure",
    "dos",
    "dos_energy_up",
    "dos_energy_down",
    "is_magnetic",
    "ordering",
    "total_magnetization_normalized_vol",
    "total_magnetization_normalized_formula_units",
    "num_magnetic_sites",
    "num_unique_magnetic_sites",
    "types_of_magnetic_species",
    "bulk_modulus",
    "shear_modulus",
    "universal_anisotropy",
    "homogeneous_poisson",
    "e_total",
    "e_ionic",
    "e_electronic",
    "n",
    "e_ij_max",
    "weighted_surface_energy_EV_PER_ANG2",
    "weighted_surface_energy",
    "weighted_work_function",
    "surface_anisotropy",
    "shape_factor",
    "has_reconstructed",
    "possible_species",
    "has_props",
    "theoretical",
    "database_IDs"
  ]
}
