{"builder_meta": null, "nsites": null, "elements": null, "nelements": null, "composition": null, "composition_reduced": null, "formula_pretty": "Cs3O", "formula_anonymous": "AB3", "chemsys": null, "volume": 511.0135993559472, "density": 2.695238305760666, "density_atomic": 63.8766999194934, "symmetry": null, "property_name": null, "material_id": "mp-510262", "deprecated": null, "deprecation_reasons": null, "last_updated": null, "origins": null, "warnings": null, "structure": {"@module": "pymatgen.core.structure", "@class": "Structure", "charge": 0, "lattice": {"matrix": [[8.90670751, -1.02e-06, 0.0], [-4.45335377, 7.7134367600000004, 0.0], [0.0, -0.0, 7.4381918]], "pbc": [true, true, true], "a": 8.906707510000059, "b": 8.906709069644776, "c": 7.4381918, "alpha": 90.0, "beta": 90.0, "gamma": 120.00000088039978, "volume": 511.0135993559473}, "properties": {}, "sites": [{"species": [{"element": "Cs", "occu": 1}], "abc": [-0.0, 0.24514535, 0.25], "properties": {"magmom": -0.0}, "label": "Cs", "xyz": [-1.0917189686204696, 1.8909131542330662, 1.85954795]}, {"species": [{"element": "Cs", "occu": 1}], "abc": [0.75485465, -0.0, 0.75], "properties": {"magmom": -0.0}, "label": "Cs", "xyz": [6.7232695801134215, -7.699517429999999e-07, 5.578643850000001]}, {"species": [{"element": "Cs", "occu": 1}], "abc": [0.24514535, 0.24514535, 0.75], "properties": {"magmom": -0.0}, "label": "Cs", "xyz": [1.0917189612661093, 1.8909129041848092, 5.578643850000001]}, {"species": [{"element": "Cs", "occu": 1}], "abc": [0.75485465, 0.75485465, 0.25], "properties": {"magmom": -0.0}, "label": "Cs", "xyz": [3.3616347787338916, 5.822522835815191, 1.85954795]}, {"species": [{"element": "Cs", "occu": 1}], "abc": [0.0, 0.75485465, 0.75], "properties": {"magmom": -0.0}, "label": "Cs", "xyz": [-3.36163480137953, 5.822523605766934, 5.578643850000001]}, {"species": [{"element": "Cs", "occu": 1}], "abc": [0.24514535, 0.0, 0.25], "properties": {"magmom": -0.0}, "label": "Cs", "xyz": [2.183437929886579, -2.50048257e-07, 1.85954795]}, {"species": [{"element": "O", "occu": 1}], "abc": [0.0, -0.0, 0.5], "properties": {"magmom": -0.0}, "label": "O", "xyz": [0.0, 0.0, 3.7190959]}, {"species": [{"element": "O", "occu": 1}], "abc": [0.0, -0.0, -0.0], "properties": {"magmom": -0.0}, "label": "O", "xyz": [0.0, 0.0, 0.0]}]}, "task_ids": null, "uncorrected_energy_per_atom": null, "energy_per_atom": -2.836720714999998, "formation_energy_per_atom": -0.9187472859913781, "energy_above_hull": 0.0, "is_stable": true, "equilibrium_reaction_energy_per_atom": null, "decomposes_to": null, "xas": null, "grain_boundaries": null, "band_gap": 0.0, "cbm": null, "vbm": null, "efermi": 1.17771217, "is_gap_direct": null, "is_metal": null, "es_source_calc_id": null, "bandstructure": null, "dos": null, "dos_energy_up": null, "dos_energy_down": null, "is_magnetic": null, "ordering": null, "total_magnetization": 2e-07, "total_magnetization_normalized_vol": null, "total_magnetization_normalized_formula_units": null, "num_magnetic_sites": null, "num_unique_magnetic_sites": null, "types_of_magnetic_species": null, "bulk_modulus": null, "shear_modulus": null, "universal_anisotropy": null, "homogeneous_poisson": null, "e_total": null, "e_ionic": null, "e_electronic": null, "n": null, "e_ij_max": null, "weighted_surface_energy_EV_PER_ANG2": null, "weighted_surface_energy": null, "weighted_work_function": null, "surface_anisotropy": null, "shape_factor": null, "has_reconstructed": null, "possible_species": null, "has_props": null, "theoretical": null, "database_IDs": null, "fields_not_requested": ["builder_meta", "nsites", "elements", "nelements", "composition", "composition_reduced", "chemsys", "symmetry", "property_name", "deprecated", "deprecation_reasons", "last_updated", "origins", "warnings", "task_ids", "uncorrected_energy_per_atom", "equilibrium_reaction_energy_per_atom", "decomposes_to", "xas", "grain_boundaries", "cbm", "vbm", "is_gap_direct", "is_metal", "es_source_calc_id", "bandstructure", "dos", "dos_energy_up", "dos_energy_down", "is_magnetic", "ordering", "total_magnetization_normalized_vol", "total_magnetization_normalized_formula_units", "num_magnetic_sites", "num_unique_magnetic_sites", "types_of_magnetic_species", "bulk_modulus", "shear_modulus", "universal_anisotropy", "homogeneous_poisson", "e_total", "e_ionic", "e_electronic", "n", "e_ij_max", "weighted_surface_energy_EV_PER_ANG2", "weighted_surface_energy", "weighted_work_function", "surface_anisotropy", "shape_factor", "has_reconstructed", "possible_species", "has_props", "theoretical", "database_IDs"]}