{
  "builder_meta": null,
  "nsites": null,
  "elements": null,
  "nelements": null,
  "composition": null,
  "composition_reduced": null,
  "formula_pretty": "Cs3P7",
  "formula_anonymous": "A3B7",
  "chemsys": null,
  "volume": 1414.175426477256,
  "density": 2.891058800427159,
  "density_atomic": 35.3543856619314,
  "symmetry": null,
  "property_name": null,
  "material_id": "mp-541113",
  "deprecated": null,
  "deprecation_reasons": null,
  "last_updated": null,
  "origins": null,
  "warnings": null,
  "structure": {
    "@module": "pymatgen.core.structure",
    "@class": "Structure",
    "charge": 0,
    "lattice": {
      "matrix": [
        [9.16169133, -1e-8, 0.0],
        [1e-8, 9.16169133, 0.0],
        [0.0, 0.0, 16.84814048]
      ],
      "pbc": [true, true, true],
      "a": 9.16169133,
      "b": 9.16169133,
      "c": 16.84814048,
      "alpha": 90.0,
      "beta": 90.0,
      "gamma": 90.0,
      "volume": 1414.175426477256
    },
    "properties": {},
    "sites": [
      {
        "species": [{ "element": "Cs", "occu": 1 }],
        "abc": [0.74290033, 0.37874664, 0.00034377],
        "properties": { "magmom": -0.0 },
        "label": "Cs",
        "xyz": [6.806223516202605, 3.4699598005256282, 0.005791885252809601]
      },
      {
        "species": [{ "element": "Cs", "occu": 1 }],
        "abc": [0.62125336, 0.74290033, 0.25034377],
        "properties": { "magmom": -0.0 },
        "label": "Cs",
        "xyz": [5.691731529474372, 6.806223506202605, 4.21782700525281]
      },
      {
        "species": [{ "element": "Cs", "occu": 1 }],
        "abc": [0.37874664, 0.25709967, 0.75034377],
        "properties": { "magmom": -0.0 },
        "label": "Cs",
        "xyz": [3.469959810525628, 2.355467813797395, 12.64189724525281]
      },
      {
        "species": [{ "element": "Cs", "occu": 1 }],
        "abc": [0.25709967, 0.62125336, 0.50034377],
        "properties": { "magmom": -0.0 },
        "label": "Cs",
        "xyz": [2.3554678237973947, 5.691731519474372, 8.429862125252809]
      },
      {
        "species": [{ "element": "Cs", "occu": 1 }],
        "abc": [0.41393516, 0.73378898, 0.83755764],
        "properties": { "magmom": -0.0 },
        "label": "Cs",
        "xyz": [3.792346173892053, 6.722748131976192, 14.111288778817269]
      },
      {
        "species": [{ "element": "Cs", "occu": 1 }],
        "abc": [0.26621102, 0.41393516, 0.08755764],
        "properties": { "magmom": -0.0 },
        "label": "Cs",
        "xyz": [2.438943198023808, 3.792346163892053, 1.4751834188172674]
      },
      {
        "species": [{ "element": "Cs", "occu": 1 }],
        "abc": [0.73378898, 0.58606484, 0.58755764],
        "properties": { "magmom": -0.0 },
        "label": "Cs",
        "xyz": [6.722748141976192, 5.369345156107948, 9.899253658817267]
      },
      {
        "species": [{ "element": "Cs", "occu": 1 }],
        "abc": [0.58606484, 0.26621102, 0.33755764],
        "properties": { "magmom": -0.0 },
        "label": "Cs",
        "xyz": [5.369345166107948, 2.438943188023808, 5.687218538817268]
      },
      {
        "species": [{ "element": "Cs", "occu": 1 }],
        "abc": [0.01929635, 0.83020912, 0.9979571700000001],
        "properties": { "magmom": 0.0 },
        "label": "Cs",
        "xyz": [0.1767872107977367, 7.606119696597966, 16.813722593183243]
      },
      {
        "species": [{ "element": "Cs", "occu": 1 }],
        "abc": [0.16979088, 0.01929635, 0.24795717],
        "properties": { "magmom": 0.0 },
        "label": "Cs",
        "xyz": [1.555571633402034, 0.1767872007977367, 4.177617233183242]
      },
      {
        "species": [{ "element": "Cs", "occu": 1 }],
        "abc": [0.83020912, 0.98070365, 0.7479571700000001],
        "properties": { "magmom": 0.0 },
        "label": "Cs",
        "xyz": [7.6061197065979655, 8.984904119202264, 12.601687473183244]
      },
      {
        "species": [{ "element": "Cs", "occu": 1 }],
        "abc": [0.98070365, 0.16979088, 0.49795717],
        "properties": { "magmom": 0.0 },
        "label": "Cs",
        "xyz": [8.984904129202265, 1.555571623402034, 8.389652353183243]
      },
      {
        "species": [{ "element": "P", "occu": 1 }],
        "abc": [0.7890250600000001, 0.60286247, 0.81063649],
        "properties": { "magmom": 0.0 },
        "label": "P",
        "xyz": [7.228804057383355, 5.523239856691135, 13.657717461734117]
      },
      {
        "species": [{ "element": "P", "occu": 1 }],
        "abc": [0.39713753, 0.7890250600000001, 0.06063649],
        "properties": { "magmom": 0.0 },
        "label": "P",
        "xyz": [3.6384514733088658, 7.228804047383355, 1.0216121017341153]
      },
      {
        "species": [{ "element": "P", "occu": 1 }],
        "abc": [0.60286247, 0.21097494, 0.56063649],
        "properties": { "magmom": 0.0 },
        "label": "P",
        "xyz": [5.523239866691135, 1.9328872726166455, 9.445682341734116]
      },
      {
        "species": [{ "element": "P", "occu": 1 }],
        "abc": [0.21097494, 0.39713753, 0.31063649],
        "properties": { "magmom": 0.0 },
        "label": "P",
        "xyz": [1.9328872826166454, 3.638451463308866, 5.233647221734115]
      },
      {
        "species": [{ "element": "P", "occu": 1 }],
        "abc": [0.44231146, 0.09236943, 0.94451431],
        "properties": { "magmom": -0.0 },
        "label": "P",
        "xyz": [4.052321069165336, 0.8462602015649273, 15.91330978025027]
      },
      {
        "species": [{ "element": "P", "occu": 1 }],
        "abc": [0.90763057, 0.44231146, 0.19451431],
        "properties": { "magmom": -0.0 },
        "label": "P",
        "xyz": [8.315431128435073, 4.052321059165336, 3.277204420250269]
      },
      {
        "species": [{ "element": "P", "occu": 1 }],
        "abc": [0.09236943, 0.55768854, 0.69451431],
        "properties": { "magmom": -0.0 },
        "label": "P",
        "xyz": [0.8462602115649274, 5.109370260834664, 11.701274660250268]
      },
      {
        "species": [{ "element": "P", "occu": 1 }],
        "abc": [0.55768854, 0.90763057, 0.44451431],
        "properties": { "magmom": -0.0 },
        "label": "P",
        "xyz": [5.109370270834664, 8.315431118435074, 7.48923954025027]
      },
      {
        "species": [{ "element": "P", "occu": 1 }],
        "abc": [0.10509082, 0.47960976, 0.8903774600000001],
        "properties": { "magmom": -0.0 },
        "label": "P",
        "xyz": [0.9628096592526882, 4.394036578924473, 15.001204526305584]
      },
      {
        "species": [{ "element": "P", "occu": 1 }],
        "abc": [0.52039024, 0.10509082, 0.14037746],
        "properties": { "magmom": -0.0 },
        "label": "P",
        "xyz": [4.767654751075527, 0.9628096492526882, 2.365099166305581]
      },
      {
        "species": [{ "element": "P", "occu": 1 }],
        "abc": [0.47960976, 0.89490918, 0.6403774600000001],
        "properties": { "magmom": -0.0 },
        "label": "P",
        "xyz": [4.394036588924473, 8.198881670747312, 10.789169406305582]
      },
      {
        "species": [{ "element": "P", "occu": 1 }],
        "abc": [0.89490918, 0.52039024, 0.39037746],
        "properties": { "magmom": -0.0 },
        "label": "P",
        "xyz": [8.198881680747313, 4.7676547410755274, 6.577134286305582]
      },
      {
        "species": [{ "element": "P", "occu": 1 }],
        "abc": [0.35454164, 0.02339623, 0.05853933],
        "properties": { "magmom": 0.0 },
        "label": "P",
        "xyz": [3.248201069545943, 0.2143490340002695, 0.9862788554450785]
      },
      {
        "species": [{ "element": "P", "occu": 1 }],
        "abc": [0.97660377, 0.35454164, 0.30853933],
        "properties": { "magmom": 0.0 },
        "label": "P",
        "xyz": [8.94734229599973, 3.248201059545943, 5.198313975445079]
      },
      {
        "species": [{ "element": "P", "occu": 1 }],
        "abc": [0.02339623, 0.64545836, 0.80853933],
        "properties": { "magmom": 0.0 },
        "label": "P",
        "xyz": [0.2143490440002695, 5.913490260454057, 13.622384215445079]
      },
      {
        "species": [{ "element": "P", "occu": 1 }],
        "abc": [0.64545836, 0.97660377, 0.55853933],
        "properties": { "magmom": 0.0 },
        "label": "P",
        "xyz": [5.913490270454057, 8.94734228599973, 9.41034909544508]
      },
      {
        "species": [{ "element": "P", "occu": 1 }],
        "abc": [0.6224077100000001, 0.79453337, 0.03215507],
        "properties": { "magmom": -0.0 },
        "label": "P",
        "xyz": [5.702307328377488, 7.279269481100605, 0.5417531365042336]
      },
      {
        "species": [{ "element": "P", "occu": 1 }],
        "abc": [0.20546663, 0.6224077100000001, 0.28215607],
        "properties": { "magmom": -0.0 },
        "label": "P",
        "xyz": [1.8824218488993951, 5.702307318377488, 4.753805104644714]
      },
      {
        "species": [{ "element": "P", "occu": 1 }],
        "abc": [0.79453337, 0.37759229, 0.7821550700000001],
        "properties": { "magmom": -0.0 },
        "label": "P",
        "xyz": [7.279269491100605, 3.459384001622512, 13.177858496504236]
      },
      {
        "species": [{ "element": "P", "occu": 1 }],
        "abc": [0.37759229, 0.20546663, 0.5321550700000001],
        "properties": { "magmom": -0.0 },
        "label": "P",
        "xyz": [3.459384011622512, 1.8824218388993952, 8.965823376504236]
      },
      {
        "species": [{ "element": "P", "occu": 1 }],
        "abc": [0.9961376200000001, 0.3474233, 0.70507407],
        "properties": { "magmom": 0.0 },
        "label": "P",
        "xyz": [9.126305400115067, 3.182985025488613, 11.879186980165354]
      },
      {
        "species": [{ "element": "P", "occu": 1 }],
        "abc": [0.6525767, 0.9961376200000001, 0.95507407],
        "properties": { "magmom": 0.0 },
        "label": "P",
        "xyz": [5.9787063045113875, 9.126305390115068, 16.091222100165353]
      },
      {
        "species": [{ "element": "P", "occu": 1 }],
        "abc": [0.3474233, 0.00386338, 0.45507407],
        "properties": { "magmom": 0.0 },
        "label": "P",
        "xyz": [3.182985035488623, 0.0353950915762624, 7.6671518601653545]
      },
      {
        "species": [{ "element": "P", "occu": 1 }],
        "abc": [0.00386338, 0.6525767, 0.20507407],
        "properties": { "magmom": 0.0 },
        "label": "P",
        "xyz": [0.035395101576262404, 5.978706294511377, 3.4551167401653538]
      },
      {
        "species": [{ "element": "P", "occu": 1 }],
        "abc": [0.00658372, 0.29339478, 0.83804269],
        "properties": { "magmom": 0.0 },
        "label": "P",
        "xyz": [0.0603180133770954, 2.6879924121274206, 14.119460969357092]
      },
      {
        "species": [{ "element": "P", "occu": 1 }],
        "abc": [0.70660522, 0.00658372, 0.08804269],
        "properties": { "magmom": 0.0 },
        "label": "P",
        "xyz": [6.47369891787258, 0.0603180033770954, 1.4833556093570914]
      },
      {
        "species": [{ "element": "P", "occu": 1 }],
        "abc": [0.29339478, 0.99341628, 0.58804269],
        "properties": { "magmom": 0.0 },
        "label": "P",
        "xyz": [2.6879924221274205, 9.101373316622904, 9.907425849357091]
      },
      {
        "species": [{ "element": "P", "occu": 1 }],
        "abc": [0.99341628, 0.70660522, 0.33804269000000003],
        "properties": { "magmom": 0.0 },
        "label": "P",
        "xyz": [9.101373326622905, 6.47369890787258, 5.695390729357093]
      }
    ]
  },
  "task_ids": null,
  "uncorrected_energy_per_atom": null,
  "energy_per_atom": -14.3665513525,
  "formation_energy_per_atom": -0.532562034083332,
  "energy_above_hull": 0.0,
  "is_stable": true,
  "equilibrium_reaction_energy_per_atom": null,
  "decomposes_to": null,
  "xas": null,
  "grain_boundaries": null,
  "band_gap": 2.4278,
  "cbm": null,
  "vbm": null,
  "efermi": 1.65127529,
  "is_gap_direct": null,
  "is_metal": null,
  "es_source_calc_id": null,
  "bandstructure": null,
  "dos": null,
  "dos_energy_up": null,
  "dos_energy_down": null,
  "is_magnetic": null,
  "ordering": null,
  "total_magnetization": 0.0,
  "total_magnetization_normalized_vol": null,
  "total_magnetization_normalized_formula_units": null,
  "num_magnetic_sites": null,
  "num_unique_magnetic_sites": null,
  "types_of_magnetic_species": null,
  "bulk_modulus": null,
  "shear_modulus": null,
  "universal_anisotropy": null,
  "homogeneous_poisson": null,
  "e_total": null,
  "e_ionic": null,
  "e_electronic": null,
  "n": null,
  "e_ij_max": null,
  "weighted_surface_energy_EV_PER_ANG2": null,
  "weighted_surface_energy": null,
  "weighted_work_function": null,
  "surface_anisotropy": null,
  "shape_factor": null,
  "has_reconstructed": null,
  "possible_species": null,
  "has_props": null,
  "theoretical": null,
  "database_IDs": null,
  "fields_not_requested": [
    "builder_meta",
    "nsites",
    "elements",
    "nelements",
    "composition",
    "composition_reduced",
    "chemsys",
    "symmetry",
    "property_name",
    "deprecated",
    "deprecation_reasons",
    "last_updated",
    "origins",
    "warnings",
    "task_ids",
    "uncorrected_energy_per_atom",
    "equilibrium_reaction_energy_per_atom",
    "decomposes_to",
    "xas",
    "grain_boundaries",
    "cbm",
    "vbm",
    "is_gap_direct",
    "is_metal",
    "es_source_calc_id",
    "bandstructure",
    "dos",
    "dos_energy_up",
    "dos_energy_down",
    "is_magnetic",
    "ordering",
    "total_magnetization_normalized_vol",
    "total_magnetization_normalized_formula_units",
    "num_magnetic_sites",
    "num_unique_magnetic_sites",
    "types_of_magnetic_species",
    "bulk_modulus",
    "shear_modulus",
    "universal_anisotropy",
    "homogeneous_poisson",
    "e_total",
    "e_ionic",
    "e_electronic",
    "n",
    "e_ij_max",
    "weighted_surface_energy_EV_PER_ANG2",
    "weighted_surface_energy",
    "weighted_work_function",
    "surface_anisotropy",
    "shape_factor",
    "has_reconstructed",
    "possible_species",
    "has_props",
    "theoretical",
    "database_IDs"
  ]
}
