{
  "builder_meta": null,
  "nsites": null,
  "elements": null,
  "nelements": null,
  "composition": null,
  "composition_reduced": null,
  "formula_pretty": "Cs3Rb",
  "formula_anonymous": "AB3",
  "chemsys": null,
  "volume": 925.1248082117091,
  "density": 1.7381583518936292,
  "density_atomic": 115.64060102646364,
  "symmetry": null,
  "property_name": null,
  "material_id": "mp-862689",
  "deprecated": null,
  "deprecation_reasons": null,
  "last_updated": null,
  "origins": null,
  "warnings": null,
  "structure": {
    "@module": "pymatgen.core.structure",
    "@class": "Structure",
    "charge": 0,
    "lattice": {
      "matrix": [
        [10.95934411, -3.28e-6, -0.0],
        [-5.47967376, 9.49107336, 0.0],
        [0.0, -0.0, 8.894069290000001]
      ],
      "pbc": [true, true, true],
      "a": 10.95934411000049,
      "b": 10.959347518941728,
      "c": 8.894069290000001,
      "alpha": 90.0,
      "beta": 90.0,
      "gamma": 120.00001715113261,
      "volume": 925.1248082117094
    },
    "properties": {},
    "sites": [
      {
        "species": [{ "element": "Cs", "occu": 1 }],
        "abc": [0.16805363, 0.33610827, 0.25],
        "properties": { "magmom": -0.0 },
        "label": "Cs",
        "xyz": [-6.107533375709906e-6, 3.190027696256781, 2.2235173225000002]
      },
      {
        "species": [{ "element": "Cs", "occu": 1 }],
        "abc": [0.66389373, 0.83194637, 0.25],
        "properties": { "magmom": -0.0 },
        "label": "Cs",
        "xyz": [2.7170451461251783, 7.896061851684269, 2.2235173225000002]
      },
      {
        "species": [{ "element": "Cs", "occu": 1 }],
        "abc": [0.16805363, 0.83194637, 0.25],
        "properties": { "magmom": -0.0 },
        "label": "Cs",
        "xyz": [-2.717037133311632, 7.896063478039797, 2.2235173225000002]
      },
      {
        "species": [{ "element": "Cs", "occu": 1 }],
        "abc": [0.83194637, 0.66389173, 0.75],
        "properties": { "magmom": -0.0 },
        "label": "Cs",
        "xyz": [5.479676457533377, 6.301042383743219, 6.670551967500001]
      },
      {
        "species": [{ "element": "Cs", "occu": 1 }],
        "abc": [0.33610727, 0.16805463, 0.75],
        "properties": { "magmom": -0.0 },
        "label": "Cs",
        "xyz": [2.7626306835451713, 1.5950177193858113, 6.670551967500001]
      },
      {
        "species": [{ "element": "Cs", "occu": 1 }],
        "abc": [0.83194637, 0.16805463, 0.75],
        "properties": { "magmom": -0.0 },
        "label": "Cs",
        "xyz": [8.196702003637872, 1.5950160930335633, 6.670551967500001]
      },
      {
        "species": [{ "element": "Rb", "occu": 1 }],
        "abc": [0.333333, 0.666667, 0.75],
        "properties": { "magmom": 0.003 },
        "label": "Rb",
        "xyz": [-6.616339290221873e-6, 6.32738431035888, 6.670551967500001]
      },
      {
        "species": [{ "element": "Rb", "occu": 1 }],
        "abc": [0.666666, 0.333333, 0.25],
        "properties": { "magmom": 0.003 },
        "label": "Rb",
        "xyz": [5.4796660069951795, 3.1636857696444, 2.2235173225000002]
      }
    ]
  },
  "task_ids": null,
  "uncorrected_energy_per_atom": null,
  "energy_per_atom": -0.860212006249998,
  "formation_energy_per_atom": 0.065904689633621,
  "energy_above_hull": 0.065904689633621,
  "is_stable": false,
  "equilibrium_reaction_energy_per_atom": null,
  "decomposes_to": null,
  "xas": null,
  "grain_boundaries": null,
  "band_gap": 0.0,
  "cbm": null,
  "vbm": null,
  "efermi": 0.41356171,
  "is_gap_direct": null,
  "is_metal": null,
  "es_source_calc_id": null,
  "bandstructure": null,
  "dos": null,
  "dos_energy_up": null,
  "dos_energy_down": null,
  "is_magnetic": null,
  "ordering": null,
  "total_magnetization": 0.1110381,
  "total_magnetization_normalized_vol": null,
  "total_magnetization_normalized_formula_units": null,
  "num_magnetic_sites": null,
  "num_unique_magnetic_sites": null,
  "types_of_magnetic_species": null,
  "bulk_modulus": null,
  "shear_modulus": null,
  "universal_anisotropy": null,
  "homogeneous_poisson": null,
  "e_total": null,
  "e_ionic": null,
  "e_electronic": null,
  "n": null,
  "e_ij_max": null,
  "weighted_surface_energy_EV_PER_ANG2": null,
  "weighted_surface_energy": null,
  "weighted_work_function": null,
  "surface_anisotropy": null,
  "shape_factor": null,
  "has_reconstructed": null,
  "possible_species": null,
  "has_props": null,
  "theoretical": null,
  "database_IDs": null,
  "fields_not_requested": [
    "builder_meta",
    "nsites",
    "elements",
    "nelements",
    "composition",
    "composition_reduced",
    "chemsys",
    "symmetry",
    "property_name",
    "deprecated",
    "deprecation_reasons",
    "last_updated",
    "origins",
    "warnings",
    "task_ids",
    "uncorrected_energy_per_atom",
    "equilibrium_reaction_energy_per_atom",
    "decomposes_to",
    "xas",
    "grain_boundaries",
    "cbm",
    "vbm",
    "is_gap_direct",
    "is_metal",
    "es_source_calc_id",
    "bandstructure",
    "dos",
    "dos_energy_up",
    "dos_energy_down",
    "is_magnetic",
    "ordering",
    "total_magnetization_normalized_vol",
    "total_magnetization_normalized_formula_units",
    "num_magnetic_sites",
    "num_unique_magnetic_sites",
    "types_of_magnetic_species",
    "bulk_modulus",
    "shear_modulus",
    "universal_anisotropy",
    "homogeneous_poisson",
    "e_total",
    "e_ionic",
    "e_electronic",
    "n",
    "e_ij_max",
    "weighted_surface_energy_EV_PER_ANG2",
    "weighted_surface_energy",
    "weighted_work_function",
    "surface_anisotropy",
    "shape_factor",
    "has_reconstructed",
    "possible_species",
    "has_props",
    "theoretical",
    "database_IDs"
  ]
}
