{"builder_meta": null, "nsites": null, "elements": null, "nelements": null, "composition": null, "composition_reduced": null, "formula_pretty": "Cs3Si", "formula_anonymous": "AB3", "chemsys": null, "volume": 467.1244348731719, "density": 3.034399839433146, "density_atomic": 58.390554359146485, "symmetry": null, "property_name": null, "material_id": "mp-1183907", "deprecated": null, "deprecation_reasons": null, "last_updated": null, "origins": null, "warnings": null, "structure": {"@module": "pymatgen.core.structure", "@class": "Structure", "charge": 0, "lattice": {"matrix": [[4.768459, -8.259214, 0.0], [4.768459, 8.259214, 0.0], [0.0, 0.0, 5.930425]], "pbc": [true, true, true], "a": 9.536918639292095, "b": 9.536918639292095, "c": 5.930425, "alpha": 90.0, "beta": 90.0, "gamma": 120.0000044348941, "volume": 467.1244348731719}, "properties": {}, "sites": [{"species": [{"element": "Cs", "occu": 1}], "abc": [0.19116000000000002, 0.382320999999999, 0.25], "properties": {"magmom": 0.014}, "label": "Cs", "xyz": [2.7346206357789953, 1.5788396074539917, 1.48260625]}, {"species": [{"element": "Cs", "occu": 1}], "abc": [0.617679, 0.8088400000000001, 0.25], "properties": {"magmom": 0.012}, "label": "Cs", "xyz": [6.802297364221001, 1.5788396074540012, 1.48260625]}, {"species": [{"element": "Cs", "occu": 1}], "abc": [0.19116000000000002, 0.8088400000000001, 0.25], "properties": {"magmom": 0.014}, "label": "Cs", "xyz": [4.768459000000001, 5.101551303520001, 1.48260625]}, {"species": [{"element": "Cs", "occu": 1}], "abc": [0.8088400000000001, 0.617679, 0.75], "properties": {"magmom": 0.014}, "label": "Cs", "xyz": [6.802297364221001, -1.5788396074540012, 4.44781875]}, {"species": [{"element": "Cs", "occu": 1}], "abc": [0.382320999999999, 0.19116000000000002, 0.75], "properties": {"magmom": 0.012}, "label": "Cs", "xyz": [2.7346206357789953, -1.5788396074539917, 4.44781875]}, {"species": [{"element": "Cs", "occu": 1}], "abc": [0.8088400000000001, 0.19116000000000002, 0.75], "properties": {"magmom": 0.014}, "label": "Cs", "xyz": [4.768459000000001, -5.101551303520001, 4.44781875]}, {"species": [{"element": "Si", "occu": 1}], "abc": [0.333333, 0.666667, 0.75], "properties": {"magmom": 0.271}, "label": "Si", "xyz": [4.768459, 2.753076839476, 4.44781875]}, {"species": [{"element": "Si", "occu": 1}], "abc": [0.666667, 0.333333, 0.25], "properties": {"magmom": 0.27}, "label": "Si", "xyz": [4.768459, -2.753076839476, 1.48260625]}]}, "task_ids": null, "uncorrected_energy_per_atom": null, "energy_per_atom": -20.678396624043643, "formation_energy_per_atom": 0.346384274706359, "energy_above_hull": 0.42224018587823003, "is_stable": false, "equilibrium_reaction_energy_per_atom": null, "decomposes_to": null, "xas": null, "grain_boundaries": null, "band_gap": 0.0, "cbm": null, "vbm": null, "efermi": 1.86235668, "is_gap_direct": null, "is_metal": null, "es_source_calc_id": null, "bandstructure": null, "dos": null, "dos_energy_up": null, "dos_energy_down": null, "is_magnetic": null, "ordering": null, "total_magnetization": 2.0516174, "total_magnetization_normalized_vol": null, "total_magnetization_normalized_formula_units": null, "num_magnetic_sites": null, "num_unique_magnetic_sites": null, "types_of_magnetic_species": null, "bulk_modulus": null, "shear_modulus": null, "universal_anisotropy": null, "homogeneous_poisson": null, "e_total": null, "e_ionic": null, "e_electronic": null, "n": null, "e_ij_max": null, "weighted_surface_energy_EV_PER_ANG2": null, "weighted_surface_energy": null, "weighted_work_function": null, "surface_anisotropy": null, "shape_factor": null, "has_reconstructed": null, "possible_species": null, "has_props": null, "theoretical": null, "database_IDs": null, "fields_not_requested": ["builder_meta", "nsites", "elements", "nelements", "composition", "composition_reduced", "chemsys", "symmetry", "property_name", "deprecated", "deprecation_reasons", "last_updated", "origins", "warnings", "task_ids", "uncorrected_energy_per_atom", "equilibrium_reaction_energy_per_atom", "decomposes_to", "xas", "grain_boundaries", "cbm", "vbm", "is_gap_direct", "is_metal", "es_source_calc_id", "bandstructure", "dos", "dos_energy_up", "dos_energy_down", "is_magnetic", "ordering", "total_magnetization_normalized_vol", "total_magnetization_normalized_formula_units", "num_magnetic_sites", "num_unique_magnetic_sites", "types_of_magnetic_species", "bulk_modulus", "shear_modulus", "universal_anisotropy", "homogeneous_poisson", "e_total", "e_ionic", "e_electronic", "n", "e_ij_max", "weighted_surface_energy_EV_PER_ANG2", "weighted_surface_energy", "weighted_work_function", "surface_anisotropy", "shape_factor", "has_reconstructed", "possible_species", "has_props", "theoretical", "database_IDs"]}