{
  "builder_meta": null,
  "nsites": null,
  "elements": null,
  "nelements": null,
  "composition": null,
  "composition_reduced": null,
  "formula_pretty": "Cs3Sr",
  "formula_anonymous": "AB3",
  "chemsys": null,
  "volume": 760.404919605038,
  "density": 2.124080203392658,
  "density_atomic": 95.05061495062975,
  "symmetry": null,
  "property_name": null,
  "material_id": "mp-1183952",
  "deprecated": null,
  "deprecation_reasons": null,
  "last_updated": null,
  "origins": null,
  "warnings": null,
  "structure": {
    "@module": "pymatgen.core.structure",
    "@class": "Structure",
    "charge": 0,
    "lattice": {
      "matrix": [
        [5.171539, -8.957368, 0.0],
        [5.171539, 8.957368, 0.0],
        [0.0, 0.0, 8.207572]
      ],
      "pbc": [true, true, true],
      "a": 10.34307773904581,
      "b": 10.34307773904581,
      "c": 8.207572,
      "alpha": 90.0,
      "beta": 90.0,
      "gamma": 119.99999833080726,
      "volume": 760.404919605038
    },
    "properties": {},
    "sites": [
      {
        "species": [{ "element": "Cs", "occu": 1 }],
        "abc": [0.170604, 0.341209, 0.25],
        "properties": { "magmom": -0.0 },
        "label": "Cs",
        "xyz": [2.646860890207, 1.52817176764, 2.051893]
      },
      {
        "species": [{ "element": "Cs", "occu": 1 }],
        "abc": [0.658791, 0.829395999999999, 0.25],
        "properties": { "magmom": -0.0 },
        "label": "Cs",
        "xyz": [7.696217109792995, 1.528171767639991, 2.051893]
      },
      {
        "species": [{ "element": "Cs", "occu": 1 }],
        "abc": [0.170604, 0.829395999999999, 0.25],
        "properties": { "magmom": 0.0 },
        "label": "Cs",
        "xyz": [5.171538999999996, 5.901042379455992, 2.051893]
      },
      {
        "species": [{ "element": "Cs", "occu": 1 }],
        "abc": [0.829395999999999, 0.658791, 0.75],
        "properties": { "magmom": -0.0 },
        "label": "Cs",
        "xyz": [7.696217109792995, -1.528171767639991, 6.155679000000001]
      },
      {
        "species": [{ "element": "Cs", "occu": 1 }],
        "abc": [0.341209, 0.170604, 0.75],
        "properties": { "magmom": -0.0 },
        "label": "Cs",
        "xyz": [2.646860890207, -1.52817176764, 6.155679000000001]
      },
      {
        "species": [{ "element": "Cs", "occu": 1 }],
        "abc": [0.829395999999999, 0.170604, 0.75],
        "properties": { "magmom": 0.0 },
        "label": "Cs",
        "xyz": [5.171538999999996, -5.901042379455992, 6.155679000000001]
      },
      {
        "species": [{ "element": "Sr", "occu": 1 }],
        "abc": [0.333333, 0.666667, 0.75],
        "properties": { "magmom": 0.0 },
        "label": "Sr",
        "xyz": [5.171539, 2.9857953049120005, 6.155679000000001]
      },
      {
        "species": [{ "element": "Sr", "occu": 1 }],
        "abc": [0.666667, 0.333333, 0.25],
        "properties": { "magmom": 0.0 },
        "label": "Sr",
        "xyz": [5.171539, -2.9857953049120005, 2.051893]
      }
    ]
  },
  "task_ids": null,
  "uncorrected_energy_per_atom": null,
  "energy_per_atom": -22.446244405114946,
  "formation_energy_per_atom": 0.17151061238505602,
  "energy_above_hull": 0.17151061238505602,
  "is_stable": false,
  "equilibrium_reaction_energy_per_atom": null,
  "decomposes_to": null,
  "xas": null,
  "grain_boundaries": null,
  "band_gap": 0.0,
  "cbm": null,
  "vbm": null,
  "efermi": 0.74826103,
  "is_gap_direct": null,
  "is_metal": null,
  "es_source_calc_id": null,
  "bandstructure": null,
  "dos": null,
  "dos_energy_up": null,
  "dos_energy_down": null,
  "is_magnetic": null,
  "ordering": null,
  "total_magnetization": 0.0054322,
  "total_magnetization_normalized_vol": null,
  "total_magnetization_normalized_formula_units": null,
  "num_magnetic_sites": null,
  "num_unique_magnetic_sites": null,
  "types_of_magnetic_species": null,
  "bulk_modulus": null,
  "shear_modulus": null,
  "universal_anisotropy": null,
  "homogeneous_poisson": null,
  "e_total": null,
  "e_ionic": null,
  "e_electronic": null,
  "n": null,
  "e_ij_max": null,
  "weighted_surface_energy_EV_PER_ANG2": null,
  "weighted_surface_energy": null,
  "weighted_work_function": null,
  "surface_anisotropy": null,
  "shape_factor": null,
  "has_reconstructed": null,
  "possible_species": null,
  "has_props": null,
  "theoretical": null,
  "database_IDs": null,
  "fields_not_requested": [
    "builder_meta",
    "nsites",
    "elements",
    "nelements",
    "composition",
    "composition_reduced",
    "chemsys",
    "symmetry",
    "property_name",
    "deprecated",
    "deprecation_reasons",
    "last_updated",
    "origins",
    "warnings",
    "task_ids",
    "uncorrected_energy_per_atom",
    "equilibrium_reaction_energy_per_atom",
    "decomposes_to",
    "xas",
    "grain_boundaries",
    "cbm",
    "vbm",
    "is_gap_direct",
    "is_metal",
    "es_source_calc_id",
    "bandstructure",
    "dos",
    "dos_energy_up",
    "dos_energy_down",
    "is_magnetic",
    "ordering",
    "total_magnetization_normalized_vol",
    "total_magnetization_normalized_formula_units",
    "num_magnetic_sites",
    "num_unique_magnetic_sites",
    "types_of_magnetic_species",
    "bulk_modulus",
    "shear_modulus",
    "universal_anisotropy",
    "homogeneous_poisson",
    "e_total",
    "e_ionic",
    "e_electronic",
    "n",
    "e_ij_max",
    "weighted_surface_energy_EV_PER_ANG2",
    "weighted_surface_energy",
    "weighted_work_function",
    "surface_anisotropy",
    "shape_factor",
    "has_reconstructed",
    "possible_species",
    "has_props",
    "theoretical",
    "database_IDs"
  ]
}
