{
  "builder_meta": null,
  "nsites": null,
  "elements": null,
  "nelements": null,
  "composition": null,
  "composition_reduced": null,
  "formula_pretty": "Cs3Yb",
  "formula_anonymous": "AB3",
  "chemsys": null,
  "volume": 608.1803277949283,
  "density": 3.12217847840955,
  "density_atomic": 76.02254097436604,
  "symmetry": null,
  "property_name": null,
  "material_id": "mp-979983",
  "deprecated": null,
  "deprecation_reasons": null,
  "last_updated": null,
  "origins": null,
  "warnings": null,
  "structure": {
    "@module": "pymatgen.core.structure",
    "@class": "Structure",
    "charge": 0.0,
    "lattice": {
      "matrix": [
        [4.746150027749822, -8.22057277022006, 0.0],
        [4.746150027749822, 8.22057277022006, 0.0],
        [0.0, 0.0, 7.793971837550665]
      ],
      "pbc": [true, true, true],
      "a": 9.492299866544101,
      "b": 9.492299866544101,
      "c": 7.793971837550665,
      "alpha": 90.0,
      "beta": 90.0,
      "gamma": 119.99999868301695,
      "volume": 608.1803277949283
    },
    "properties": {},
    "sites": [
      {
        "species": [{ "element": "Cs", "occu": 1 }],
        "abc": [0.645445643645643, 0.8227228218253231, 0.25],
        "properties": { "magmom": 0.018000000000000002 },
        "label": "Cs",
        "xyz": [6.968147803136439, 1.4573199437253272, 1.9484929593876663]
      },
      {
        "species": [{ "element": "Cs", "occu": 1 }],
        "abc": [0.177277178174676, 0.354554356354356, 0.25],
        "properties": { "magmom": 0.018000000000000002 },
        "label": "Cs",
        "xyz": [2.5241522523631956, 1.4573199437253272, 1.9484929593876663]
      },
      {
        "species": [{ "element": "Cs", "occu": 1 }],
        "abc": [0.17727717817968602, 0.8227228218203131, 0.25],
        "properties": { "magmom": 0.018000000000000002 },
        "label": "Cs",
        "xyz": [4.746150027749818, 5.3059328827693, 1.9484929593876663]
      },
      {
        "species": [{ "element": "Cs", "occu": 1 }],
        "abc": [0.8227228218253231, 0.645445643645643, 0.75],
        "properties": { "magmom": 0.018000000000000002 },
        "label": "Cs",
        "xyz": [6.968147803136439, -1.4573199437253272, 5.845478878162999]
      },
      {
        "species": [{ "element": "Cs", "occu": 1 }],
        "abc": [0.354554356354356, 0.177277178174676, 0.75],
        "properties": { "magmom": 0.018000000000000002 },
        "label": "Cs",
        "xyz": [2.5241522523631956, -1.4573199437253272, 5.845478878162999]
      },
      {
        "species": [{ "element": "Cs", "occu": 1 }],
        "abc": [0.8227228218203131, 0.17727717817968602, 0.75],
        "properties": { "magmom": 0.018000000000000002 },
        "label": "Cs",
        "xyz": [4.746150027749818, -5.3059328827693, 5.845478878162999]
      },
      {
        "species": [{ "element": "Yb", "occu": 1 }],
        "abc": [0.33333300000000304, 0.666666999999996, 0.75],
        "properties": { "magmom": 0.532 },
        "label": "Yb",
        "xyz": [4.746150027749818, 2.740196403788476, 5.845478878162999]
      },
      {
        "species": [{ "element": "Yb", "occu": 1 }],
        "abc": [0.666666999999996, 0.33333300000000304, 0.25],
        "properties": { "magmom": 0.532 },
        "label": "Yb",
        "xyz": [4.746150027749818, -2.740196403788476, 1.9484929593876663]
      }
    ]
  },
  "task_ids": null,
  "uncorrected_energy_per_atom": null,
  "energy_per_atom": -27.30504055,
  "formation_energy_per_atom": 0.6586438962499981,
  "energy_above_hull": 0.6586438962499981,
  "is_stable": false,
  "equilibrium_reaction_energy_per_atom": null,
  "decomposes_to": null,
  "xas": null,
  "grain_boundaries": null,
  "band_gap": 0.0,
  "cbm": null,
  "vbm": null,
  "efermi": 0.77744049,
  "is_gap_direct": null,
  "is_metal": null,
  "es_source_calc_id": null,
  "bandstructure": null,
  "dos": null,
  "dos_energy_up": null,
  "dos_energy_down": null,
  "is_magnetic": null,
  "ordering": null,
  "total_magnetization": 2.6333039,
  "total_magnetization_normalized_vol": null,
  "total_magnetization_normalized_formula_units": null,
  "num_magnetic_sites": null,
  "num_unique_magnetic_sites": null,
  "types_of_magnetic_species": null,
  "bulk_modulus": null,
  "shear_modulus": null,
  "universal_anisotropy": null,
  "homogeneous_poisson": null,
  "e_total": null,
  "e_ionic": null,
  "e_electronic": null,
  "n": null,
  "e_ij_max": null,
  "weighted_surface_energy_EV_PER_ANG2": null,
  "weighted_surface_energy": null,
  "weighted_work_function": null,
  "surface_anisotropy": null,
  "shape_factor": null,
  "has_reconstructed": null,
  "possible_species": null,
  "has_props": null,
  "theoretical": null,
  "database_IDs": null,
  "fields_not_requested": [
    "builder_meta",
    "nsites",
    "elements",
    "nelements",
    "composition",
    "composition_reduced",
    "chemsys",
    "symmetry",
    "property_name",
    "deprecated",
    "deprecation_reasons",
    "last_updated",
    "origins",
    "warnings",
    "task_ids",
    "uncorrected_energy_per_atom",
    "equilibrium_reaction_energy_per_atom",
    "decomposes_to",
    "xas",
    "grain_boundaries",
    "cbm",
    "vbm",
    "is_gap_direct",
    "is_metal",
    "es_source_calc_id",
    "bandstructure",
    "dos",
    "dos_energy_up",
    "dos_energy_down",
    "is_magnetic",
    "ordering",
    "total_magnetization_normalized_vol",
    "total_magnetization_normalized_formula_units",
    "num_magnetic_sites",
    "num_unique_magnetic_sites",
    "types_of_magnetic_species",
    "bulk_modulus",
    "shear_modulus",
    "universal_anisotropy",
    "homogeneous_poisson",
    "e_total",
    "e_ionic",
    "e_electronic",
    "n",
    "e_ij_max",
    "weighted_surface_energy_EV_PER_ANG2",
    "weighted_surface_energy",
    "weighted_work_function",
    "surface_anisotropy",
    "shape_factor",
    "has_reconstructed",
    "possible_species",
    "has_props",
    "theoretical",
    "database_IDs"
  ]
}
