{"builder_meta": null, "nsites": null, "elements": null, "nelements": null, "composition": null, "composition_reduced": null, "formula_pretty": "Cs4O3", "formula_anonymous": "A3B4", "chemsys": null, "volume": 404.35079016584723, "density": 4.760627108002041, "density_atomic": 28.882199297560515, "symmetry": null, "property_name": null, "material_id": "mp-1105918", "deprecated": null, "deprecation_reasons": null, "last_updated": null, "origins": null, "warnings": null, "structure": {"@module": "pymatgen.core.structure", "@class": "Structure", "charge": 0, "lattice": {"matrix": [[-4.658357, -4.658357, 4.658357], [-4.658357, 4.658357, -4.658357], [4.658357, -4.658357, -4.658357]], "pbc": [true, true, true], "a": 8.068511003794132, "b": 8.068511003794132, "c": 8.068511003794132, "alpha": 109.47122063449069, "beta": 109.47122063449069, "gamma": 109.47122063449069, "volume": 404.35079016584723}, "properties": {}, "sites": [{"species": [{"element": "Cs", "occu": 1}], "abc": [0.098896, 0.0, 0.5], "properties": {"magmom": 0.021}, "label": "Cs", "xyz": [1.8684856261279998, -2.789871373872, -1.8684856261279998]}, {"species": [{"element": "Cs", "occu": 1}], "abc": [0.0, 0.5, 0.098896], "properties": {"magmom": 0.021}, "label": "Cs", "xyz": [-1.8684856261279998, 1.8684856261279998, -2.789871373872]}, {"species": [{"element": "Cs", "occu": 1}], "abc": [0.5, 0.098896, 0.0], "properties": {"magmom": 0.021}, "label": "Cs", "xyz": [-2.789871373872, -1.8684856261279998, 1.8684856261279998]}, {"species": [{"element": "Cs", "occu": 1}], "abc": [0.401103999999999, 0.401103999999999, 0.401103999999999], "properties": {"magmom": 0.021}, "label": "Cs", "xyz": [-1.8684856261279952, -1.8684856261279952, -1.8684856261279952]}, {"species": [{"element": "Cs", "occu": 1}], "abc": [0.0, 0.5, 0.598896], "properties": {"magmom": 0.021}, "label": "Cs", "xyz": [0.460692873872, -0.460692873872, -5.119049873871999]}, {"species": [{"element": "Cs", "occu": 1}], "abc": [0.598896, 0.0, 0.5], "properties": {"magmom": 0.021}, "label": "Cs", "xyz": [-0.460692873872, -5.119049873871999, 0.460692873872]}, {"species": [{"element": "Cs", "occu": 1}], "abc": [0.5, 0.598896, 0.0], "properties": {"magmom": 0.021}, "label": "Cs", "xyz": [-5.119049873871999, 0.460692873872, -0.460692873872]}, {"species": [{"element": "Cs", "occu": 1}], "abc": [0.901103999999999, 0.901103999999999, 0.901103999999999], "properties": {"magmom": 0.021}, "label": "Cs", "xyz": [-4.197664126127995, -4.197664126127995, -4.197664126127995]}, {"species": [{"element": "O", "occu": 1}], "abc": [0.375, 0.75, 0.625], "properties": {"magmom": 0.514}, "label": "O", "xyz": [-2.3291785000000003, -1.1645892499999997, -4.658357]}, {"species": [{"element": "O", "occu": 1}], "abc": [0.125, 0.25, 0.875], "properties": {"magmom": 0.514}, "label": "O", "xyz": [2.3291784999999994, -3.4937677499999995, -4.658357]}, {"species": [{"element": "O", "occu": 1}], "abc": [0.75, 0.625, 0.375], "properties": {"magmom": 0.514}, "label": "O", "xyz": [-4.658357, -2.3291785000000003, -1.1645892499999997]}, {"species": [{"element": "O", "occu": 1}], "abc": [0.25, 0.875, 0.125], "properties": {"magmom": 0.514}, "label": "O", "xyz": [-4.658356999999999, 2.3291785, -3.4937677499999995]}, {"species": [{"element": "O", "occu": 1}], "abc": [0.625, 0.375, 0.75], "properties": {"magmom": 0.514}, "label": "O", "xyz": [-1.1645892499999997, -4.658357, -2.3291785000000003]}, {"species": [{"element": "O", "occu": 1}], "abc": [0.875, 0.125, 0.25], "properties": {"magmom": 0.514}, "label": "O", "xyz": [-3.49376775, -4.658357, 2.3291784999999994]}]}, "task_ids": null, "uncorrected_energy_per_atom": null, "energy_per_atom": -3.7089592642857143, "formation_energy_per_atom": -1.069560221945813, "energy_above_hull": 0.135815927142856, "is_stable": false, "equilibrium_reaction_energy_per_atom": null, "decomposes_to": null, "xas": null, "grain_boundaries": null, "band_gap": 0.0, "cbm": null, "vbm": null, "efermi": 1.18919271, "is_gap_direct": null, "is_metal": null, "es_source_calc_id": null, "bandstructure": null, "dos": null, "dos_energy_up": null, "dos_energy_down": null, "is_magnetic": null, "ordering": null, "total_magnetization": 4.0006867, "total_magnetization_normalized_vol": null, "total_magnetization_normalized_formula_units": null, "num_magnetic_sites": null, "num_unique_magnetic_sites": null, "types_of_magnetic_species": null, "bulk_modulus": null, "shear_modulus": null, "universal_anisotropy": null, "homogeneous_poisson": null, "e_total": null, "e_ionic": null, "e_electronic": null, "n": null, "e_ij_max": null, "weighted_surface_energy_EV_PER_ANG2": null, "weighted_surface_energy": null, "weighted_work_function": null, "surface_anisotropy": null, "shape_factor": null, "has_reconstructed": null, "possible_species": null, "has_props": null, "theoretical": null, "database_IDs": null, "fields_not_requested": ["builder_meta", "nsites", "elements", "nelements", "composition", "composition_reduced", "chemsys", "symmetry", "property_name", "deprecated", "deprecation_reasons", "last_updated", "origins", "warnings", "task_ids", "uncorrected_energy_per_atom", "equilibrium_reaction_energy_per_atom", "decomposes_to", "xas", "grain_boundaries", "cbm", "vbm", "is_gap_direct", "is_metal", "es_source_calc_id", "bandstructure", "dos", "dos_energy_up", "dos_energy_down", "is_magnetic", "ordering", "total_magnetization_normalized_vol", "total_magnetization_normalized_formula_units", "num_magnetic_sites", "num_unique_magnetic_sites", "types_of_magnetic_species", "bulk_modulus", "shear_modulus", "universal_anisotropy", "homogeneous_poisson", "e_total", "e_ionic", "e_electronic", "n", "e_ij_max", "weighted_surface_energy_EV_PER_ANG2", "weighted_surface_energy", "weighted_work_function", "surface_anisotropy", "shape_factor", "has_reconstructed", "possible_species", "has_props", "theoretical", "database_IDs"]}