{
  "builder_meta": null,
  "nsites": null,
  "elements": null,
  "nelements": null,
  "composition": null,
  "composition_reduced": null,
  "formula_pretty": "CS5",
  "formula_anonymous": "AB5",
  "chemsys": null,
  "volume": 4817.185973407013,
  "density": 0.47524868502008005,
  "density_atomic": 100.3580411126461,
  "symmetry": null,
  "property_name": null,
  "material_id": "mp-1215005",
  "deprecated": null,
  "deprecation_reasons": null,
  "last_updated": null,
  "origins": null,
  "warnings": null,
  "structure": {
    "@module": "pymatgen.core.structure",
    "@class": "Structure",
    "charge": 0,
    "lattice": {
      "matrix": [
        [10.87244652, 0.0, 0.0],
        [0.0, 14.19099603, 0.0],
        [0.0, 0.0, 31.22146334]
      ],
      "pbc": [true, true, true],
      "a": 10.87244652,
      "b": 14.19099603,
      "c": 31.22146334,
      "alpha": 90.0,
      "beta": 90.0,
      "gamma": 90.0,
      "volume": 4817.185973407013
    },
    "properties": {},
    "sites": [
      {
        "species": [{ "element": "C", "occu": 1 }],
        "abc": [0.1827261, 0.25, 0.09739205000000001],
        "properties": { "magmom": -0.0 },
        "label": "C",
        "xyz": [1.986679750058172, 3.5477490075, 3.0407223186824472]
      },
      {
        "species": [{ "element": "C", "occu": 1 }],
        "abc": [0.8172739, 0.75, 0.90260795],
        "properties": { "magmom": -0.0 },
        "label": "C",
        "xyz": [8.885766769941828, 10.6432470225, 28.180741021317555]
      },
      {
        "species": [{ "element": "C", "occu": 1 }],
        "abc": [0.3172739, 0.75, 0.5973920500000001],
        "properties": { "magmom": -0.0 },
        "label": "C",
        "xyz": [3.449543509941828, 10.6432470225, 18.651453988682448]
      },
      {
        "species": [{ "element": "C", "occu": 1 }],
        "abc": [0.6827261, 0.25, 0.40260795],
        "properties": { "magmom": -0.0 },
        "label": "C",
        "xyz": [7.422903010058173, 3.5477490075, 12.570009351317553]
      },
      {
        "species": [{ "element": "C", "occu": 1 }],
        "abc": [0.2622781, 0.25, 0.60052287],
        "properties": { "magmom": 0.986 },
        "label": "C",
        "xyz": [2.8516046156172123, 3.5477490075, 18.749202770536588]
      },
      {
        "species": [{ "element": "C", "occu": 1 }],
        "abc": [0.737721899999999, 0.75, 0.39947713],
        "properties": { "magmom": 0.986 },
        "label": "C",
        "xyz": [8.020841904382777, 10.6432470225, 12.472260569463414]
      },
      {
        "species": [{ "element": "C", "occu": 1 }],
        "abc": [0.23772189999999901, 0.75, 0.10052287],
        "properties": { "magmom": 0.986 },
        "label": "C",
        "xyz": [2.584618644382777, 10.6432470225, 3.1384711005365857]
      },
      {
        "species": [{ "element": "C", "occu": 1 }],
        "abc": [0.7622781, 0.25, 0.8994771300000001],
        "properties": { "magmom": 0.986 },
        "label": "C",
        "xyz": [8.287827875617213, 3.5477490075, 28.082992239463415]
      },
      {
        "species": [{ "element": "S", "occu": 1 }],
        "abc": [0.23438443, 0.13252492, 0.35979788],
        "properties": { "magmom": -0.0 },
        "label": "S",
        "xyz": [2.5483321802956835, 1.8806606135960675, 11.23341632022972]
      },
      {
        "species": [{ "element": "S", "occu": 1 }],
        "abc": [0.76561557, 0.8674750800000001, 0.64020212],
        "properties": { "magmom": -0.0 },
        "label": "S",
        "xyz": [8.324114339704318, 12.310335416403934, 19.98804701977028]
      },
      {
        "species": [{ "element": "S", "occu": 1 }],
        "abc": [0.26561557, 0.8674750800000001, 0.85979788],
        "properties": { "magmom": -0.0 },
        "label": "S",
        "xyz": [2.8878910797043167, 12.310335416403934, 26.844147990229718]
      },
      {
        "species": [{ "element": "S", "occu": 1 }],
        "abc": [0.76561557, 0.63252492, 0.64020212],
        "properties": { "magmom": -0.0 },
        "label": "S",
        "xyz": [8.324114339704318, 8.97615862859607, 19.98804701977028]
      },
      {
        "species": [{ "element": "S", "occu": 1 }],
        "abc": [0.73438443, 0.13252492, 0.14020212],
        "properties": { "magmom": -0.0 },
        "label": "S",
        "xyz": [7.984555440295684, 1.8806606135960675, 4.3773153497702815]
      },
      {
        "species": [{ "element": "S", "occu": 1 }],
        "abc": [0.23438443, 0.36747508, 0.35979788],
        "properties": { "magmom": -0.0 },
        "label": "S",
        "xyz": [2.5483321802956835, 5.2148374014039325, 11.23341632022972]
      },
      {
        "species": [{ "element": "S", "occu": 1 }],
        "abc": [0.73438443, 0.36747508, 0.14020212],
        "properties": { "magmom": -0.0 },
        "label": "S",
        "xyz": [7.984555440295684, 5.2148374014039325, 4.3773153497702815]
      },
      {
        "species": [{ "element": "S", "occu": 1 }],
        "abc": [0.26561557, 0.63252492, 0.85979788],
        "properties": { "magmom": -0.0 },
        "label": "S",
        "xyz": [2.8878910797043167, 8.97615862859607, 26.844147990229718]
      },
      {
        "species": [{ "element": "S", "occu": 1 }],
        "abc": [0.33142463, 0.25, 0.23072386],
        "properties": { "magmom": -0.0 },
        "label": "S",
        "xyz": [3.6033965650857875, 3.5477490075, 7.203536536653292]
      },
      {
        "species": [{ "element": "S", "occu": 1 }],
        "abc": [0.66857537, 0.75, 0.76927614],
        "properties": { "magmom": -0.0 },
        "label": "S",
        "xyz": [7.2690499549142125, 10.6432470225, 24.017926803346707]
      },
      {
        "species": [{ "element": "S", "occu": 1 }],
        "abc": [0.16857537, 0.75, 0.73072386],
        "properties": { "magmom": 0.0 },
        "label": "S",
        "xyz": [1.8328266949142125, 10.6432470225, 22.814268206653292]
      },
      {
        "species": [{ "element": "S", "occu": 1 }],
        "abc": [0.83142463, 0.25, 0.26927614],
        "properties": { "magmom": -0.0 },
        "label": "S",
        "xyz": [9.039619825085788, 3.5477490075, 8.407195133346708]
      },
      {
        "species": [{ "element": "S", "occu": 1 }],
        "abc": [0.1242344, 0.25, 0.36368458000000004],
        "properties": { "magmom": -0.0 },
        "label": "S",
        "xyz": [1.350731869944288, 3.5477490075, 11.354764781793298]
      },
      {
        "species": [{ "element": "S", "occu": 1 }],
        "abc": [0.875765599999999, 0.75, 0.63631542],
        "properties": { "magmom": -0.0 },
        "label": "S",
        "xyz": [9.521714650055701, 10.6432470225, 19.8666985582067]
      },
      {
        "species": [{ "element": "S", "occu": 1 }],
        "abc": [0.3757656, 0.75, 0.86368458],
        "properties": { "magmom": -0.0 },
        "label": "S",
        "xyz": [4.0854913900557115, 10.6432470225, 26.9654964517933]
      },
      {
        "species": [{ "element": "S", "occu": 1 }],
        "abc": [0.6242344, 0.25, 0.13631542],
        "properties": { "magmom": -0.0 },
        "label": "S",
        "xyz": [6.786955129944288, 3.5477490075, 4.255966888206703]
      },
      {
        "species": [{ "element": "S", "occu": 1 }],
        "abc": [0.23058582, 0.08112002, 0.29806883],
        "properties": { "magmom": -0.0 },
        "label": "S",
        "xyz": [2.5070319962203467, 1.1511738817735206, 9.306145048641692]
      },
      {
        "species": [{ "element": "S", "occu": 1 }],
        "abc": [0.7694141800000001, 0.91887998, 0.70193117],
        "properties": { "magmom": -0.0 },
        "label": "S",
        "xyz": [8.365414523779654, 13.039822148226481, 21.915318291358307]
      },
      {
        "species": [{ "element": "S", "occu": 1 }],
        "abc": [0.26941418, 0.91887998, 0.7980688300000001],
        "properties": { "magmom": -0.0 },
        "label": "S",
        "xyz": [2.9291912637796536, 13.039822148226481, 24.916876718641692]
      },
      {
        "species": [{ "element": "S", "occu": 1 }],
        "abc": [0.7694141800000001, 0.58112002, 0.70193117],
        "properties": { "magmom": -0.0 },
        "label": "S",
        "xyz": [8.365414523779654, 8.24667189677352, 21.915318291358307]
      },
      {
        "species": [{ "element": "S", "occu": 1 }],
        "abc": [0.73058582, 0.08112002, 0.20193117],
        "properties": { "magmom": -0.0 },
        "label": "S",
        "xyz": [7.943255256220347, 1.1511738817735206, 6.3045866213583075]
      },
      {
        "species": [{ "element": "S", "occu": 1 }],
        "abc": [0.23058582, 0.41887998, 0.29806883],
        "properties": { "magmom": -0.0 },
        "label": "S",
        "xyz": [2.5070319962203467, 5.94432413322648, 9.306145048641692]
      },
      {
        "species": [{ "element": "S", "occu": 1 }],
        "abc": [0.73058582, 0.41887998, 0.20193117],
        "properties": { "magmom": -0.0 },
        "label": "S",
        "xyz": [7.943255256220347, 5.94432413322648, 6.3045866213583075]
      },
      {
        "species": [{ "element": "S", "occu": 1 }],
        "abc": [0.26941418, 0.58112002, 0.7980688300000001],
        "properties": { "magmom": -0.0 },
        "label": "S",
        "xyz": [2.9291912637796536, 8.24667189677352, 24.916876718641692]
      },
      {
        "species": [{ "element": "S", "occu": 1 }],
        "abc": [0.38103903, 0.13146444000000002, 0.26481024000000003],
        "properties": { "magmom": -0.0 },
        "label": "S",
        "xyz": [4.142826475707675, 1.8656113461261736, 8.267763200216603]
      },
      {
        "species": [{ "element": "S", "occu": 1 }],
        "abc": [0.61896097, 0.86853556, 0.73518976],
        "properties": { "magmom": -0.0 },
        "label": "S",
        "xyz": [6.729620044292325, 12.325384683873827, 22.9537001397834]
      },
      {
        "species": [{ "element": "S", "occu": 1 }],
        "abc": [0.11896097, 0.86853556, 0.76481024],
        "properties": { "magmom": -0.0 },
        "label": "S",
        "xyz": [1.2933967842923244, 12.325384683873827, 23.8784948702166]
      },
      {
        "species": [{ "element": "S", "occu": 1 }],
        "abc": [0.61896097, 0.63146444, 0.73518976],
        "properties": { "magmom": -0.0 },
        "label": "S",
        "xyz": [6.729620044292325, 8.961109361126175, 22.9537001397834]
      },
      {
        "species": [{ "element": "S", "occu": 1 }],
        "abc": [0.8810390300000001, 0.13146444000000002, 0.23518976],
        "properties": { "magmom": -0.0 },
        "label": "S",
        "xyz": [9.579049735707677, 1.8656113461261736, 7.342968469783398]
      },
      {
        "species": [{ "element": "S", "occu": 1 }],
        "abc": [0.38103903, 0.36853556, 0.26481024000000003],
        "properties": { "magmom": 0.0 },
        "label": "S",
        "xyz": [4.142826475707675, 5.229886668873827, 8.267763200216603]
      },
      {
        "species": [{ "element": "S", "occu": 1 }],
        "abc": [0.8810390300000001, 0.36853556, 0.23518976],
        "properties": { "magmom": -0.0 },
        "label": "S",
        "xyz": [9.579049735707677, 5.229886668873827, 7.342968469783398]
      },
      {
        "species": [{ "element": "S", "occu": 1 }],
        "abc": [0.11896097, 0.63146444, 0.76481024],
        "properties": { "magmom": -0.0 },
        "label": "S",
        "xyz": [1.2933967842923244, 8.961109361126175, 23.8784948702166]
      },
      {
        "species": [{ "element": "S", "occu": 1 }],
        "abc": [0.29337823, 0.25, 0.06575675],
        "properties": { "magmom": -0.0 },
        "label": "S",
        "xyz": [3.18973911580726, 3.5477490075, 2.053021959482545]
      },
      {
        "species": [{ "element": "S", "occu": 1 }],
        "abc": [0.70662177, 0.75, 0.93424325],
        "properties": { "magmom": -0.0 },
        "label": "S",
        "xyz": [7.682707404192741, 10.6432470225, 29.168441380517454]
      },
      {
        "species": [{ "element": "S", "occu": 1 }],
        "abc": [0.20662177, 0.75, 0.56575675],
        "properties": { "magmom": -0.0 },
        "label": "S",
        "xyz": [2.2464841441927406, 10.6432470225, 17.663753629482546]
      },
      {
        "species": [{ "element": "S", "occu": 1 }],
        "abc": [0.79337823, 0.25, 0.43424325],
        "properties": { "magmom": -0.0 },
        "label": "S",
        "xyz": [8.62596237580726, 3.5477490075, 13.557709710517456]
      },
      {
        "species": [{ "element": "S", "occu": 1 }],
        "abc": [0.0720436, 0.25, 0.1290509],
        "properties": { "magmom": -0.0 },
        "label": "S",
        "xyz": [0.783290188108272, 3.5477490075, 4.029157943344006]
      },
      {
        "species": [{ "element": "S", "occu": 1 }],
        "abc": [0.9279563999999991, 0.75, 0.870949099999999],
        "properties": { "magmom": -0.0 },
        "label": "S",
        "xyz": [10.089156331891719, 10.6432470225, 27.192305396655964]
      },
      {
        "species": [{ "element": "S", "occu": 1 }],
        "abc": [0.427956399999999, 0.75, 0.6290509],
        "properties": { "magmom": -0.0 },
        "label": "S",
        "xyz": [4.6529330718917175, 10.6432470225, 19.639889613344003]
      },
      {
        "species": [{ "element": "S", "occu": 1 }],
        "abc": [0.5720436, 0.25, 0.3709491],
        "properties": { "magmom": -0.0 },
        "label": "S",
        "xyz": [6.219513448108272, 3.5477490075, 11.581573726655993]
      }
    ]
  },
  "task_ids": null,
  "uncorrected_energy_per_atom": null,
  "energy_per_atom": -4.668295493958333,
  "formation_energy_per_atom": 0.318448394375,
  "energy_above_hull": 0.679967819523809,
  "is_stable": false,
  "equilibrium_reaction_energy_per_atom": null,
  "decomposes_to": null,
  "xas": null,
  "grain_boundaries": null,
  "band_gap": 0.539299999999999,
  "cbm": null,
  "vbm": null,
  "efermi": -4.02213974,
  "is_gap_direct": null,
  "is_metal": null,
  "es_source_calc_id": null,
  "bandstructure": null,
  "dos": null,
  "dos_energy_up": null,
  "dos_energy_down": null,
  "is_magnetic": null,
  "ordering": null,
  "total_magnetization": 8.0073821,
  "total_magnetization_normalized_vol": null,
  "total_magnetization_normalized_formula_units": null,
  "num_magnetic_sites": null,
  "num_unique_magnetic_sites": null,
  "types_of_magnetic_species": null,
  "bulk_modulus": null,
  "shear_modulus": null,
  "universal_anisotropy": null,
  "homogeneous_poisson": null,
  "e_total": null,
  "e_ionic": null,
  "e_electronic": null,
  "n": null,
  "e_ij_max": null,
  "weighted_surface_energy_EV_PER_ANG2": null,
  "weighted_surface_energy": null,
  "weighted_work_function": null,
  "surface_anisotropy": null,
  "shape_factor": null,
  "has_reconstructed": null,
  "possible_species": null,
  "has_props": null,
  "theoretical": null,
  "database_IDs": null,
  "fields_not_requested": [
    "builder_meta",
    "nsites",
    "elements",
    "nelements",
    "composition",
    "composition_reduced",
    "chemsys",
    "symmetry",
    "property_name",
    "deprecated",
    "deprecation_reasons",
    "last_updated",
    "origins",
    "warnings",
    "task_ids",
    "uncorrected_energy_per_atom",
    "equilibrium_reaction_energy_per_atom",
    "decomposes_to",
    "xas",
    "grain_boundaries",
    "cbm",
    "vbm",
    "is_gap_direct",
    "is_metal",
    "es_source_calc_id",
    "bandstructure",
    "dos",
    "dos_energy_up",
    "dos_energy_down",
    "is_magnetic",
    "ordering",
    "total_magnetization_normalized_vol",
    "total_magnetization_normalized_formula_units",
    "num_magnetic_sites",
    "num_unique_magnetic_sites",
    "types_of_magnetic_species",
    "bulk_modulus",
    "shear_modulus",
    "universal_anisotropy",
    "homogeneous_poisson",
    "e_total",
    "e_ionic",
    "e_electronic",
    "n",
    "e_ij_max",
    "weighted_surface_energy_EV_PER_ANG2",
    "weighted_surface_energy",
    "weighted_work_function",
    "surface_anisotropy",
    "shape_factor",
    "has_reconstructed",
    "possible_species",
    "has_props",
    "theoretical",
    "database_IDs"
  ]
}
