{
  "builder_meta": null,
  "nsites": null,
  "elements": null,
  "nelements": null,
  "composition": null,
  "composition_reduced": null,
  "formula_pretty": "Cs5Te3",
  "formula_anonymous": "A3B5",
  "chemsys": null,
  "volume": 797.1075772388147,
  "density": 4.363596281292958,
  "density_atomic": 49.819223577425916,
  "symmetry": null,
  "property_name": null,
  "material_id": "mp-1188281",
  "deprecated": null,
  "deprecation_reasons": null,
  "last_updated": null,
  "origins": null,
  "warnings": null,
  "structure": {
    "@module": "pymatgen.core.structure",
    "@class": "Structure",
    "charge": 0,
    "lattice": {
      "matrix": [
        [-1e-8, -7.0484898, -0.0],
        [7.58669275, -3.52424438, -7.45194967],
        [7.45387117, -3.52424438, 7.58476173]
      ],
      "pbc": [true, true, true],
      "a": 7.0484898,
      "b": 11.203113817911396,
      "c": 11.20308459174487,
      "alpha": 84.3074776084553,
      "beta": 71.66465778574177,
      "gamma": 71.66470732172446,
      "volume": 797.1075772388147
    },
    "properties": {},
    "sites": [
      {
        "species": [{ "element": "Cs", "occu": 1 }],
        "abc": [0.27449884, 0.13433895, 0.31666436000000003],
        "properties": { "magmom": -0.0 },
        "label": "Cs",
        "xyz": [3.379563678833126, -3.5242481544807296, 1.4007366248622966]
      },
      {
        "species": [{ "element": "Cs", "occu": 1 }],
        "abc": [0.72550116, 0.86566105, 0.68333564],
        "properties": { "magmom": -0.0 },
        "label": "Cs",
        "xyz": [11.661000231166875, -10.57273040551927, -1.2679245648622963]
      },
      {
        "species": [{ "element": "Cs", "occu": 1 }],
        "abc": [0.40876594, 0.31710797, 0.86536115],
        "properties": { "magmom": 0.0 },
        "label": "Cs",
        "xyz": [8.856091260501604, -7.048492709360957, 4.2004855007529205]
      },
      {
        "species": [{ "element": "Cs", "occu": 1 }],
        "abc": [0.59123406, 0.68289203, 0.13463885],
        "properties": { "magmom": 0.0 },
        "label": "Cs",
        "xyz": [6.184472649498396, -7.048485850639042, -4.06767344075292]
      },
      {
        "species": [{ "element": "Cs", "occu": 1 }],
        "abc": [0.08782356, 0.12999152, 0.69436035],
        "properties": { "magmom": -0.0 },
        "label": "Cs",
        "xyz": [6.161878315923354, -3.5242409118496782, 4.297867544942607]
      },
      {
        "species": [{ "element": "Cs", "occu": 1 }],
        "abc": [0.91217644, 0.87000848, 0.30563965],
        "properties": { "magmom": -0.0 },
        "label": "Cs",
        "xyz": [8.878685594076646, -10.572737648150321, -4.165055484942608]
      },
      {
        "species": [{ "element": "Cs", "occu": 1 }],
        "abc": [0.21743315, 0.69489486, 0.8702388400000001],
        "properties": { "magmom": -0.0 },
        "label": "Cs",
        "xyz": [11.758601994690178, -7.048488986130476, 1.4222327269298978]
      },
      {
        "species": [{ "element": "Cs", "occu": 1 }],
        "abc": [0.78256685, 0.30510514, 0.12976116000000001],
        "properties": { "magmom": -0.0 },
        "label": "Cs",
        "xyz": [3.281961915309824, -7.048489573869524, -1.2894206669298969]
      },
      {
        "species": [{ "element": "Cs", "occu": 1 }],
        "abc": [0.75002501, 0.5, 0.5],
        "properties": { "magmom": -0.0 },
        "label": "Cs",
        "xyz": [7.52028195249975, -8.810788012729898, 0.06640603]
      },
      {
        "species": [{ "element": "Cs", "occu": 1 }],
        "abc": [0.24997499, 0.5, 0.5],
        "properties": { "magmom": -0.0 },
        "label": "Cs",
        "xyz": [7.52028195750025, -5.2861905472701025, 0.06640603]
      },
      {
        "species": [{ "element": "Te", "occu": 1 }],
        "abc": [0.30067729, -0.0, -0.0],
        "properties": { "magmom": 0.0 },
        "label": "Te",
        "xyz": [-3.0067729e-9, -2.119320811656642, 0.0]
      },
      {
        "species": [{ "element": "Te", "occu": 1 }],
        "abc": [0.69932271, 0.0, 0.0],
        "properties": { "magmom": 0.0 },
        "label": "Te",
        "xyz": [-6.9932271000000006e-9, -4.929168988343358, 0.0]
      },
      {
        "species": [{ "element": "Te", "occu": 1 }],
        "abc": [0.34291064, 0.81250765, 0.50167008],
        "properties": { "magmom": -0.0 },
        "label": "Te",
        "xyz": [9.903630040309025, -7.04848562762513, -2.249718090419937]
      },
      {
        "species": [{ "element": "Te", "occu": 1 }],
        "abc": [0.6570893600000001, 0.18749235, 0.49832992000000004],
        "properties": { "magmom": -0.0 },
        "label": "Te",
        "xyz": [5.136933869690976, -7.04849293237487, 2.382530150419938]
      },
      {
        "species": [{ "element": "Te", "occu": 1 }],
        "abc": [0.15581775, 0.50107874, 0.18728575],
        "properties": { "magmom": 0.0 },
        "label": "Te",
        "xyz": [5.197534294855784, -3.524244506808016, -2.313495762012668]
      },
      {
        "species": [{ "element": "Te", "occu": 1 }],
        "abc": [0.84418225, 0.49892126000000003, 0.81271425],
        "properties": { "magmom": 0.0 },
        "label": "Te",
        "xyz": [9.843029615144214, -10.572734053191983, 2.446307822012668]
      }
    ]
  },
  "task_ids": null,
  "uncorrected_energy_per_atom": null,
  "energy_per_atom": -26.413471936875,
  "formation_energy_per_atom": -1.189229695624998,
  "energy_above_hull": 0.0,
  "is_stable": true,
  "equilibrium_reaction_energy_per_atom": null,
  "decomposes_to": null,
  "xas": null,
  "grain_boundaries": null,
  "band_gap": 0.511999999999999,
  "cbm": null,
  "vbm": null,
  "efermi": 1.657665269999999,
  "is_gap_direct": null,
  "is_metal": null,
  "es_source_calc_id": null,
  "bandstructure": null,
  "dos": null,
  "dos_energy_up": null,
  "dos_energy_down": null,
  "is_magnetic": null,
  "ordering": null,
  "total_magnetization": 0.0,
  "total_magnetization_normalized_vol": null,
  "total_magnetization_normalized_formula_units": null,
  "num_magnetic_sites": null,
  "num_unique_magnetic_sites": null,
  "types_of_magnetic_species": null,
  "bulk_modulus": null,
  "shear_modulus": null,
  "universal_anisotropy": null,
  "homogeneous_poisson": null,
  "e_total": null,
  "e_ionic": null,
  "e_electronic": null,
  "n": null,
  "e_ij_max": null,
  "weighted_surface_energy_EV_PER_ANG2": null,
  "weighted_surface_energy": null,
  "weighted_work_function": null,
  "surface_anisotropy": null,
  "shape_factor": null,
  "has_reconstructed": null,
  "possible_species": null,
  "has_props": null,
  "theoretical": null,
  "database_IDs": null,
  "fields_not_requested": [
    "builder_meta",
    "nsites",
    "elements",
    "nelements",
    "composition",
    "composition_reduced",
    "chemsys",
    "symmetry",
    "property_name",
    "deprecated",
    "deprecation_reasons",
    "last_updated",
    "origins",
    "warnings",
    "task_ids",
    "uncorrected_energy_per_atom",
    "equilibrium_reaction_energy_per_atom",
    "decomposes_to",
    "xas",
    "grain_boundaries",
    "cbm",
    "vbm",
    "is_gap_direct",
    "is_metal",
    "es_source_calc_id",
    "bandstructure",
    "dos",
    "dos_energy_up",
    "dos_energy_down",
    "is_magnetic",
    "ordering",
    "total_magnetization_normalized_vol",
    "total_magnetization_normalized_formula_units",
    "num_magnetic_sites",
    "num_unique_magnetic_sites",
    "types_of_magnetic_species",
    "bulk_modulus",
    "shear_modulus",
    "universal_anisotropy",
    "homogeneous_poisson",
    "e_total",
    "e_ionic",
    "e_electronic",
    "n",
    "e_ij_max",
    "weighted_surface_energy_EV_PER_ANG2",
    "weighted_surface_energy",
    "weighted_work_function",
    "surface_anisotropy",
    "shape_factor",
    "has_reconstructed",
    "possible_species",
    "has_props",
    "theoretical",
    "database_IDs"
  ]
}
