{
  "builder_meta": null,
  "nsites": null,
  "elements": null,
  "nelements": null,
  "composition": null,
  "composition_reduced": null,
  "formula_pretty": "Cs7O",
  "formula_anonymous": "AB7",
  "chemsys": null,
  "volume": 2247.060490426545,
  "density": 2.097981564019763,
  "density_atomic": 93.62752043443938,
  "symmetry": null,
  "property_name": null,
  "material_id": "mp-561735",
  "deprecated": null,
  "deprecation_reasons": null,
  "last_updated": null,
  "origins": null,
  "warnings": null,
  "structure": {
    "@module": "pymatgen.core.structure",
    "@class": "Structure",
    "charge": 0,
    "lattice": {
      "matrix": [
        [8.34186517, -14.44853526, 0.0],
        [8.34186517, 14.44853526, 0.0],
        [0.0, 0.0, 9.32175705]
      ],
      "pbc": [true, true, true],
      "a": 16.683731167635205,
      "b": 16.683731167635205,
      "c": 9.32175705,
      "alpha": 90.0,
      "beta": 90.0,
      "gamma": 120.0000032819939,
      "volume": 2247.060490426545
    },
    "properties": {},
    "sites": [
      {
        "species": [{ "element": "Cs", "occu": 1 }],
        "abc": [0.44389007, 0.22194454, 0.5],
        "properties": { "magmom": -0.005 },
        "label": "Cs",
        "xyz": [5.554302542139534, -3.2067878160043883, 4.660878525]
      },
      {
        "species": [{ "element": "Cs", "occu": 1 }],
        "abc": [0.47815095, 0.52184905, 0.78245641],
        "properties": { "magmom": 0.003 },
        "label": "Cs",
        "xyz": [8.34186517, 0.6313735386450068, 7.293868556235191]
      },
      {
        "species": [{ "element": "Cs", "occu": 1 }],
        "abc": [0.77805546, 0.22194454, 0.5],
        "properties": { "magmom": -0.005 },
        "label": "Cs",
        "xyz": [8.34186517, -8.034988236091039, 4.660878525]
      },
      {
        "species": [{ "element": "Cs", "occu": 1 }],
        "abc": [0.47815095, 0.52184905, 0.21754359],
        "properties": { "magmom": 0.003 },
        "label": "Cs",
        "xyz": [8.34186517, 0.6313735386450068, 2.02788849376481]
      },
      {
        "species": [{ "element": "Cs", "occu": 1 }],
        "abc": [0.88317161, 0.76634223, 0.0],
        "properties": { "magmom": -0.001 },
        "label": "Cs",
        "xyz": [13.760022049328953, -1.6880134163339378, 0.0]
      },
      {
        "species": [{ "element": "Cs", "occu": 1 }],
        "abc": [0.11551823, 0.23103645, 0.5],
        "properties": { "magmom": -0.003 },
        "label": "Cs",
        "xyz": [2.8909124145924956, 1.6690690748424373, 4.660878525]
      },
      {
        "species": [{ "element": "Cs", "occu": 1 }],
        "abc": [0.47815095, 0.956301899999999, 0.78245641],
        "properties": { "magmom": 0.003 },
        "label": "Cs",
        "xyz": [11.966012267422228, 6.908580860677483, 7.293868556235191]
      },
      {
        "species": [{ "element": "Cs", "occu": 1 }],
        "abc": [0.560171499999999, 0.7800852500000001, 0.0],
        "properties": { "magmom": -0.003 },
        "label": "Cs",
        "xyz": [11.180241101682391, 3.177431571033839, 0.0]
      },
      {
        "species": [{ "element": "Cs", "occu": 1 }],
        "abc": [0.47815095, 0.956301899999999, 0.21754359],
        "properties": { "magmom": 0.003 },
        "label": "Cs",
        "xyz": [11.966012267422228, 6.908580860677483, 2.02788849376481]
      },
      {
        "species": [{ "element": "Cs", "occu": 1 }],
        "abc": [0.21991475, 0.439828499999999, 0.0],
        "properties": { "magmom": -0.003 },
        "label": "Cs",
        "xyz": [5.503489238317594, 3.177431571033811, 0.0]
      },
      {
        "species": [{ "element": "Cs", "occu": 1 }],
        "abc": [0.333333, 0.666667, 0.7979068300000001],
        "properties": { "magmom": 0.012 },
        "label": "Cs",
        "xyz": [8.34186517, 4.81618805235684, 7.437893617795653]
      },
      {
        "species": [{ "element": "Cs", "occu": 1 }],
        "abc": [0.77805546, 0.55610993, 0.5],
        "properties": { "magmom": -0.005 },
        "label": "Cs",
        "xyz": [11.129427797860465, -3.206787816004388, 4.660878525]
      },
      {
        "species": [{ "element": "Cs", "occu": 1 }],
        "abc": [0.666667, 0.333333, 0.0],
        "properties": { "magmom": 0.004 },
        "label": "Cs",
        "xyz": [8.34186517, -4.81618805235684, 0.0]
      },
      {
        "species": [{ "element": "Cs", "occu": 1 }],
        "abc": [0.76896355, 0.8844817700000001, 0.5],
        "properties": { "magmom": -0.003 },
        "label": "Cs",
        "xyz": [13.792817925407505, 1.6690690748424384, 4.660878525]
      },
      {
        "species": [{ "element": "Cs", "occu": 1 }],
        "abc": [0.88317161, 0.11682839, 0.0],
        "properties": { "magmom": -0.001 },
        "label": "Cs",
        "xyz": [8.34186517, -11.072537035431935, 0.0]
      },
      {
        "species": [{ "element": "Cs", "occu": 1 }],
        "abc": [0.23365777000000001, 0.11682839, 0.0],
        "properties": { "magmom": -0.001 },
        "label": "Cs",
        "xyz": [2.9237082906710476, -1.688013416333939, 0.0]
      },
      {
        "species": [{ "element": "Cs", "occu": 1 }],
        "abc": [0.333333, 0.666667, 0.20209317000000002],
        "properties": { "magmom": 0.012 },
        "label": "Cs",
        "xyz": [8.34186517, 4.81618805235684, 1.8838634322043488]
      },
      {
        "species": [{ "element": "Cs", "occu": 1 }],
        "abc": [0.0436981, 0.52184905, 0.78245641],
        "properties": { "magmom": 0.003 },
        "label": "Cs",
        "xyz": [4.717718072577766, 6.908580860677498, 7.293868556235191]
      },
      {
        "species": [{ "element": "Cs", "occu": 1 }],
        "abc": [0.11551823, 0.8844817700000001, 0.5],
        "properties": { "magmom": -0.003 },
        "label": "Cs",
        "xyz": [8.34186517, 11.110396821344422, 4.660878525]
      },
      {
        "species": [{ "element": "Cs", "occu": 1 }],
        "abc": [0.21991475, 0.7800852500000001, 0.0],
        "properties": { "magmom": -0.003 },
        "label": "Cs",
        "xyz": [8.34186517, 8.093643220861832, 0.0]
      },
      {
        "species": [{ "element": "Cs", "occu": 1 }],
        "abc": [0.0436981, 0.52184905, 0.21754359],
        "properties": { "magmom": 0.003 },
        "label": "Cs",
        "xyz": [4.717718072577766, 6.908580860677498, 2.02788849376481]
      },
      {
        "species": [{ "element": "O", "occu": 1 }],
        "abc": [0.41386538, 0.58613462, 0.0],
        "properties": { "magmom": 0.001 },
        "label": "O",
        "xyz": [8.34186517, 2.489038188353404, 0.0]
      },
      {
        "species": [{ "element": "O", "occu": 1 }],
        "abc": [0.17227025, 0.58613462, 0.0],
        "properties": { "magmom": 0.001 },
        "label": "O",
        "xyz": [6.326511169811378, 5.979733942802687, 0.0]
      },
      {
        "species": [{ "element": "O", "occu": 1 }],
        "abc": [0.41386538, 0.82772975, 0.0],
        "properties": { "magmom": 0.001 },
        "label": "O",
        "xyz": [10.357219170188623, 5.979733942802688, 0.0]
      }
    ]
  },
  "task_ids": null,
  "uncorrected_energy_per_atom": null,
  "energy_per_atom": -1.861881337916666,
  "formation_energy_per_atom": -0.448905838239943,
  "energy_above_hull": 0.010467804755746001,
  "is_stable": false,
  "equilibrium_reaction_energy_per_atom": null,
  "decomposes_to": null,
  "xas": null,
  "grain_boundaries": null,
  "band_gap": 0.0,
  "cbm": null,
  "vbm": null,
  "efermi": 0.72336922,
  "is_gap_direct": null,
  "is_metal": null,
  "es_source_calc_id": null,
  "bandstructure": null,
  "dos": null,
  "dos_energy_up": null,
  "dos_energy_down": null,
  "is_magnetic": null,
  "ordering": null,
  "total_magnetization": 0.4362076,
  "total_magnetization_normalized_vol": null,
  "total_magnetization_normalized_formula_units": null,
  "num_magnetic_sites": null,
  "num_unique_magnetic_sites": null,
  "types_of_magnetic_species": null,
  "bulk_modulus": null,
  "shear_modulus": null,
  "universal_anisotropy": null,
  "homogeneous_poisson": null,
  "e_total": null,
  "e_ionic": null,
  "e_electronic": null,
  "n": null,
  "e_ij_max": null,
  "weighted_surface_energy_EV_PER_ANG2": null,
  "weighted_surface_energy": null,
  "weighted_work_function": null,
  "surface_anisotropy": null,
  "shape_factor": null,
  "has_reconstructed": null,
  "possible_species": null,
  "has_props": null,
  "theoretical": null,
  "database_IDs": null,
  "fields_not_requested": [
    "builder_meta",
    "nsites",
    "elements",
    "nelements",
    "composition",
    "composition_reduced",
    "chemsys",
    "symmetry",
    "property_name",
    "deprecated",
    "deprecation_reasons",
    "last_updated",
    "origins",
    "warnings",
    "task_ids",
    "uncorrected_energy_per_atom",
    "equilibrium_reaction_energy_per_atom",
    "decomposes_to",
    "xas",
    "grain_boundaries",
    "cbm",
    "vbm",
    "is_gap_direct",
    "is_metal",
    "es_source_calc_id",
    "bandstructure",
    "dos",
    "dos_energy_up",
    "dos_energy_down",
    "is_magnetic",
    "ordering",
    "total_magnetization_normalized_vol",
    "total_magnetization_normalized_formula_units",
    "num_magnetic_sites",
    "num_unique_magnetic_sites",
    "types_of_magnetic_species",
    "bulk_modulus",
    "shear_modulus",
    "universal_anisotropy",
    "homogeneous_poisson",
    "e_total",
    "e_ionic",
    "e_electronic",
    "n",
    "e_ij_max",
    "weighted_surface_energy_EV_PER_ANG2",
    "weighted_surface_energy",
    "weighted_work_function",
    "surface_anisotropy",
    "shape_factor",
    "has_reconstructed",
    "possible_species",
    "has_props",
    "theoretical",
    "database_IDs"
  ]
}
