{"builder_meta": null, "nsites": null, "elements": null, "nelements": null, "composition": null, "composition_reduced": null, "formula_pretty": "CsAl", "formula_anonymous": "AB", "chemsys": null, "volume": 434.2065882560276, "density": 2.445827411626497, "density_atomic": 54.27582353200345, "symmetry": null, "property_name": null, "material_id": "mp-1078399", "deprecated": null, "deprecation_reasons": null, "last_updated": null, "origins": null, "warnings": null, "structure": {"@module": "pymatgen.core.structure", "@class": "Structure", "charge": 0, "lattice": {"matrix": [[4.7458100000000005, 0.0, 0.0], [0.0, 8.584035, 0.0], [0.0, 0.0, 10.658463]], "pbc": [true, true, true], "a": 4.7458100000000005, "b": 8.584035, "c": 10.658463, "alpha": 90.0, "beta": 90.0, "gamma": 90.0, "volume": 434.20658825602766}, "properties": {}, "sites": [{"species": [{"element": "Cs", "occu": 1}], "abc": [0.25, 0.348099, 0.684207999999999], "properties": {"magmom": -0.0}, "label": "Cs", "xyz": [1.1864525000000001, 2.9880939994649998, 7.2926056523039895]}, {"species": [{"element": "Cs", "occu": 1}], "abc": [0.25, 0.151900999999999, 0.184207999999999], "properties": {"magmom": -0.0}, "label": "Cs", "xyz": [1.1864525000000001, 1.3039235005349914, 1.9633741523039894]}, {"species": [{"element": "Cs", "occu": 1}], "abc": [0.75, 0.651901, 0.315791999999999], "properties": {"magmom": -0.0}, "label": "Cs", "xyz": [3.5593575000000004, 5.595941000534999, 3.3658573476959894]}, {"species": [{"element": "Cs", "occu": 1}], "abc": [0.75, 0.848098999999999, 0.815792], "properties": {"magmom": -0.0}, "label": "Cs", "xyz": [3.5593575000000004, 7.280111499464992, 8.695088847695999]}, {"species": [{"element": "Al", "occu": 1}], "abc": [0.25, 0.555626, 0.013235], "properties": {"magmom": -0.0}, "label": "Al", "xyz": [1.1864525000000001, 4.76951303091, 0.141064757805]}, {"species": [{"element": "Al", "occu": 1}], "abc": [0.25, 0.944373999999999, 0.513235], "properties": {"magmom": -0.0}, "label": "Al", "xyz": [1.1864525000000001, 8.106539469089991, 5.470296257805]}, {"species": [{"element": "Al", "occu": 1}], "abc": [0.75, 0.444374, 0.986765], "properties": {"magmom": -0.0}, "label": "Al", "xyz": [3.5593575000000004, 3.81452196909, 10.517398242195]}, {"species": [{"element": "Al", "occu": 1}], "abc": [0.75, 0.055625999999999, 0.486765], "properties": {"magmom": -0.0}, "label": "Al", "xyz": [3.5593575000000004, 0.4774955309099914, 5.1881667421949995]}]}, "task_ids": null, "uncorrected_energy_per_atom": null, "energy_per_atom": -15.649683287715519, "formation_energy_per_atom": 0.27059237728448104, "energy_above_hull": 0.27059237728448104, "is_stable": false, "equilibrium_reaction_energy_per_atom": null, "decomposes_to": null, "xas": null, "grain_boundaries": null, "band_gap": 0.0, "cbm": null, "vbm": null, "efermi": 1.5777566200000002, "is_gap_direct": null, "is_metal": null, "es_source_calc_id": null, "bandstructure": null, "dos": null, "dos_energy_up": null, "dos_energy_down": null, "is_magnetic": null, "ordering": null, "total_magnetization": 0.0003727, "total_magnetization_normalized_vol": null, "total_magnetization_normalized_formula_units": null, "num_magnetic_sites": null, "num_unique_magnetic_sites": null, "types_of_magnetic_species": null, "bulk_modulus": null, "shear_modulus": null, "universal_anisotropy": null, "homogeneous_poisson": null, "e_total": null, "e_ionic": null, "e_electronic": null, "n": null, "e_ij_max": null, "weighted_surface_energy_EV_PER_ANG2": null, "weighted_surface_energy": null, "weighted_work_function": null, "surface_anisotropy": null, "shape_factor": null, "has_reconstructed": null, "possible_species": null, "has_props": null, "theoretical": null, "database_IDs": null, "fields_not_requested": ["builder_meta", "nsites", "elements", "nelements", "composition", "composition_reduced", "chemsys", "symmetry", "property_name", "deprecated", "deprecation_reasons", "last_updated", "origins", "warnings", "task_ids", "uncorrected_energy_per_atom", "equilibrium_reaction_energy_per_atom", "decomposes_to", "xas", "grain_boundaries", "cbm", "vbm", "is_gap_direct", "is_metal", "es_source_calc_id", "bandstructure", "dos", "dos_energy_up", "dos_energy_down", "is_magnetic", "ordering", "total_magnetization_normalized_vol", "total_magnetization_normalized_formula_units", "num_magnetic_sites", "num_unique_magnetic_sites", "types_of_magnetic_species", "bulk_modulus", "shear_modulus", "universal_anisotropy", "homogeneous_poisson", "e_total", "e_ionic", "e_electronic", "n", "e_ij_max", "weighted_surface_energy_EV_PER_ANG2", "weighted_surface_energy", "weighted_work_function", "surface_anisotropy", "shape_factor", "has_reconstructed", "possible_species", "has_props", "theoretical", "database_IDs"]}