{
  "builder_meta": null,
  "nsites": null,
  "elements": null,
  "nelements": null,
  "composition": null,
  "composition_reduced": null,
  "formula_pretty": "CsBi",
  "formula_anonymous": "AB",
  "chemsys": null,
  "volume": 1628.7451587677517,
  "density": 5.5769541143173935,
  "density_atomic": 50.89828621149224,
  "symmetry": null,
  "property_name": null,
  "material_id": "mp-1205121",
  "deprecated": null,
  "deprecation_reasons": null,
  "last_updated": null,
  "origins": null,
  "warnings": null,
  "structure": {
    "@module": "pymatgen.core.structure",
    "@class": "Structure",
    "charge": 0,
    "lattice": {
      "matrix": [
        [0.0, 7.7651905800000005, 0.0],
        [-0.08705053, 0.0, 14.66109538],
        [14.34262298, 0.0, -6.07719056]
      ],
      "pbc": [true, true, true],
      "a": 7.7651905800000005,
      "b": 14.661353809803195,
      "c": 15.577004816362393,
      "alpha": 113.30331338062761,
      "beta": 90.0,
      "gamma": 90.0,
      "volume": 1628.745158767752
    },
    "properties": {},
    "sites": [
      {
        "species": [{ "element": "Cs", "occu": 1 }],
        "abc": [0.371925599999999, 0.6365720300000001, 0.1235009],
        "properties": { "magmom": 0.0 },
        "label": "Cs",
        "xyz": [1.715912913796006, 2.8880731655808405, 8.58230474443872]
      },
      {
        "species": [{ "element": "Cs", "occu": 1 }],
        "abc": [0.8719256, 0.86342797, 0.8764991],
        "properties": { "magmom": 0.0 },
        "label": "Cs",
        "xyz": [12.496134271203994, 6.770668455580848, 7.332147765561284]
      },
      {
        "species": [{ "element": "Cs", "occu": 1 }],
        "abc": [0.628074399999999, 0.36342797, 0.8764991],
        "properties": { "magmom": 0.0 },
        "label": "Cs",
        "xyz": [12.539659536203994, 4.8771174144191445, 0.0016000755612832762]
      },
      {
        "species": [{ "element": "Cs", "occu": 1 }],
        "abc": [0.1280744, 0.13657203, 0.1235009],
        "properties": { "magmom": 0.0 },
        "label": "Cs",
        "xyz": [1.759438178796006, 0.9945221244191521, 1.2517570544387178]
      },
      {
        "species": [{ "element": "Cs", "occu": 1 }],
        "abc": [0.19831731, 0.53002469, 0.39501892],
        "properties": { "magmom": -0.0 },
        "label": "Cs",
        "xyz": [5.619468509349196, 1.5399717074629398, 5.370137282199536]
      },
      {
        "species": [{ "element": "Cs", "occu": 1 }],
        "abc": [0.69831731, 0.96997531, 0.6049810800000001],
        "properties": { "magmom": -0.0 },
        "label": "Cs",
        "xyz": [8.592578675650804, 5.42256699746294, 10.544315227800464]
      },
      {
        "species": [{ "element": "Cs", "occu": 1 }],
        "abc": [0.80168269, 0.46997531000000003, 0.6049810800000001],
        "properties": { "magmom": -0.0 },
        "label": "Cs",
        "xyz": [8.636103940650806, 6.225218872537061, 3.2137675378004635]
      },
      {
        "species": [{ "element": "Cs", "occu": 1 }],
        "abc": [0.30168269000000003, 0.03002469, 0.39501892],
        "properties": { "magmom": -0.0 },
        "label": "Cs",
        "xyz": [5.662993774349196, 2.3426235825370605, -1.9604104078004632]
      },
      {
        "species": [{ "element": "Cs", "occu": 1 }],
        "abc": [0.42267081, 0.68521456, 0.65840456],
        "properties": { "magmom": 0.0 },
        "label": "Cs",
        "xyz": [9.383600081781072, 3.28211939225297, 6.044746043231781]
      },
      {
        "species": [{ "element": "Cs", "occu": 1 }],
        "abc": [0.9226708100000001, 0.81478544, 0.34159544000000003],
        "properties": { "magmom": 0.0 },
        "label": "Cs",
        "xyz": [4.828447103218928, 7.164714682252971, 9.869706466768221]
      },
      {
        "species": [{ "element": "Cs", "occu": 1 }],
        "abc": [0.57732919, 0.31478644, 0.34159544000000003],
        "properties": { "magmom": 0.0 },
        "label": "Cs",
        "xyz": [4.871972281168398, 4.483071187747031, 2.539173437863601]
      },
      {
        "species": [{ "element": "Cs", "occu": 1 }],
        "abc": [0.07732919, 0.18521356, 0.65840456],
        "properties": { "magmom": 0.0 },
        "label": "Cs",
        "xyz": [9.427125433831602, 0.6004758977470303, -1.285816307863601]
      },
      {
        "species": [{ "element": "Cs", "occu": 1 }],
        "abc": [0.13394155, 0.54805824, 0.84942463],
        "properties": { "magmom": -0.0 },
        "label": "Cs",
        "xyz": [12.13526845775313, 1.040081662330599, 2.873018787567439]
      },
      {
        "species": [{ "element": "Cs", "occu": 1 }],
        "abc": [0.63394155, 0.95194176, 0.15057537000000001],
        "properties": { "magmom": -0.0 },
        "label": "Cs",
        "xyz": [2.07677872724687, 4.922676952330599, 13.041433722432561]
      },
      {
        "species": [{ "element": "Cs", "occu": 1 }],
        "abc": [0.86605845, 0.45194176, 0.15057537000000001],
        "properties": { "magmom": -0.0 },
        "label": "Cs",
        "xyz": [2.12030399224687, 6.725108917669401, 5.710886032432562]
      },
      {
        "species": [{ "element": "Cs", "occu": 1 }],
        "abc": [0.36605845000000004, 0.04805824, 0.84942463],
        "properties": { "magmom": -0.0 },
        "label": "Cs",
        "xyz": [12.17879372275313, 2.8425136276694016, -4.4575289024325615]
      },
      {
        "species": [{ "element": "Bi", "occu": 1 }],
        "abc": [0.85085888, 0.68729699, 0.06656091],
        "properties": { "magmom": -0.0 },
        "label": "Bi",
        "xyz": [0.8948284700888071, 6.607081359885351, 9.672023390859897]
      },
      {
        "species": [{ "element": "Bi", "occu": 1 }],
        "abc": [0.35085888, 0.81270301, 0.93343909],
        "properties": { "magmom": -0.0 },
        "label": "Bi",
        "xyz": [13.317218714911192, 2.7244860698853506, 6.242429119140104]
      },
      {
        "species": [{ "element": "Bi", "occu": 1 }],
        "abc": [0.14914112000000002, 0.31270301, 0.93343909],
        "properties": { "magmom": -0.0 },
        "label": "Bi",
        "xyz": [13.360743979911193, 1.15810922011465, -1.088118570859896]
      },
      {
        "species": [{ "element": "Bi", "occu": 1 }],
        "abc": [0.64914112, 0.18729699, 0.06656091],
        "properties": { "magmom": -0.0 },
        "label": "Bi",
        "xyz": [0.938353735088807, 5.04070451011465, 2.3414757008598968]
      },
      {
        "species": [{ "element": "Bi", "occu": 1 }],
        "abc": [0.11386173000000001, 0.85297047, 0.09943551],
        "properties": { "magmom": 0.0 },
        "label": "Bi",
        "xyz": [1.3519144992661707, 0.8841580332185035, 11.901192874292644]
      },
      {
        "species": [{ "element": "Bi", "occu": 1 }],
        "abc": [0.61386173, 0.64702953, 0.90056449],
        "properties": { "magmom": 0.0 },
        "label": "Bi",
        "xyz": [12.86013268573383, 4.766753323218504, 4.013259635707356]
      },
      {
        "species": [{ "element": "Bi", "occu": 1 }],
        "abc": [0.88613827, 0.14702953, 0.90056449],
        "properties": { "magmom": 0.0 },
        "label": "Bi",
        "xyz": [12.90365795073383, 6.881032546781497, -3.3172880542926433]
      },
      {
        "species": [{ "element": "Bi", "occu": 1 }],
        "abc": [0.38613827, 0.35297047, 0.09943551],
        "properties": { "magmom": 0.0 },
        "label": "Bi",
        "xyz": [1.3954397642661707, 2.998437256781497, 4.570645184292642]
      },
      {
        "species": [{ "element": "Bi", "occu": 1 }],
        "abc": [0.43509956, 0.76781049, 0.4030168],
        "properties": { "magmom": 0.0 },
        "label": "Bi",
        "xyz": [5.713479706912005, 3.378631004674145, 8.80773293517313]
      },
      {
        "species": [{ "element": "Bi", "occu": 1 }],
        "abc": [0.93509956, 0.73218951, 0.596983199999999],
        "properties": { "magmom": 0.0 },
        "label": "Bi",
        "xyz": [8.498567478087981, 7.261226294674145, 7.1067195748268785]
      },
      {
        "species": [{ "element": "Bi", "occu": 1 }],
        "abc": [0.5649004400000001, 0.23218951000000002, 0.596983199999999],
        "properties": { "magmom": 0.0 },
        "label": "Bi",
        "xyz": [8.542092743087982, 4.386559575325856, -0.22382811517312184]
      },
      {
        "species": [{ "element": "Bi", "occu": 1 }],
        "abc": [0.06490044, 0.26781049, 0.4030168],
        "properties": { "magmom": 0.0 },
        "label": "Bi",
        "xyz": [5.757004971912004, 0.5039642853258552, 1.4771852451731284]
      },
      {
        "species": [{ "element": "Bi", "occu": 1 }],
        "abc": [0.20270364, 0.87303027, 0.57078795],
        "properties": { "magmom": -0.0 },
        "label": "Bi",
        "xyz": [8.110598620667549, 1.5740323958597113, 9.3307929165954]
      },
      {
        "species": [{ "element": "Bi", "occu": 1 }],
        "abc": [0.70270364, 0.62696973, 0.42921205],
        "properties": { "magmom": -0.0 },
        "label": "Bi",
        "xyz": [6.101448564332452, 5.456627685859711, 6.583659593404599]
      },
      {
        "species": [{ "element": "Bi", "occu": 1 }],
        "abc": [0.79729636, 0.12696973, 0.42921205],
        "properties": { "magmom": -0.0 },
        "label": "Bi",
        "xyz": [6.144973829332453, 6.191158184140289, -0.7468880965954006]
      },
      {
        "species": [{ "element": "Bi", "occu": 1 }],
        "abc": [0.29729636, 0.37303027, 0.57078795],
        "properties": { "magmom": -0.0 },
        "label": "Bi",
        "xyz": [8.154123885667548, 2.3085628941402887, 2.0002452265954007]
      }
    ]
  },
  "task_ids": null,
  "uncorrected_energy_per_atom": null,
  "energy_per_atom": -42.316123761875,
  "formation_energy_per_atom": -0.510760389375001,
  "energy_above_hull": 0.0,
  "is_stable": true,
  "equilibrium_reaction_energy_per_atom": null,
  "decomposes_to": null,
  "xas": null,
  "grain_boundaries": null,
  "band_gap": 0.24520000000000003,
  "cbm": null,
  "vbm": null,
  "efermi": 2.50059723,
  "is_gap_direct": null,
  "is_metal": null,
  "es_source_calc_id": null,
  "bandstructure": null,
  "dos": null,
  "dos_energy_up": null,
  "dos_energy_down": null,
  "is_magnetic": null,
  "ordering": null,
  "total_magnetization": 0.0,
  "total_magnetization_normalized_vol": null,
  "total_magnetization_normalized_formula_units": null,
  "num_magnetic_sites": null,
  "num_unique_magnetic_sites": null,
  "types_of_magnetic_species": null,
  "bulk_modulus": null,
  "shear_modulus": null,
  "universal_anisotropy": null,
  "homogeneous_poisson": null,
  "e_total": null,
  "e_ionic": null,
  "e_electronic": null,
  "n": null,
  "e_ij_max": null,
  "weighted_surface_energy_EV_PER_ANG2": null,
  "weighted_surface_energy": null,
  "weighted_work_function": null,
  "surface_anisotropy": null,
  "shape_factor": null,
  "has_reconstructed": null,
  "possible_species": null,
  "has_props": null,
  "theoretical": null,
  "database_IDs": null,
  "fields_not_requested": [
    "builder_meta",
    "nsites",
    "elements",
    "nelements",
    "composition",
    "composition_reduced",
    "chemsys",
    "symmetry",
    "property_name",
    "deprecated",
    "deprecation_reasons",
    "last_updated",
    "origins",
    "warnings",
    "task_ids",
    "uncorrected_energy_per_atom",
    "equilibrium_reaction_energy_per_atom",
    "decomposes_to",
    "xas",
    "grain_boundaries",
    "cbm",
    "vbm",
    "is_gap_direct",
    "is_metal",
    "es_source_calc_id",
    "bandstructure",
    "dos",
    "dos_energy_up",
    "dos_energy_down",
    "is_magnetic",
    "ordering",
    "total_magnetization_normalized_vol",
    "total_magnetization_normalized_formula_units",
    "num_magnetic_sites",
    "num_unique_magnetic_sites",
    "types_of_magnetic_species",
    "bulk_modulus",
    "shear_modulus",
    "universal_anisotropy",
    "homogeneous_poisson",
    "e_total",
    "e_ionic",
    "e_electronic",
    "n",
    "e_ij_max",
    "weighted_surface_energy_EV_PER_ANG2",
    "weighted_surface_energy",
    "weighted_work_function",
    "surface_anisotropy",
    "shape_factor",
    "has_reconstructed",
    "possible_species",
    "has_props",
    "theoretical",
    "database_IDs"
  ]
}
