{"builder_meta": null, "nsites": null, "elements": null, "nelements": null, "composition": null, "composition_reduced": null, "formula_pretty": "CsBr3", "formula_anonymous": "AB3", "chemsys": null, "volume": 646.5269313550925, "density": 3.8281210311225973, "density_atomic": 40.40793320969328, "symmetry": null, "property_name": null, "material_id": "mp-27641", "deprecated": null, "deprecation_reasons": null, "last_updated": null, "origins": null, "warnings": null, "structure": {"@module": "pymatgen.core.structure", "@class": "Structure", "charge": 0, "lattice": {"matrix": [[6.63864061, 0.0, 0.0], [-0.0, 9.68422586, 0.0], [0.0, 0.0, 10.0564003]], "pbc": [true, true, true], "a": 6.63864061, "b": 9.68422586, "c": 10.0564003, "alpha": 90.0, "beta": 90.0, "gamma": 90.0, "volume": 646.5269313550925}, "properties": {}, "sites": [{"species": [{"element": "Cs", "occu": 1}], "abc": [0.25, 0.45841663, 0.18474431], "properties": {"magmom": 0.0}, "label": "Cs", "xyz": [1.6596601525, 4.439410182900051, 1.857862734507293]}, {"species": [{"element": "Cs", "occu": 1}], "abc": [0.75, 0.54158337, 0.81525569], "properties": {"magmom": 0.0}, "label": "Cs", "xyz": [4.9789804575000005, 5.244815677099949, 8.198537565492707]}, {"species": [{"element": "Cs", "occu": 1}], "abc": [0.75, 0.95841663, 0.31525569000000003], "properties": {"magmom": 0.0}, "label": "Cs", "xyz": [4.9789804575000005, 9.281523112900052, 3.1703374154927073]}, {"species": [{"element": "Cs", "occu": 1}], "abc": [0.25, 0.04158337, 0.68474431], "properties": {"magmom": 0.0}, "label": "Cs", "xyz": [1.6596601525, 0.4027027470999482, 6.886062884507293]}, {"species": [{"element": "Br", "occu": 1}], "abc": [0.25, 0.38332789, 0.82374583], "properties": {"magmom": -0.0}, "label": "Br", "xyz": [1.6596601525, 3.7122338651972355, 8.28391781193575]}, {"species": [{"element": "Br", "occu": 1}], "abc": [0.75, 0.61667211, 0.17625417000000002], "properties": {"magmom": -0.0}, "label": "Br", "xyz": [4.9789804575000005, 5.971991994802765, 1.7724824880642511]}, {"species": [{"element": "Br", "occu": 1}], "abc": [0.75, 0.88332789, 0.67625417], "properties": {"magmom": -0.0}, "label": "Br", "xyz": [4.9789804575000005, 8.554346795197235, 6.80068263806425]}, {"species": [{"element": "Br", "occu": 1}], "abc": [0.25, 0.11667111000000001, 0.32374583], "properties": {"magmom": -0.0}, "label": "Br", "xyz": [1.6596601525, 1.1298693805769047, 3.255717661935749]}, {"species": [{"element": "Br", "occu": 1}], "abc": [0.25, 0.5631104, 0.62486648], "properties": {"magmom": -0.0}, "label": "Br", "xyz": [1.6596601525, 5.453288297714944, 6.283907456931944]}, {"species": [{"element": "Br", "occu": 1}], "abc": [0.75, 0.4368896, 0.37513352], "properties": {"magmom": -0.0}, "label": "Br", "xyz": [4.9789804575000005, 4.230937562285056, 3.772492843068056]}, {"species": [{"element": "Br", "occu": 1}], "abc": [0.75, 0.0631104, 0.87513352], "properties": {"magmom": -0.0}, "label": "Br", "xyz": [4.9789804575000005, 0.611175367714944, 8.800692993068056]}, {"species": [{"element": "Br", "occu": 1}], "abc": [0.25, 0.9368896, 0.12486648], "properties": {"magmom": -0.0}, "label": "Br", "xyz": [1.6596601525, 9.073050492285056, 1.255707306931944]}, {"species": [{"element": "Br", "occu": 1}], "abc": [0.25, 0.73859377, 0.4419954], "properties": {"magmom": 0.0}, "label": "Br", "xyz": [1.6596601525, 7.152708887468893, 4.44488267315862]}, {"species": [{"element": "Br", "occu": 1}], "abc": [0.75, 0.26140623, 0.5580046], "properties": {"magmom": 0.0}, "label": "Br", "xyz": [4.9789804575000005, 2.531516972531108, 5.61151762684138]}, {"species": [{"element": "Br", "occu": 1}], "abc": [0.75, 0.23859377, 0.058004599999999004], "properties": {"magmom": 0.0}, "label": "Br", "xyz": [4.9789804575000005, 2.3105959574688923, 0.58331747684137]}, {"species": [{"element": "Br", "occu": 1}], "abc": [0.25, 0.76140623, 0.941995399999999], "properties": {"magmom": 0.0}, "label": "Br", "xyz": [1.6596601525, 7.373629902531107, 9.47308282315861]}]}, "task_ids": null, "uncorrected_energy_per_atom": null, "energy_per_atom": -2.83357658625, "formation_energy_per_atom": -1.378872292413793, "energy_above_hull": 0.0, "is_stable": true, "equilibrium_reaction_energy_per_atom": null, "decomposes_to": null, "xas": null, "grain_boundaries": null, "band_gap": 1.9977, "cbm": null, "vbm": null, "efermi": -0.9552924500000001, "is_gap_direct": null, "is_metal": null, "es_source_calc_id": null, "bandstructure": null, "dos": null, "dos_energy_up": null, "dos_energy_down": null, "is_magnetic": null, "ordering": null, "total_magnetization": 0.0, "total_magnetization_normalized_vol": null, "total_magnetization_normalized_formula_units": null, "num_magnetic_sites": null, "num_unique_magnetic_sites": null, "types_of_magnetic_species": null, "bulk_modulus": null, "shear_modulus": null, "universal_anisotropy": null, "homogeneous_poisson": null, "e_total": null, "e_ionic": null, "e_electronic": null, "n": null, "e_ij_max": null, "weighted_surface_energy_EV_PER_ANG2": null, "weighted_surface_energy": null, "weighted_work_function": null, "surface_anisotropy": null, "shape_factor": null, "has_reconstructed": null, "possible_species": null, "has_props": null, "theoretical": null, "database_IDs": null, "fields_not_requested": ["builder_meta", "nsites", "elements", "nelements", "composition", "composition_reduced", "chemsys", "symmetry", "property_name", "deprecated", "deprecation_reasons", "last_updated", "origins", "warnings", "task_ids", "uncorrected_energy_per_atom", "equilibrium_reaction_energy_per_atom", "decomposes_to", "xas", "grain_boundaries", "cbm", "vbm", "is_gap_direct", "is_metal", "es_source_calc_id", "bandstructure", "dos", "dos_energy_up", "dos_energy_down", "is_magnetic", "ordering", "total_magnetization_normalized_vol", "total_magnetization_normalized_formula_units", "num_magnetic_sites", "num_unique_magnetic_sites", "types_of_magnetic_species", "bulk_modulus", "shear_modulus", "universal_anisotropy", "homogeneous_poisson", "e_total", "e_ionic", "e_electronic", "n", "e_ij_max", "weighted_surface_energy_EV_PER_ANG2", "weighted_surface_energy", "weighted_work_function", "surface_anisotropy", "shape_factor", "has_reconstructed", "possible_species", "has_props", "theoretical", "database_IDs"]}