{"builder_meta": null, "nsites": null, "elements": null, "nelements": null, "composition": null, "composition_reduced": null, "formula_pretty": "CsC", "formula_anonymous": "AB", "chemsys": null, "volume": 519.4944220183431, "density": 3.705740372362156, "density_atomic": 32.468401376146446, "symmetry": null, "property_name": null, "material_id": "mp-505806", "deprecated": null, "deprecation_reasons": null, "last_updated": null, "origins": null, "warnings": null, "structure": {"@module": "pymatgen.core.structure", "@class": "Structure", "charge": 0, "lattice": {"matrix": [[5.055623, 0.0, 0.0], [0.0, 9.79442, 0.0], [0.0, 0.0, 10.491256]], "pbc": [true, true, true], "a": 5.055623, "b": 9.79442, "c": 10.491256, "alpha": 90.0, "beta": 90.0, "gamma": 90.0, "volume": 519.4944220183431}, "properties": {}, "sites": [{"species": [{"element": "Cs", "occu": 1}], "abc": [0.25, 0.984189, 0.667451], "properties": {"magmom": 0.0}, "label": "Cs", "xyz": [1.26390575, 9.639560425380001, 7.002399308456]}, {"species": [{"element": "Cs", "occu": 1}], "abc": [0.25, 0.484189, 0.832549], "properties": {"magmom": 0.0}, "label": "Cs", "xyz": [1.26390575, 4.74235042538, 8.734484691543999]}, {"species": [{"element": "Cs", "occu": 1}], "abc": [0.75, 0.515811, 0.167451], "properties": {"magmom": 0.0}, "label": "Cs", "xyz": [3.7917172499999996, 5.052069574620001, 1.756771308456]}, {"species": [{"element": "Cs", "occu": 1}], "abc": [0.75, 0.157394999999999, 0.931156], "properties": {"magmom": -0.0}, "label": "Cs", "xyz": [3.7917172499999996, 1.5415927358999904, 9.768995971936]}, {"species": [{"element": "Cs", "occu": 1}], "abc": [0.75, 0.015811, 0.332549], "properties": {"magmom": 0.0}, "label": "Cs", "xyz": [3.7917172499999996, 0.15485957462, 3.4888566915439996]}, {"species": [{"element": "Cs", "occu": 1}], "abc": [0.25, 0.842604999999999, 0.068844], "properties": {"magmom": -0.0}, "label": "Cs", "xyz": [1.26390575, 8.252827264099992, 0.722260028064]}, {"species": [{"element": "Cs", "occu": 1}], "abc": [0.75, 0.657395, 0.568844], "properties": {"magmom": -0.0}, "label": "Cs", "xyz": [3.7917172499999996, 6.4388027358999995, 5.967888028064]}, {"species": [{"element": "Cs", "occu": 1}], "abc": [0.25, 0.342605, 0.431156], "properties": {"magmom": -0.0}, "label": "Cs", "xyz": [1.26390575, 3.3556172641, 4.523367971936]}, {"species": [{"element": "C", "occu": 1}], "abc": [0.75, 0.709959, 0.907377999999999], "properties": {"magmom": -0.0}, "label": "C", "xyz": [3.7917172499999996, 6.953636628780001, 9.519534886767989]}, {"species": [{"element": "C", "occu": 1}], "abc": [0.25, 0.790041, 0.407377999999999], "properties": {"magmom": -0.0}, "label": "C", "xyz": [1.26390575, 7.73799337122, 4.27390688676799]}, {"species": [{"element": "C", "occu": 1}], "abc": [0.25, 0.677568, 0.346956], "properties": {"magmom": -0.0}, "label": "C", "xyz": [1.26390575, 6.63638557056, 3.6400042167359996]}, {"species": [{"element": "C", "occu": 1}], "abc": [0.75, 0.322432, 0.653044], "properties": {"magmom": -0.0}, "label": "C", "xyz": [3.7917172499999996, 3.1580344294400002, 6.851251783264]}, {"species": [{"element": "C", "occu": 1}], "abc": [0.25, 0.177568, 0.15304399999999901], "properties": {"magmom": -0.0}, "label": "C", "xyz": [1.26390575, 1.73917557056, 1.6056237832639897]}, {"species": [{"element": "C", "occu": 1}], "abc": [0.75, 0.822431999999999, 0.846955999999999], "properties": {"magmom": -0.0}, "label": "C", "xyz": [3.7917172499999996, 8.055244429439991, 8.88563221673599]}, {"species": [{"element": "C", "occu": 1}], "abc": [0.25, 0.290041, 0.092622], "properties": {"magmom": -0.0}, "label": "C", "xyz": [1.26390575, 2.84078337122, 0.9717211132319999]}, {"species": [{"element": "C", "occu": 1}], "abc": [0.75, 0.209958999999999, 0.592622], "properties": {"magmom": -0.0}, "label": "C", "xyz": [3.7917172499999996, 2.0564266287799904, 6.217349113231999]}]}, "task_ids": null, "uncorrected_energy_per_atom": null, "energy_per_atom": -4.72183605625, "formation_energy_per_atom": 0.346485475172412, "energy_above_hull": 0.370515541400861, "is_stable": false, "equilibrium_reaction_energy_per_atom": null, "decomposes_to": null, "xas": null, "grain_boundaries": null, "band_gap": 3.105099999999999, "cbm": null, "vbm": null, "efermi": 0.82890675, "is_gap_direct": null, "is_metal": null, "es_source_calc_id": null, "bandstructure": null, "dos": null, "dos_energy_up": null, "dos_energy_down": null, "is_magnetic": null, "ordering": null, "total_magnetization": 0.0, "total_magnetization_normalized_vol": null, "total_magnetization_normalized_formula_units": null, "num_magnetic_sites": null, "num_unique_magnetic_sites": null, "types_of_magnetic_species": null, "bulk_modulus": null, "shear_modulus": null, "universal_anisotropy": null, "homogeneous_poisson": null, "e_total": null, "e_ionic": null, "e_electronic": null, "n": null, "e_ij_max": null, "weighted_surface_energy_EV_PER_ANG2": null, "weighted_surface_energy": null, "weighted_work_function": null, "surface_anisotropy": null, "shape_factor": null, "has_reconstructed": null, "possible_species": null, "has_props": null, "theoretical": null, "database_IDs": null, "fields_not_requested": ["builder_meta", "nsites", "elements", "nelements", "composition", "composition_reduced", "chemsys", "symmetry", "property_name", "deprecated", "deprecation_reasons", "last_updated", "origins", "warnings", "task_ids", "uncorrected_energy_per_atom", "equilibrium_reaction_energy_per_atom", "decomposes_to", "xas", "grain_boundaries", "cbm", "vbm", "is_gap_direct", "is_metal", "es_source_calc_id", "bandstructure", "dos", "dos_energy_up", "dos_energy_down", "is_magnetic", "ordering", "total_magnetization_normalized_vol", "total_magnetization_normalized_formula_units", "num_magnetic_sites", "num_unique_magnetic_sites", "types_of_magnetic_species", "bulk_modulus", "shear_modulus", "universal_anisotropy", "homogeneous_poisson", "e_total", "e_ionic", "e_electronic", "n", "e_ij_max", "weighted_surface_energy_EV_PER_ANG2", "weighted_surface_energy", "weighted_work_function", "surface_anisotropy", "shape_factor", "has_reconstructed", "possible_species", "has_props", "theoretical", "database_IDs"]}