{"builder_meta": null, "nsites": null, "elements": null, "nelements": null, "composition": null, "composition_reduced": null, "formula_pretty": "CsC8", "formula_anonymous": "AB8", "chemsys": null, "volume": 384.57883547192006, "density": 2.966220856500112, "density_atomic": 14.243660573034076, "symmetry": null, "property_name": null, "material_id": "mp-28861", "deprecated": null, "deprecation_reasons": null, "last_updated": null, "origins": null, "warnings": null, "structure": {"@module": "pymatgen.core.structure", "@class": "Structure", "charge": 0, "lattice": {"matrix": [[4.95119725, -0.0, 0.0], [-2.47559813, 4.28786107, -0.0], [-0.0, -0.0, 18.11483765]], "pbc": [true, true, true], "a": 4.95119725, "b": 4.951195679518336, "c": 18.11483765, "alpha": 90.0, "beta": 90.0, "gamma": 120.00000387829132, "volume": 384.57883547192006}, "properties": {}, "sites": [{"species": [{"element": "Cs", "occu": 1}], "abc": [0.0, 0.0, 0.5], "properties": {"magmom": -0.0}, "label": "Cs", "xyz": [0.0, 0.0, 9.057418825]}, {"species": [{"element": "Cs", "occu": 1}], "abc": [0.0, 0.0, 0.833333], "properties": {"magmom": -0.0}, "label": "Cs", "xyz": [0.0, 0.0, 15.095692003387448]}, {"species": [{"element": "Cs", "occu": 1}], "abc": [0.0, 0.0, 0.166666999999999], "properties": {"magmom": -0.0}, "label": "Cs", "xyz": [0.0, 0.0, 3.019145646612532]}, {"species": [{"element": "C", "occu": 1}], "abc": [0.16640529, 0.33297837, 0.33333497], "properties": {"magmom": -0.0}, "label": "C", "xyz": [-0.000415215868995622, 1.427764989875056, 6.03830886461762]}, {"species": [{"element": "C", "occu": 1}], "abc": [0.83342691, 0.16640529, 0.66666797], "properties": {"magmom": -0.0}, "label": "C", "xyz": [3.7145084001218898, 0.7135227648330603, 12.07658204300507]}, {"species": [{"element": "C", "occu": 1}], "abc": [0.33297837, 0.16657309, 9.699999999999996e-07], "properties": {"magmom": -0.0}, "label": "C", "xyz": [1.2362735597411607, 0.7142422679206063, 1.757139252049999e-05]}, {"species": [{"element": "C", "occu": 1}], "abc": [0.66702163, 0.83342691, 9.699999999999996e-07], "properties": {"magmom": -0.0}, "label": "C", "xyz": [1.2393255602588398, 3.5736188020793938, 1.757139252049999e-05]}, {"species": [{"element": "C", "occu": 1}], "abc": [0.16657309, 0.8335947100000001, 0.66666797], "properties": {"magmom": -0.0}, "label": "C", "xyz": [-1.2389092801218897, 3.57433830516694, 12.07658204300507]}, {"species": [{"element": "C", "occu": 1}], "abc": [0.83342691, 0.66702163, 0.66666503], "properties": {"magmom": -0.0}, "label": "C", "xyz": [2.4751835249704452, 2.860096080124944, 12.076528785382378]}, {"species": [{"element": "C", "occu": 1}], "abc": [0.8335947100000001, 0.16657309, -9.699999999999996e-07], "properties": {"magmom": -0.0}, "label": "C", "xyz": [3.714923805654226, 0.7142422679206063, -1.757139252049999e-05]}, {"species": [{"element": "C", "occu": 1}], "abc": [0.8335947100000001, 0.66702163, 0.33333497], "properties": {"magmom": -0.0}, "label": "C", "xyz": [2.476014335868996, 2.860096080124944, 6.03830886461762]}, {"species": [{"element": "C", "occu": 1}], "abc": [0.33297837, 0.16640529, 0.33333203], "properties": {"magmom": -0.0}, "label": "C", "xyz": [1.236688965107375, 0.7135227648330603, 6.038255606994929]}, {"species": [{"element": "C", "occu": 1}], "abc": [0.66702163, 0.8335947100000001, 0.33333203], "properties": {"magmom": -0.0}, "label": "C", "xyz": [1.2389101548926256, 3.57433830516694, 6.038255606994929]}, {"species": [{"element": "C", "occu": 1}], "abc": [0.16657309, 0.33297837, 0.66666503], "properties": {"magmom": -0.0}, "label": "C", "xyz": [0.0004155950295543498, 1.427764989875056, 12.076528785382378]}, {"species": [{"element": "C", "occu": 1}], "abc": [0.16640529, 0.83342691, -9.699999999999996e-07], "properties": {"magmom": -0.0}, "label": "C", "xyz": [-1.2393246856542255, 3.5736188020793938, -1.757139252049999e-05]}, {"species": [{"element": "C", "occu": 1}], "abc": [0.16643268, 0.33286336, 0.0], "properties": {"magmom": -0.0}, "label": "C", "xyz": [5.115964613167101e-06, 1.4272718429733953, 0.0]}, {"species": [{"element": "C", "occu": 1}], "abc": [0.83356732, 0.16643268, 0.333333], "properties": {"magmom": -0.0}, "label": "C", "xyz": [3.7151357910949816, 0.7136402093477676, 6.038273178387449]}, {"species": [{"element": "C", "occu": 1}], "abc": [0.33286336, 0.16643268, 0.666667], "properties": {"magmom": -0.0}, "label": "C", "xyz": [1.2360517212788715, 0.7136402093477676, 12.07656447161255]}, {"species": [{"element": "C", "occu": 1}], "abc": [0.6671366400000001, 0.83356732, 0.666667], "properties": {"magmom": -0.0}, "label": "C", "xyz": [1.2395473987211285, 3.5742208606522325, 12.07656447161255]}, {"species": [{"element": "C", "occu": 1}], "abc": [0.16643268, 0.83356732, 0.333333], "properties": {"magmom": -0.0}, "label": "C", "xyz": [-1.2395366710949816, 3.5742208606522325, 6.038273178387449]}, {"species": [{"element": "C", "occu": 1}], "abc": [0.83356732, 0.6671366400000001, 0.0], "properties": {"magmom": -0.0}, "label": "C", "xyz": [2.4755940040353863, 2.860589227026605, 0.0]}, {"species": [{"element": "C", "occu": 1}], "abc": [0.33339106, 0.66678011, 0.0], "properties": {"magmom": -0.0}, "label": "C", "xyz": [5.306009390748656e-06, 2.8590604759193177, 0.0]}, {"species": [{"element": "C", "occu": 1}], "abc": [0.66660894, 0.33339106, 0.333333], "properties": {"magmom": -0.0}, "label": "C", "xyz": [2.4751700658586975, 1.4295345472600343, 6.038273178387449]}, {"species": [{"element": "C", "occu": 1}], "abc": [0.66678011, 0.33339106, 0.666667], "properties": {"magmom": -0.0}, "label": "C", "xyz": [2.47601756229198, 1.4295345472600343, 12.07656447161255]}, {"species": [{"element": "C", "occu": 1}], "abc": [0.33321989, 0.66660894, 0.666667], "properties": {"magmom": -0.0}, "label": "C", "xyz": [-0.00041844229197973704, 2.858326522739966, 12.07656447161255]}, {"species": [{"element": "C", "occu": 1}], "abc": [0.33339106, 0.66660894, 0.333333], "properties": {"magmom": -0.0}, "label": "C", "xyz": [0.0004290541413027871, 2.858326522739966, 6.038273178387449]}, {"species": [{"element": "C", "occu": 1}], "abc": [0.66660894, 0.33321989, 0.0], "properties": {"magmom": -0.0}, "label": "C", "xyz": [2.4755938139906095, 1.4288005940806823, 0.0]}]}, "task_ids": null, "uncorrected_energy_per_atom": null, "energy_per_atom": -8.34686473, "formation_energy_per_atom": -0.04272011773946301, "energy_above_hull": 0.0, "is_stable": true, "equilibrium_reaction_energy_per_atom": null, "decomposes_to": null, "xas": null, "grain_boundaries": null, "band_gap": 0.0, "cbm": null, "vbm": null, "efermi": 4.31819688, "is_gap_direct": null, "is_metal": null, "es_source_calc_id": null, "bandstructure": null, "dos": null, "dos_energy_up": null, "dos_energy_down": null, "is_magnetic": null, "ordering": null, "total_magnetization": 0.003727599999999, "total_magnetization_normalized_vol": null, "total_magnetization_normalized_formula_units": null, "num_magnetic_sites": null, "num_unique_magnetic_sites": null, "types_of_magnetic_species": null, "bulk_modulus": null, "shear_modulus": null, "universal_anisotropy": null, "homogeneous_poisson": null, "e_total": null, "e_ionic": null, "e_electronic": null, "n": null, "e_ij_max": null, "weighted_surface_energy_EV_PER_ANG2": null, "weighted_surface_energy": null, "weighted_work_function": null, "surface_anisotropy": null, "shape_factor": null, "has_reconstructed": null, "possible_species": null, "has_props": null, "theoretical": null, "database_IDs": null, "fields_not_requested": ["builder_meta", "nsites", "elements", "nelements", "composition", "composition_reduced", "chemsys", "symmetry", "property_name", "deprecated", "deprecation_reasons", "last_updated", "origins", "warnings", "task_ids", "uncorrected_energy_per_atom", "equilibrium_reaction_energy_per_atom", "decomposes_to", "xas", "grain_boundaries", "cbm", "vbm", "is_gap_direct", "is_metal", "es_source_calc_id", "bandstructure", "dos", "dos_energy_up", "dos_energy_down", "is_magnetic", "ordering", "total_magnetization_normalized_vol", "total_magnetization_normalized_formula_units", "num_magnetic_sites", "num_unique_magnetic_sites", "types_of_magnetic_species", "bulk_modulus", "shear_modulus", "universal_anisotropy", "homogeneous_poisson", "e_total", "e_ionic", "e_electronic", "n", "e_ij_max", "weighted_surface_energy_EV_PER_ANG2", "weighted_surface_energy", "weighted_work_function", "surface_anisotropy", "shape_factor", "has_reconstructed", "possible_species", "has_props", "theoretical", "database_IDs"]}