{"builder_meta": null, "nsites": null, "elements": null, "nelements": null, "composition": null, "composition_reduced": null, "formula_pretty": "CsCe", "formula_anonymous": "AB", "chemsys": null, "volume": 90.55441537949639, "density": 5.006523260073462, "density_atomic": 45.277207689748195, "symmetry": null, "property_name": null, "material_id": "mp-1185567", "deprecated": null, "deprecation_reasons": null, "last_updated": null, "origins": null, "warnings": null, "structure": {"@module": "pymatgen.core.structure", "@class": "Structure", "charge": 0, "lattice": {"matrix": [[3.760542, -0.020891999999999, 0.014112999999999001], [-1.898327, 3.202835, -0.015882], [0.027433, -0.020065, 7.543382]], "pbc": [true, true, true], "a": 3.760626515116464, "b": 3.723177362694128, "c": 7.543458568298629, "alpha": 90.4817519966335, "beta": 89.57576956817962, "gamma": 120.974133788647, "volume": 90.5544153794964}, "properties": {}, "sites": [{"species": [{"element": "Cs", "occu": 1}], "abc": [0.333385, 0.666503, 0.249967], "properties": {"magmom": 0.018000000000000002}, "label": "Cs", "xyz": [-0.0046750010999999335, 2.12271846873, 1.8797162302529995]}, {"species": [{"element": "Ce", "occu": 1}], "abc": [0.666617999999999, 0.333499, 0.750033], "properties": {"magmom": 1.123}, "label": "Ce", "xyz": [1.8943304860719965, 1.0391658742640006, 5.661896780321999]}]}, "task_ids": null, "uncorrected_energy_per_atom": null, "energy_per_atom": -27.137564101465518, "formation_energy_per_atom": 0.836976778534481, "energy_above_hull": 0.836976778534481, "is_stable": false, "equilibrium_reaction_energy_per_atom": null, "decomposes_to": null, "xas": null, "grain_boundaries": null, "band_gap": 0.0, "cbm": null, "vbm": null, "efermi": 4.35721261, "is_gap_direct": null, "is_metal": null, "es_source_calc_id": null, "bandstructure": null, "dos": null, "dos_energy_up": null, "dos_energy_down": null, "is_magnetic": null, "ordering": null, "total_magnetization": 1.550057, "total_magnetization_normalized_vol": null, "total_magnetization_normalized_formula_units": null, "num_magnetic_sites": null, "num_unique_magnetic_sites": null, "types_of_magnetic_species": null, "bulk_modulus": null, "shear_modulus": null, "universal_anisotropy": null, "homogeneous_poisson": null, "e_total": null, "e_ionic": null, "e_electronic": null, "n": null, "e_ij_max": null, "weighted_surface_energy_EV_PER_ANG2": null, "weighted_surface_energy": null, "weighted_work_function": null, "surface_anisotropy": null, "shape_factor": null, "has_reconstructed": null, "possible_species": null, "has_props": null, "theoretical": null, "database_IDs": null, "fields_not_requested": ["builder_meta", "nsites", "elements", "nelements", "composition", "composition_reduced", "chemsys", "symmetry", "property_name", "deprecated", "deprecation_reasons", "last_updated", "origins", "warnings", "task_ids", "uncorrected_energy_per_atom", "equilibrium_reaction_energy_per_atom", "decomposes_to", "xas", "grain_boundaries", "cbm", "vbm", "is_gap_direct", "is_metal", "es_source_calc_id", "bandstructure", "dos", "dos_energy_up", "dos_energy_down", "is_magnetic", "ordering", "total_magnetization_normalized_vol", "total_magnetization_normalized_formula_units", "num_magnetic_sites", "num_unique_magnetic_sites", "types_of_magnetic_species", "bulk_modulus", "shear_modulus", "universal_anisotropy", "homogeneous_poisson", "e_total", "e_ionic", "e_electronic", "n", "e_ij_max", "weighted_surface_energy_EV_PER_ANG2", "weighted_surface_energy", "weighted_work_function", "surface_anisotropy", "shape_factor", "has_reconstructed", "possible_species", "has_props", "theoretical", "database_IDs"]}