{"builder_meta": null, "nsites": null, "elements": null, "nelements": null, "composition": null, "composition_reduced": null, "formula_pretty": "CsGa7", "formula_anonymous": "AB7", "chemsys": null, "volume": 368.71092023926684, "density": 5.593211352453595, "density_atomic": 23.044432514954178, "symmetry": null, "property_name": null, "material_id": "mp-30574", "deprecated": null, "deprecation_reasons": null, "last_updated": null, "origins": null, "warnings": null, "structure": {"@module": "pymatgen.core.structure", "@class": "Structure", "charge": 0, "lattice": {"matrix": [[6.2780769, -0.01107705, 8.27629855], [2.77596694, 5.63101946, 8.27629855], [-0.01784565, -0.01107705, 10.38802315]], "pbc": [true, true, true], "a": 10.38804553090149, "b": 10.388045547628474, "c": 10.388044384444868, "alpha": 37.28094104287806, "beta": 37.28094060916144, "gamma": 37.280940924915825, "volume": 368.71092023926684}, "properties": {}, "sites": [{"species": [{"element": "Cs", "occu": 1}], "abc": [0.19367175, 0.19367175, 0.19367175], "properties": {"magmom": 0.0}, "label": "Cs", "xyz": [1.7500563168041325, 1.0862787697855802, 5.2176370699029375]}, {"species": [{"element": "Cs", "occu": 1}], "abc": [0.80632825, 0.80632825, 0.80632825], "properties": {"magmom": 0.0}, "label": "Cs", "xyz": [7.286141873195867, 4.522586590214419, 21.72298318009706]}, {"species": [{"element": "Ga", "occu": 1}], "abc": [0.7850694300000001, 0.7850694300000001, 0.20350559000000001], "properties": {"magmom": -0.0}, "label": "Ga", "xyz": [7.104421347131628, 4.409790742855817, 15.108958750391063]}, {"species": [{"element": "Ga", "occu": 1}], "abc": [0.7850694300000001, 0.20350559000000001, 0.7850694300000001], "properties": {"magmom": -0.0}, "label": "Ga", "xyz": [5.479640969050883, 1.1285514308496183, 16.337061417789528]}, {"species": [{"element": "Ga", "occu": 1}], "abc": [0.45502969, 0.45502969, 0.45502969], "properties": {"magmom": -0.0}, "label": "Ga", "xyz": [4.111738461174261, 2.5522002660125382, 12.258782080765222]}, {"species": [{"element": "Ga", "occu": 1}], "abc": [0.54497031, 0.54497031, 0.54497031], "properties": {"magmom": -0.0}, "label": "Ga", "xyz": [4.924459728825739, 3.0566650939874616, 14.681838169234776]}, {"species": [{"element": "Ga", "occu": 1}], "abc": [0.81795983, 0.41925332, 0.81795983], "properties": {"magmom": 0.0}, "label": "Ga", "xyz": [6.2844510448159285, 2.342702439719804, 18.736531049195996]}, {"species": [{"element": "Ga", "occu": 1}], "abc": [0.81795983, 0.81795983, 0.41925332], "properties": {"magmom": 0.0}, "label": "Ga", "xyz": [7.3983623121688895, 4.592243048305085, 17.89457270384885]}, {"species": [{"element": "Ga", "occu": 1}], "abc": [0.41925332, 0.81795983, 0.81795983], "properties": {"magmom": 0.0}, "label": "Ga", "xyz": [4.8881370050280895, 4.592243048305085, 18.736531049195996]}, {"species": [{"element": "Ga", "occu": 1}], "abc": [0.58074668, 0.18204017, 0.18204017], "properties": {"magmom": 0.0}, "label": "Ga", "xyz": [4.148061184971911, 1.0166223116949158, 8.204089200804003]}, {"species": [{"element": "Ga", "occu": 1}], "abc": [0.18204017, 0.58074668, 0.18204017], "properties": {"magmom": 0.0}, "label": "Ga", "xyz": [2.751747145184072, 3.2661629202801956, 8.204089200804003]}, {"species": [{"element": "Ga", "occu": 1}], "abc": [0.18204017, 0.18204017, 0.58074668], "properties": {"magmom": 0.0}, "label": "Ga", "xyz": [1.6378358778311108, 1.0166223116949158, 9.046047546151149]}, {"species": [{"element": "Ga", "occu": 1}], "abc": [0.21493057000000002, 0.79649441, 0.21493057000000002], "properties": {"magmom": -0.0}, "label": "Ga", "xyz": [3.556557220949118, 4.480313929150382, 10.603558832210474]}, {"species": [{"element": "Ga", "occu": 1}], "abc": [0.21493057000000002, 0.21493057000000002, 0.79649441], "properties": {"magmom": -0.0}, "label": "Ga", "xyz": [1.9317768428683726, 1.1990746171441833, 11.83166149960894]}, {"species": [{"element": "Ga", "occu": 1}], "abc": [0.79649441, 0.21493057000000002, 0.21493057000000002], "properties": {"magmom": -0.0}, "label": "Ga", "xyz": [5.593257737388965, 1.1990746171441833, 10.603558832210474]}, {"species": [{"element": "Ga", "occu": 1}], "abc": [0.20350559000000001, 0.7850694300000001, 0.7850694300000001], "properties": {"magmom": -0.0}, "label": "Ga", "xyz": [3.442940452611036, 4.409790742855817, 16.337061417789528]}]}, "task_ids": null, "uncorrected_energy_per_atom": null, "energy_per_atom": -13.305472285625, "formation_energy_per_atom": -0.154486704374999, "energy_above_hull": 0.0, "is_stable": true, "equilibrium_reaction_energy_per_atom": null, "decomposes_to": null, "xas": null, "grain_boundaries": null, "band_gap": 0.0, "cbm": null, "vbm": null, "efermi": 2.94058566, "is_gap_direct": null, "is_metal": null, "es_source_calc_id": null, "bandstructure": null, "dos": null, "dos_energy_up": null, "dos_energy_down": null, "is_magnetic": null, "ordering": null, "total_magnetization": 2e-07, "total_magnetization_normalized_vol": null, "total_magnetization_normalized_formula_units": null, "num_magnetic_sites": null, "num_unique_magnetic_sites": null, "types_of_magnetic_species": null, "bulk_modulus": null, "shear_modulus": null, "universal_anisotropy": null, "homogeneous_poisson": null, "e_total": null, "e_ionic": null, "e_electronic": null, "n": null, "e_ij_max": null, "weighted_surface_energy_EV_PER_ANG2": null, "weighted_surface_energy": null, "weighted_work_function": null, "surface_anisotropy": null, "shape_factor": null, "has_reconstructed": null, "possible_species": null, "has_props": null, "theoretical": null, "database_IDs": null, "fields_not_requested": ["builder_meta", "nsites", "elements", "nelements", "composition", "composition_reduced", "chemsys", "symmetry", "property_name", "deprecated", "deprecation_reasons", "last_updated", "origins", "warnings", "task_ids", "uncorrected_energy_per_atom", "equilibrium_reaction_energy_per_atom", "decomposes_to", "xas", "grain_boundaries", "cbm", "vbm", "is_gap_direct", "is_metal", "es_source_calc_id", "bandstructure", "dos", "dos_energy_up", "dos_energy_down", "is_magnetic", "ordering", "total_magnetization_normalized_vol", "total_magnetization_normalized_formula_units", "num_magnetic_sites", "num_unique_magnetic_sites", "types_of_magnetic_species", "bulk_modulus", "shear_modulus", "universal_anisotropy", "homogeneous_poisson", "e_total", "e_ionic", "e_electronic", "n", "e_ij_max", "weighted_surface_energy_EV_PER_ANG2", "weighted_surface_energy", "weighted_work_function", "surface_anisotropy", "shape_factor", "has_reconstructed", "possible_species", "has_props", "theoretical", "database_IDs"]}