{
  "builder_meta": null,
  "nsites": null,
  "elements": null,
  "nelements": null,
  "composition": null,
  "composition_reduced": null,
  "formula_pretty": "CsGa3",
  "formula_anonymous": "AB3",
  "chemsys": null,
  "volume": 312.8256352287924,
  "density": 5.4473923530943225,
  "density_atomic": 26.068802935732702,
  "symmetry": null,
  "property_name": null,
  "material_id": "mp-574338",
  "deprecated": null,
  "deprecation_reasons": null,
  "last_updated": null,
  "origins": null,
  "warnings": null,
  "structure": {
    "@module": "pymatgen.core.structure",
    "@class": "Structure",
    "charge": 0,
    "lattice": {
      "matrix": [
        [5.99727646, 0.0, -2.24591616],
        [-0.8410712300000001, 5.93800772, -2.24591616],
        [-0.09767963, -0.11249019, 8.86940075]
      ],
      "pbc": [true, true, true],
      "a": 6.404019389057101,
      "b": 6.404020291540499,
      "c": 8.870651893579396,
      "alpha": 111.15958266085727,
      "beta": 111.1595854136018,
      "gamma": 89.99999621550297,
      "volume": 312.82563522879246
    },
    "properties": {},
    "sites": [
      {
        "species": [{ "element": "Cs", "occu": 1 }],
        "abc": [0.0, -0.0, -0.0],
        "properties": { "magmom": 0.0 },
        "label": "Cs",
        "xyz": [0.0, 0.0, 0.0]
      },
      {
        "species": [{ "element": "Cs", "occu": 1 }],
        "abc": [0.12780539, 0.62780539, 0.25560978],
        "properties": { "magmom": 0.0 },
        "label": "Cs",
        "xyz": [0.2134873366054082, 3.6991596597595526, 0.5700671129671302]
      },
      {
        "species": [{ "element": "Cs", "occu": 1 }],
        "abc": [0.37219461, 0.87219461, 0.74439022],
        "properties": { "magmom": 0.0 },
        "label": "Cs",
        "xyz": [1.4258644183945919, 5.095361730240447, 3.80750131703287]
      },
      {
        "species": [{ "element": "Ga", "occu": 1 }],
        "abc": [0.7748395100000001, 0.56534469, 0.54968001],
        "properties": { "magmom": 0.0 },
        "label": "Ga",
        "xyz": [4.117739059813471, 3.295187524916905, 1.8653909407973357]
      },
      {
        "species": [{ "element": "Ga", "occu": 1 }],
        "abc": [0.08138704000000001, 0.38907818, 0.77815436],
        "properties": { "magmom": -0.0 },
        "label": "Ga",
        "xyz": [0.08484828575463026, 2.2228145047178214, 5.845137423883815]
      },
      {
        "species": [{ "element": "Ga", "occu": 1 }],
        "abc": [0.69676933, 0.38907818, 0.77815436],
        "properties": { "magmom": -0.0 },
        "label": "Ga",
        "xyz": [3.7754660074725233, 2.2228145047178214, 4.463040394195009]
      },
      {
        "species": [{ "element": "Ga", "occu": 1 }],
        "abc": [0.7748395100000001, 0.98433432, 0.54968001],
        "properties": { "magmom": 0.0 },
        "label": "Ga",
        "xyz": [3.765338936352125, 5.783151182456848, 0.9243753599079145]
      },
      {
        "species": [{ "element": "Ga", "occu": 1 }],
        "abc": [0.01566568, 0.22516049, 0.45031999],
        "properties": { "magmom": 0.0 },
        "label": "Ga",
        "xyz": [-0.1394116863826136, 1.2863481466230846, 3.453193070092085]
      },
      {
        "species": [{ "element": "Ga", "occu": 1 }],
        "abc": [0.43465531, 0.22516049, 0.45031999],
        "properties": { "magmom": 0.0 },
        "label": "Ga",
        "xyz": [2.3733849586004965, 1.2863481466230846, 2.5121774892026645]
      },
      {
        "species": [{ "element": "Ga", "occu": 1 }],
        "abc": [0.6109218200000001, 0.30323067, 0.22184564],
        "properties": { "magmom": -0.0 },
        "label": "Ga",
        "xyz": [3.3871586573634205, 1.7756306012065006, -0.08547196419500858]
      },
      {
        "species": [{ "element": "Ga", "occu": 1 }],
        "abc": [0.6109218200000001, 0.91861296, 0.22184564],
        "properties": { "magmom": -0.0 },
        "label": "Ga",
        "xyz": [2.8695783177929037, 5.42977538997778, -1.4675689938838155]
      },
      {
        "species": [{ "element": "Ga", "occu": 1 }],
        "abc": [0.5, 0.5, -0.0],
        "properties": { "magmom": -0.0 },
        "label": "Ga",
        "xyz": [2.578102615, 2.96900386, -2.24591616]
      }
    ]
  },
  "task_ids": null,
  "uncorrected_energy_per_atom": null,
  "energy_per_atom": -15.074283145833334,
  "formation_energy_per_atom": -0.215087933333334,
  "energy_above_hull": 0.0,
  "is_stable": true,
  "equilibrium_reaction_energy_per_atom": null,
  "decomposes_to": null,
  "xas": null,
  "grain_boundaries": null,
  "band_gap": 0.0,
  "cbm": null,
  "vbm": null,
  "efermi": 2.87924783,
  "is_gap_direct": null,
  "is_metal": null,
  "es_source_calc_id": null,
  "bandstructure": null,
  "dos": null,
  "dos_energy_up": null,
  "dos_energy_down": null,
  "is_magnetic": null,
  "ordering": null,
  "total_magnetization": 0.0,
  "total_magnetization_normalized_vol": null,
  "total_magnetization_normalized_formula_units": null,
  "num_magnetic_sites": null,
  "num_unique_magnetic_sites": null,
  "types_of_magnetic_species": null,
  "bulk_modulus": null,
  "shear_modulus": null,
  "universal_anisotropy": null,
  "homogeneous_poisson": null,
  "e_total": null,
  "e_ionic": null,
  "e_electronic": null,
  "n": null,
  "e_ij_max": null,
  "weighted_surface_energy_EV_PER_ANG2": null,
  "weighted_surface_energy": null,
  "weighted_work_function": null,
  "surface_anisotropy": null,
  "shape_factor": null,
  "has_reconstructed": null,
  "possible_species": null,
  "has_props": null,
  "theoretical": null,
  "database_IDs": null,
  "fields_not_requested": [
    "builder_meta",
    "nsites",
    "elements",
    "nelements",
    "composition",
    "composition_reduced",
    "chemsys",
    "symmetry",
    "property_name",
    "deprecated",
    "deprecation_reasons",
    "last_updated",
    "origins",
    "warnings",
    "task_ids",
    "uncorrected_energy_per_atom",
    "equilibrium_reaction_energy_per_atom",
    "decomposes_to",
    "xas",
    "grain_boundaries",
    "cbm",
    "vbm",
    "is_gap_direct",
    "is_metal",
    "es_source_calc_id",
    "bandstructure",
    "dos",
    "dos_energy_up",
    "dos_energy_down",
    "is_magnetic",
    "ordering",
    "total_magnetization_normalized_vol",
    "total_magnetization_normalized_formula_units",
    "num_magnetic_sites",
    "num_unique_magnetic_sites",
    "types_of_magnetic_species",
    "bulk_modulus",
    "shear_modulus",
    "universal_anisotropy",
    "homogeneous_poisson",
    "e_total",
    "e_ionic",
    "e_electronic",
    "n",
    "e_ij_max",
    "weighted_surface_energy_EV_PER_ANG2",
    "weighted_surface_energy",
    "weighted_work_function",
    "surface_anisotropy",
    "shape_factor",
    "has_reconstructed",
    "possible_species",
    "has_props",
    "theoretical",
    "database_IDs"
  ]
}
