{"builder_meta": null, "nsites": null, "elements": null, "nelements": null, "composition": null, "composition_reduced": null, "formula_pretty": "CsH3", "formula_anonymous": "AB3", "chemsys": null, "volume": 137.39686542007, "density": 3.2856043053726403, "density_atomic": 17.17460817750875, "symmetry": null, "property_name": null, "material_id": "mp-1006815", "deprecated": null, "deprecation_reasons": null, "last_updated": null, "origins": null, "warnings": null, "structure": {"@module": "pymatgen.core.structure", "@class": "Structure", "charge": 0, "lattice": {"matrix": [[4.342309, -3.174167, 0.0], [4.342309, 3.174167, 0.0], [2.022037, 0.0, 4.98421]], "pbc": [true, true, true], "a": 5.378752977723554, "b": 5.378752977723554, "c": 5.378752918053496, "alpha": 72.33256400766898, "beta": 72.33256400766898, "gamma": 72.3325603771084, "volume": 137.39686542007}, "properties": {}, "sites": [{"species": [{"element": "Cs", "occu": 1}], "abc": [0.0, 0.0, 0.0], "properties": {"magmom": 0.0}, "label": "Cs", "xyz": [0.0, 0.0, 0.0]}, {"species": [{"element": "Cs", "occu": 1}], "abc": [0.5, 0.5, 0.5], "properties": {"magmom": 0.0}, "label": "Cs", "xyz": [5.353327500000001, 0.0, 2.492105]}, {"species": [{"element": "H", "occu": 1}], "abc": [0.25, 0.137165999999999, 0.362834], "properties": {"magmom": -0.0}, "label": "H", "xyz": [2.414858179151996, -0.35815395927800314, 1.8084408511399999]}, {"species": [{"element": "H", "occu": 1}], "abc": [0.362834, 0.25, 0.137165999999999], "properties": {"magmom": -0.0}, "label": "H", "xyz": [2.9384693208479984, -0.358153959278, 0.683664148859995]}, {"species": [{"element": "H", "occu": 1}], "abc": [0.862834, 0.637166, 0.75], "properties": {"magmom": -0.0}, "label": "H", "xyz": [8.02999125, -0.7163079185560002, 3.7381575]}, {"species": [{"element": "H", "occu": 1}], "abc": [0.637166, 0.75, 0.862834], "properties": {"magmom": -0.0}, "label": "H", "xyz": [7.768185679152001, 0.35815395927799987, 4.30054585114]}, {"species": [{"element": "H", "occu": 1}], "abc": [0.75, 0.862834, 0.637166], "properties": {"magmom": -0.0}, "label": "H", "xyz": [8.291796820847999, 0.3581539592780003, 3.17576914886]}, {"species": [{"element": "H", "occu": 1}], "abc": [0.137165999999999, 0.362834, 0.25], "properties": {"magmom": -0.0}, "label": "H", "xyz": [2.676663749999996, 0.7163079185560031, 1.2460525]}]}, "task_ids": null, "uncorrected_energy_per_atom": null, "energy_per_atom": -8.086248105624998, "formation_energy_per_atom": 0.7821994453125011, "energy_above_hull": 0.9059982225000011, "is_stable": false, "equilibrium_reaction_energy_per_atom": null, "decomposes_to": null, "xas": null, "grain_boundaries": null, "band_gap": 0.0, "cbm": null, "vbm": null, "efermi": 1.62087526, "is_gap_direct": null, "is_metal": null, "es_source_calc_id": null, "bandstructure": null, "dos": null, "dos_energy_up": null, "dos_energy_down": null, "is_magnetic": null, "ordering": null, "total_magnetization": 0.0008730999999990001, "total_magnetization_normalized_vol": null, "total_magnetization_normalized_formula_units": null, "num_magnetic_sites": null, "num_unique_magnetic_sites": null, "types_of_magnetic_species": null, "bulk_modulus": null, "shear_modulus": null, "universal_anisotropy": null, "homogeneous_poisson": null, "e_total": null, "e_ionic": null, "e_electronic": null, "n": null, "e_ij_max": null, "weighted_surface_energy_EV_PER_ANG2": null, "weighted_surface_energy": null, "weighted_work_function": null, "surface_anisotropy": null, "shape_factor": null, "has_reconstructed": null, "possible_species": null, "has_props": null, "theoretical": null, "database_IDs": null, "fields_not_requested": ["builder_meta", "nsites", "elements", "nelements", "composition", "composition_reduced", "chemsys", "symmetry", "property_name", "deprecated", "deprecation_reasons", "last_updated", "origins", "warnings", "task_ids", "uncorrected_energy_per_atom", "equilibrium_reaction_energy_per_atom", "decomposes_to", "xas", "grain_boundaries", "cbm", "vbm", "is_gap_direct", "is_metal", "es_source_calc_id", "bandstructure", "dos", "dos_energy_up", "dos_energy_down", "is_magnetic", "ordering", "total_magnetization_normalized_vol", "total_magnetization_normalized_formula_units", "num_magnetic_sites", "num_unique_magnetic_sites", "types_of_magnetic_species", "bulk_modulus", "shear_modulus", "universal_anisotropy", "homogeneous_poisson", "e_total", "e_ionic", "e_electronic", "n", "e_ij_max", "weighted_surface_energy_EV_PER_ANG2", "weighted_surface_energy", "weighted_work_function", "surface_anisotropy", "shape_factor", "has_reconstructed", "possible_species", "has_props", "theoretical", "database_IDs"]}