{
  "builder_meta": null,
  "nsites": null,
  "elements": null,
  "nelements": null,
  "composition": null,
  "composition_reduced": null,
  "formula_pretty": "CsHg2",
  "formula_anonymous": "AB2",
  "chemsys": null,
  "volume": 233.79513901956133,
  "density": 7.586725382758808,
  "density_atomic": 38.96585650326022,
  "symmetry": null,
  "property_name": null,
  "material_id": "mp-574379",
  "deprecated": null,
  "deprecation_reasons": null,
  "last_updated": null,
  "origins": null,
  "warnings": null,
  "structure": {
    "@module": "pymatgen.core.structure",
    "@class": "Structure",
    "charge": 0,
    "lattice": {
      "matrix": [
        [5.06482681, -1e-8, 2.20682492],
        [2.38589164, 6.50352987, 1.4396897100000001],
        [-0.06916699, 0.10734316, 7.07423396]
      ],
      "pbc": [true, true, true],
      "a": 5.524721426717168,
      "b": 7.0753859363913145,
      "c": 7.075386402686551,
      "alpha": 77.63761154732448,
      "beta": 67.0194612445613,
      "gamma": 67.01946912962278,
      "volume": 233.79513901956133
    },
    "properties": {},
    "sites": [
      {
        "species": [{ "element": "Cs", "occu": 1 }],
        "abc": [0.9414226800000001, 0.30857632, 0.30857632],
        "properties": { "magmom": -0.0 },
        "label": "Cs",
        "xyz": [5.483029196156338, 2.039958862170423, 4.70475026532668]
      },
      {
        "species": [{ "element": "Cs", "occu": 1 }],
        "abc": [0.05857632, 0.6914226800000001, 0.6914226800000001],
        "properties": { "magmom": -0.0 },
        "label": "Cs",
        "xyz": [1.8985148822922013, 4.570907546956557, 6.01598760392473]
      },
      {
        "species": [{ "element": "Hg", "occu": 1 }],
        "abc": [0.66670352, 0.903988799999999, 0.26260117],
        "properties": { "magmom": -0.0 },
        "label": "Hg",
        "xyz": [5.515393850491622, 5.907306595685912, 4.630463430252698]
      },
      {
        "species": [{ "element": "Hg", "occu": 1 }],
        "abc": [0.33329648, 0.096011199999999, 0.7373988300000001],
        "properties": { "magmom": -0.0 },
        "label": "Hg",
        "xyz": [1.8661576095083725, 0.7035664243140756, 6.0902851597473]
      },
      {
        "species": [{ "element": "Hg", "occu": 1 }],
        "abc": [0.66670352, 0.26260117, 0.903988799999999],
        "properties": { "magmom": -0.0 },
        "label": "Hg",
        "xyz": [3.940749614284878, 1.8048715607215207, 8.24439041289032]
      },
      {
        "species": [{ "element": "Hg", "occu": 1 }],
        "abc": [0.33329648, 0.7373988300000001, 0.096011199999999],
        "properties": { "magmom": -0.0 },
        "label": "Hg",
        "xyz": [3.4408018457151224, 4.806001459278479, 2.4763581771096663]
      }
    ]
  },
  "task_ids": null,
  "uncorrected_energy_per_atom": null,
  "energy_per_atom": -0.75790550166667,
  "formation_energy_per_atom": -0.24879828655173203,
  "energy_above_hull": 0.0,
  "is_stable": true,
  "equilibrium_reaction_energy_per_atom": null,
  "decomposes_to": null,
  "xas": null,
  "grain_boundaries": null,
  "band_gap": 0.0,
  "cbm": null,
  "vbm": null,
  "efermi": 1.87810816,
  "is_gap_direct": null,
  "is_metal": null,
  "es_source_calc_id": null,
  "bandstructure": null,
  "dos": null,
  "dos_energy_up": null,
  "dos_energy_down": null,
  "is_magnetic": null,
  "ordering": null,
  "total_magnetization": 1e-7,
  "total_magnetization_normalized_vol": null,
  "total_magnetization_normalized_formula_units": null,
  "num_magnetic_sites": null,
  "num_unique_magnetic_sites": null,
  "types_of_magnetic_species": null,
  "bulk_modulus": null,
  "shear_modulus": null,
  "universal_anisotropy": null,
  "homogeneous_poisson": null,
  "e_total": null,
  "e_ionic": null,
  "e_electronic": null,
  "n": null,
  "e_ij_max": null,
  "weighted_surface_energy_EV_PER_ANG2": null,
  "weighted_surface_energy": null,
  "weighted_work_function": null,
  "surface_anisotropy": null,
  "shape_factor": null,
  "has_reconstructed": null,
  "possible_species": null,
  "has_props": null,
  "theoretical": null,
  "database_IDs": null,
  "fields_not_requested": [
    "builder_meta",
    "nsites",
    "elements",
    "nelements",
    "composition",
    "composition_reduced",
    "chemsys",
    "symmetry",
    "property_name",
    "deprecated",
    "deprecation_reasons",
    "last_updated",
    "origins",
    "warnings",
    "task_ids",
    "uncorrected_energy_per_atom",
    "equilibrium_reaction_energy_per_atom",
    "decomposes_to",
    "xas",
    "grain_boundaries",
    "cbm",
    "vbm",
    "is_gap_direct",
    "is_metal",
    "es_source_calc_id",
    "bandstructure",
    "dos",
    "dos_energy_up",
    "dos_energy_down",
    "is_magnetic",
    "ordering",
    "total_magnetization_normalized_vol",
    "total_magnetization_normalized_formula_units",
    "num_magnetic_sites",
    "num_unique_magnetic_sites",
    "types_of_magnetic_species",
    "bulk_modulus",
    "shear_modulus",
    "universal_anisotropy",
    "homogeneous_poisson",
    "e_total",
    "e_ionic",
    "e_electronic",
    "n",
    "e_ij_max",
    "weighted_surface_energy_EV_PER_ANG2",
    "weighted_surface_energy",
    "weighted_work_function",
    "surface_anisotropy",
    "shape_factor",
    "has_reconstructed",
    "possible_species",
    "has_props",
    "theoretical",
    "database_IDs"
  ]
}
