{"builder_meta": null, "nsites": null, "elements": null, "nelements": null, "composition": null, "composition_reduced": null, "formula_pretty": "CsHg", "formula_anonymous": "AB", "chemsys": null, "volume": 390.2460868904775, "density": 5.676236047115471, "density_atomic": 48.78076086130969, "symmetry": null, "property_name": null, "material_id": "mp-1080797", "deprecated": null, "deprecation_reasons": null, "last_updated": null, "origins": null, "warnings": null, "structure": {"@module": "pymatgen.core.structure", "@class": "Structure", "charge": 0, "lattice": {"matrix": [[7.06028113, -0.05577071, -1.68590805], [-0.73132902, 7.20412335, -2.31363635], [-0.02688827, -0.014738020000000001, 7.69021991]], "pbc": [true, true, true], "a": 7.258992076024246, "b": 7.601785878170386, "c": 7.6902810385874405, "alpha": 107.80820930099344, "beta": 103.62906256451186, "gamma": 91.72863655369956, "volume": 390.2460868904775}, "properties": {}, "sites": [{"species": [{"element": "Cs", "occu": 1}], "abc": [0.75721209, 0.34052268, 0.55138758], "properties": {"magmom": 0.0}, "label": "Cs", "xyz": [5.0822702544570015, 2.4028107731309025, 2.1758561373069747]}, {"species": [{"element": "Cs", "occu": 1}], "abc": [0.24278791, 0.65947732, 0.44861242], "properties": {"magmom": 0.0}, "label": "Cs", "xyz": [1.2197935855429984, 4.730803846869097, 1.5148193726930248]}, {"species": [{"element": "Cs", "occu": 1}], "abc": [0.31212837, 0.21193126, 0.86097737], "properties": {"magmom": 0.0}, "label": "Cs", "xyz": [2.025572368177043, 1.4966822162562707, 5.604553714379757]}, {"species": [{"element": "Cs", "occu": 1}], "abc": [0.6878716300000001, 0.78806874, 0.13902163], "properties": {"magmom": 0.0}, "label": "Cs", "xyz": [4.276491498711227, 5.636932418481749, -1.9138858945996675]}, {"species": [{"element": "Hg", "occu": 1}], "abc": [0.81113755, 0.89539163, 0.71289813], "properties": {"magmom": 0.0}, "label": "Hg", "xyz": [5.052864657413394, 6.394767325108497, 2.0432294452717397]}, {"species": [{"element": "Hg", "occu": 1}], "abc": [0.18886245000000002, 0.10460837, 0.28710187], "properties": {"magmom": 0.0}, "label": "Hg", "xyz": [1.2491991825866062, 0.7388472948915026, 1.6474460647282594]}, {"species": [{"element": "Hg", "occu": 1}], "abc": [0.13512203, 0.75269973, 0.9463155400000001], "properties": {"magmom": 0.0}, "label": "Hg", "xyz": [0.37808357501641354, 5.401059031527123, 5.308097832777875]}, {"species": [{"element": "Hg", "occu": 1}], "abc": [0.86487797, 0.24730027000000002, 0.05368446], "properties": {"magmom": 0.0}, "label": "Hg", "xyz": [5.923980264983587, 1.7325555884728765, -1.6174223227778746]}]}, "task_ids": null, "uncorrected_energy_per_atom": null, "energy_per_atom": -0.8156949637499971, "formation_energy_per_atom": -0.20687015982758702, "energy_above_hull": 0.0, "is_stable": true, "equilibrium_reaction_energy_per_atom": null, "decomposes_to": null, "xas": null, "grain_boundaries": null, "band_gap": 0.0, "cbm": null, "vbm": null, "efermi": 1.8179714100000002, "is_gap_direct": null, "is_metal": null, "es_source_calc_id": null, "bandstructure": null, "dos": null, "dos_energy_up": null, "dos_energy_down": null, "is_magnetic": null, "ordering": null, "total_magnetization": 3.1e-06, "total_magnetization_normalized_vol": null, "total_magnetization_normalized_formula_units": null, "num_magnetic_sites": null, "num_unique_magnetic_sites": null, "types_of_magnetic_species": null, "bulk_modulus": null, "shear_modulus": null, "universal_anisotropy": null, "homogeneous_poisson": null, "e_total": null, "e_ionic": null, "e_electronic": null, "n": null, "e_ij_max": null, "weighted_surface_energy_EV_PER_ANG2": null, "weighted_surface_energy": null, "weighted_work_function": null, "surface_anisotropy": null, "shape_factor": null, "has_reconstructed": null, "possible_species": null, "has_props": null, "theoretical": null, "database_IDs": null, "fields_not_requested": ["builder_meta", "nsites", "elements", "nelements", "composition", "composition_reduced", "chemsys", "symmetry", "property_name", "deprecated", "deprecation_reasons", "last_updated", "origins", "warnings", "task_ids", "uncorrected_energy_per_atom", "equilibrium_reaction_energy_per_atom", "decomposes_to", "xas", "grain_boundaries", "cbm", "vbm", "is_gap_direct", "is_metal", "es_source_calc_id", "bandstructure", "dos", "dos_energy_up", "dos_energy_down", "is_magnetic", "ordering", "total_magnetization_normalized_vol", "total_magnetization_normalized_formula_units", "num_magnetic_sites", "num_unique_magnetic_sites", "types_of_magnetic_species", "bulk_modulus", "shear_modulus", "universal_anisotropy", "homogeneous_poisson", "e_total", "e_ionic", "e_electronic", "n", "e_ij_max", "weighted_surface_energy_EV_PER_ANG2", "weighted_surface_energy", "weighted_work_function", "surface_anisotropy", "shape_factor", "has_reconstructed", "possible_species", "has_props", "theoretical", "database_IDs"]}