{"builder_meta": null, "nsites": null, "elements": null, "nelements": null, "composition": null, "composition_reduced": null, "formula_pretty": "CsHg3", "formula_anonymous": "AB3", "chemsys": null, "volume": 297.60822402966676, "density": 8.198411136853187, "density_atomic": 37.201028003708345, "symmetry": null, "property_name": null, "material_id": "mp-1185577", "deprecated": null, "deprecation_reasons": null, "last_updated": null, "origins": null, "warnings": null, "structure": {"@module": "pymatgen.core.structure", "@class": "Structure", "charge": 0, "lattice": {"matrix": [[7.88422551, 3.9280000000000003e-05, -0.0], [-3.94207798, 6.82795918, 1.08e-06], [-0.0, 1.07e-06, 5.52832702]], "pbc": [true, true, true], "a": 7.884225510097848, "b": 7.884225095984279, "c": 5.528327020000103, "alpha": 89.99998254765445, "beta": 89.99999999994475, "gamma": 119.99942447423123, "volume": 297.60822402966676}, "properties": {}, "sites": [{"species": [{"element": "Cs", "occu": 1}], "abc": [0.3333349, 0.666666099999999, 0.75], "properties": {"magmom": 0.0}, "label": "Cs", "xyz": [3.776913082464972e-05, 4.551982813384663, 4.146245984999388]}, {"species": [{"element": "Cs", "occu": 1}], "abc": [0.666666099999999, 0.3333349, 0.25], "properties": {"magmom": 0.0}, "label": "Cs", "xyz": [3.9421137030167017, 2.27602354461379, 1.382082115001692]}, {"species": [{"element": "Hg", "occu": 1}], "abc": [0.13721177, 0.27442584000000003, 0.250001], "properties": {"magmom": 0.0}, "label": "Hg", "xyz": [4.76299249596579e-07, 1.873774090636607, 1.3820875797069272]}, {"species": [{"element": "Hg", "occu": 1}], "abc": [0.72557516, 0.86278823, 0.25], "properties": {"magmom": 0.0}, "label": "Hg", "xyz": [2.319419703008156, 5.891111583516736, 1.3820826868112883]}, {"species": [{"element": "Hg", "occu": 1}], "abc": [0.1372132, 0.8627868, 0.250001], "properties": {"magmom": 0.0}, "label": "Hg", "xyz": [-2.319353033965932, 5.89107870867839, 1.382088215136764]}, {"species": [{"element": "Hg", "occu": 1}], "abc": [0.86278923, 0.72557516, 0.749999], "properties": {"magmom": 0.0}, "label": "Hg", "xyz": [3.9421509958482805, 4.954232267361853, 4.146240520294152]}, {"species": [{"element": "Hg", "occu": 1}], "abc": [0.27442484, 0.13721177, 0.749999], "properties": {"magmom": 0.0}, "label": "Hg", "xyz": [1.6227278269918437, 0.9368879464821939, 4.146239884861692]}, {"species": [{"element": "Hg", "occu": 1}], "abc": [0.8627878, 0.137214199999999, 0.749999], "properties": {"magmom": 0.0}, "label": "Hg", "xyz": [6.261504506113466, 0.9369276493200631, 4.146239884864316]}]}, "task_ids": null, "uncorrected_energy_per_atom": null, "energy_per_atom": -0.677381487499999, "formation_energy_per_atom": -0.218133066788798, "energy_above_hull": 0.007734481666673, "is_stable": false, "equilibrium_reaction_energy_per_atom": null, "decomposes_to": null, "xas": null, "grain_boundaries": null, "band_gap": 0.0, "cbm": null, "vbm": null, "efermi": 1.68428281, "is_gap_direct": null, "is_metal": null, "es_source_calc_id": null, "bandstructure": null, "dos": null, "dos_energy_up": null, "dos_energy_down": null, "is_magnetic": null, "ordering": null, "total_magnetization": 6e-07, "total_magnetization_normalized_vol": null, "total_magnetization_normalized_formula_units": null, "num_magnetic_sites": null, "num_unique_magnetic_sites": null, "types_of_magnetic_species": null, "bulk_modulus": null, "shear_modulus": null, "universal_anisotropy": null, "homogeneous_poisson": null, "e_total": null, "e_ionic": null, "e_electronic": null, "n": null, "e_ij_max": null, "weighted_surface_energy_EV_PER_ANG2": null, "weighted_surface_energy": null, "weighted_work_function": null, "surface_anisotropy": null, "shape_factor": null, "has_reconstructed": null, "possible_species": null, "has_props": null, "theoretical": null, "database_IDs": null, "fields_not_requested": ["builder_meta", "nsites", "elements", "nelements", "composition", "composition_reduced", "chemsys", "symmetry", "property_name", "deprecated", "deprecation_reasons", "last_updated", "origins", "warnings", "task_ids", "uncorrected_energy_per_atom", "equilibrium_reaction_energy_per_atom", "decomposes_to", "xas", "grain_boundaries", "cbm", "vbm", "is_gap_direct", "is_metal", "es_source_calc_id", "bandstructure", "dos", "dos_energy_up", "dos_energy_down", "is_magnetic", "ordering", "total_magnetization_normalized_vol", "total_magnetization_normalized_formula_units", "num_magnetic_sites", "num_unique_magnetic_sites", "types_of_magnetic_species", "bulk_modulus", "shear_modulus", "universal_anisotropy", "homogeneous_poisson", "e_total", "e_ionic", "e_electronic", "n", "e_ij_max", "weighted_surface_energy_EV_PER_ANG2", "weighted_surface_energy", "weighted_work_function", "surface_anisotropy", "shape_factor", "has_reconstructed", "possible_species", "has_props", "theoretical", "database_IDs"]}