{"builder_meta": null, "nsites": null, "elements": null, "nelements": null, "composition": null, "composition_reduced": null, "formula_pretty": "CsI4", "formula_anonymous": "AB4", "chemsys": null, "volume": 982.2274545172627, "density": 4.331436718846286, "density_atomic": 49.111372725863134, "symmetry": null, "property_name": null, "material_id": "mp-571011", "deprecated": null, "deprecation_reasons": null, "last_updated": null, "origins": null, "warnings": null, "structure": {"@module": "pymatgen.core.structure", "@class": "Structure", "charge": 0, "lattice": {"matrix": [[9.05578607, 0.0, 0.0], [0.0, 9.4555794, -4.25596996], [0.0, 0.06738438000000001, 11.44057746]], "pbc": [true, true, true], "a": 9.05578607, "b": 10.369245975003523, "c": 11.440775903448507, "alpha": 113.8951136228089, "beta": 90.0, "gamma": 90.0, "volume": 982.2274545172627}, "properties": {}, "sites": [{"species": [{"element": "Cs", "occu": 1}], "abc": [0.87445139, 0.27381618, 0.19116168], "properties": {"magmom": 0.0}, "label": "Cs", "xyz": [7.918844716454138, 2.6019719422812506, 1.0216465707817801]}, {"species": [{"element": "Cs", "occu": 1}], "abc": [0.37445139, 0.72618382, 0.30883832], "properties": {"magmom": 0.0}, "label": "Cs", "xyz": [3.3909516814541374, 6.887299647718749, 0.44267219921821965]}, {"species": [{"element": "Cs", "occu": 1}], "abc": [0.6255486100000001, 0.27381618, 0.69116168], "properties": {"magmom": 0.0}, "label": "Cs", "xyz": [5.664834388545863, 2.6356641322812506, 6.74193530078178]}, {"species": [{"element": "Cs", "occu": 1}], "abc": [0.12554861, 0.72618382, 0.80883832], "properties": {"magmom": 0.0}, "label": "Cs", "xyz": [1.1369413535458628, 6.920991837718749, 6.162960929218221]}, {"species": [{"element": "I", "occu": 1}], "abc": [0.97613743, 0.67024877, 0.4539196], "properties": {"magmom": -0.0}, "label": "I", "xyz": [8.8396917409996, 6.368177553303186, 2.3405437135652662]}, {"species": [{"element": "I", "occu": 1}], "abc": [0.35649815, 0.45249286, 0.50822754], "properties": {"magmom": 0.0}, "label": "I", "xyz": [3.228370980750771, 4.312828763344909, 3.8886205194007637]}, {"species": [{"element": "I", "occu": 1}], "abc": [0.20790667000000002, 0.12185139, 0.60768641], "properties": {"magmom": -0.0}, "label": "I", "xyz": [1.882758326046087, 1.1931240651176418, 6.4336875895700745]}, {"species": [{"element": "I", "occu": 1}], "abc": [0.47613743000000003, 0.32975123, 0.0460804], "properties": {"magmom": -0.0}, "label": "I", "xyz": [4.311798705999601, 3.121094036696814, -0.8762249435652668]}, {"species": [{"element": "I", "occu": 1}], "abc": [0.89777779, 0.05855197, 0.82329405], "properties": {"magmom": 0.0}, "label": "I", "xyz": [8.130083604637385, 0.6091199604783569, 9.169763925963293]}, {"species": [{"element": "I", "occu": 1}], "abc": [0.10222221000000001, 0.94144803, 0.17670595], "properties": {"magmom": 0.0}, "label": "I", "xyz": [0.9257024653626148, 8.913843819521642, -1.9851564259632917]}, {"species": [{"element": "I", "occu": 1}], "abc": [0.02386257, 0.32975123, 0.5460804], "properties": {"magmom": -0.0}, "label": "I", "xyz": [0.2160943290003999, 3.154786226696814, 4.844063786434734]}, {"species": [{"element": "I", "occu": 1}], "abc": [0.29209333, 0.12185139, 0.10768641], "properties": {"magmom": -0.0}, "label": "I", "xyz": [2.645134708953913, 1.1594318751176418, 0.7133988595700743]}, {"species": [{"element": "I", "occu": 1}], "abc": [0.39777779, 0.94144803, 0.67670595], "properties": {"magmom": 0.0}, "label": "I", "xyz": [3.6021905696373855, 8.947536009521642, 3.735132304036709]}, {"species": [{"element": "I", "occu": 1}], "abc": [0.8564981500000001, 0.54750714, 0.99177246], "properties": {"magmom": 0.0}, "label": "I", "xyz": [7.756264015750771, 5.243827206655091, 9.016275710599238]}, {"species": [{"element": "I", "occu": 1}], "abc": [0.52386257, 0.67024877, 0.9539196], "properties": {"magmom": -0.0}, "label": "I", "xyz": [4.7439873640004, 6.401869743303186, 8.060832443565266]}, {"species": [{"element": "I", "occu": 1}], "abc": [0.64350185, 0.54750714, 0.49177246], "properties": {"magmom": 0.0}, "label": "I", "xyz": [5.82741508924923, 5.210135016655091, 3.295986980599238]}, {"species": [{"element": "I", "occu": 1}], "abc": [0.14350185000000001, 0.45249286, 0.00822754], "properties": {"magmom": 0.0}, "label": "I", "xyz": [1.2995220542492296, 4.279136573344909, -1.831668210599237]}, {"species": [{"element": "I", "occu": 1}], "abc": [0.70790667, 0.87814861, 0.89231359], "properties": {"magmom": -0.0}, "label": "I", "xyz": [6.410651361046087, 8.363531904882358, 6.471208640429927]}, {"species": [{"element": "I", "occu": 1}], "abc": [0.79209333, 0.87814861, 0.39231359], "properties": {"magmom": -0.0}, "label": "I", "xyz": [7.173027743953913, 8.329839714882358, 0.7509199104299253]}, {"species": [{"element": "I", "occu": 1}], "abc": [0.60222221, 0.05855197, 0.32329405], "properties": {"magmom": 0.0}, "label": "I", "xyz": [5.453595500362614, 0.575427770478357, 3.449475195963292]}]}, "task_ids": null, "uncorrected_energy_per_atom": null, "energy_per_atom": -2.376575653500003, "formation_energy_per_atom": -0.9757700474310381, "energy_above_hull": 0.0, "is_stable": true, "equilibrium_reaction_energy_per_atom": null, "decomposes_to": null, "xas": null, "grain_boundaries": null, "band_gap": 1.7836, "cbm": null, "vbm": null, "efermi": 0.71583244, "is_gap_direct": null, "is_metal": null, "es_source_calc_id": null, "bandstructure": null, "dos": null, "dos_energy_up": null, "dos_energy_down": null, "is_magnetic": null, "ordering": null, "total_magnetization": 0.0, "total_magnetization_normalized_vol": null, "total_magnetization_normalized_formula_units": null, "num_magnetic_sites": null, "num_unique_magnetic_sites": null, "types_of_magnetic_species": null, "bulk_modulus": null, "shear_modulus": null, "universal_anisotropy": null, "homogeneous_poisson": null, "e_total": null, "e_ionic": null, "e_electronic": null, "n": null, "e_ij_max": null, "weighted_surface_energy_EV_PER_ANG2": null, "weighted_surface_energy": null, "weighted_work_function": null, "surface_anisotropy": null, "shape_factor": null, "has_reconstructed": null, "possible_species": null, "has_props": null, "theoretical": null, "database_IDs": null, "fields_not_requested": ["builder_meta", "nsites", "elements", "nelements", "composition", "composition_reduced", "chemsys", "symmetry", "property_name", "deprecated", "deprecation_reasons", "last_updated", "origins", "warnings", "task_ids", "uncorrected_energy_per_atom", "equilibrium_reaction_energy_per_atom", "decomposes_to", "xas", "grain_boundaries", "cbm", "vbm", "is_gap_direct", "is_metal", "es_source_calc_id", "bandstructure", "dos", "dos_energy_up", "dos_energy_down", "is_magnetic", "ordering", "total_magnetization_normalized_vol", "total_magnetization_normalized_formula_units", "num_magnetic_sites", "num_unique_magnetic_sites", "types_of_magnetic_species", "bulk_modulus", "shear_modulus", "universal_anisotropy", "homogeneous_poisson", "e_total", "e_ionic", "e_electronic", "n", "e_ij_max", "weighted_surface_energy_EV_PER_ANG2", "weighted_surface_energy", "weighted_work_function", "surface_anisotropy", "shape_factor", "has_reconstructed", "possible_species", "has_props", "theoretical", "database_IDs"]}