{"builder_meta": null, "nsites": null, "elements": null, "nelements": null, "composition": null, "composition_reduced": null, "formula_pretty": "CsIn3", "formula_anonymous": "AB3", "chemsys": null, "volume": 431.57824841654457, "density": 5.510060029199977, "density_atomic": 35.96485403471205, "symmetry": null, "property_name": null, "material_id": "mp-542339", "deprecated": null, "deprecation_reasons": null, "last_updated": null, "origins": null, "warnings": null, "structure": {"@module": "pymatgen.core.structure", "@class": "Structure", "charge": 0, "lattice": {"matrix": [[6.66237437, 0.0, -2.57669862], [-0.99654747, 6.58742188, -2.57669862], [-0.01942479, -0.022584, 9.85132437]], "pbc": [true, true, true], "a": 7.14329111994904, "b": 7.143291234674394, "c": 9.851369407472164, "alpha": 111.25708199814773, "beta": 111.25708463860606, "gamma": 89.99999611973712, "volume": 431.57824841654457}, "properties": {}, "sites": [{"species": [{"element": "Cs", "occu": 1}], "abc": [0.0, -0.0, 0.0], "properties": {"magmom": 0.0}, "label": "Cs", "xyz": [0.0, 0.0, 0.0]}, {"species": [{"element": "Cs", "occu": 1}], "abc": [0.62745343, 0.12745343, 0.25490685], "properties": {"magmom": -0.0}, "label": "Cs", "xyz": [4.048364745160455, 0.8338326971626484, 0.5660025990944018]}, {"species": [{"element": "Cs", "occu": 1}], "abc": [0.87254657, 0.37254657, 0.74509315], "properties": {"magmom": -0.0}, "label": "Cs", "xyz": [5.427498284839545, 2.4372942428373516, 4.131924530905598]}, {"species": [{"element": "In", "occu": 1}], "abc": [0.5, 0.5, 0.0], "properties": {"magmom": 0.0}, "label": "In", "xyz": [2.83291345, 3.29371094, -2.57669862]}, {"species": [{"element": "In", "occu": 1}], "abc": [0.30576066, 0.6090343500000001, 0.21806771], "properties": {"magmom": -0.0}, "label": "In", "xyz": [1.4259244244301588, 4.007041361698938, -0.20889529401679363]}, {"species": [{"element": "In", "occu": 1}], "abc": [0.39096565, 0.69423934, 0.78193229], "properties": {"magmom": -0.0}, "label": "In", "xyz": [1.8977281977314513, 4.555588259435399, 4.906822424016793]}, {"species": [{"element": "In", "occu": 1}], "abc": [0.39096565, 0.08769195, 0.78193229], "properties": {"magmom": -0.0}, "label": "In", "xyz": [2.5021814646710547, 0.560004711292506, 6.469712246794395]}, {"species": [{"element": "In", "occu": 1}], "abc": [0.91230805, 0.6090343500000001, 0.21806771], "properties": {"magmom": -0.0}, "label": "In", "xyz": [5.466970209756553, 4.007041361698938, -1.7717851167943959]}, {"species": [{"element": "In", "occu": 1}], "abc": [0.57228672, 0.779282399999999, 0.55856381], "properties": {"magmom": -0.0}, "label": "In", "xyz": [3.0253464867729893, 5.120847327373865, 2.0200069873144377]}, {"species": [{"element": "In", "occu": 1}], "abc": [0.22071759999999901, 0.42771328000000003, 0.44143619], "properties": {"magmom": -0.0}, "label": "In", "xyz": [1.0356918888893538, 2.8075584241236062, 2.6779201426855677]}, {"species": [{"element": "In", "occu": 1}], "abc": [0.22071759999999901, 0.01372291, 0.44143619], "properties": {"magmom": -0.0}, "label": "In", "xyz": [1.4482529447172177, 0.08042920267631079, 3.744648557757857]}, {"species": [{"element": "In", "occu": 1}], "abc": [0.98627709, 0.779282399999999, 0.55856381], "properties": {"magmom": -0.0}, "label": "In", "xyz": [5.783505317287806, 5.120847327373865, 0.953278572242148]}]}, "task_ids": null, "uncorrected_energy_per_atom": null, "energy_per_atom": -23.491305853333333, "formation_energy_per_atom": -0.280249818333331, "energy_above_hull": 0.0, "is_stable": true, "equilibrium_reaction_energy_per_atom": null, "decomposes_to": null, "xas": null, "grain_boundaries": null, "band_gap": 0.0, "cbm": null, "vbm": null, "efermi": 4.47381201, "is_gap_direct": null, "is_metal": null, "es_source_calc_id": null, "bandstructure": null, "dos": null, "dos_energy_up": null, "dos_energy_down": null, "is_magnetic": null, "ordering": null, "total_magnetization": 0.0, "total_magnetization_normalized_vol": null, "total_magnetization_normalized_formula_units": null, "num_magnetic_sites": null, "num_unique_magnetic_sites": null, "types_of_magnetic_species": null, "bulk_modulus": null, "shear_modulus": null, "universal_anisotropy": null, "homogeneous_poisson": null, "e_total": null, "e_ionic": null, "e_electronic": null, "n": null, "e_ij_max": null, "weighted_surface_energy_EV_PER_ANG2": null, "weighted_surface_energy": null, "weighted_work_function": null, "surface_anisotropy": null, "shape_factor": null, "has_reconstructed": null, "possible_species": null, "has_props": null, "theoretical": null, "database_IDs": null, "fields_not_requested": ["builder_meta", "nsites", "elements", "nelements", "composition", "composition_reduced", "chemsys", "symmetry", "property_name", "deprecated", "deprecation_reasons", "last_updated", "origins", "warnings", "task_ids", "uncorrected_energy_per_atom", "equilibrium_reaction_energy_per_atom", "decomposes_to", "xas", "grain_boundaries", "cbm", "vbm", "is_gap_direct", "is_metal", "es_source_calc_id", "bandstructure", "dos", "dos_energy_up", "dos_energy_down", "is_magnetic", "ordering", "total_magnetization_normalized_vol", "total_magnetization_normalized_formula_units", "num_magnetic_sites", "num_unique_magnetic_sites", "types_of_magnetic_species", "bulk_modulus", "shear_modulus", "universal_anisotropy", "homogeneous_poisson", "e_total", "e_ionic", "e_electronic", "n", "e_ij_max", "weighted_surface_energy_EV_PER_ANG2", "weighted_surface_energy", "weighted_work_function", "surface_anisotropy", "shape_factor", "has_reconstructed", "possible_species", "has_props", "theoretical", "database_IDs"]}