{"builder_meta": null, "nsites": null, "elements": null, "nelements": null, "composition": null, "composition_reduced": null, "formula_pretty": "CsK2", "formula_anonymous": "AB2", "chemsys": null, "volume": 1111.3129483083505, "density": 1.261726338212725, "density_atomic": 92.60941235902919, "symmetry": null, "property_name": null, "material_id": "mp-30577", "deprecated": null, "deprecation_reasons": null, "last_updated": null, "origins": null, "warnings": null, "structure": {"@module": "pymatgen.core.structure", "@class": "Structure", "charge": 0, "lattice": {"matrix": [[9.11240539, 6.469999999999996e-06, 0.0], [-4.5561967800000005, 7.89156511, 0.0], [0.0, 0.0, 15.45396841]], "pbc": [true, true, true], "a": 9.112405390002296, "b": 9.112394250878948, "c": 15.45396841, "alpha": 90.0, "beta": 90.0, "gamma": 119.99995681076557, "volume": 1111.3129483083505}, "properties": {}, "sites": [{"species": [{"element": "Cs", "occu": 1}], "abc": [0.333333, 0.666667, 0.43864094000000003], "properties": {"magmom": 0.004}, "label": "Cs", "xyz": [-6.128673906147242e-07, 5.26104819385288, 6.778743230092706]}, {"species": [{"element": "Cs", "occu": 1}], "abc": [0.666667, 0.333333, 0.93864094], "properties": {"magmom": 0.004}, "label": "Cs", "xyz": [4.556209222867389, 2.6305233861471202, 14.505727435092705]}, {"species": [{"element": "Cs", "occu": 1}], "abc": [0.666667, 0.333333, 0.56135906], "properties": {"magmom": 0.004}, "label": "Cs", "xyz": [4.556209222867389, 2.6305233861471202, 8.675225179907295]}, {"species": [{"element": "Cs", "occu": 1}], "abc": [0.333333, 0.666667, 0.06135906], "properties": {"magmom": 0.004}, "label": "Cs", "xyz": [-6.128673906147242e-07, 5.26104819385288, 0.9482409749072946]}, {"species": [{"element": "K", "occu": 1}], "abc": [0.16819582, 0.33639264, 0.75], "properties": {"magmom": 0.003}, "label": "K", "xyz": [-2.5664402298897215e-06, 2.6546655093117457, 11.5904763075]}, {"species": [{"element": "K", "occu": 1}], "abc": [0.83180418, 0.16819682, 0.25], "properties": {"magmom": 0.003}, "label": "K", "xyz": [6.81339908356629, 1.3273415380979947, 3.8634921025]}, {"species": [{"element": "K", "occu": 1}], "abc": [0.33639264, 0.16819582, 0.25], "properties": {"magmom": 0.003}, "label": "K", "xyz": [2.29901285239887, 1.327330441220221, 3.8634921025]}, {"species": [{"element": "K", "occu": 1}], "abc": [0.66360736, 0.83180418, 0.75], "properties": {"magmom": 0.003}, "label": "K", "xyz": [2.257195757601129, 6.564241138779779, 11.5904763075]}, {"species": [{"element": "K", "occu": 1}], "abc": [-0.0, -0.0, -0.0], "properties": {"magmom": 0.008}, "label": "K", "xyz": [0.0, 0.0, 0.0]}, {"species": [{"element": "K", "occu": 1}], "abc": [-0.0, -0.0, 0.5], "properties": {"magmom": 0.008}, "label": "K", "xyz": [0.0, 0.0, 7.726984205]}, {"species": [{"element": "K", "occu": 1}], "abc": [0.83180418, 0.66360736, 0.25], "properties": {"magmom": 0.003}, "label": "K", "xyz": [4.556211176440229, 5.236906070688255, 3.8634921025]}, {"species": [{"element": "K", "occu": 1}], "abc": [0.16819582, 0.83180318, 0.75], "properties": {"magmom": 0.003}, "label": "K", "xyz": [-2.257190473566291, 6.564230041902006, 11.5904763075]}]}, "task_ids": null, "uncorrected_energy_per_atom": null, "energy_per_atom": -12.371968793333332, "formation_energy_per_atom": 0.0096914975, "energy_above_hull": 0.009691497500002, "is_stable": false, "equilibrium_reaction_energy_per_atom": null, "decomposes_to": null, "xas": null, "grain_boundaries": null, "band_gap": 0.0, "cbm": null, "vbm": null, "efermi": 0.23448493, "is_gap_direct": null, "is_metal": null, "es_source_calc_id": null, "bandstructure": null, "dos": null, "dos_energy_up": null, "dos_energy_down": null, "is_magnetic": null, "ordering": null, "total_magnetization": 0.7783063, "total_magnetization_normalized_vol": null, "total_magnetization_normalized_formula_units": null, "num_magnetic_sites": null, "num_unique_magnetic_sites": null, "types_of_magnetic_species": null, "bulk_modulus": null, "shear_modulus": null, "universal_anisotropy": null, "homogeneous_poisson": null, "e_total": null, "e_ionic": null, "e_electronic": null, "n": null, "e_ij_max": null, "weighted_surface_energy_EV_PER_ANG2": null, "weighted_surface_energy": null, "weighted_work_function": null, "surface_anisotropy": null, "shape_factor": null, "has_reconstructed": null, "possible_species": null, "has_props": null, "theoretical": null, "database_IDs": null, "fields_not_requested": ["builder_meta", "nsites", "elements", "nelements", "composition", "composition_reduced", "chemsys", "symmetry", "property_name", "deprecated", "deprecation_reasons", "last_updated", "origins", "warnings", "task_ids", "uncorrected_energy_per_atom", "equilibrium_reaction_energy_per_atom", "decomposes_to", "xas", "grain_boundaries", "cbm", "vbm", "is_gap_direct", "is_metal", "es_source_calc_id", "bandstructure", "dos", "dos_energy_up", "dos_energy_down", "is_magnetic", "ordering", "total_magnetization_normalized_vol", "total_magnetization_normalized_formula_units", "num_magnetic_sites", "num_unique_magnetic_sites", "types_of_magnetic_species", "bulk_modulus", "shear_modulus", "universal_anisotropy", "homogeneous_poisson", "e_total", "e_ionic", "e_electronic", "n", "e_ij_max", "weighted_surface_energy_EV_PER_ANG2", "weighted_surface_energy", "weighted_work_function", "surface_anisotropy", "shape_factor", "has_reconstructed", "possible_species", "has_props", "theoretical", "database_IDs"]}