{
  "builder_meta": null,
  "nsites": null,
  "elements": null,
  "nelements": null,
  "composition": null,
  "composition_reduced": null,
  "formula_pretty": "CsK3",
  "formula_anonymous": "AB3",
  "chemsys": null,
  "volume": 706.297566157673,
  "density": 1.176465780753572,
  "density_atomic": 88.28719576970913,
  "symmetry": null,
  "property_name": null,
  "material_id": "mp-1185558",
  "deprecated": null,
  "deprecation_reasons": null,
  "last_updated": null,
  "origins": null,
  "warnings": null,
  "structure": {
    "@module": "pymatgen.core.structure",
    "@class": "Structure",
    "charge": 0,
    "lattice": {
      "matrix": [
        [4.98515285, -8.63455055, 0.0],
        [4.98516426, 8.63455679, -0.0],
        [-0.0, 0.0, 8.20424923]
      ],
      "pbc": [true, true, true],
      "a": 9.970316551562865,
      "b": 9.970327660559429,
      "c": 8.20424923,
      "alpha": 90.0,
      "beta": 90.0,
      "gamma": 120.00003315207789,
      "volume": 706.297566157673
    },
    "properties": {},
    "sites": [
      {
        "species": [{ "element": "Cs", "occu": 1 }],
        "abc": [0.333333, 0.666667, 0.75],
        "properties": { "magmom": 0.013000000000000001 },
        "label": "Cs",
        "xyz": [4.985160456670471, 2.8781934330357797, 6.1531869225]
      },
      {
        "species": [{ "element": "Cs", "occu": 1 }],
        "abc": [0.666667, 0.333333, 0.25],
        "properties": { "magmom": 0.013000000000000001 },
        "label": "Cs",
        "xyz": [4.985156653329531, -2.8781871930357803, 2.0510623075]
      },
      {
        "species": [{ "element": "K", "occu": 1 }],
        "abc": [0.16087168000000002, 0.32174536, 0.25],
        "properties": { "magmom": 0.002 },
        "label": "K",
        "xyz": [2.405923383529122, 1.3890739298155699, 2.0510623075]
      },
      {
        "species": [{ "element": "K", "occu": 1 }],
        "abc": [0.67825464, 0.83912832, 0.25],
        "properties": { "magmom": 0.002 },
        "label": "K",
        "xyz": [7.564395562039568, 1.3890771582852413, 2.0510623075]
      },
      {
        "species": [{ "element": "K", "occu": 1 }],
        "abc": [0.16087168000000002, 0.83912832, 0.25],
        "properties": { "magmom": 0.002 },
        "label": "K",
        "xyz": [4.985162424454132, 5.856446480113869, 2.0510623075]
      },
      {
        "species": [{ "element": "K", "occu": 1 }],
        "abc": [0.83912832, 0.67825464, 0.75],
        "properties": { "magmom": 0.002 },
        "label": "K",
        "xyz": [7.564393726470879, -1.3890676898155707, 6.1531869225]
      },
      {
        "species": [{ "element": "K", "occu": 1 }],
        "abc": [0.32174536, 0.16087168000000002, 0.75],
        "properties": { "magmom": 0.002 },
        "label": "K",
        "xyz": [2.405921547960433, -1.3890709182852405, 6.1531869225]
      },
      {
        "species": [{ "element": "K", "occu": 1 }],
        "abc": [0.83912832, 0.16087168000000002, 0.75],
        "properties": { "magmom": 0.002 },
        "label": "K",
        "xyz": [4.9851546855458695, -5.856440240113869, 6.1531869225]
      }
    ]
  },
  "task_ids": null,
  "uncorrected_energy_per_atom": null,
  "energy_per_atom": -10.7764586325,
  "formation_energy_per_atom": 0.014352569687499001,
  "energy_above_hull": 0.014352569687499001,
  "is_stable": false,
  "equilibrium_reaction_energy_per_atom": null,
  "decomposes_to": null,
  "xas": null,
  "grain_boundaries": null,
  "band_gap": 0.0,
  "cbm": null,
  "vbm": null,
  "efermi": 0.08654756,
  "is_gap_direct": null,
  "is_metal": null,
  "es_source_calc_id": null,
  "bandstructure": null,
  "dos": null,
  "dos_energy_up": null,
  "dos_energy_down": null,
  "is_magnetic": null,
  "ordering": null,
  "total_magnetization": 0.3707837,
  "total_magnetization_normalized_vol": null,
  "total_magnetization_normalized_formula_units": null,
  "num_magnetic_sites": null,
  "num_unique_magnetic_sites": null,
  "types_of_magnetic_species": null,
  "bulk_modulus": null,
  "shear_modulus": null,
  "universal_anisotropy": null,
  "homogeneous_poisson": null,
  "e_total": null,
  "e_ionic": null,
  "e_electronic": null,
  "n": null,
  "e_ij_max": null,
  "weighted_surface_energy_EV_PER_ANG2": null,
  "weighted_surface_energy": null,
  "weighted_work_function": null,
  "surface_anisotropy": null,
  "shape_factor": null,
  "has_reconstructed": null,
  "possible_species": null,
  "has_props": null,
  "theoretical": null,
  "database_IDs": null,
  "fields_not_requested": [
    "builder_meta",
    "nsites",
    "elements",
    "nelements",
    "composition",
    "composition_reduced",
    "chemsys",
    "symmetry",
    "property_name",
    "deprecated",
    "deprecation_reasons",
    "last_updated",
    "origins",
    "warnings",
    "task_ids",
    "uncorrected_energy_per_atom",
    "equilibrium_reaction_energy_per_atom",
    "decomposes_to",
    "xas",
    "grain_boundaries",
    "cbm",
    "vbm",
    "is_gap_direct",
    "is_metal",
    "es_source_calc_id",
    "bandstructure",
    "dos",
    "dos_energy_up",
    "dos_energy_down",
    "is_magnetic",
    "ordering",
    "total_magnetization_normalized_vol",
    "total_magnetization_normalized_formula_units",
    "num_magnetic_sites",
    "num_unique_magnetic_sites",
    "types_of_magnetic_species",
    "bulk_modulus",
    "shear_modulus",
    "universal_anisotropy",
    "homogeneous_poisson",
    "e_total",
    "e_ionic",
    "e_electronic",
    "n",
    "e_ij_max",
    "weighted_surface_energy_EV_PER_ANG2",
    "weighted_surface_energy",
    "weighted_work_function",
    "surface_anisotropy",
    "shape_factor",
    "has_reconstructed",
    "possible_species",
    "has_props",
    "theoretical",
    "database_IDs"
  ]
}
