{"builder_meta": null, "nsites": null, "elements": null, "nelements": null, "composition": null, "composition_reduced": null, "formula_pretty": "CsLa", "formula_anonymous": "AB", "chemsys": null, "volume": 197.41955952826473, "density": 4.572522151523603, "density_atomic": 49.35488988206618, "symmetry": null, "property_name": null, "material_id": "mp-1183956", "deprecated": null, "deprecation_reasons": null, "last_updated": null, "origins": null, "warnings": null, "structure": {"@module": "pymatgen.core.structure", "@class": "Structure", "charge": 0, "lattice": {"matrix": [[1.938839, -3.358168, 0.0], [1.938839, 3.358168, 0.0], [0.0, 0.0, 15.160587]], "pbc": [true, true, true], "a": 3.8776782981759848, "b": 3.8776782981759848, "c": 15.160587, "alpha": 90.0, "beta": 90.0, "gamma": 120.00000508736481, "volume": 197.41955952826473}, "properties": {}, "sites": [{"species": [{"element": "Cs", "occu": 1}], "abc": [0.666667, 0.333333, 0.569558999999999], "properties": {"magmom": -0.002}, "label": "Cs", "xyz": [1.9388390000000002, -1.119391572112, 8.634848771132985]}, {"species": [{"element": "Cs", "occu": 1}], "abc": [0.333333, 0.666667, 0.069559], "properties": {"magmom": -0.002}, "label": "Cs", "xyz": [1.9388390000000002, 1.119391572112, 1.054555271133]}, {"species": [{"element": "La", "occu": 1}], "abc": [0.666667, 0.333333, 0.805441], "properties": {"magmom": -0.008}, "label": "La", "xyz": [1.9388390000000002, -1.119391572112, 12.210958353867]}, {"species": [{"element": "La", "occu": 1}], "abc": [0.333333, 0.666667, 0.305440999999999], "properties": {"magmom": -0.008}, "label": "La", "xyz": [1.9388390000000002, 1.119391572112, 4.630664853866985]}]}, "task_ids": null, "uncorrected_energy_per_atom": null, "energy_per_atom": -26.85657131146552, "formation_energy_per_atom": 0.5700452910344821, "energy_above_hull": 0.5700452910344821, "is_stable": false, "equilibrium_reaction_energy_per_atom": null, "decomposes_to": null, "xas": null, "grain_boundaries": null, "band_gap": 0.0, "cbm": null, "vbm": null, "efermi": 4.59416312, "is_gap_direct": null, "is_metal": null, "es_source_calc_id": null, "bandstructure": null, "dos": null, "dos_energy_up": null, "dos_energy_down": null, "is_magnetic": null, "ordering": null, "total_magnetization": 0.0790921, "total_magnetization_normalized_vol": null, "total_magnetization_normalized_formula_units": null, "num_magnetic_sites": null, "num_unique_magnetic_sites": null, "types_of_magnetic_species": null, "bulk_modulus": null, "shear_modulus": null, "universal_anisotropy": null, "homogeneous_poisson": null, "e_total": null, "e_ionic": null, "e_electronic": null, "n": null, "e_ij_max": null, "weighted_surface_energy_EV_PER_ANG2": null, "weighted_surface_energy": null, "weighted_work_function": null, "surface_anisotropy": null, "shape_factor": null, "has_reconstructed": null, "possible_species": null, "has_props": null, "theoretical": null, "database_IDs": null, "fields_not_requested": ["builder_meta", "nsites", "elements", "nelements", "composition", "composition_reduced", "chemsys", "symmetry", "property_name", "deprecated", "deprecation_reasons", "last_updated", "origins", "warnings", "task_ids", "uncorrected_energy_per_atom", "equilibrium_reaction_energy_per_atom", "decomposes_to", "xas", "grain_boundaries", "cbm", "vbm", "is_gap_direct", "is_metal", "es_source_calc_id", "bandstructure", "dos", "dos_energy_up", "dos_energy_down", "is_magnetic", "ordering", "total_magnetization_normalized_vol", "total_magnetization_normalized_formula_units", "num_magnetic_sites", "num_unique_magnetic_sites", "types_of_magnetic_species", "bulk_modulus", "shear_modulus", "universal_anisotropy", "homogeneous_poisson", "e_total", "e_ionic", "e_electronic", "n", "e_ij_max", "weighted_surface_energy_EV_PER_ANG2", "weighted_surface_energy", "weighted_work_function", "surface_anisotropy", "shape_factor", "has_reconstructed", "possible_species", "has_props", "theoretical", "database_IDs"]}