{"builder_meta": null, "nsites": null, "elements": null, "nelements": null, "composition": null, "composition_reduced": null, "formula_pretty": "CsMg3", "formula_anonymous": "AB3", "chemsys": null, "volume": 155.11583104960297, "density": 2.203339909102662, "density_atomic": 38.778957762400736, "symmetry": null, "property_name": null, "material_id": "mp-1016231", "deprecated": null, "deprecation_reasons": null, "last_updated": null, "origins": null, "warnings": null, "structure": {"@module": "pymatgen.core.structure", "@class": "Structure", "charge": 0, "lattice": {"matrix": [[3.752604, 0.0, 0.0], [0.0, 4.900757, 0.0], [0.0, 0.0, 8.434517]], "pbc": [true, true, true], "a": 3.752604, "b": 4.900757, "c": 8.434517, "alpha": 90.0, "beta": 90.0, "gamma": 90.0, "volume": 155.11583104960297}, "properties": {}, "sites": [{"species": [{"element": "Cs", "occu": 1}], "abc": [0.5, 0.0, 0.137593], "properties": {"magmom": 0.0}, "label": "Cs", "xyz": [1.876302, 0.0, 1.1605304975809998]}, {"species": [{"element": "Mg", "occu": 1}], "abc": [0.0, 0.0, 0.664188999999999], "properties": {"magmom": 0.0}, "label": "Mg", "xyz": [0.0, 0.0, 5.602113411712992]}, {"species": [{"element": "Mg", "occu": 1}], "abc": [0.0, 0.5, 0.44918], "properties": {"magmom": 0.0}, "label": "Mg", "xyz": [0.0, 2.4503785, 3.78861634606]}, {"species": [{"element": "Mg", "occu": 1}], "abc": [0.5, 0.5, 0.749038], "properties": {"magmom": 0.0}, "label": "Mg", "xyz": [1.876302, 2.4503785, 6.317773744646]}]}, "task_ids": null, "uncorrected_energy_per_atom": null, "energy_per_atom": -9.127914393232759, "formation_energy_per_atom": 0.276176545517241, "energy_above_hull": 0.276176545517241, "is_stable": false, "equilibrium_reaction_energy_per_atom": null, "decomposes_to": null, "xas": null, "grain_boundaries": null, "band_gap": 0.0, "cbm": null, "vbm": null, "efermi": 2.06974283, "is_gap_direct": null, "is_metal": null, "es_source_calc_id": null, "bandstructure": null, "dos": null, "dos_energy_up": null, "dos_energy_down": null, "is_magnetic": null, "ordering": null, "total_magnetization": 0.0018796, "total_magnetization_normalized_vol": null, "total_magnetization_normalized_formula_units": null, "num_magnetic_sites": null, "num_unique_magnetic_sites": null, "types_of_magnetic_species": null, "bulk_modulus": null, "shear_modulus": null, "universal_anisotropy": null, "homogeneous_poisson": null, "e_total": null, "e_ionic": null, "e_electronic": null, "n": null, "e_ij_max": null, "weighted_surface_energy_EV_PER_ANG2": null, "weighted_surface_energy": null, "weighted_work_function": null, "surface_anisotropy": null, "shape_factor": null, "has_reconstructed": null, "possible_species": null, "has_props": null, "theoretical": null, "database_IDs": null, "fields_not_requested": ["builder_meta", "nsites", "elements", "nelements", "composition", "composition_reduced", "chemsys", "symmetry", "property_name", "deprecated", "deprecation_reasons", "last_updated", "origins", "warnings", "task_ids", "uncorrected_energy_per_atom", "equilibrium_reaction_energy_per_atom", "decomposes_to", "xas", "grain_boundaries", "cbm", "vbm", "is_gap_direct", "is_metal", "es_source_calc_id", "bandstructure", "dos", "dos_energy_up", "dos_energy_down", "is_magnetic", "ordering", "total_magnetization_normalized_vol", "total_magnetization_normalized_formula_units", "num_magnetic_sites", "num_unique_magnetic_sites", "types_of_magnetic_species", "bulk_modulus", "shear_modulus", "universal_anisotropy", "homogeneous_poisson", "e_total", "e_ionic", "e_electronic", "n", "e_ij_max", "weighted_surface_energy_EV_PER_ANG2", "weighted_surface_energy", "weighted_work_function", "surface_anisotropy", "shape_factor", "has_reconstructed", "possible_species", "has_props", "theoretical", "database_IDs"]}