{"builder_meta": null, "nsites": null, "elements": null, "nelements": null, "composition": null, "composition_reduced": null, "formula_pretty": "CsMg7", "formula_anonymous": "AB7", "chemsys": null, "volume": 232.11668351987268, "density": 2.167920467883928, "density_atomic": 29.014585439984085, "symmetry": null, "property_name": null, "material_id": "mp-1016264", "deprecated": null, "deprecation_reasons": null, "last_updated": null, "origins": null, "warnings": null, "structure": {"@module": "pymatgen.core.structure", "@class": "Structure", "charge": 0, "lattice": {"matrix": [[3.50772, -6.075549, 0.0], [3.50772, 6.075549, 0.0], [0.0, 0.0, 5.445853]], "pbc": [true, true, true], "a": 7.015439775937144, "b": 7.015439775937144, "c": 5.445853, "alpha": 90.0, "beta": 90.0, "gamma": 119.99999788696363, "volume": 232.11668351987268}, "properties": {}, "sites": [{"species": [{"element": "Cs", "occu": 1}], "abc": [0.0, 0.0, 0.0], "properties": {"magmom": -0.0}, "label": "Cs", "xyz": [0.0, 0.0, 0.0]}, {"species": [{"element": "Mg", "occu": 1}], "abc": [0.007306999999999001, 0.503653, 0.0], "properties": {"magmom": -0.0}, "label": "Mg", "xyz": [1.7923046111999965, 3.015574443954006, 0.0]}, {"species": [{"element": "Mg", "occu": 1}], "abc": [0.496347, 0.503653, 0.0], "properties": {"magmom": -0.0}, "label": "Mg", "xyz": [3.50772, 0.04438796099400033, 0.0]}, {"species": [{"element": "Mg", "occu": 1}], "abc": [0.496347, 0.992692999999999, 0.0], "properties": {"magmom": -0.0}, "label": "Mg", "xyz": [5.223135388799997, 3.0155744439539944, 0.0]}, {"species": [{"element": "Mg", "occu": 1}], "abc": [0.183956999999999, 0.367913999999999, 0.5], "properties": {"magmom": 0.0}, "label": "Mg", "xyz": [1.935808944119993, 1.117639767393, 2.7229265]}, {"species": [{"element": "Mg", "occu": 1}], "abc": [0.183956999999999, 0.816043, 0.5], "properties": {"magmom": 0.0}, "label": "Mg", "xyz": [3.5077199999999964, 3.8402694652140053, 2.7229265]}, {"species": [{"element": "Mg", "occu": 1}], "abc": [0.632085999999999, 0.816043, 0.5], "properties": {"magmom": 0.0}, "label": "Mg", "xyz": [5.079631055879997, 1.1176397673930052, 2.7229265]}, {"species": [{"element": "Mg", "occu": 1}], "abc": [0.666667, 0.333333, 0.5], "properties": {"magmom": 0.0}, "label": "Mg", "xyz": [3.50772, -2.0251870503659997, 2.7229265]}]}, "task_ids": null, "uncorrected_energy_per_atom": null, "energy_per_atom": -6.491241719116379, "formation_energy_per_atom": 0.29545554275862, "energy_above_hull": 0.29545554275862, "is_stable": false, "equilibrium_reaction_energy_per_atom": null, "decomposes_to": null, "xas": null, "grain_boundaries": null, "band_gap": 0.0, "cbm": null, "vbm": null, "efermi": 2.73025477, "is_gap_direct": null, "is_metal": null, "es_source_calc_id": null, "bandstructure": null, "dos": null, "dos_energy_up": null, "dos_energy_down": null, "is_magnetic": null, "ordering": null, "total_magnetization": 0.0001893, "total_magnetization_normalized_vol": null, "total_magnetization_normalized_formula_units": null, "num_magnetic_sites": null, "num_unique_magnetic_sites": null, "types_of_magnetic_species": null, "bulk_modulus": null, "shear_modulus": null, "universal_anisotropy": null, "homogeneous_poisson": null, "e_total": null, "e_ionic": null, "e_electronic": null, "n": null, "e_ij_max": null, "weighted_surface_energy_EV_PER_ANG2": null, "weighted_surface_energy": null, "weighted_work_function": null, "surface_anisotropy": null, "shape_factor": null, "has_reconstructed": null, "possible_species": null, "has_props": null, "theoretical": null, "database_IDs": null, "fields_not_requested": ["builder_meta", "nsites", "elements", "nelements", "composition", "composition_reduced", "chemsys", "symmetry", "property_name", "deprecated", "deprecation_reasons", "last_updated", "origins", "warnings", "task_ids", "uncorrected_energy_per_atom", "equilibrium_reaction_energy_per_atom", "decomposes_to", "xas", "grain_boundaries", "cbm", "vbm", "is_gap_direct", "is_metal", "es_source_calc_id", "bandstructure", "dos", "dos_energy_up", "dos_energy_down", "is_magnetic", "ordering", "total_magnetization_normalized_vol", "total_magnetization_normalized_formula_units", "num_magnetic_sites", "num_unique_magnetic_sites", "types_of_magnetic_species", "bulk_modulus", "shear_modulus", "universal_anisotropy", "homogeneous_poisson", "e_total", "e_ionic", "e_electronic", "n", "e_ij_max", "weighted_surface_energy_EV_PER_ANG2", "weighted_surface_energy", "weighted_work_function", "surface_anisotropy", "shape_factor", "has_reconstructed", "possible_species", "has_props", "theoretical", "database_IDs"]}