{"builder_meta": null, "nsites": null, "elements": null, "nelements": null, "composition": null, "composition_reduced": null, "formula_pretty": "CsN3", "formula_anonymous": "AB3", "chemsys": null, "volume": 174.68356652143535, "density": 3.325678751136241, "density_atomic": 21.83544581517942, "symmetry": null, "property_name": null, "material_id": "mp-510557", "deprecated": null, "deprecation_reasons": null, "last_updated": null, "origins": null, "warnings": null, "structure": {"@module": "pymatgen.core.structure", "@class": "Structure", "charge": 0, "lattice": {"matrix": [[5.565483139999999, -0.01382818, -2.6376626], [-3.33402882, 5.10251434, -0.88355239], [-0.00903381, 0.01382819, 6.15887963]], "pbc": [true, true, true], "a": 6.1589006966848485, "b": 6.1589013296505195, "c": 6.158901779164101, "alpha": 98.09441616439608, "beta": 115.44201105459672, "gamma": 115.44203208704006, "volume": 174.6835665214353}, "properties": {}, "sites": [{"species": [{"element": "Cs", "occu": 1}], "abc": [0.0, 0.25, 0.25], "properties": {"magmom": 0.0}, "label": "Cs", "xyz": [-0.8357656575, 1.2790856325, 1.31883181]}, {"species": [{"element": "Cs", "occu": 1}], "abc": [0.0, 0.75, 0.75], "properties": {"magmom": 0.0}, "label": "Cs", "xyz": [-2.5072969725, 3.8372568975, 3.9564954300000004]}, {"species": [{"element": "N", "occu": 1}], "abc": [0.75446516, 0.6272335800000001, 0.12723358], "properties": {"magmom": -0.0}, "label": "N", "xyz": [2.1065988911182854, 3.1917948665619487, -1.7606019601182967]}, {"species": [{"element": "N", "occu": 1}], "abc": [0.5, 0.12723358, 0.37276642], "properties": {"magmom": -0.0}, "label": "N", "xyz": [2.3551736463955635, 0.6474517613609171, 0.8645746771887683]}, {"species": [{"element": "N", "occu": 1}], "abc": [0.5, 0.87276642, 0.6272335800000001], "properties": {"magmom": -0.0}, "label": "N", "xyz": [-0.1327531363955651, 4.455062588639083, 1.7730899628112322]}, {"species": [{"element": "N", "occu": 1}], "abc": [0.24553484, 0.37276642, 0.87276642], "properties": {"magmom": -0.0}, "label": "N", "xyz": [0.1158216188817129, 1.9107194834380514, 4.398266600118298]}, {"species": [{"element": "N", "occu": 1}], "abc": [0.5, 0.5, -0.0], "properties": {"magmom": 0.0}, "label": "N", "xyz": [1.1157271599999994, 2.54434308, -1.760607495]}, {"species": [{"element": "N", "occu": 1}], "abc": [0.5, -0.0, 0.5], "properties": {"magmom": 0.0}, "label": "N", "xyz": [2.7782246649999993, 4.999999999970306e-09, 1.7606085150000002]}]}, "task_ids": null, "uncorrected_energy_per_atom": null, "energy_per_atom": -13.34053104375, "formation_energy_per_atom": -0.21685479031249902, "energy_above_hull": 0.0, "is_stable": true, "equilibrium_reaction_energy_per_atom": null, "decomposes_to": null, "xas": null, "grain_boundaries": null, "band_gap": 4.2395, "cbm": null, "vbm": null, "efermi": -0.0007889700000000001, "is_gap_direct": null, "is_metal": null, "es_source_calc_id": null, "bandstructure": null, "dos": null, "dos_energy_up": null, "dos_energy_down": null, "is_magnetic": null, "ordering": null, "total_magnetization": 0.0, "total_magnetization_normalized_vol": null, "total_magnetization_normalized_formula_units": null, "num_magnetic_sites": null, "num_unique_magnetic_sites": null, "types_of_magnetic_species": null, "bulk_modulus": null, "shear_modulus": null, "universal_anisotropy": null, "homogeneous_poisson": null, "e_total": null, "e_ionic": null, "e_electronic": null, "n": null, "e_ij_max": null, "weighted_surface_energy_EV_PER_ANG2": null, "weighted_surface_energy": null, "weighted_work_function": null, "surface_anisotropy": null, "shape_factor": null, "has_reconstructed": null, "possible_species": null, "has_props": null, "theoretical": null, "database_IDs": null, "fields_not_requested": ["builder_meta", "nsites", "elements", "nelements", "composition", "composition_reduced", "chemsys", "symmetry", "property_name", "deprecated", "deprecation_reasons", "last_updated", "origins", "warnings", "task_ids", "uncorrected_energy_per_atom", "equilibrium_reaction_energy_per_atom", "decomposes_to", "xas", "grain_boundaries", "cbm", "vbm", "is_gap_direct", "is_metal", "es_source_calc_id", "bandstructure", "dos", "dos_energy_up", "dos_energy_down", "is_magnetic", "ordering", "total_magnetization_normalized_vol", "total_magnetization_normalized_formula_units", "num_magnetic_sites", "num_unique_magnetic_sites", "types_of_magnetic_species", "bulk_modulus", "shear_modulus", "universal_anisotropy", "homogeneous_poisson", "e_total", "e_ionic", "e_electronic", "n", "e_ij_max", "weighted_surface_energy_EV_PER_ANG2", "weighted_surface_energy", "weighted_work_function", "surface_anisotropy", "shape_factor", "has_reconstructed", "possible_species", "has_props", "theoretical", "database_IDs"]}