{
  "builder_meta": null,
  "nsites": null,
  "elements": null,
  "nelements": null,
  "composition": null,
  "composition_reduced": null,
  "formula_pretty": "CsNa2",
  "formula_anonymous": "AB2",
  "chemsys": null,
  "volume": 698.8306451073078,
  "density": 1.700243211524222,
  "density_atomic": 58.23588709227565,
  "symmetry": null,
  "property_name": null,
  "material_id": "mp-1095650",
  "deprecated": null,
  "deprecation_reasons": null,
  "last_updated": null,
  "origins": null,
  "warnings": null,
  "structure": {
    "@module": "pymatgen.core.structure",
    "@class": "Structure",
    "charge": 0,
    "lattice": {
      "matrix": [
        [3.92573007, -6.79956393, 0.0],
        [3.92573007, 6.79956393, -0.0],
        [0.0, -0.0, 13.09002421]
      ],
      "pbc": [true, true, true],
      "a": 7.851460133036355,
      "b": 7.851460133036355,
      "c": 13.09002421,
      "alpha": 90.0,
      "beta": 90.0,
      "gamma": 119.9999999413216,
      "volume": 698.8306451073078
    },
    "properties": {},
    "sites": [
      {
        "species": [{ "element": "Cs", "occu": 1 }],
        "abc": [0.333333, 0.666667, 0.437947],
        "properties": { "magmom": -0.0 },
        "label": "Cs",
        "xyz": [3.92573007, 2.2665258430426203, 5.73273683269687]
      },
      {
        "species": [{ "element": "Cs", "occu": 1 }],
        "abc": [0.666667, 0.333333, 0.562053],
        "properties": { "magmom": -0.0 },
        "label": "Cs",
        "xyz": [3.92573007, -2.2665258430426203, 7.3572873773031295]
      },
      {
        "species": [{ "element": "Cs", "occu": 1 }],
        "abc": [0.666667, 0.333333, 0.937947],
        "properties": { "magmom": -0.0 },
        "label": "Cs",
        "xyz": [3.92573007, -2.2665258430426203, 12.277748937696868]
      },
      {
        "species": [{ "element": "Cs", "occu": 1 }],
        "abc": [0.333333, 0.666667, 0.062053],
        "properties": { "magmom": -0.0 },
        "label": "Cs",
        "xyz": [3.92573007, 2.2665258430426203, 0.8122752723031299]
      },
      {
        "species": [{ "element": "Na", "occu": 1 }],
        "abc": [-0.0, 0.0, 0.5],
        "properties": { "magmom": -0.0 },
        "label": "Na",
        "xyz": [0.0, 0.0, 6.545012105]
      },
      {
        "species": [{ "element": "Na", "occu": 1 }],
        "abc": [-0.0, 0.0, 0.0],
        "properties": { "magmom": -0.0 },
        "label": "Na",
        "xyz": [0.0, 0.0, 0.0]
      },
      {
        "species": [{ "element": "Na", "occu": 1 }],
        "abc": [0.83613546, 0.16386454, 0.25],
        "properties": { "magmom": 0.0 },
        "label": "Na",
        "xyz": [3.92573007, -4.571149098819916, 3.2725060525]
      },
      {
        "species": [{ "element": "Na", "occu": 1 }],
        "abc": [0.83613546, 0.67227093, 0.25],
        "properties": { "magmom": 0.0 },
        "label": "Na",
        "xyz": [5.921596323003148, -1.1142073475944025, 3.2725060525]
      },
      {
        "species": [{ "element": "Na", "occu": 1 }],
        "abc": [0.32772907, 0.16386454, 0.25],
        "properties": { "magmom": 0.0 },
        "label": "Na",
        "xyz": [1.929863816996853, -1.1142073475944028, 3.2725060525]
      },
      {
        "species": [{ "element": "Na", "occu": 1 }],
        "abc": [0.16386454, 0.83613546, 0.75],
        "properties": { "magmom": 0.0 },
        "label": "Na",
        "xyz": [3.92573007, 4.571149098819916, 9.8175181575]
      },
      {
        "species": [{ "element": "Na", "occu": 1 }],
        "abc": [0.16386454, 0.32772907, 0.75],
        "properties": { "magmom": 0.0 },
        "label": "Na",
        "xyz": [1.929863816996853, 1.1142073475944028, 9.8175181575]
      },
      {
        "species": [{ "element": "Na", "occu": 1 }],
        "abc": [0.67227093, 0.83613546, 0.75],
        "properties": { "magmom": 0.0 },
        "label": "Na",
        "xyz": [5.921596323003148, 1.1142073475944025, 9.8175181575]
      }
    ]
  },
  "task_ids": null,
  "uncorrected_energy_per_atom": null,
  "energy_per_atom": -10.731950556666668,
  "formation_energy_per_atom": 0.013654156666665002,
  "energy_above_hull": 0.013654156666666,
  "is_stable": false,
  "equilibrium_reaction_energy_per_atom": null,
  "decomposes_to": null,
  "xas": null,
  "grain_boundaries": null,
  "band_gap": 0.0,
  "cbm": null,
  "vbm": null,
  "efermi": 0.8351292300000001,
  "is_gap_direct": null,
  "is_metal": null,
  "es_source_calc_id": null,
  "bandstructure": null,
  "dos": null,
  "dos_energy_up": null,
  "dos_energy_down": null,
  "is_magnetic": null,
  "ordering": null,
  "total_magnetization": 5.299999999999997e-6,
  "total_magnetization_normalized_vol": null,
  "total_magnetization_normalized_formula_units": null,
  "num_magnetic_sites": null,
  "num_unique_magnetic_sites": null,
  "types_of_magnetic_species": null,
  "bulk_modulus": null,
  "shear_modulus": null,
  "universal_anisotropy": null,
  "homogeneous_poisson": null,
  "e_total": null,
  "e_ionic": null,
  "e_electronic": null,
  "n": null,
  "e_ij_max": null,
  "weighted_surface_energy_EV_PER_ANG2": null,
  "weighted_surface_energy": null,
  "weighted_work_function": null,
  "surface_anisotropy": null,
  "shape_factor": null,
  "has_reconstructed": null,
  "possible_species": null,
  "has_props": null,
  "theoretical": null,
  "database_IDs": null,
  "fields_not_requested": [
    "builder_meta",
    "nsites",
    "elements",
    "nelements",
    "composition",
    "composition_reduced",
    "chemsys",
    "symmetry",
    "property_name",
    "deprecated",
    "deprecation_reasons",
    "last_updated",
    "origins",
    "warnings",
    "task_ids",
    "uncorrected_energy_per_atom",
    "equilibrium_reaction_energy_per_atom",
    "decomposes_to",
    "xas",
    "grain_boundaries",
    "cbm",
    "vbm",
    "is_gap_direct",
    "is_metal",
    "es_source_calc_id",
    "bandstructure",
    "dos",
    "dos_energy_up",
    "dos_energy_down",
    "is_magnetic",
    "ordering",
    "total_magnetization_normalized_vol",
    "total_magnetization_normalized_formula_units",
    "num_magnetic_sites",
    "num_unique_magnetic_sites",
    "types_of_magnetic_species",
    "bulk_modulus",
    "shear_modulus",
    "universal_anisotropy",
    "homogeneous_poisson",
    "e_total",
    "e_ionic",
    "e_electronic",
    "n",
    "e_ij_max",
    "weighted_surface_energy_EV_PER_ANG2",
    "weighted_surface_energy",
    "weighted_work_function",
    "surface_anisotropy",
    "shape_factor",
    "has_reconstructed",
    "possible_species",
    "has_props",
    "theoretical",
    "database_IDs"
  ]
}
