{
  "builder_meta": null,
  "nsites": null,
  "elements": null,
  "nelements": null,
  "composition": null,
  "composition_reduced": null,
  "formula_pretty": "CsO2",
  "formula_anonymous": "AB2",
  "chemsys": null,
  "volume": 140.6944980519223,
  "density": 3.892546706799327,
  "density_atomic": 23.449083008653716,
  "symmetry": null,
  "property_name": null,
  "material_id": "mp-2037681",
  "deprecated": null,
  "deprecation_reasons": null,
  "last_updated": null,
  "origins": null,
  "warnings": null,
  "structure": {
    "@module": "pymatgen.core.structure",
    "@class": "Structure",
    "charge": 0,
    "lattice": {
      "matrix": [
        [4.17132648, 0.0, 0.00104665],
        [0.0, 4.59548135, 0.0],
        [0.00166516, 0.0, 7.33959251]
      ],
      "pbc": [true, true, true],
      "a": 4.171326611310294,
      "b": 4.59548135,
      "c": 7.339592698890445,
      "alpha": 90.0,
      "beta": 89.97262470629049,
      "gamma": 90.0,
      "volume": 140.6944980519223
    },
    "properties": {},
    "sites": [
      {
        "species": [{ "element": "Cs", "occu": 1 }],
        "abc": [0.0, 0.0, 0.0],
        "properties": { "magmom": -0.003 },
        "label": "Cs",
        "xyz": [0.0, 0.0, 0.0]
      },
      {
        "species": [{ "element": "Cs", "occu": 1 }],
        "abc": [0.5, 0.5, 0.5],
        "properties": { "magmom": -0.003 },
        "label": "Cs",
        "xyz": [2.08649582, 2.297740675, 3.67031958]
      },
      {
        "species": [{ "element": "O", "occu": 1 }],
        "abc": [0.0009091300000000001, 0.0, 0.40858476],
        "properties": { "magmom": 0.417 },
        "label": "O",
        "xyz": [0.004472637041724001, 0.0, 2.9988465957370622]
      },
      {
        "species": [{ "element": "O", "occu": 1 }],
        "abc": [0.5008661, 0.5, 0.09139107],
        "properties": { "magmom": 0.417 },
        "label": "O",
        "xyz": [2.0894282066184493, 2.297740675, 0.6712974443564507]
      },
      {
        "species": [{ "element": "O", "occu": 1 }],
        "abc": [0.499133899999999, 0.5, 0.90860893],
        "properties": { "magmom": 0.417 },
        "label": "O",
        "xyz": [2.083563433381547, 2.297740675, 6.669341715643549]
      },
      {
        "species": [{ "element": "O", "occu": 1 }],
        "abc": [-0.0009091300000000001, 0.0, 0.59141524],
        "properties": { "magmom": 0.417 },
        "label": "O",
        "xyz": [-0.002807477041724, 0.0, 4.340745914262938]
      }
    ]
  },
  "task_ids": null,
  "uncorrected_energy_per_atom": null,
  "energy_per_atom": -4.611815541666666,
  "formation_energy_per_atom": -1.010515681551724,
  "energy_above_hull": 0.0,
  "is_stable": true,
  "equilibrium_reaction_energy_per_atom": null,
  "decomposes_to": null,
  "xas": null,
  "grain_boundaries": null,
  "band_gap": 0.41429999999999906,
  "cbm": null,
  "vbm": null,
  "efermi": 1.07996894,
  "is_gap_direct": null,
  "is_metal": null,
  "es_source_calc_id": null,
  "bandstructure": null,
  "dos": null,
  "dos_energy_up": null,
  "dos_energy_down": null,
  "is_magnetic": null,
  "ordering": null,
  "total_magnetization": 1.9999999,
  "total_magnetization_normalized_vol": null,
  "total_magnetization_normalized_formula_units": null,
  "num_magnetic_sites": null,
  "num_unique_magnetic_sites": null,
  "types_of_magnetic_species": null,
  "bulk_modulus": null,
  "shear_modulus": null,
  "universal_anisotropy": null,
  "homogeneous_poisson": null,
  "e_total": null,
  "e_ionic": null,
  "e_electronic": null,
  "n": null,
  "e_ij_max": null,
  "weighted_surface_energy_EV_PER_ANG2": null,
  "weighted_surface_energy": null,
  "weighted_work_function": null,
  "surface_anisotropy": null,
  "shape_factor": null,
  "has_reconstructed": null,
  "possible_species": null,
  "has_props": null,
  "theoretical": null,
  "database_IDs": null,
  "fields_not_requested": [
    "builder_meta",
    "nsites",
    "elements",
    "nelements",
    "composition",
    "composition_reduced",
    "chemsys",
    "symmetry",
    "property_name",
    "deprecated",
    "deprecation_reasons",
    "last_updated",
    "origins",
    "warnings",
    "task_ids",
    "uncorrected_energy_per_atom",
    "equilibrium_reaction_energy_per_atom",
    "decomposes_to",
    "xas",
    "grain_boundaries",
    "cbm",
    "vbm",
    "is_gap_direct",
    "is_metal",
    "es_source_calc_id",
    "bandstructure",
    "dos",
    "dos_energy_up",
    "dos_energy_down",
    "is_magnetic",
    "ordering",
    "total_magnetization_normalized_vol",
    "total_magnetization_normalized_formula_units",
    "num_magnetic_sites",
    "num_unique_magnetic_sites",
    "types_of_magnetic_species",
    "bulk_modulus",
    "shear_modulus",
    "universal_anisotropy",
    "homogeneous_poisson",
    "e_total",
    "e_ionic",
    "e_electronic",
    "n",
    "e_ij_max",
    "weighted_surface_energy_EV_PER_ANG2",
    "weighted_surface_energy",
    "weighted_work_function",
    "surface_anisotropy",
    "shape_factor",
    "has_reconstructed",
    "possible_species",
    "has_props",
    "theoretical",
    "database_IDs"
  ]
}
