{"builder_meta": null, "nsites": null, "elements": null, "nelements": null, "composition": null, "composition_reduced": null, "formula_pretty": "CsO3", "formula_anonymous": "AB3", "chemsys": null, "volume": 353.1624444172931, "density": 3.4023728855564332, "density_atomic": 22.07265277608082, "symmetry": null, "property_name": null, "material_id": "mp-1189507", "deprecated": null, "deprecation_reasons": null, "last_updated": null, "origins": null, "warnings": null, "structure": {"@module": "pymatgen.core.structure", "@class": "Structure", "charge": 0, "lattice": {"matrix": [[0.0, -6.489655, 0.0], [-5.895473, 0.0, 3.587666999999999], [-5.834741, 0.0, -5.679983]], "pbc": [true, true, true], "a": 6.489655, "b": 6.901301065496128, "c": 8.142874763704155, "alpha": 75.55243006791706, "beta": 90.0, "gamma": 90.0, "volume": 353.16244441729305}, "properties": {}, "sites": [{"species": [{"element": "Cs", "occu": 1}], "abc": [0.745931999999999, 0.352460999999999, 0.414927999999999], "properties": {"magmom": 0.008}, "label": "Cs", "xyz": [-4.498921722700988, -4.840841333459994, -1.0922712877369984]}, {"species": [{"element": "Cs", "occu": 1}], "abc": [0.245931999999999, 0.147539, 0.085072], "properties": {"magmom": 0.008}, "label": "Cs", "xyz": [-1.366185277299, -1.5960138334599936, 0.04611328773699991]}, {"species": [{"element": "Cs", "occu": 1}], "abc": [0.254068, 0.647539, 0.585071999999999], "properties": {"magmom": 0.008}, "label": "Cs", "xyz": [-7.231292277298994, -1.6488136665400002, -1.0000447122629952]}, {"species": [{"element": "Cs", "occu": 1}], "abc": [0.754068, 0.852460999999999, 0.914928], "properties": {"magmom": 0.008}, "label": "Cs", "xyz": [-10.364028722700994, -4.89364116654, -2.138429287737004]}, {"species": [{"element": "O", "occu": 1}], "abc": [0.279468999999999, 0.612548, 0.122206], "properties": {"magmom": 0.33}, "label": "O", "xyz": [-4.32430055385, -1.8136573931949937, 1.5034902430179993]}, {"species": [{"element": "O", "occu": 1}], "abc": [0.779469, 0.887451999999999, 0.377793999999999], "properties": {"magmom": 0.33}, "label": "O", "xyz": [-7.436279446149989, -5.058484893195, 1.0380187569820007]}, {"species": [{"element": "O", "occu": 1}], "abc": [0.720530999999999, 0.387451999999999, 0.877794], "properties": {"magmom": 0.33}, "label": "O", "xyz": [-7.405913446149994, -4.6759976068049935, -3.5958062430180036]}, {"species": [{"element": "O", "occu": 1}], "abc": [0.220530999999999, 0.112548, 0.622205999999999], "properties": {"magmom": 0.33}, "label": "O", "xyz": [-4.2939345538499945, -1.4311701068049936, -3.1303347569819944]}, {"species": [{"element": "O", "occu": 1}], "abc": [0.248655, 0.218401999999999, 0.457277999999999], "properties": {"magmom": 0.242}, "label": "O", "xyz": [-3.9556817891439886, -1.6136851640249998, -1.8137776181399983]}, {"species": [{"element": "O", "occu": 1}], "abc": [0.748655, 0.281598, 0.042721999999999004], "properties": {"magmom": 0.242}, "label": "O", "xyz": [-1.9094252108559944, -4.858512664025, 0.7676196181400053]}, {"species": [{"element": "O", "occu": 1}], "abc": [0.751344999999999, 0.781598, 0.542721999999999], "properties": {"magmom": 0.242}, "label": "O", "xyz": [-7.774532210855995, -4.875969835974994, -0.27853838185999535]}, {"species": [{"element": "O", "occu": 1}], "abc": [0.251345, 0.718402, 0.957278], "properties": {"magmom": 0.242}, "label": "O", "xyz": [-9.820788789144, -1.631142335975, -2.8599356181400006]}, {"species": [{"element": "O", "occu": 1}], "abc": [0.423421, 0.693712, 0.208305], "properties": {"magmom": 0.242}, "label": "O", "xyz": [-5.305166089781, -2.747856209755, 1.305638791088999]}, {"species": [{"element": "O", "occu": 1}], "abc": [0.923420999999999, 0.806288, 0.291695], "properties": {"magmom": 0.242}, "label": "O", "xyz": [-6.455413910219, -5.992683709754994, 1.2358702089109992]}, {"species": [{"element": "O", "occu": 1}], "abc": [0.576579, 0.306288, 0.791694999999999], "properties": {"magmom": 0.242}, "label": "O", "xyz": [-6.425047910218995, -3.741798790245, -3.3979547910889956]}, {"species": [{"element": "O", "occu": 1}], "abc": [0.076579, 0.193712, 0.708305], "properties": {"magmom": 0.242}, "label": "O", "xyz": [-5.274800089781, -0.496971290245, -3.328186208911]}]}, "task_ids": null, "uncorrected_energy_per_atom": null, "energy_per_atom": -4.586939965, "formation_energy_per_atom": -0.648974818663793, "energy_above_hull": 0.10891194249999901, "is_stable": false, "equilibrium_reaction_energy_per_atom": null, "decomposes_to": null, "xas": null, "grain_boundaries": null, "band_gap": 0.9415, "cbm": null, "vbm": null, "efermi": 1.06394371, "is_gap_direct": null, "is_metal": null, "es_source_calc_id": null, "bandstructure": null, "dos": null, "dos_energy_up": null, "dos_energy_down": null, "is_magnetic": null, "ordering": null, "total_magnetization": 3.9996465, "total_magnetization_normalized_vol": null, "total_magnetization_normalized_formula_units": null, "num_magnetic_sites": null, "num_unique_magnetic_sites": null, "types_of_magnetic_species": null, "bulk_modulus": null, "shear_modulus": null, "universal_anisotropy": null, "homogeneous_poisson": null, "e_total": null, "e_ionic": null, "e_electronic": null, "n": null, "e_ij_max": null, "weighted_surface_energy_EV_PER_ANG2": null, "weighted_surface_energy": null, "weighted_work_function": null, "surface_anisotropy": null, "shape_factor": null, "has_reconstructed": null, "possible_species": null, "has_props": null, "theoretical": null, "database_IDs": null, "fields_not_requested": ["builder_meta", "nsites", "elements", "nelements", "composition", "composition_reduced", "chemsys", "symmetry", "property_name", "deprecated", "deprecation_reasons", "last_updated", "origins", "warnings", "task_ids", "uncorrected_energy_per_atom", "equilibrium_reaction_energy_per_atom", "decomposes_to", "xas", "grain_boundaries", "cbm", "vbm", "is_gap_direct", "is_metal", "es_source_calc_id", "bandstructure", "dos", "dos_energy_up", "dos_energy_down", "is_magnetic", "ordering", "total_magnetization_normalized_vol", "total_magnetization_normalized_formula_units", "num_magnetic_sites", "num_unique_magnetic_sites", "types_of_magnetic_species", "bulk_modulus", "shear_modulus", "universal_anisotropy", "homogeneous_poisson", "e_total", "e_ionic", "e_electronic", "n", "e_ij_max", "weighted_surface_energy_EV_PER_ANG2", "weighted_surface_energy", "weighted_work_function", "surface_anisotropy", "shape_factor", "has_reconstructed", "possible_species", "has_props", "theoretical", "database_IDs"]}