{
  "builder_meta": null,
  "nsites": null,
  "elements": null,
  "nelements": null,
  "composition": null,
  "composition_reduced": null,
  "formula_pretty": "CsP7",
  "formula_anonymous": "AB7",
  "chemsys": null,
  "volume": 878.5763058071049,
  "density": 2.643944226993856,
  "density_atomic": 27.455509556472027,
  "symmetry": null,
  "property_name": null,
  "material_id": "mp-1201790",
  "deprecated": null,
  "deprecation_reasons": null,
  "last_updated": null,
  "origins": null,
  "warnings": null,
  "structure": {
    "@module": "pymatgen.core.structure",
    "@class": "Structure",
    "charge": 0,
    "lattice": {
      "matrix": [
        [9.30060689, 0.0, 0.0],
        [-0.0, 9.69354759, 0.0],
        [0.0, 0.0, 9.74508096]
      ],
      "pbc": [true, true, true],
      "a": 9.30060689,
      "b": 9.69354759,
      "c": 9.74508096,
      "alpha": 90.0,
      "beta": 90.0,
      "gamma": 90.0,
      "volume": 878.5763058071049
    },
    "properties": {},
    "sites": [
      {
        "species": [{ "element": "Cs", "occu": 1 }],
        "abc": [0.78680693, 0.25, 0.0],
        "properties": { "magmom": -0.0 },
        "label": "Cs",
        "xyz": [7.317781954257748, 2.4233868975, 0.0]
      },
      {
        "species": [{ "element": "Cs", "occu": 1 }],
        "abc": [0.21319307, 0.75, 0.5],
        "properties": { "magmom": -0.0 },
        "label": "Cs",
        "xyz": [1.9828249357422523, 7.270160692499999, 4.87254048]
      },
      {
        "species": [{ "element": "Cs", "occu": 1 }],
        "abc": [0.21319307, 0.75, 0.0],
        "properties": { "magmom": -0.0 },
        "label": "Cs",
        "xyz": [1.9828249357422523, 7.270160692499999, 0.0]
      },
      {
        "species": [{ "element": "Cs", "occu": 1 }],
        "abc": [0.78680693, 0.25, 0.5],
        "properties": { "magmom": -0.0 },
        "label": "Cs",
        "xyz": [7.317781954257748, 2.4233868975, 4.87254048]
      },
      {
        "species": [{ "element": "P", "occu": 1 }],
        "abc": [0.56381705, 0.8381541100000001, 0.75],
        "properties": { "magmom": -0.0 },
        "label": "P",
        "xyz": [5.243840739929475, 8.124686753039095, 7.308810719999999]
      },
      {
        "species": [{ "element": "P", "occu": 1 }],
        "abc": [0.43618295, 0.16184589, 0.25],
        "properties": { "magmom": -0.0 },
        "label": "P",
        "xyz": [4.056766150070525, 1.568860836960905, 2.43627024]
      },
      {
        "species": [{ "element": "P", "occu": 1 }],
        "abc": [0.56381705, 0.66184589, 0.25],
        "properties": { "magmom": -0.0 },
        "label": "P",
        "xyz": [5.243840739929475, 6.415634631960906, 2.43627024]
      },
      {
        "species": [{ "element": "P", "occu": 1 }],
        "abc": [0.43618295, 0.33815411, 0.75],
        "properties": { "magmom": -0.0 },
        "label": "P",
        "xyz": [4.056766150070525, 3.277912958039095, 7.308810719999999]
      },
      {
        "species": [{ "element": "P", "occu": 1 }],
        "abc": [0.83383077, 0.6303700600000001, 0.63579494],
        "properties": { "magmom": -0.0 },
        "label": "P",
        "xyz": [7.755132204556005, 6.110522175921155, 6.195873164258342]
      },
      {
        "species": [{ "element": "P", "occu": 1 }],
        "abc": [0.16616923, 0.36962994, 0.13579494],
        "properties": { "magmom": -0.0 },
        "label": "P",
        "xyz": [1.5454746854439945, 3.5830254140788442, 1.3233326842583424]
      },
      {
        "species": [{ "element": "P", "occu": 1 }],
        "abc": [0.83383077, 0.86962994, 0.36420506],
        "properties": { "magmom": -0.0 },
        "label": "P",
        "xyz": [7.755132204556005, 8.429799209078844, 3.5492077957416575]
      },
      {
        "species": [{ "element": "P", "occu": 1 }],
        "abc": [0.16616923, 0.13037006, 0.86420506],
        "properties": { "magmom": -0.0 },
        "label": "P",
        "xyz": [1.5454746854439945, 1.2637483809211554, 8.421748275741656]
      },
      {
        "species": [{ "element": "P", "occu": 1 }],
        "abc": [0.16616923, 0.36962994, 0.36420506],
        "properties": { "magmom": -0.0 },
        "label": "P",
        "xyz": [1.5454746854439945, 3.5830254140788442, 3.5492077957416575]
      },
      {
        "species": [{ "element": "P", "occu": 1 }],
        "abc": [0.83383077, 0.6303700600000001, 0.86420506],
        "properties": { "magmom": -0.0 },
        "label": "P",
        "xyz": [7.755132204556005, 6.110522175921155, 8.421748275741656]
      },
      {
        "species": [{ "element": "P", "occu": 1 }],
        "abc": [0.16616923, 0.13037006, 0.63579494],
        "properties": { "magmom": -0.0 },
        "label": "P",
        "xyz": [1.5454746854439945, 1.2637483809211554, 6.195873164258342]
      },
      {
        "species": [{ "element": "P", "occu": 1 }],
        "abc": [0.83383077, 0.86962994, 0.13579494],
        "properties": { "magmom": -0.0 },
        "label": "P",
        "xyz": [7.755132204556005, 8.429799209078844, 1.3233326842583424]
      },
      {
        "species": [{ "element": "P", "occu": 1 }],
        "abc": [0.74862859, 0.96914594, 0.75],
        "properties": { "magmom": 0.0 },
        "label": "P",
        "xyz": [6.962700222204985, 9.394462291045285, 7.308810719999999]
      },
      {
        "species": [{ "element": "P", "occu": 1 }],
        "abc": [0.25137141, 0.03085406, 0.25],
        "properties": { "magmom": 0.0 },
        "label": "P",
        "xyz": [2.3379066677950147, 0.29908529895471536, 2.43627024]
      },
      {
        "species": [{ "element": "P", "occu": 1 }],
        "abc": [0.74862859, 0.53085406, 0.25],
        "properties": { "magmom": 0.0 },
        "label": "P",
        "xyz": [6.962700222204985, 5.145859093954716, 2.43627024]
      },
      {
        "species": [{ "element": "P", "occu": 1 }],
        "abc": [0.25137141, 0.46914594, 0.75],
        "properties": { "magmom": 0.0 },
        "label": "P",
        "xyz": [2.3379066677950147, 4.547688496045284, 7.308810719999999]
      },
      {
        "species": [{ "element": "P", "occu": 1 }],
        "abc": [0.9124571100000001, 0.8155641, 0.75],
        "properties": { "magmom": 0.0 },
        "label": "P",
        "xyz": [8.486404884095489, 7.905709416045519, 7.308810719999999]
      },
      {
        "species": [{ "element": "P", "occu": 1 }],
        "abc": [0.08754289, 0.18443589999999901, 0.25],
        "properties": { "magmom": 0.0 },
        "label": "P",
        "xyz": [0.814202005904512, 1.7878381739544713, 2.43627024]
      },
      {
        "species": [{ "element": "P", "occu": 1 }],
        "abc": [0.9124571100000001, 0.6844359, 0.25],
        "properties": { "magmom": 0.0 },
        "label": "P",
        "xyz": [8.486404884095489, 6.634611968954481, 2.43627024]
      },
      {
        "species": [{ "element": "P", "occu": 1 }],
        "abc": [0.08754289, 0.315564099999999, 0.75],
        "properties": { "magmom": 0.0 },
        "label": "P",
        "xyz": [0.814202005904512, 3.058935621045509, 7.308810719999999]
      },
      {
        "species": [{ "element": "P", "occu": 1 }],
        "abc": [0.60772946, 0.68131735, 0.90913045],
        "properties": { "magmom": 0.0 },
        "label": "P",
        "xyz": [5.652252802931979, 6.604382156117687, 8.859549838451231]
      },
      {
        "species": [{ "element": "P", "occu": 1 }],
        "abc": [0.39227054, 0.31868265, 0.40913045000000003],
        "properties": { "magmom": 0.0 },
        "label": "P",
        "xyz": [3.6483540870680202, 3.0891654338823136, 3.987009358451232]
      },
      {
        "species": [{ "element": "P", "occu": 1 }],
        "abc": [0.60772946, 0.8186826500000001, 0.09086955000000001],
        "properties": { "magmom": 0.0 },
        "label": "P",
        "xyz": [5.652252802931979, 7.935939228882314, 0.885531121548768]
      },
      {
        "species": [{ "element": "P", "occu": 1 }],
        "abc": [0.39227054, 0.18131735000000002, 0.59086955],
        "properties": { "magmom": 0.0 },
        "label": "P",
        "xyz": [3.6483540870680202, 1.7576083611176867, 5.758071601548767]
      },
      {
        "species": [{ "element": "P", "occu": 1 }],
        "abc": [0.39227054, 0.31868265, 0.09086955000000001],
        "properties": { "magmom": 0.0 },
        "label": "P",
        "xyz": [3.6483540870680202, 3.0891654338823136, 0.885531121548768]
      },
      {
        "species": [{ "element": "P", "occu": 1 }],
        "abc": [0.60772946, 0.68131735, 0.59086955],
        "properties": { "magmom": 0.0 },
        "label": "P",
        "xyz": [5.652252802931979, 6.604382156117687, 5.758071601548767]
      },
      {
        "species": [{ "element": "P", "occu": 1 }],
        "abc": [0.39227054, 0.18131735000000002, 0.90913045],
        "properties": { "magmom": 0.0 },
        "label": "P",
        "xyz": [3.6483540870680202, 1.7576083611176867, 8.859549838451231]
      },
      {
        "species": [{ "element": "P", "occu": 1 }],
        "abc": [0.60772946, 0.8186826500000001, 0.40913045000000003],
        "properties": { "magmom": 0.0 },
        "label": "P",
        "xyz": [5.652252802931979, 7.935939228882314, 3.987009358451232]
      }
    ]
  },
  "task_ids": null,
  "uncorrected_energy_per_atom": null,
  "energy_per_atom": -11.2617148653125,
  "formation_energy_per_atom": -0.246341467291665,
  "energy_above_hull": 0.0,
  "is_stable": true,
  "equilibrium_reaction_energy_per_atom": null,
  "decomposes_to": null,
  "xas": null,
  "grain_boundaries": null,
  "band_gap": 1.2774,
  "cbm": null,
  "vbm": null,
  "efermi": 4.38233692,
  "is_gap_direct": null,
  "is_metal": null,
  "es_source_calc_id": null,
  "bandstructure": null,
  "dos": null,
  "dos_energy_up": null,
  "dos_energy_down": null,
  "is_magnetic": null,
  "ordering": null,
  "total_magnetization": 0.0,
  "total_magnetization_normalized_vol": null,
  "total_magnetization_normalized_formula_units": null,
  "num_magnetic_sites": null,
  "num_unique_magnetic_sites": null,
  "types_of_magnetic_species": null,
  "bulk_modulus": null,
  "shear_modulus": null,
  "universal_anisotropy": null,
  "homogeneous_poisson": null,
  "e_total": null,
  "e_ionic": null,
  "e_electronic": null,
  "n": null,
  "e_ij_max": null,
  "weighted_surface_energy_EV_PER_ANG2": null,
  "weighted_surface_energy": null,
  "weighted_work_function": null,
  "surface_anisotropy": null,
  "shape_factor": null,
  "has_reconstructed": null,
  "possible_species": null,
  "has_props": null,
  "theoretical": null,
  "database_IDs": null,
  "fields_not_requested": [
    "builder_meta",
    "nsites",
    "elements",
    "nelements",
    "composition",
    "composition_reduced",
    "chemsys",
    "symmetry",
    "property_name",
    "deprecated",
    "deprecation_reasons",
    "last_updated",
    "origins",
    "warnings",
    "task_ids",
    "uncorrected_energy_per_atom",
    "equilibrium_reaction_energy_per_atom",
    "decomposes_to",
    "xas",
    "grain_boundaries",
    "cbm",
    "vbm",
    "is_gap_direct",
    "is_metal",
    "es_source_calc_id",
    "bandstructure",
    "dos",
    "dos_energy_up",
    "dos_energy_down",
    "is_magnetic",
    "ordering",
    "total_magnetization_normalized_vol",
    "total_magnetization_normalized_formula_units",
    "num_magnetic_sites",
    "num_unique_magnetic_sites",
    "types_of_magnetic_species",
    "bulk_modulus",
    "shear_modulus",
    "universal_anisotropy",
    "homogeneous_poisson",
    "e_total",
    "e_ionic",
    "e_electronic",
    "n",
    "e_ij_max",
    "weighted_surface_energy_EV_PER_ANG2",
    "weighted_surface_energy",
    "weighted_work_function",
    "surface_anisotropy",
    "shape_factor",
    "has_reconstructed",
    "possible_species",
    "has_props",
    "theoretical",
    "database_IDs"
  ]
}
