{
  "builder_meta": null,
  "nsites": null,
  "elements": null,
  "nelements": null,
  "composition": null,
  "composition_reduced": null,
  "formula_pretty": "CsPb3",
  "formula_anonymous": "AB3",
  "chemsys": null,
  "volume": 338.83892314190047,
  "density": 7.395170349528869,
  "density_atomic": 42.35486539273756,
  "symmetry": null,
  "property_name": null,
  "material_id": "mp-1183989",
  "deprecated": null,
  "deprecation_reasons": null,
  "last_updated": null,
  "origins": null,
  "warnings": null,
  "structure": {
    "@module": "pymatgen.core.structure",
    "@class": "Structure",
    "charge": 0,
    "lattice": {
      "matrix": [
        [4.12745149, -7.14895514, -0.0],
        [4.12745149, 7.14895514, -0.0],
        [-0.0, -0.0, 5.74167687]
      ],
      "pbc": [true, true, true],
      "a": 8.254902506755343,
      "b": 8.254902506755343,
      "c": 5.74167687,
      "alpha": 90.0,
      "beta": 90.0,
      "gamma": 119.99999620714905,
      "volume": 338.83892314190047
    },
    "properties": {},
    "sites": [
      {
        "species": [{ "element": "Cs", "occu": 1 }],
        "abc": [0.333333, 0.666667, 0.75],
        "properties": { "magmom": 0.0 },
        "label": "Cs",
        "xyz": [4.12745149, 2.38298981263676, 4.3062576525]
      },
      {
        "species": [{ "element": "Cs", "occu": 1 }],
        "abc": [0.666667, 0.333333, 0.25],
        "properties": { "magmom": 0.0 },
        "label": "Cs",
        "xyz": [4.12745149, -2.38298981263676, 1.4354192175]
      },
      {
        "species": [{ "element": "Pb", "occu": 1 }],
        "abc": [0.12799258, 0.25598416, 0.25],
        "properties": { "magmom": 0.0 },
        "label": "Pb",
        "xyz": [1.5848453676383427, 0.9150060637177213, 1.4354192175]
      },
      {
        "species": [{ "element": "Pb", "occu": 1 }],
        "abc": [0.74401584, 0.87200742, 0.25],
        "properties": { "magmom": 0.0 },
        "label": "Pb",
        "xyz": [6.670057612361658, 0.9150060637177209, 1.4354192175]
      },
      {
        "species": [{ "element": "Pb", "occu": 1 }],
        "abc": [0.12799258, 0.87200742, 0.25],
        "properties": { "magmom": 0.0 },
        "label": "Pb",
        "xyz": [4.12745149, 5.318928714654277, 1.4354192175]
      },
      {
        "species": [{ "element": "Pb", "occu": 1 }],
        "abc": [0.87200742, 0.74401584, 0.75],
        "properties": { "magmom": 0.0 },
        "label": "Pb",
        "xyz": [6.670057612361658, -0.9150060637177209, 4.3062576525]
      },
      {
        "species": [{ "element": "Pb", "occu": 1 }],
        "abc": [0.25598416, 0.12799258, 0.75],
        "properties": { "magmom": 0.0 },
        "label": "Pb",
        "xyz": [1.5848453676383427, -0.9150060637177213, 4.3062576525]
      },
      {
        "species": [{ "element": "Pb", "occu": 1 }],
        "abc": [0.87200742, 0.12799258, 0.75],
        "properties": { "magmom": 0.0 },
        "label": "Pb",
        "xyz": [4.12745149, -5.318928714654277, 4.3062576525]
      }
    ]
  },
  "task_ids": null,
  "uncorrected_energy_per_atom": null,
  "energy_per_atom": -3.106771271249997,
  "formation_energy_per_atom": -0.09529157616378801,
  "energy_above_hull": 0.057196883593753,
  "is_stable": false,
  "equilibrium_reaction_energy_per_atom": null,
  "decomposes_to": null,
  "xas": null,
  "grain_boundaries": null,
  "band_gap": 0.0,
  "cbm": null,
  "vbm": null,
  "efermi": 4.04969958,
  "is_gap_direct": null,
  "is_metal": null,
  "es_source_calc_id": null,
  "bandstructure": null,
  "dos": null,
  "dos_energy_up": null,
  "dos_energy_down": null,
  "is_magnetic": null,
  "ordering": null,
  "total_magnetization": 0.0005492,
  "total_magnetization_normalized_vol": null,
  "total_magnetization_normalized_formula_units": null,
  "num_magnetic_sites": null,
  "num_unique_magnetic_sites": null,
  "types_of_magnetic_species": null,
  "bulk_modulus": null,
  "shear_modulus": null,
  "universal_anisotropy": null,
  "homogeneous_poisson": null,
  "e_total": null,
  "e_ionic": null,
  "e_electronic": null,
  "n": null,
  "e_ij_max": null,
  "weighted_surface_energy_EV_PER_ANG2": null,
  "weighted_surface_energy": null,
  "weighted_work_function": null,
  "surface_anisotropy": null,
  "shape_factor": null,
  "has_reconstructed": null,
  "possible_species": null,
  "has_props": null,
  "theoretical": null,
  "database_IDs": null,
  "fields_not_requested": [
    "builder_meta",
    "nsites",
    "elements",
    "nelements",
    "composition",
    "composition_reduced",
    "chemsys",
    "symmetry",
    "property_name",
    "deprecated",
    "deprecation_reasons",
    "last_updated",
    "origins",
    "warnings",
    "task_ids",
    "uncorrected_energy_per_atom",
    "equilibrium_reaction_energy_per_atom",
    "decomposes_to",
    "xas",
    "grain_boundaries",
    "cbm",
    "vbm",
    "is_gap_direct",
    "is_metal",
    "es_source_calc_id",
    "bandstructure",
    "dos",
    "dos_energy_up",
    "dos_energy_down",
    "is_magnetic",
    "ordering",
    "total_magnetization_normalized_vol",
    "total_magnetization_normalized_formula_units",
    "num_magnetic_sites",
    "num_unique_magnetic_sites",
    "types_of_magnetic_species",
    "bulk_modulus",
    "shear_modulus",
    "universal_anisotropy",
    "homogeneous_poisson",
    "e_total",
    "e_ionic",
    "e_electronic",
    "n",
    "e_ij_max",
    "weighted_surface_energy_EV_PER_ANG2",
    "weighted_surface_energy",
    "weighted_work_function",
    "surface_anisotropy",
    "shape_factor",
    "has_reconstructed",
    "possible_species",
    "has_props",
    "theoretical",
    "database_IDs"
  ]
}
