{"builder_meta": null, "nsites": null, "elements": null, "nelements": null, "composition": null, "composition_reduced": null, "formula_pretty": "CsPr3", "formula_anonymous": "AB3", "chemsys": null, "volume": 162.16901245995342, "density": 5.689389445442397, "density_atomic": 40.542253114988355, "symmetry": null, "property_name": null, "material_id": "mp-1183946", "deprecated": null, "deprecation_reasons": null, "last_updated": null, "origins": null, "warnings": null, "structure": {"@module": "pymatgen.core.structure", "@class": "Structure", "charge": 0, "lattice": {"matrix": [[-2.730343, 2.730343, 5.438429], [2.730343, -2.730343, 5.438429], [2.730343, 2.730343, -5.438429]], "pbc": [true, true, true], "a": 6.6697867869474665, "b": 6.6697867869474665, "c": 6.6697867869474665, "alpha": 131.67074262291476, "beta": 131.67074262291476, "gamma": 70.74955286622802, "volume": 162.16901245995342}, "properties": {}, "sites": [{"species": [{"element": "Cs", "occu": 1}], "abc": [0.0, 0.0, 0.0], "properties": {"magmom": -0.001}, "label": "Cs", "xyz": [0.0, 0.0, 0.0]}, {"species": [{"element": "Pr", "occu": 1}], "abc": [0.75, 0.25, 0.5], "properties": {"magmom": 0.0}, "label": "Pr", "xyz": [-2.220446049250313e-16, 2.7303430000000004, 2.7192145]}, {"species": [{"element": "Pr", "occu": 1}], "abc": [0.25, 0.75, 0.5], "properties": {"magmom": 0.0}, "label": "Pr", "xyz": [2.7303430000000004, -2.220446049250313e-16, 2.7192145]}, {"species": [{"element": "Pr", "occu": 1}], "abc": [0.5, 0.5, 0.0], "properties": {"magmom": -0.0}, "label": "Pr", "xyz": [0.0, 0.0, 5.438429]}]}, "task_ids": null, "uncorrected_energy_per_atom": null, "energy_per_atom": -27.79217619948276, "formation_energy_per_atom": 0.5379043267672401, "energy_above_hull": 0.5379043267672401, "is_stable": false, "equilibrium_reaction_energy_per_atom": null, "decomposes_to": null, "xas": null, "grain_boundaries": null, "band_gap": 0.0, "cbm": null, "vbm": null, "efermi": 3.24292852, "is_gap_direct": null, "is_metal": null, "es_source_calc_id": null, "bandstructure": null, "dos": null, "dos_energy_up": null, "dos_energy_down": null, "is_magnetic": null, "ordering": null, "total_magnetization": 0.00043309999999900005, "total_magnetization_normalized_vol": null, "total_magnetization_normalized_formula_units": null, "num_magnetic_sites": null, "num_unique_magnetic_sites": null, "types_of_magnetic_species": null, "bulk_modulus": null, "shear_modulus": null, "universal_anisotropy": null, "homogeneous_poisson": null, "e_total": null, "e_ionic": null, "e_electronic": null, "n": null, "e_ij_max": null, "weighted_surface_energy_EV_PER_ANG2": null, "weighted_surface_energy": null, "weighted_work_function": null, "surface_anisotropy": null, "shape_factor": null, "has_reconstructed": null, "possible_species": null, "has_props": null, "theoretical": null, "database_IDs": null, "fields_not_requested": ["builder_meta", "nsites", "elements", "nelements", "composition", "composition_reduced", "chemsys", "symmetry", "property_name", "deprecated", "deprecation_reasons", "last_updated", "origins", "warnings", "task_ids", "uncorrected_energy_per_atom", "equilibrium_reaction_energy_per_atom", "decomposes_to", "xas", "grain_boundaries", "cbm", "vbm", "is_gap_direct", "is_metal", "es_source_calc_id", "bandstructure", "dos", "dos_energy_up", "dos_energy_down", "is_magnetic", "ordering", "total_magnetization_normalized_vol", "total_magnetization_normalized_formula_units", "num_magnetic_sites", "num_unique_magnetic_sites", "types_of_magnetic_species", "bulk_modulus", "shear_modulus", "universal_anisotropy", "homogeneous_poisson", "e_total", "e_ionic", "e_electronic", "n", "e_ij_max", "weighted_surface_energy_EV_PER_ANG2", "weighted_surface_energy", "weighted_work_function", "surface_anisotropy", "shape_factor", "has_reconstructed", "possible_species", "has_props", "theoretical", "database_IDs"]}