{
  "builder_meta": null,
  "nsites": null,
  "elements": null,
  "nelements": null,
  "composition": null,
  "composition_reduced": null,
  "formula_pretty": "CsS3",
  "formula_anonymous": "AB3",
  "chemsys": null,
  "volume": 510.98964781934046,
  "density": 2.9779879273809833,
  "density_atomic": 31.93685298870878,
  "symmetry": null,
  "property_name": null,
  "material_id": "mp-1188913",
  "deprecated": null,
  "deprecation_reasons": null,
  "last_updated": null,
  "origins": null,
  "warnings": null,
  "structure": {
    "@module": "pymatgen.core.structure",
    "@class": "Structure",
    "charge": 0,
    "lattice": {
      "matrix": [
        [-0.00400729, -0.01622095, 4.74670353],
        [-0.82206765, 9.27846847, 0.09607694],
        [-11.602553799999999, -0.00620956, 1.06797287]
      ],
      "pbc": [true, true, true],
      "a": 4.746732937432493,
      "b": 9.315310147727795,
      "c": 11.65160329274842,
      "alpha": 84.93463838009599,
      "beta": 84.69250747326635,
      "gamma": 89.59981206498828,
      "volume": 510.98964781934035
    },
    "properties": {},
    "sites": [
      {
        "species": [{ "element": "Cs", "occu": 1 }],
        "abc": [0.9556143500000001, 0.67327254, 0.09602159],
        "properties": { "magmom": 0.0 },
        "label": "Cs",
        "xyz": [-1.6714006625324846, 6.230840809691782, 4.703252426947146]
      },
      {
        "species": [{ "element": "Cs", "occu": 1 }],
        "abc": [0.04438565, 0.32672746, 0.90397841],
        "properties": { "magmom": 0.0 },
        "label": "Cs",
        "xyz": [-10.757228077467515, 3.0251971503082196, 1.2075009130528536]
      },
      {
        "species": [{ "element": "Cs", "occu": 1 }],
        "abc": [0.89306652, 0.30799885, 0.38756873000000003],
        "properties": { "magmom": 0.0 },
        "label": "Cs",
        "xyz": [-4.753561708379807, 2.840864599870607, 4.68262647894069]
      },
      {
        "species": [{ "element": "Cs", "occu": 1 }],
        "abc": [0.10693348, 0.6920011500000001, 0.61243127],
        "properties": { "magmom": 0.0 },
        "label": "Cs",
        "xyz": [-7.675067031620192, 6.415173360129394, 1.2281268610593101]
      },
      {
        "species": [{ "element": "S", "occu": 1 }],
        "abc": [0.46429191000000003, 0.34752615000000003, 0.14821587],
        "properties": { "magmom": 0.0 },
        "label": "S",
        "xyz": [-2.0072331634608775, 3.216058814080259, 2.39553582527287]
      },
      {
        "species": [{ "element": "S", "occu": 1 }],
        "abc": [0.53570809, 0.65247385, 0.85178413],
        "properties": { "magmom": 0.0 },
        "label": "S",
        "xyz": [-10.42139557653912, 6.039979145919742, 3.5152175147271296]
      },
      {
        "species": [{ "element": "S", "occu": 1 }],
        "abc": [0.42274139, 0.61185274, 0.3295636],
        "properties": { "magmom": 0.0 },
        "label": "S",
        "xyz": [-4.328457790984274, 5.668152644474971, 2.4173779709194543]
      },
      {
        "species": [{ "element": "S", "occu": 1 }],
        "abc": [0.57725861, 0.38814726, 0.670436399999999],
        "properties": { "magmom": 0.0 },
        "label": "S",
        "xyz": [-8.100170949015714, 3.5878853155250288, 3.4933753690805442]
      },
      {
        "species": [{ "element": "S", "occu": 1 }],
        "abc": [0.48575151, 0.14014446, 0.10331446],
        "properties": { "magmom": -0.0 },
        "label": "S",
        "xyz": [-1.3158663545291747, 1.291805065060804, 2.4295200984532825]
      },
      {
        "species": [{ "element": "S", "occu": 1 }],
        "abc": [0.5142484900000001, 0.85985554, 0.89668554],
        "properties": { "magmom": -0.0 },
        "label": "S",
        "xyz": [-11.112762385470823, 7.964232894939196, 3.481233241546717]
      },
      {
        "species": [{ "element": "S", "occu": 1 }],
        "abc": [0.20240542, 0.01361657, 0.21004452],
        "properties": { "magmom": -0.0 },
        "label": "S",
        "xyz": [-2.4490576826116484, 0.12175342316738769, 1.1863886088362008]
      },
      {
        "species": [{ "element": "S", "occu": 1 }],
        "abc": [0.79759458, 0.9863834300000001, 0.78995548],
        "properties": { "magmom": -0.0 },
        "label": "S",
        "xyz": [-9.979571057388352, 9.134284536832613, 4.724364731163799]
      },
      {
        "species": [{ "element": "S", "occu": 1 }],
        "abc": [0.35724328, 0.9643805, 0.37083767],
        "properties": { "magmom": 0.0 },
        "label": "S",
        "xyz": [-5.096881606005982, 8.939876498187992, 2.1844272364144612]
      },
      {
        "species": [{ "element": "S", "occu": 1 }],
        "abc": [0.6427567200000001, 0.0356195, 0.62916233],
        "properties": { "magmom": 0.0 },
        "label": "S",
        "xyz": [-7.331747133994018, 0.3161614618120062, 3.7263261035855386]
      },
      {
        "species": [{ "element": "S", "occu": 1 }],
        "abc": [0.63119591, 0.7905950700000001, 0.363722999999999],
        "properties": { "magmom": -0.0 },
        "label": "S",
        "xyz": [-4.872567692152058, 7.323014272444249, 3.4605041054182566]
      },
      {
        "species": [{ "element": "S", "occu": 1 }],
        "abc": [0.36880409000000003, 0.20940493000000002, 0.636277],
        "properties": { "magmom": -0.0 },
        "label": "S",
        "xyz": [-7.55606104784793, 1.9330236875557518, 2.450249234581742]
      }
    ]
  },
  "task_ids": null,
  "uncorrected_energy_per_atom": null,
  "energy_per_atom": -12.957845295,
  "formation_energy_per_atom": -0.654482733359374,
  "energy_above_hull": 0.0,
  "is_stable": true,
  "equilibrium_reaction_energy_per_atom": null,
  "decomposes_to": null,
  "xas": null,
  "grain_boundaries": null,
  "band_gap": 1.6567,
  "cbm": null,
  "vbm": null,
  "efermi": 1.78633139,
  "is_gap_direct": null,
  "is_metal": null,
  "es_source_calc_id": null,
  "bandstructure": null,
  "dos": null,
  "dos_energy_up": null,
  "dos_energy_down": null,
  "is_magnetic": null,
  "ordering": null,
  "total_magnetization": 0.0,
  "total_magnetization_normalized_vol": null,
  "total_magnetization_normalized_formula_units": null,
  "num_magnetic_sites": null,
  "num_unique_magnetic_sites": null,
  "types_of_magnetic_species": null,
  "bulk_modulus": null,
  "shear_modulus": null,
  "universal_anisotropy": null,
  "homogeneous_poisson": null,
  "e_total": null,
  "e_ionic": null,
  "e_electronic": null,
  "n": null,
  "e_ij_max": null,
  "weighted_surface_energy_EV_PER_ANG2": null,
  "weighted_surface_energy": null,
  "weighted_work_function": null,
  "surface_anisotropy": null,
  "shape_factor": null,
  "has_reconstructed": null,
  "possible_species": null,
  "has_props": null,
  "theoretical": null,
  "database_IDs": null,
  "fields_not_requested": [
    "builder_meta",
    "nsites",
    "elements",
    "nelements",
    "composition",
    "composition_reduced",
    "chemsys",
    "symmetry",
    "property_name",
    "deprecated",
    "deprecation_reasons",
    "last_updated",
    "origins",
    "warnings",
    "task_ids",
    "uncorrected_energy_per_atom",
    "equilibrium_reaction_energy_per_atom",
    "decomposes_to",
    "xas",
    "grain_boundaries",
    "cbm",
    "vbm",
    "is_gap_direct",
    "is_metal",
    "es_source_calc_id",
    "bandstructure",
    "dos",
    "dos_energy_up",
    "dos_energy_down",
    "is_magnetic",
    "ordering",
    "total_magnetization_normalized_vol",
    "total_magnetization_normalized_formula_units",
    "num_magnetic_sites",
    "num_unique_magnetic_sites",
    "types_of_magnetic_species",
    "bulk_modulus",
    "shear_modulus",
    "universal_anisotropy",
    "homogeneous_poisson",
    "e_total",
    "e_ionic",
    "e_electronic",
    "n",
    "e_ij_max",
    "weighted_surface_energy_EV_PER_ANG2",
    "weighted_surface_energy",
    "weighted_work_function",
    "surface_anisotropy",
    "shape_factor",
    "has_reconstructed",
    "possible_species",
    "has_props",
    "theoretical",
    "database_IDs"
  ]
}
