{"builder_meta": null, "nsites": null, "elements": null, "nelements": null, "composition": null, "composition_reduced": null, "formula_pretty": "CsSb", "formula_anonymous": "AB", "chemsys": null, "volume": 775.8403035427021, "density": 4.360504911769052, "density_atomic": 48.490018971418884, "symmetry": null, "property_name": null, "material_id": "mp-573514", "deprecated": null, "deprecation_reasons": null, "last_updated": null, "origins": null, "warnings": null, "structure": {"@module": "pymatgen.core.structure", "@class": "Structure", "charge": 0, "lattice": {"matrix": [[7.46053375, 0.0, 0.0], [0.0, 7.7257127, 0.0], [0.0, 0.0, 13.46058341]], "pbc": [true, true, true], "a": 7.46053375, "b": 7.7257127, "c": 13.46058341, "alpha": 90.0, "beta": 90.0, "gamma": 90.0, "volume": 775.8403035427021}, "properties": {}, "sites": [{"species": [{"element": "Cs", "occu": 1}], "abc": [0.84250239, 0.14502315, 0.83362103], "properties": {"magmom": 0.0}, "label": "Cs", "xyz": [6.285517515050663, 1.1204071917490048, 11.221025406645111]}, {"species": [{"element": "Cs", "occu": 1}], "abc": [0.07517523, 0.58663306, 0.96707212], "properties": {"magmom": 0.0}, "label": "Cs", "xyz": [0.5608473405790124, 4.532158481881862, 13.017354934745528]}, {"species": [{"element": "Cs", "occu": 1}], "abc": [0.6574976100000001, 0.64502315, 0.16637897000000001], "properties": {"magmom": 0.0}, "label": "Cs", "xyz": [4.9052831099493375, 4.983263541749005, 2.239558003354888]}, {"species": [{"element": "Cs", "occu": 1}], "abc": [0.57517523, 0.41336694, 0.53292788], "properties": {"magmom": 0.0}, "label": "Cs", "xyz": [4.291114215579013, 3.193554218118138, 7.173520180254471]}, {"species": [{"element": "Cs", "occu": 1}], "abc": [0.34250239, 0.85497685, 0.66637897], "properties": {"magmom": 0.0}, "label": "Cs", "xyz": [2.5552506400506623, 6.605305508250995, 8.969849708354888]}, {"species": [{"element": "Cs", "occu": 1}], "abc": [0.15749761, 0.35497685, 0.33362103], "properties": {"magmom": 0.0}, "label": "Cs", "xyz": [1.1750162349493376, 2.742449158250995, 4.490733701645112]}, {"species": [{"element": "Cs", "occu": 1}], "abc": [0.42482477, 0.08663306, 0.03292788], "properties": {"magmom": 0.0}, "label": "Cs", "xyz": [3.1694195344209874, 0.6693021318818619, 0.4432284752544708]}, {"species": [{"element": "Cs", "occu": 1}], "abc": [0.9248247700000001, 0.9133669400000001, 0.46707212000000004], "properties": {"magmom": 0.0}, "label": "Cs", "xyz": [6.899686409420988, 7.056410568118139, 6.28706322974553]}, {"species": [{"element": "Sb", "occu": 1}], "abc": [0.83913372, 0.68349837, 0.71996875], "properties": {"magmom": 0.0}, "label": "Sb", "xyz": [6.260385438823049, 5.2805120375382995, 9.691199411968437]}, {"species": [{"element": "Sb", "occu": 1}], "abc": [0.33913372, 0.31650163000000003, 0.7800312500000001], "properties": {"magmom": 0.0}, "label": "Sb", "xyz": [2.5301185638230503, 2.4452006624617013, 10.499675703031564]}, {"species": [{"element": "Sb", "occu": 1}], "abc": [0.92581237, 0.07375625, 0.13661362], "properties": {"magmom": -0.0}, "label": "Sb", "xyz": [6.907054432552488, 0.5698195973293749, 1.838899026952044]}, {"species": [{"element": "Sb", "occu": 1}], "abc": [0.66086628, 0.18349837, 0.28003125], "properties": {"magmom": 0.0}, "label": "Sb", "xyz": [4.93041518617695, 1.4176556875382988, 3.7693839980315627]}, {"species": [{"element": "Sb", "occu": 1}], "abc": [0.5741876300000001, 0.57375625, 0.86338638], "properties": {"magmom": -0.0}, "label": "Sb", "xyz": [4.283746192447513, 4.432675947329375, 11.621684383047956]}, {"species": [{"element": "Sb", "occu": 1}], "abc": [0.07418763, 0.42624375000000003, 0.63661362], "properties": {"magmom": -0.0}, "label": "Sb", "xyz": [0.5534793174475126, 3.2930367526706252, 8.569190731952045]}, {"species": [{"element": "Sb", "occu": 1}], "abc": [0.16086628, 0.81650163, 0.21996875000000002], "properties": {"magmom": 0.0}, "label": "Sb", "xyz": [1.20014831117695, 6.308057012461701, 2.9609077069684377]}, {"species": [{"element": "Sb", "occu": 1}], "abc": [0.42581237, 0.92624375, 0.36338638], "properties": {"magmom": -0.0}, "label": "Sb", "xyz": [3.1767875575524873, 7.155893102670625, 4.891392678047956]}]}, "task_ids": null, "uncorrected_energy_per_atom": null, "energy_per_atom": -26.0024922475, "formation_energy_per_atom": -0.595107882500002, "energy_above_hull": 0.0, "is_stable": true, "equilibrium_reaction_energy_per_atom": null, "decomposes_to": null, "xas": null, "grain_boundaries": null, "band_gap": 0.5557999999999991, "cbm": null, "vbm": null, "efermi": 2.75330356, "is_gap_direct": null, "is_metal": null, "es_source_calc_id": null, "bandstructure": null, "dos": null, "dos_energy_up": null, "dos_energy_down": null, "is_magnetic": null, "ordering": null, "total_magnetization": 0.0, "total_magnetization_normalized_vol": null, "total_magnetization_normalized_formula_units": null, "num_magnetic_sites": null, "num_unique_magnetic_sites": null, "types_of_magnetic_species": null, "bulk_modulus": null, "shear_modulus": null, "universal_anisotropy": null, "homogeneous_poisson": null, "e_total": null, "e_ionic": null, "e_electronic": null, "n": null, "e_ij_max": null, "weighted_surface_energy_EV_PER_ANG2": null, "weighted_surface_energy": null, "weighted_work_function": null, "surface_anisotropy": null, "shape_factor": null, "has_reconstructed": null, "possible_species": null, "has_props": null, "theoretical": null, "database_IDs": null, "fields_not_requested": ["builder_meta", "nsites", "elements", "nelements", "composition", "composition_reduced", "chemsys", "symmetry", "property_name", "deprecated", "deprecation_reasons", "last_updated", "origins", "warnings", "task_ids", "uncorrected_energy_per_atom", "equilibrium_reaction_energy_per_atom", "decomposes_to", "xas", "grain_boundaries", "cbm", "vbm", "is_gap_direct", "is_metal", "es_source_calc_id", "bandstructure", "dos", "dos_energy_up", "dos_energy_down", "is_magnetic", "ordering", "total_magnetization_normalized_vol", "total_magnetization_normalized_formula_units", "num_magnetic_sites", "num_unique_magnetic_sites", "types_of_magnetic_species", "bulk_modulus", "shear_modulus", "universal_anisotropy", "homogeneous_poisson", "e_total", "e_ionic", "e_electronic", "n", "e_ij_max", "weighted_surface_energy_EV_PER_ANG2", "weighted_surface_energy", "weighted_work_function", "surface_anisotropy", "shape_factor", "has_reconstructed", "possible_species", "has_props", "theoretical", "database_IDs"]}