{"builder_meta": null, "nsites": null, "elements": null, "nelements": null, "composition": null, "composition_reduced": null, "formula_pretty": "CsSe4", "formula_anonymous": "AB4", "chemsys": null, "volume": 2903.8465257693015, "density": 4.105778165485435, "density_atomic": 36.29808157211627, "symmetry": null, "property_name": null, "material_id": "mp-1201920", "deprecated": null, "deprecation_reasons": null, "last_updated": null, "origins": null, "warnings": null, "structure": {"@module": "pymatgen.core.structure", "@class": "Structure", "charge": 0, "lattice": {"matrix": [[10.434833, 0.0, 0.0], [0.0, 14.106465, 0.0], [0.0, 0.0, 19.727405]], "pbc": [true, true, true], "a": 10.434833, "b": 14.106465, "c": 19.727405, "alpha": 90.0, "beta": 90.0, "gamma": 90.0, "volume": 2903.8465257693015}, "properties": {}, "sites": [{"species": [{"element": "Cs", "occu": 1}], "abc": [0.967599, 0.387799, 0.25], "properties": {"magmom": 0.0}, "label": "Cs", "xyz": [10.096733975967, 5.4704730205350005, 4.93185125]}, {"species": [{"element": "Cs", "occu": 1}], "abc": [0.032401, 0.612201, 0.75], "properties": {"magmom": 0.0}, "label": "Cs", "xyz": [0.33809902403299996, 8.635991979465, 14.79555375]}, {"species": [{"element": "Cs", "occu": 1}], "abc": [0.967599, 0.112201, 0.75], "properties": {"magmom": 0.0}, "label": "Cs", "xyz": [10.096733975967, 1.582759479465, 14.79555375]}, {"species": [{"element": "Cs", "occu": 1}], "abc": [0.032401, 0.887799, 0.25], "properties": {"magmom": 0.0}, "label": "Cs", "xyz": [0.33809902403299996, 12.523705520535, 4.93185125]}, {"species": [{"element": "Cs", "occu": 1}], "abc": [0.649606999999999, 0.6160100000000001, 0.25], "properties": {"magmom": 0.0}, "label": "Cs", "xyz": [6.778540560630989, 8.68972350465, 4.93185125]}, {"species": [{"element": "Cs", "occu": 1}], "abc": [0.350393, 0.38399000000000005, 0.75], "properties": {"magmom": 0.0}, "label": "Cs", "xyz": [3.656292439369, 5.416741495350001, 14.79555375]}, {"species": [{"element": "Cs", "occu": 1}], "abc": [0.649606999999999, 0.88399, 0.75], "properties": {"magmom": 0.0}, "label": "Cs", "xyz": [6.778540560630989, 12.469973995350001, 14.79555375]}, {"species": [{"element": "Cs", "occu": 1}], "abc": [0.350393, 0.11601000000000002, 0.25], "properties": {"magmom": 0.0}, "label": "Cs", "xyz": [3.656292439369, 1.6364910046500003, 4.93185125]}, {"species": [{"element": "Cs", "occu": 1}], "abc": [0.882331, 0.25, 0.5], "properties": {"magmom": -0.0}, "label": "Cs", "xyz": [9.206976635722999, 3.52661625, 9.8637025]}, {"species": [{"element": "Cs", "occu": 1}], "abc": [0.117669, 0.75, 0.0], "properties": {"magmom": -0.0}, "label": "Cs", "xyz": [1.227856364277, 10.57984875, 0.0]}, {"species": [{"element": "Cs", "occu": 1}], "abc": [0.117669, 0.75, 0.5], "properties": {"magmom": -0.0}, "label": "Cs", "xyz": [1.227856364277, 10.57984875, 9.8637025]}, {"species": [{"element": "Cs", "occu": 1}], "abc": [0.882331, 0.25, 0.0], "properties": {"magmom": -0.0}, "label": "Cs", "xyz": [9.206976635722999, 3.52661625, 0.0]}, {"species": [{"element": "Cs", "occu": 1}], "abc": [0.401375999999999, 0.25, 0.5], "properties": {"magmom": -0.0}, "label": "Cs", "xyz": [4.188291530207989, 3.52661625, 9.8637025]}, {"species": [{"element": "Cs", "occu": 1}], "abc": [0.598623999999999, 0.75, 0.0], "properties": {"magmom": -0.0}, "label": "Cs", "xyz": [6.24654146979199, 10.57984875, 0.0]}, {"species": [{"element": "Cs", "occu": 1}], "abc": [0.598623999999999, 0.75, 0.5], "properties": {"magmom": -0.0}, "label": "Cs", "xyz": [6.24654146979199, 10.57984875, 9.8637025]}, {"species": [{"element": "Cs", "occu": 1}], "abc": [0.401375999999999, 0.25, 0.0], "properties": {"magmom": -0.0}, "label": "Cs", "xyz": [4.188291530207989, 3.52661625, 0.0]}, {"species": [{"element": "Se", "occu": 1}], "abc": [0.183912, 0.640023999999999, 0.25], "properties": {"magmom": -0.0}, "label": "Se", "xyz": [1.9190910066959999, 9.028476155159986, 4.93185125]}, {"species": [{"element": "Se", "occu": 1}], "abc": [0.816087999999999, 0.359975999999999, 0.75], "properties": {"magmom": 0.0}, "label": "Se", "xyz": [8.515741993303989, 5.077988844839986, 14.79555375]}, {"species": [{"element": "Se", "occu": 1}], "abc": [0.183912, 0.859976, 0.75], "properties": {"magmom": 0.0}, "label": "Se", "xyz": [1.9190910066959999, 12.13122134484, 14.79555375]}, {"species": [{"element": "Se", "occu": 1}], "abc": [0.816087999999999, 0.140023999999999, 0.25], "properties": {"magmom": -0.0}, "label": "Se", "xyz": [8.515741993303989, 1.9752436551599861, 4.93185125]}, {"species": [{"element": "Se", "occu": 1}], "abc": [0.313011, 0.597580999999999, 0.345399], "properties": {"magmom": -0.0}, "label": "Se", "xyz": [3.2662175121629997, 8.429755461164987, 6.813825959595]}, {"species": [{"element": "Se", "occu": 1}], "abc": [0.686989, 0.402418999999999, 0.845399], "properties": {"magmom": 0.0}, "label": "Se", "xyz": [7.168615487836999, 5.676709538834986, 16.677528459595003]}, {"species": [{"element": "Se", "occu": 1}], "abc": [0.313011, 0.902419, 0.654601], "properties": {"magmom": -0.0}, "label": "Se", "xyz": [3.2662175121629997, 12.729942038835, 12.913579040405]}, {"species": [{"element": "Se", "occu": 1}], "abc": [0.686989, 0.097581, 0.154601], "properties": {"magmom": -0.0}, "label": "Se", "xyz": [7.168615487836999, 1.376522961165, 3.049876540405]}, {"species": [{"element": "Se", "occu": 1}], "abc": [0.686989, 0.402418999999999, 0.654601], "properties": {"magmom": -0.0}, "label": "Se", "xyz": [7.168615487836999, 5.676709538834986, 12.913579040405]}, {"species": [{"element": "Se", "occu": 1}], "abc": [0.313011, 0.597580999999999, 0.154601], "properties": {"magmom": -0.0}, "label": "Se", "xyz": [3.2662175121629997, 8.429755461164987, 3.049876540405]}, {"species": [{"element": "Se", "occu": 1}], "abc": [0.686989, 0.097581, 0.345399], "properties": {"magmom": 0.0}, "label": "Se", "xyz": [7.168615487836999, 1.376522961165, 6.813825959595]}, {"species": [{"element": "Se", "occu": 1}], "abc": [0.313011, 0.902419, 0.845399], "properties": {"magmom": -0.0}, "label": "Se", "xyz": [3.2662175121629997, 12.729942038835, 16.677528459595003]}, {"species": [{"element": "Se", "occu": 1}], "abc": [0.300568, 0.425977999999999, 0.34391000000000005], "properties": {"magmom": 0.0}, "label": "Se", "xyz": [3.1363768851439997, 6.0090437477699865, 6.784451853550001]}, {"species": [{"element": "Se", "occu": 1}], "abc": [0.699431999999999, 0.574021999999999, 0.84391], "properties": {"magmom": 0.0}, "label": "Se", "xyz": [7.298456114855989, 8.097421252229987, 16.64815435355]}, {"species": [{"element": "Se", "occu": 1}], "abc": [0.300568, 0.074021999999999, 0.6560900000000001], "properties": {"magmom": 0.0}, "label": "Se", "xyz": [3.1363768851439997, 1.044188752229986, 12.942953146450002]}, {"species": [{"element": "Se", "occu": 1}], "abc": [0.699431999999999, 0.925978, 0.15609], "properties": {"magmom": 0.0}, "label": "Se", "xyz": [7.298456114855989, 13.062276247769999, 3.0792506464500002]}, {"species": [{"element": "Se", "occu": 1}], "abc": [0.699431999999999, 0.574021999999999, 0.6560900000000001], "properties": {"magmom": 0.0}, "label": "Se", "xyz": [7.298456114855989, 8.097421252229987, 12.942953146450002]}, {"species": [{"element": "Se", "occu": 1}], "abc": [0.300568, 0.425977999999999, 0.15609], "properties": {"magmom": 0.0}, "label": "Se", "xyz": [3.1363768851439997, 6.0090437477699865, 3.0792506464500002]}, {"species": [{"element": "Se", "occu": 1}], "abc": [0.699431999999999, 0.925978, 0.34391000000000005], "properties": {"magmom": 0.0}, "label": "Se", "xyz": [7.298456114855989, 13.062276247769999, 6.784451853550001]}, {"species": [{"element": "Se", "occu": 1}], "abc": [0.300568, 0.074021999999999, 0.84391], "properties": {"magmom": 0.0}, "label": "Se", "xyz": [3.1363768851439997, 1.044188752229986, 16.64815435355]}, {"species": [{"element": "Se", "occu": 1}], "abc": [0.455843999999999, 0.387372999999999, 0.25], "properties": {"magmom": 0.0}, "label": "Se", "xyz": [4.756656014051989, 5.464463666444987, 4.93185125]}, {"species": [{"element": "Se", "occu": 1}], "abc": [0.544156, 0.612626999999999, 0.75], "properties": {"magmom": 0.0}, "label": "Se", "xyz": [5.678176985947999, 8.642001333554987, 14.79555375]}, {"species": [{"element": "Se", "occu": 1}], "abc": [0.455843999999999, 0.112626999999999, 0.75], "properties": {"magmom": 0.0}, "label": "Se", "xyz": [4.756656014051989, 1.5887688335549859, 14.79555375]}, {"species": [{"element": "Se", "occu": 1}], "abc": [0.544156, 0.887373, 0.25], "properties": {"magmom": 0.0}, "label": "Se", "xyz": [5.678176985947999, 12.517696166444999, 4.93185125]}, {"species": [{"element": "Se", "occu": 1}], "abc": [0.648409, 0.335476999999999, 0.351089], "properties": {"magmom": 0.0}, "label": "Se", "xyz": [6.766039630697, 4.7323945588049865, 6.926074894045]}, {"species": [{"element": "Se", "occu": 1}], "abc": [0.351591, 0.664523, 0.851089], "properties": {"magmom": 0.0}, "label": "Se", "xyz": [3.6687933693029997, 9.374070441195, 16.789777394045]}, {"species": [{"element": "Se", "occu": 1}], "abc": [0.648409, 0.164523, 0.648911], "properties": {"magmom": 0.0}, "label": "Se", "xyz": [6.766039630697, 2.320837941195, 12.801330105955001]}, {"species": [{"element": "Se", "occu": 1}], "abc": [0.351591, 0.835476999999999, 0.148911], "properties": {"magmom": 0.0}, "label": "Se", "xyz": [3.6687933693029997, 11.785627058804986, 2.937627605955]}, {"species": [{"element": "Se", "occu": 1}], "abc": [0.351591, 0.664523, 0.648911], "properties": {"magmom": 0.0}, "label": "Se", "xyz": [3.6687933693029997, 9.374070441195, 12.801330105955001]}, {"species": [{"element": "Se", "occu": 1}], "abc": [0.648409, 0.335476999999999, 0.148911], "properties": {"magmom": 0.0}, "label": "Se", "xyz": [6.766039630697, 4.7323945588049865, 2.937627605955]}, {"species": [{"element": "Se", "occu": 1}], "abc": [0.351591, 0.835476999999999, 0.351089], "properties": {"magmom": 0.0}, "label": "Se", "xyz": [3.6687933693029997, 11.785627058804986, 6.926074894045]}, {"species": [{"element": "Se", "occu": 1}], "abc": [0.648409, 0.164523, 0.851089], "properties": {"magmom": 0.0}, "label": "Se", "xyz": [6.766039630697, 2.320837941195, 16.789777394045]}, {"species": [{"element": "Se", "occu": 1}], "abc": [0.604324, 0.457717, 0.43032000000000004], "properties": {"magmom": -0.0}, "label": "Se", "xyz": [6.306020017891999, 6.456768840405, 8.489096919600001]}, {"species": [{"element": "Se", "occu": 1}], "abc": [0.39567599999999903, 0.542283, 0.93032], "properties": {"magmom": -0.0}, "label": "Se", "xyz": [4.1288129821079895, 7.649696159594999, 18.3527994196]}, {"species": [{"element": "Se", "occu": 1}], "abc": [0.604324, 0.042283, 0.5696800000000001], "properties": {"magmom": -0.0}, "label": "Se", "xyz": [6.306020017891999, 0.596463659595, 11.238308080400001]}, {"species": [{"element": "Se", "occu": 1}], "abc": [0.39567599999999903, 0.957716999999999, 0.06968], "properties": {"magmom": -0.0}, "label": "Se", "xyz": [4.1288129821079895, 13.510001340404987, 1.3746055804000001]}, {"species": [{"element": "Se", "occu": 1}], "abc": [0.39567599999999903, 0.542283, 0.5696800000000001], "properties": {"magmom": -0.0}, "label": "Se", "xyz": [4.1288129821079895, 7.649696159594999, 11.238308080400001]}, {"species": [{"element": "Se", "occu": 1}], "abc": [0.604324, 0.457717, 0.06968], "properties": {"magmom": -0.0}, "label": "Se", "xyz": [6.306020017891999, 6.456768840405, 1.3746055804000001]}, {"species": [{"element": "Se", "occu": 1}], "abc": [0.39567599999999903, 0.957716999999999, 0.43032000000000004], "properties": {"magmom": -0.0}, "label": "Se", "xyz": [4.1288129821079895, 13.510001340404987, 8.489096919600001]}, {"species": [{"element": "Se", "occu": 1}], "abc": [0.604324, 0.042283, 0.93032], "properties": {"magmom": -0.0}, "label": "Se", "xyz": [6.306020017891999, 0.596463659595, 18.3527994196]}, {"species": [{"element": "Se", "occu": 1}], "abc": [0.8062900000000001, 0.510489, 0.476043], "properties": {"magmom": 0.0}, "label": "Se", "xyz": [8.41350149957, 7.2011952113849995, 9.391093058415]}, {"species": [{"element": "Se", "occu": 1}], "abc": [0.19371000000000002, 0.489511, 0.976043], "properties": {"magmom": 0.0}, "label": "Se", "xyz": [2.02133150043, 6.905269788615, 19.254795558415]}, {"species": [{"element": "Se", "occu": 1}], "abc": [0.8062900000000001, 0.989510999999999, 0.523957], "properties": {"magmom": 0.0}, "label": "Se", "xyz": [8.41350149957, 13.958502288614987, 10.336311941585]}, {"species": [{"element": "Se", "occu": 1}], "abc": [0.19371000000000002, 0.010489, 0.023957], "properties": {"magmom": 0.0}, "label": "Se", "xyz": [2.02133150043, 0.147962711385, 0.472609441585]}, {"species": [{"element": "Se", "occu": 1}], "abc": [0.19371000000000002, 0.489511, 0.523957], "properties": {"magmom": 0.0}, "label": "Se", "xyz": [2.02133150043, 6.905269788615, 10.336311941585]}, {"species": [{"element": "Se", "occu": 1}], "abc": [0.8062900000000001, 0.510489, 0.023957], "properties": {"magmom": 0.0}, "label": "Se", "xyz": [8.41350149957, 7.2011952113849995, 0.472609441585]}, {"species": [{"element": "Se", "occu": 1}], "abc": [0.19371000000000002, 0.010489, 0.476043], "properties": {"magmom": 0.0}, "label": "Se", "xyz": [2.02133150043, 0.147962711385, 9.391093058415]}, {"species": [{"element": "Se", "occu": 1}], "abc": [0.8062900000000001, 0.989510999999999, 0.976043], "properties": {"magmom": 0.0}, "label": "Se", "xyz": [8.41350149957, 13.958502288614987, 19.254795558415]}, {"species": [{"element": "Se", "occu": 1}], "abc": [0.923238, 0.584838, 0.387092999999999], "properties": {"magmom": -0.0}, "label": "Se", "xyz": [9.633834349254, 8.249996777669999, 7.636340383664981]}, {"species": [{"element": "Se", "occu": 1}], "abc": [0.076762, 0.415162, 0.887092999999999], "properties": {"magmom": -0.0}, "label": "Se", "xyz": [0.800998650746, 5.856468222329999, 17.50004288366498]}, {"species": [{"element": "Se", "occu": 1}], "abc": [0.923238, 0.915161999999999, 0.612907], "properties": {"magmom": -0.0}, "label": "Se", "xyz": [9.633834349254, 12.909700722329987, 12.091064616335]}, {"species": [{"element": "Se", "occu": 1}], "abc": [0.076762, 0.084838, 0.112907], "properties": {"magmom": -0.0}, "label": "Se", "xyz": [0.800998650746, 1.19676427767, 2.227362116335]}, {"species": [{"element": "Se", "occu": 1}], "abc": [0.076762, 0.415162, 0.612907], "properties": {"magmom": -0.0}, "label": "Se", "xyz": [0.800998650746, 5.856468222329999, 12.091064616335]}, {"species": [{"element": "Se", "occu": 1}], "abc": [0.923238, 0.584838, 0.112907], "properties": {"magmom": -0.0}, "label": "Se", "xyz": [9.633834349254, 8.249996777669999, 2.227362116335]}, {"species": [{"element": "Se", "occu": 1}], "abc": [0.076762, 0.084838, 0.387092999999999], "properties": {"magmom": -0.0}, "label": "Se", "xyz": [0.800998650746, 1.19676427767, 7.636340383664981]}, {"species": [{"element": "Se", "occu": 1}], "abc": [0.923238, 0.915161999999999, 0.887092999999999], "properties": {"magmom": -0.0}, "label": "Se", "xyz": [9.633834349254, 12.909700722329987, 17.50004288366498]}, {"species": [{"element": "Se", "occu": 1}], "abc": [0.854986999999999, 0.745752, 0.374127999999999], "properties": {"magmom": -0.0}, "label": "Se", "xyz": [8.92164656217099, 10.519924486679999, 7.380574577839981]}, {"species": [{"element": "Se", "occu": 1}], "abc": [0.145013, 0.254248, 0.874127999999999], "properties": {"magmom": -0.0}, "label": "Se", "xyz": [1.5131864378289999, 3.5865405133199997, 17.244277077839982]}, {"species": [{"element": "Se", "occu": 1}], "abc": [0.854986999999999, 0.754247999999999, 0.625872], "properties": {"magmom": -0.0}, "label": "Se", "xyz": [8.92164656217099, 10.639773013319987, 12.34683042216]}, {"species": [{"element": "Se", "occu": 1}], "abc": [0.145013, 0.245752, 0.125871999999999], "properties": {"magmom": -0.0}, "label": "Se", "xyz": [1.5131864378289999, 3.46669198668, 2.4831279221599805]}, {"species": [{"element": "Se", "occu": 1}], "abc": [0.145013, 0.254248, 0.625872], "properties": {"magmom": -0.0}, "label": "Se", "xyz": [1.5131864378289999, 3.5865405133199997, 12.34683042216]}, {"species": [{"element": "Se", "occu": 1}], "abc": [0.854986999999999, 0.745752, 0.125871999999999], "properties": {"magmom": -0.0}, "label": "Se", "xyz": [8.92164656217099, 10.519924486679999, 2.4831279221599805]}, {"species": [{"element": "Se", "occu": 1}], "abc": [0.145013, 0.245752, 0.374127999999999], "properties": {"magmom": -0.0}, "label": "Se", "xyz": [1.5131864378289999, 3.46669198668, 7.380574577839981]}, {"species": [{"element": "Se", "occu": 1}], "abc": [0.854986999999999, 0.754247999999999, 0.874127999999999], "properties": {"magmom": -0.0}, "label": "Se", "xyz": [8.92164656217099, 10.639773013319987, 17.244277077839982]}]}, "task_ids": null, "uncorrected_energy_per_atom": null, "energy_per_atom": -16.872516475828125, "formation_energy_per_atom": -0.401577691078122, "energy_above_hull": 0.11141136345312501, "is_stable": false, "equilibrium_reaction_energy_per_atom": null, "decomposes_to": null, "xas": null, "grain_boundaries": null, "band_gap": 0.9736, "cbm": null, "vbm": null, "efermi": 1.28097085, "is_gap_direct": null, "is_metal": null, "es_source_calc_id": null, "bandstructure": null, "dos": null, "dos_energy_up": null, "dos_energy_down": null, "is_magnetic": null, "ordering": null, "total_magnetization": 0.0, "total_magnetization_normalized_vol": null, "total_magnetization_normalized_formula_units": null, "num_magnetic_sites": null, "num_unique_magnetic_sites": null, "types_of_magnetic_species": null, "bulk_modulus": null, "shear_modulus": null, "universal_anisotropy": null, "homogeneous_poisson": null, "e_total": null, "e_ionic": null, "e_electronic": null, "n": null, "e_ij_max": null, "weighted_surface_energy_EV_PER_ANG2": null, "weighted_surface_energy": null, "weighted_work_function": null, "surface_anisotropy": null, "shape_factor": null, "has_reconstructed": null, "possible_species": null, "has_props": null, "theoretical": null, "database_IDs": null, "fields_not_requested": ["builder_meta", "nsites", "elements", "nelements", "composition", "composition_reduced", "chemsys", "symmetry", "property_name", "deprecated", "deprecation_reasons", "last_updated", "origins", "warnings", "task_ids", "uncorrected_energy_per_atom", "equilibrium_reaction_energy_per_atom", "decomposes_to", "xas", "grain_boundaries", "cbm", "vbm", "is_gap_direct", "is_metal", "es_source_calc_id", "bandstructure", "dos", "dos_energy_up", "dos_energy_down", "is_magnetic", "ordering", "total_magnetization_normalized_vol", "total_magnetization_normalized_formula_units", "num_magnetic_sites", "num_unique_magnetic_sites", "types_of_magnetic_species", "bulk_modulus", "shear_modulus", "universal_anisotropy", "homogeneous_poisson", "e_total", "e_ionic", "e_electronic", "n", "e_ij_max", "weighted_surface_energy_EV_PER_ANG2", "weighted_surface_energy", "weighted_work_function", "surface_anisotropy", "shape_factor", "has_reconstructed", "possible_species", "has_props", "theoretical", "database_IDs"]}