{
  "builder_meta": null,
  "nsites": null,
  "elements": null,
  "nelements": null,
  "composition": null,
  "composition_reduced": null,
  "formula_pretty": "CsSn3",
  "formula_anonymous": "AB3",
  "chemsys": null,
  "volume": 321.53295267410493,
  "density": 5.051192831581493,
  "density_atomic": 40.19161908426312,
  "symmetry": null,
  "property_name": null,
  "material_id": "mp-865565",
  "deprecated": null,
  "deprecation_reasons": null,
  "last_updated": null,
  "origins": null,
  "warnings": null,
  "structure": {
    "@module": "pymatgen.core.structure",
    "@class": "Structure",
    "charge": 0,
    "lattice": {
      "matrix": [
        [8.21290086, -2e-8, 0.0],
        [-4.10645096, 7.112579399999999, -0.0],
        [0.0, -0.0, 5.50429601]
      ],
      "pbc": [true, true, true],
      "a": 8.21290086,
      "b": 8.212899926833959,
      "c": 5.50429601,
      "alpha": 90.0,
      "beta": 90.0,
      "gamma": 120.00000816755599,
      "volume": 321.5329526741049
    },
    "properties": {},
    "sites": [
      {
        "species": [{ "element": "Cs", "occu": 1 }],
        "abc": [0.333333, 0.666667, 0.75],
        "properties": { "magmom": 0.0 },
        "label": "Cs",
        "xyz": [-4.459783940369277e-6, 4.741721964193139, 4.1282220075]
      },
      {
        "species": [{ "element": "Cs", "occu": 1 }],
        "abc": [0.666666, 0.333333, 0.250001],
        "properties": { "magmom": 0.0 },
        "label": "Cs",
        "xyz": [4.10644614688308, 2.3708574158068796, 1.3760795067960099]
      },
      {
        "species": [{ "element": "Sn", "occu": 1 }],
        "abc": [0.12223032, 0.24445964, 0.250001],
        "properties": { "magmom": -0.0 },
        "label": "Sn",
        "xyz": [3.976886820744596e-6, 1.7387385971508094, 1.3760795067960099]
      },
      {
        "species": [{ "element": "Sn", "occu": 1 }],
        "abc": [0.75554236, 0.87777068, 0.250001],
        "properties": { "magmom": -0.0 },
        "label": "Sn",
        "xyz": [2.600672246664576, 6.2432136413811445, 1.3760795067960099]
      },
      {
        "species": [{ "element": "Sn", "occu": 1 }],
        "abc": [0.12223132, 0.87777068, 0.250001],
        "properties": { "magmom": -0.0 },
        "label": "Sn",
        "xyz": [-2.600648538398918, 6.243213654047365, 1.3760795067960099]
      },
      {
        "species": [{ "element": "Sn", "occu": 1 }],
        "abc": [0.87776868, 0.75554036, 0.75],
        "properties": { "magmom": -0.0 },
        "label": "Sn",
        "xyz": [4.106437710212318, 5.373840782849209, 4.1282220075]
      },
      {
        "species": [{ "element": "Sn", "occu": 1 }],
        "abc": [0.24445664, 0.12222932, 0.75],
        "properties": { "magmom": -0.0 },
        "label": "Sn",
        "xyz": [1.505769440434563, 0.8693657386188751, 4.1282220075]
      },
      {
        "species": [{ "element": "Sn", "occu": 1 }],
        "abc": [0.87776968, 0.12222932, 0.75],
        "properties": { "magmom": -0.0 },
        "label": "Sn",
        "xyz": [6.707106651299777, 0.8693657259526143, 4.1282220075]
      }
    ]
  },
  "task_ids": null,
  "uncorrected_energy_per_atom": null,
  "energy_per_atom": -25.00600054625,
  "formation_energy_per_atom": -0.169249461249999,
  "energy_above_hull": 0.082282021566612,
  "is_stable": false,
  "equilibrium_reaction_energy_per_atom": null,
  "decomposes_to": null,
  "xas": null,
  "grain_boundaries": null,
  "band_gap": 0.0,
  "cbm": null,
  "vbm": null,
  "efermi": 4.3247354,
  "is_gap_direct": null,
  "is_metal": null,
  "es_source_calc_id": null,
  "bandstructure": null,
  "dos": null,
  "dos_energy_up": null,
  "dos_energy_down": null,
  "is_magnetic": null,
  "ordering": null,
  "total_magnetization": 1e-7,
  "total_magnetization_normalized_vol": null,
  "total_magnetization_normalized_formula_units": null,
  "num_magnetic_sites": null,
  "num_unique_magnetic_sites": null,
  "types_of_magnetic_species": null,
  "bulk_modulus": null,
  "shear_modulus": null,
  "universal_anisotropy": null,
  "homogeneous_poisson": null,
  "e_total": null,
  "e_ionic": null,
  "e_electronic": null,
  "n": null,
  "e_ij_max": null,
  "weighted_surface_energy_EV_PER_ANG2": null,
  "weighted_surface_energy": null,
  "weighted_work_function": null,
  "surface_anisotropy": null,
  "shape_factor": null,
  "has_reconstructed": null,
  "possible_species": null,
  "has_props": null,
  "theoretical": null,
  "database_IDs": null,
  "fields_not_requested": [
    "builder_meta",
    "nsites",
    "elements",
    "nelements",
    "composition",
    "composition_reduced",
    "chemsys",
    "symmetry",
    "property_name",
    "deprecated",
    "deprecation_reasons",
    "last_updated",
    "origins",
    "warnings",
    "task_ids",
    "uncorrected_energy_per_atom",
    "equilibrium_reaction_energy_per_atom",
    "decomposes_to",
    "xas",
    "grain_boundaries",
    "cbm",
    "vbm",
    "is_gap_direct",
    "is_metal",
    "es_source_calc_id",
    "bandstructure",
    "dos",
    "dos_energy_up",
    "dos_energy_down",
    "is_magnetic",
    "ordering",
    "total_magnetization_normalized_vol",
    "total_magnetization_normalized_formula_units",
    "num_magnetic_sites",
    "num_unique_magnetic_sites",
    "types_of_magnetic_species",
    "bulk_modulus",
    "shear_modulus",
    "universal_anisotropy",
    "homogeneous_poisson",
    "e_total",
    "e_ionic",
    "e_electronic",
    "n",
    "e_ij_max",
    "weighted_surface_energy_EV_PER_ANG2",
    "weighted_surface_energy",
    "weighted_work_function",
    "surface_anisotropy",
    "shape_factor",
    "has_reconstructed",
    "possible_species",
    "has_props",
    "theoretical",
    "database_IDs"
  ]
}
