{"builder_meta": null, "nsites": null, "elements": null, "nelements": null, "composition": null, "composition_reduced": null, "formula_pretty": "CsTe4", "formula_anonymous": "AB4", "chemsys": null, "volume": 848.7392180552357, "density": 5.034450214681592, "density_atomic": 42.43696090276178, "symmetry": null, "property_name": null, "material_id": "mp-1178386", "deprecated": null, "deprecation_reasons": null, "last_updated": null, "origins": null, "warnings": null, "structure": {"@module": "pymatgen.core.structure", "@class": "Structure", "charge": 0, "lattice": {"matrix": [[8.07194818, 0.0, -0.07566463], [0.0, 7.37083721, 0.0], [-1.10169244, 0.0, 14.27556711]], "pbc": [true, true, true], "a": 8.072302803837227, "b": 7.37083721, "c": 14.318014616016669, "alpha": 90.0, "beta": 94.95001878729676, "gamma": 90.0, "volume": 848.7392180552357}, "properties": {}, "sites": [{"species": [{"element": "Cs", "occu": 1}], "abc": [0.14240101, 0.62214214, 0.85018514], "properties": {"magmom": -0.0}, "label": "Cs", "xyz": [0.21281103216132014, 4.585708435421029, 12.126100302261468]}, {"species": [{"element": "Cs", "occu": 1}], "abc": [0.14240101, 0.87785786, 0.35018514], "properties": {"magmom": -0.0}, "label": "Cs", "xyz": [0.7636572521613202, 6.470547379578971, 4.98831674726147]}, {"species": [{"element": "Cs", "occu": 1}], "abc": [0.8575989900000001, 0.12214214, 0.64981486], "properties": {"magmom": -0.0}, "label": "Cs", "xyz": [6.20659848783868, 0.9002898304210294, 9.211585732738532]}, {"species": [{"element": "Cs", "occu": 1}], "abc": [0.8575989900000001, 0.37785786, 0.14981386], "properties": {"magmom": -0.0}, "label": "Cs", "xyz": [6.75744580953112, 2.7851287745789706, 2.073787902171421]}, {"species": [{"element": "Te", "occu": 1}], "abc": [0.12391212, 0.10854462000000001, 0.9665991700000001], "properties": {"magmom": -0.0}, "label": "Te", "xyz": [-0.06468278658533344, 0.8000647240413103, 13.789375555092985]}, {"species": [{"element": "Te", "occu": 1}], "abc": [0.12391212, 0.39145538, 0.46659917], "properties": {"magmom": -0.0}, "label": "Te", "xyz": [0.4861634334146667, 2.8853538809586903, 6.651592000092984]}, {"species": [{"element": "Te", "occu": 1}], "abc": [0.34736087, 0.01587872, 0.71049076], "properties": {"magmom": 0.0}, "label": "Te", "xyz": [2.0211366434178624, 0.1170394602231712, 10.116375593709876]}, {"species": [{"element": "Te", "occu": 1}], "abc": [0.37726625, 0.44496791, 0.6250415300000001], "properties": {"magmom": -0.0}, "label": "Te", "xyz": [2.3566700917758916, 3.2797860282839313, 8.894276596834342]}, {"species": [{"element": "Te", "occu": 1}], "abc": [0.34736087, 0.48412128, 0.21049076], "properties": {"magmom": 0.0}, "label": "Te", "xyz": [2.5719828634178623, 3.568379144776829, 2.9785920387098757]}, {"species": [{"element": "Te", "occu": 1}], "abc": [0.37726625, 0.05503209, 0.12504153], "properties": {"magmom": -0.0}, "label": "Te", "xyz": [2.9075163117758915, 0.4056325767160689, 1.7564930418343412]}, {"species": [{"element": "Te", "occu": 1}], "abc": [0.45984592, 0.80508508, 0.56942085], "properties": {"magmom": 0.0}, "label": "Te", "xyz": [3.0845257914010515, 5.934151064879827, 8.094011486614434]}, {"species": [{"element": "Te", "occu": 1}], "abc": [0.54015408, 0.30508508, 0.93057915], "properties": {"magmom": 0.0}, "label": "Te", "xyz": [3.334883728598948, 2.248732459879827, 13.243674548385567]}, {"species": [{"element": "Te", "occu": 1}], "abc": [0.45984592, 0.69491492, 0.06942085], "properties": {"magmom": 0.0}, "label": "Te", "xyz": [3.6353720114010515, 5.122104750120173, 0.956227931614434]}, {"species": [{"element": "Te", "occu": 1}], "abc": [0.54015408, 0.19491492, 0.43057915], "properties": {"magmom": 0.0}, "label": "Te", "xyz": [3.885729948598948, 1.4366861451201731, 6.105890993385566]}, {"species": [{"element": "Te", "occu": 1}], "abc": [0.62273375, 0.94496791, 0.87495847], "properties": {"magmom": -0.0}, "label": "Te", "xyz": [4.062739428224107, 6.965204633283932, 12.443409438165661]}, {"species": [{"element": "Te", "occu": 1}], "abc": [0.6526391300000001, 0.51587872, 0.78950924], "properties": {"magmom": 0.0}, "label": "Te", "xyz": [4.398272876582138, 3.8024580652231714, 11.221310441290125]}, {"species": [{"element": "Te", "occu": 1}], "abc": [0.62273375, 0.55503209, 0.37495847], "properties": {"magmom": -0.0}, "label": "Te", "xyz": [4.613585648224108, 4.091051181716069, 5.305625883165659]}, {"species": [{"element": "Te", "occu": 1}], "abc": [0.6526391300000001, 0.98412128, 0.28950924], "properties": {"magmom": 0.0}, "label": "Te", "xyz": [4.949119096582138, 7.253797749776829, 4.083526886290125]}, {"species": [{"element": "Te", "occu": 1}], "abc": [0.87608788, 0.60854462, 0.53340083], "properties": {"magmom": -0.0}, "label": "Te", "xyz": [6.4840923065853335, 4.48548332904131, 7.548310479907018]}, {"species": [{"element": "Te", "occu": 1}], "abc": [0.87608788, 0.89145538, 0.03340083], "properties": {"magmom": -0.0}, "label": "Te", "xyz": [7.034938526585334, 6.57077248595869, 0.4105269249070169]}]}, "task_ids": null, "uncorrected_energy_per_atom": null, "energy_per_atom": -25.833951324999997, "formation_energy_per_atom": -0.47848127700000004, "energy_above_hull": 0.0, "is_stable": true, "equilibrium_reaction_energy_per_atom": null, "decomposes_to": null, "xas": null, "grain_boundaries": null, "band_gap": 0.514899999999999, "cbm": null, "vbm": null, "efermi": 3.658263159999999, "is_gap_direct": null, "is_metal": null, "es_source_calc_id": null, "bandstructure": null, "dos": null, "dos_energy_up": null, "dos_energy_down": null, "is_magnetic": null, "ordering": null, "total_magnetization": 0.0, "total_magnetization_normalized_vol": null, "total_magnetization_normalized_formula_units": null, "num_magnetic_sites": null, "num_unique_magnetic_sites": null, "types_of_magnetic_species": null, "bulk_modulus": null, "shear_modulus": null, "universal_anisotropy": null, "homogeneous_poisson": null, "e_total": null, "e_ionic": null, "e_electronic": null, "n": null, "e_ij_max": null, "weighted_surface_energy_EV_PER_ANG2": null, "weighted_surface_energy": null, "weighted_work_function": null, "surface_anisotropy": null, "shape_factor": null, "has_reconstructed": null, "possible_species": null, "has_props": null, "theoretical": null, "database_IDs": null, "fields_not_requested": ["builder_meta", "nsites", "elements", "nelements", "composition", "composition_reduced", "chemsys", "symmetry", "property_name", "deprecated", "deprecation_reasons", "last_updated", "origins", "warnings", "task_ids", "uncorrected_energy_per_atom", "equilibrium_reaction_energy_per_atom", "decomposes_to", "xas", "grain_boundaries", "cbm", "vbm", "is_gap_direct", "is_metal", "es_source_calc_id", "bandstructure", "dos", "dos_energy_up", "dos_energy_down", "is_magnetic", "ordering", "total_magnetization_normalized_vol", "total_magnetization_normalized_formula_units", "num_magnetic_sites", "num_unique_magnetic_sites", "types_of_magnetic_species", "bulk_modulus", "shear_modulus", "universal_anisotropy", "homogeneous_poisson", "e_total", "e_ionic", "e_electronic", "n", "e_ij_max", "weighted_surface_energy_EV_PER_ANG2", "weighted_surface_energy", "weighted_work_function", "surface_anisotropy", "shape_factor", "has_reconstructed", "possible_species", "has_props", "theoretical", "database_IDs"]}