{"builder_meta": null, "nsites": null, "elements": null, "nelements": null, "composition": null, "composition_reduced": null, "formula_pretty": "CsTe", "formula_anonymous": "AB", "chemsys": null, "volume": 368.1405515606796, "density": 4.700155721594678, "density_atomic": 46.01756894508495, "symmetry": null, "property_name": null, "material_id": "mp-8361", "deprecated": null, "deprecation_reasons": null, "last_updated": null, "origins": null, "warnings": null, "structure": {"@module": "pymatgen.core.structure", "@class": "Structure", "charge": 0, "lattice": {"matrix": [[5.08394028, 0.0, 0.0], [0.0, 6.19884308, 0.0], [0.0, 0.0, 11.68160658]], "pbc": [true, true, true], "a": 5.08394028, "b": 6.19884308, "c": 11.68160658, "alpha": 90.0, "beta": 90.0, "gamma": 90.0, "volume": 368.1405515606796}, "properties": {}, "sites": [{"species": [{"element": "Cs", "occu": 1}], "abc": [0.5, 0.83140866, 0.36278268], "properties": {"magmom": 0.0}, "label": "Cs", "xyz": [2.54197014, 5.153771818693072, 4.237884541798035]}, {"species": [{"element": "Cs", "occu": 1}], "abc": [0.5, 0.16859134, 0.63721732], "properties": {"magmom": 0.0}, "label": "Cs", "xyz": [2.54197014, 1.045071261306927, 7.443722038201965]}, {"species": [{"element": "Cs", "occu": 1}], "abc": [0.5, 0.33140866, 0.13721732], "properties": {"magmom": 0.0}, "label": "Cs", "xyz": [2.54197014, 2.054350278693073, 1.6029187482019658]}, {"species": [{"element": "Cs", "occu": 1}], "abc": [0.5, 0.66859134, 0.86278268], "properties": {"magmom": 0.0}, "label": "Cs", "xyz": [2.54197014, 4.144492801306927, 10.078687831798035]}, {"species": [{"element": "Te", "occu": 1}], "abc": [0.0, 0.36409665, 0.40359037000000003], "properties": {"magmom": -0.0}, "label": "Te", "xyz": [0.0, 2.256977999303682, 4.714583921816635]}, {"species": [{"element": "Te", "occu": 1}], "abc": [-0.0, 0.63590335, 0.59640963], "properties": {"magmom": -0.0}, "label": "Te", "xyz": [0.0, 3.9418650806963176, 6.967022658183366]}, {"species": [{"element": "Te", "occu": 1}], "abc": [-0.0, 0.86409665, 0.09640963], "properties": {"magmom": -0.0}, "label": "Te", "xyz": [0.0, 5.356399539303681, 1.1262193681833654]}, {"species": [{"element": "Te", "occu": 1}], "abc": [-0.0, 0.13590335, 0.90359037], "properties": {"magmom": -0.0}, "label": "Te", "xyz": [0.0, 0.842443540696318, 10.555387211816635]}]}, "task_ids": null, "uncorrected_energy_per_atom": null, "energy_per_atom": -26.3272990225, "formation_energy_per_atom": -1.0644603675, "energy_above_hull": 0.0, "is_stable": true, "equilibrium_reaction_energy_per_atom": null, "decomposes_to": null, "xas": null, "grain_boundaries": null, "band_gap": 1.0019, "cbm": null, "vbm": null, "efermi": 2.49696058, "is_gap_direct": null, "is_metal": null, "es_source_calc_id": null, "bandstructure": null, "dos": null, "dos_energy_up": null, "dos_energy_down": null, "is_magnetic": null, "ordering": null, "total_magnetization": 0.0, "total_magnetization_normalized_vol": null, "total_magnetization_normalized_formula_units": null, "num_magnetic_sites": null, "num_unique_magnetic_sites": null, "types_of_magnetic_species": null, "bulk_modulus": null, "shear_modulus": null, "universal_anisotropy": null, "homogeneous_poisson": null, "e_total": null, "e_ionic": null, "e_electronic": null, "n": null, "e_ij_max": null, "weighted_surface_energy_EV_PER_ANG2": null, "weighted_surface_energy": null, "weighted_work_function": null, "surface_anisotropy": null, "shape_factor": null, "has_reconstructed": null, "possible_species": null, "has_props": null, "theoretical": null, "database_IDs": null, "fields_not_requested": ["builder_meta", "nsites", "elements", "nelements", "composition", "composition_reduced", "chemsys", "symmetry", "property_name", "deprecated", "deprecation_reasons", "last_updated", "origins", "warnings", "task_ids", "uncorrected_energy_per_atom", "equilibrium_reaction_energy_per_atom", "decomposes_to", "xas", "grain_boundaries", "cbm", "vbm", "is_gap_direct", "is_metal", "es_source_calc_id", "bandstructure", "dos", "dos_energy_up", "dos_energy_down", "is_magnetic", "ordering", "total_magnetization_normalized_vol", "total_magnetization_normalized_formula_units", "num_magnetic_sites", "num_unique_magnetic_sites", "types_of_magnetic_species", "bulk_modulus", "shear_modulus", "universal_anisotropy", "homogeneous_poisson", "e_total", "e_ionic", "e_electronic", "n", "e_ij_max", "weighted_surface_energy_EV_PER_ANG2", "weighted_surface_energy", "weighted_work_function", "surface_anisotropy", "shape_factor", "has_reconstructed", "possible_species", "has_props", "theoretical", "database_IDs"]}