{"builder_meta": null, "nsites": null, "elements": null, "nelements": null, "composition": null, "composition_reduced": null, "formula_pretty": "CsTe7", "formula_anonymous": "AB7", "chemsys": null, "volume": 5105.215015737012, "density": 5.340071073453789, "density_atomic": 39.88449231044541, "symmetry": null, "property_name": null, "material_id": "mp-1205022", "deprecated": null, "deprecation_reasons": null, "last_updated": null, "origins": null, "warnings": null, "structure": {"@module": "pymatgen.core.structure", "@class": "Structure", "charge": 0, "lattice": {"matrix": [[0.0, -0.0, 13.69164227], [19.30986543, 0.0, 0.0], [0.0, 19.30986543, 0.0]], "pbc": [true, true, true], "a": 13.69164227, "b": 19.30986543, "c": 19.30986543, "alpha": 90.0, "beta": 90.0, "gamma": 90.0, "volume": 5105.215015737012}, "properties": {}, "sites": [{"species": [{"element": "Cs", "occu": 1}], "abc": [0.50670352, 0.75, 0.75], "properties": {"magmom": 0.0}, "label": "Cs", "xyz": [14.482399072499998, 14.482399072499998, 6.93760333278979]}, {"species": [{"element": "Cs", "occu": 1}], "abc": [0.00670352, 0.75, 0.75], "properties": {"magmom": 0.0}, "label": "Cs", "xyz": [14.482399072499998, 14.482399072499998, 0.0917821977897904]}, {"species": [{"element": "Cs", "occu": 1}], "abc": [0.49329648000000004, 0.25, 0.25], "properties": {"magmom": 0.0}, "label": "Cs", "xyz": [4.8274663575, 4.8274663575, 6.754038937210209]}, {"species": [{"element": "Cs", "occu": 1}], "abc": [0.99329648, 0.25, 0.25], "properties": {"magmom": 0.0}, "label": "Cs", "xyz": [4.8274663575, 4.8274663575, 13.599860072210209]}, {"species": [{"element": "Cs", "occu": 1}], "abc": [0.0, 0.25, 0.75], "properties": {"magmom": 0.0}, "label": "Cs", "xyz": [4.8274663575, 14.482399072499998, 0.0]}, {"species": [{"element": "Cs", "occu": 1}], "abc": [0.5, 0.25, 0.75], "properties": {"magmom": 0.0}, "label": "Cs", "xyz": [4.8274663575, 14.482399072499998, 6.845821135]}, {"species": [{"element": "Cs", "occu": 1}], "abc": [0.5, 0.75, 0.25], "properties": {"magmom": 0.0}, "label": "Cs", "xyz": [14.482399072499998, 4.8274663575, 6.845821135]}, {"species": [{"element": "Cs", "occu": 1}], "abc": [0.0, 0.75, 0.25], "properties": {"magmom": 0.0}, "label": "Cs", "xyz": [14.482399072499998, 4.8274663575, 0.0]}, {"species": [{"element": "Cs", "occu": 1}], "abc": [0.25, 0.50633405, 0.49366595], "properties": {"magmom": 0.0}, "label": "Cs", "xyz": [9.77724236812689, 9.532623061873108, 3.4229105675]}, {"species": [{"element": "Cs", "occu": 1}], "abc": [0.75, 0.99366595, 0.49366595], "properties": {"magmom": 0.0}, "label": "Cs", "xyz": [19.187555776873108, 9.532623061873108, 10.268731702499998]}, {"species": [{"element": "Cs", "occu": 1}], "abc": [0.75, 0.50633405, 0.00633405], "properties": {"magmom": 0.0}, "label": "Cs", "xyz": [9.77724236812689, 0.12230965312689149, 10.268731702499998]}, {"species": [{"element": "Cs", "occu": 1}], "abc": [0.25, 0.99366595, 0.00633405], "properties": {"magmom": 0.0}, "label": "Cs", "xyz": [19.187555776873108, 0.12230965312689149, 3.4229105675]}, {"species": [{"element": "Cs", "occu": 1}], "abc": [0.75, 0.49366595, 0.50633405], "properties": {"magmom": 0.0}, "label": "Cs", "xyz": [9.532623061873108, 9.77724236812689, 10.268731702499998]}, {"species": [{"element": "Cs", "occu": 1}], "abc": [0.25, 0.00633405, 0.50633405], "properties": {"magmom": 0.0}, "label": "Cs", "xyz": [0.12230965312689149, 9.77724236812689, 3.4229105675]}, {"species": [{"element": "Cs", "occu": 1}], "abc": [0.25, 0.49366595, 0.99366595], "properties": {"magmom": 0.0}, "label": "Cs", "xyz": [9.532623061873108, 19.187555776873108, 3.4229105675]}, {"species": [{"element": "Cs", "occu": 1}], "abc": [0.75, 0.00633405, 0.99366595], "properties": {"magmom": 0.0}, "label": "Cs", "xyz": [0.12230965312689149, 19.187555776873108, 10.268731702499998]}, {"species": [{"element": "Te", "occu": 1}], "abc": [0.31832063, 0.5975158700000001, 0.80063298], "properties": {"magmom": -0.0}, "label": "Te", "xyz": [11.537951041989375, 15.46011510261988, 4.35833219312103]}, {"species": [{"element": "Te", "occu": 1}], "abc": [0.81832063, 0.90248413, 0.80063298], "properties": {"magmom": -0.0}, "label": "Te", "xyz": [17.426847103010626, 15.46011510261988, 11.204153328121029]}, {"species": [{"element": "Te", "occu": 1}], "abc": [0.81832063, 0.5975158700000001, 0.6993670200000001], "properties": {"magmom": -0.0}, "label": "Te", "xyz": [11.537951041989375, 13.504683042380119, 11.204153328121029]}, {"species": [{"element": "Te", "occu": 1}], "abc": [0.31832063, 0.90248413, 0.6993670200000001], "properties": {"magmom": -0.0}, "label": "Te", "xyz": [17.426847103010626, 13.504683042380119, 4.35833219312103]}, {"species": [{"element": "Te", "occu": 1}], "abc": [0.81832063, 0.80063298, 0.5975158700000001], "properties": {"magmom": -0.0}, "label": "Te", "xyz": [15.46011510261988, 11.537951041989375, 11.204153328121029]}, {"species": [{"element": "Te", "occu": 1}], "abc": [0.31832063, 0.6993670200000001, 0.5975158700000001], "properties": {"magmom": -0.0}, "label": "Te", "xyz": [13.504683042380119, 11.537951041989375, 4.35833219312103]}, {"species": [{"element": "Te", "occu": 1}], "abc": [0.31832063, 0.80063298, 0.90248413], "properties": {"magmom": -0.0}, "label": "Te", "xyz": [15.46011510261988, 17.426847103010626, 4.35833219312103]}, {"species": [{"element": "Te", "occu": 1}], "abc": [0.81832063, 0.6993670200000001, 0.90248413], "properties": {"magmom": -0.0}, "label": "Te", "xyz": [13.504683042380119, 17.426847103010626, 11.204153328121029]}, {"species": [{"element": "Te", "occu": 1}], "abc": [0.68167937, 0.40248413, 0.19936702], "properties": {"magmom": -0.0}, "label": "Te", "xyz": [7.771914388010625, 3.8497503273801184, 9.33331007687897]}, {"species": [{"element": "Te", "occu": 1}], "abc": [0.18167937, 0.09751587, 0.19936702], "properties": {"magmom": -0.0}, "label": "Te", "xyz": [1.883018326989374, 3.8497503273801184, 2.48748894187897]}, {"species": [{"element": "Te", "occu": 1}], "abc": [0.18167937, 0.40248413, 0.30063298], "properties": {"magmom": -0.0}, "label": "Te", "xyz": [7.771914388010625, 5.8051823876198805, 2.48748894187897]}, {"species": [{"element": "Te", "occu": 1}], "abc": [0.68167937, 0.09751587, 0.30063298], "properties": {"magmom": -0.0}, "label": "Te", "xyz": [1.883018326989374, 5.8051823876198805, 9.33331007687897]}, {"species": [{"element": "Te", "occu": 1}], "abc": [0.18167937, 0.19936702, 0.40248413], "properties": {"magmom": -0.0}, "label": "Te", "xyz": [3.8497503273801184, 7.771914388010625, 2.48748894187897]}, {"species": [{"element": "Te", "occu": 1}], "abc": [0.68167937, 0.30063298, 0.40248413], "properties": {"magmom": -0.0}, "label": "Te", "xyz": [5.8051823876198805, 7.771914388010625, 9.33331007687897]}, {"species": [{"element": "Te", "occu": 1}], "abc": [0.68167937, 0.19936702, 0.09751587], "properties": {"magmom": -0.0}, "label": "Te", "xyz": [3.8497503273801184, 1.883018326989374, 9.33331007687897]}, {"species": [{"element": "Te", "occu": 1}], "abc": [0.18167937, 0.30063298, 0.09751587], "properties": {"magmom": -0.0}, "label": "Te", "xyz": [5.8051823876198805, 1.883018326989374, 2.48748894187897]}, {"species": [{"element": "Te", "occu": 1}], "abc": [0.20276492000000002, 0.60644092, 0.68086389], "properties": {"magmom": -0.0}, "label": "Te", "xyz": [11.710292556445395, 13.147390092046322, 2.7761847495451684]}, {"species": [{"element": "Te", "occu": 1}], "abc": [0.70276492, 0.8935590800000001, 0.68086389], "properties": {"magmom": -0.0}, "label": "Te", "xyz": [17.254505588554604, 13.147390092046322, 9.622005884545167]}, {"species": [{"element": "Te", "occu": 1}], "abc": [0.70276492, 0.60644092, 0.81913611], "properties": {"magmom": -0.0}, "label": "Te", "xyz": [11.710292556445395, 15.817408052953676, 9.622005884545167]}, {"species": [{"element": "Te", "occu": 1}], "abc": [0.20276492000000002, 0.8935590800000001, 0.81913611], "properties": {"magmom": -0.0}, "label": "Te", "xyz": [17.254505588554604, 15.817408052953676, 2.7761847495451684]}, {"species": [{"element": "Te", "occu": 1}], "abc": [0.70276492, 0.68086389, 0.60644092], "properties": {"magmom": -0.0}, "label": "Te", "xyz": [13.147390092046322, 11.710292556445395, 9.622005884545167]}, {"species": [{"element": "Te", "occu": 1}], "abc": [0.20276492000000002, 0.81913611, 0.60644092], "properties": {"magmom": -0.0}, "label": "Te", "xyz": [15.817408052953676, 11.710292556445395, 2.7761847495451684]}, {"species": [{"element": "Te", "occu": 1}], "abc": [0.20276492000000002, 0.68086389, 0.8935590800000001], "properties": {"magmom": -0.0}, "label": "Te", "xyz": [13.147390092046322, 17.254505588554604, 2.7761847495451684]}, {"species": [{"element": "Te", "occu": 1}], "abc": [0.70276492, 0.81913611, 0.8935590800000001], "properties": {"magmom": -0.0}, "label": "Te", "xyz": [15.817408052953676, 17.254505588554604, 9.622005884545167]}, {"species": [{"element": "Te", "occu": 1}], "abc": [0.79723508, 0.39355908, 0.31913611000000003], "properties": {"magmom": -0.0}, "label": "Te", "xyz": [7.599572873554604, 6.162475337953677, 10.915457520454831]}, {"species": [{"element": "Te", "occu": 1}], "abc": [0.29723508, 0.10644092000000001, 0.31913611000000003], "properties": {"magmom": -0.0}, "label": "Te", "xyz": [2.0553598414453957, 6.162475337953677, 4.069636385454831]}, {"species": [{"element": "Te", "occu": 1}], "abc": [0.29723508, 0.39355908, 0.18086389], "properties": {"magmom": -0.0}, "label": "Te", "xyz": [7.599572873554604, 3.4924573770463225, 4.069636385454831]}, {"species": [{"element": "Te", "occu": 1}], "abc": [0.79723508, 0.10644092000000001, 0.18086389], "properties": {"magmom": -0.0}, "label": "Te", "xyz": [2.0553598414453957, 3.4924573770463225, 10.915457520454831]}, {"species": [{"element": "Te", "occu": 1}], "abc": [0.29723508, 0.31913611000000003, 0.39355908], "properties": {"magmom": -0.0}, "label": "Te", "xyz": [6.162475337953677, 7.599572873554604, 4.069636385454831]}, {"species": [{"element": "Te", "occu": 1}], "abc": [0.79723508, 0.18086389, 0.39355908], "properties": {"magmom": -0.0}, "label": "Te", "xyz": [3.4924573770463225, 7.599572873554604, 10.915457520454831]}, {"species": [{"element": "Te", "occu": 1}], "abc": [0.79723508, 0.31913611000000003, 0.10644092000000001], "properties": {"magmom": -0.0}, "label": "Te", "xyz": [6.162475337953677, 2.0553598414453957, 10.915457520454831]}, {"species": [{"element": "Te", "occu": 1}], "abc": [0.29723508, 0.18086389, 0.10644092000000001], "properties": {"magmom": -0.0}, "label": "Te", "xyz": [3.4924573770463225, 2.0553598414453957, 4.069636385454831]}, {"species": [{"element": "Te", "occu": 1}], "abc": [0.30271426, 0.40016572, 0.68803624], "properties": {"magmom": -0.0}, "label": "Te", "xyz": [7.727146202899059, 13.285887205363181, 4.14465535794777]}, {"species": [{"element": "Te", "occu": 1}], "abc": [0.80271426, 0.09983428, 0.68803624], "properties": {"magmom": -0.0}, "label": "Te", "xyz": [1.92778651210094, 13.285887205363181, 10.990476492947769]}, {"species": [{"element": "Te", "occu": 1}], "abc": [0.80271426, 0.40016572, 0.81196376], "properties": {"magmom": -0.0}, "label": "Te", "xyz": [7.727146202899059, 15.678910939636816, 10.990476492947769]}, {"species": [{"element": "Te", "occu": 1}], "abc": [0.30271426, 0.09983428, 0.81196376], "properties": {"magmom": -0.0}, "label": "Te", "xyz": [1.92778651210094, 15.678910939636816, 4.14465535794777]}, {"species": [{"element": "Te", "occu": 1}], "abc": [0.80271426, 0.68803624, 0.40016572], "properties": {"magmom": -0.0}, "label": "Te", "xyz": [13.285887205363181, 7.727146202899059, 10.990476492947769]}, {"species": [{"element": "Te", "occu": 1}], "abc": [0.30271426, 0.81196376, 0.40016572], "properties": {"magmom": -0.0}, "label": "Te", "xyz": [15.678910939636816, 7.727146202899059, 4.14465535794777]}, {"species": [{"element": "Te", "occu": 1}], "abc": [0.30271426, 0.68803624, 0.09983428], "properties": {"magmom": -0.0}, "label": "Te", "xyz": [13.285887205363181, 1.92778651210094, 4.14465535794777]}, {"species": [{"element": "Te", "occu": 1}], "abc": [0.80271426, 0.81196376, 0.09983428], "properties": {"magmom": -0.0}, "label": "Te", "xyz": [15.678910939636816, 1.92778651210094, 10.990476492947769]}, {"species": [{"element": "Te", "occu": 1}], "abc": [0.69728574, 0.59983428, 0.31196376], "properties": {"magmom": -0.0}, "label": "Te", "xyz": [11.58271922710094, 6.023978224636816, 9.54698691205223]}, {"species": [{"element": "Te", "occu": 1}], "abc": [0.19728574000000001, 0.9001657200000001, 0.31196376], "properties": {"magmom": -0.0}, "label": "Te", "xyz": [17.382078917899058, 6.023978224636816, 2.7011657770522297]}, {"species": [{"element": "Te", "occu": 1}], "abc": [0.19728574000000001, 0.59983428, 0.18803624], "properties": {"magmom": -0.0}, "label": "Te", "xyz": [11.58271922710094, 3.630954490363183, 2.7011657770522297]}, {"species": [{"element": "Te", "occu": 1}], "abc": [0.69728574, 0.9001657200000001, 0.18803624], "properties": {"magmom": -0.0}, "label": "Te", "xyz": [17.382078917899058, 3.630954490363183, 9.54698691205223]}, {"species": [{"element": "Te", "occu": 1}], "abc": [0.19728574000000001, 0.31196376, 0.59983428], "properties": {"magmom": -0.0}, "label": "Te", "xyz": [6.023978224636816, 11.58271922710094, 2.7011657770522297]}, {"species": [{"element": "Te", "occu": 1}], "abc": [0.69728574, 0.18803624, 0.59983428], "properties": {"magmom": -0.0}, "label": "Te", "xyz": [3.630954490363183, 11.58271922710094, 9.54698691205223]}, {"species": [{"element": "Te", "occu": 1}], "abc": [0.69728574, 0.31196376, 0.9001657200000001], "properties": {"magmom": -0.0}, "label": "Te", "xyz": [6.023978224636816, 17.382078917899058, 9.54698691205223]}, {"species": [{"element": "Te", "occu": 1}], "abc": [0.19728574000000001, 0.18803624, 0.9001657200000001], "properties": {"magmom": -0.0}, "label": "Te", "xyz": [3.630954490363183, 17.382078917899058, 2.7011657770522297]}, {"species": [{"element": "Te", "occu": 1}], "abc": [0.17199058, 0.40336993, 0.79908204], "properties": {"magmom": -0.0}, "label": "Te", "xyz": [7.789019066808519, 15.430166659929878, 2.3548334951698164]}, {"species": [{"element": "Te", "occu": 1}], "abc": [0.67199058, 0.09663007, 0.79908204], "properties": {"magmom": -0.0}, "label": "Te", "xyz": [1.86591364819148, 15.430166659929878, 9.200654630169817]}, {"species": [{"element": "Te", "occu": 1}], "abc": [0.67199058, 0.40336993, 0.7009179600000001], "properties": {"magmom": -0.0}, "label": "Te", "xyz": [7.789019066808519, 13.534631485070124, 9.200654630169817]}, {"species": [{"element": "Te", "occu": 1}], "abc": [0.17199058, 0.09663007, 0.7009179600000001], "properties": {"magmom": -0.0}, "label": "Te", "xyz": [1.86591364819148, 13.534631485070124, 2.3548334951698164]}, {"species": [{"element": "Te", "occu": 1}], "abc": [0.67199058, 0.79908204, 0.40336993], "properties": {"magmom": -0.0}, "label": "Te", "xyz": [15.430166659929878, 7.789019066808519, 9.200654630169817]}, {"species": [{"element": "Te", "occu": 1}], "abc": [0.17199058, 0.7009179600000001, 0.40336993], "properties": {"magmom": -0.0}, "label": "Te", "xyz": [13.534631485070124, 7.789019066808519, 2.3548334951698164]}, {"species": [{"element": "Te", "occu": 1}], "abc": [0.17199058, 0.79908204, 0.09663007], "properties": {"magmom": -0.0}, "label": "Te", "xyz": [15.430166659929878, 1.86591364819148, 2.3548334951698164]}, {"species": [{"element": "Te", "occu": 1}], "abc": [0.67199058, 0.7009179600000001, 0.09663007], "properties": {"magmom": -0.0}, "label": "Te", "xyz": [13.534631485070124, 1.86591364819148, 9.200654630169817]}, {"species": [{"element": "Te", "occu": 1}], "abc": [0.82800942, 0.59663007, 0.20091796], "properties": {"magmom": -0.0}, "label": "Te", "xyz": [11.52084636319148, 3.8796987700701226, 11.336808774830182]}, {"species": [{"element": "Te", "occu": 1}], "abc": [0.32800942, 0.90336993, 0.20091796], "properties": {"magmom": -0.0}, "label": "Te", "xyz": [17.44395178180852, 3.8796987700701226, 4.490987639830183]}, {"species": [{"element": "Te", "occu": 1}], "abc": [0.32800942, 0.59663007, 0.29908204], "properties": {"magmom": -0.0}, "label": "Te", "xyz": [11.52084636319148, 5.775233944929877, 4.490987639830183]}, {"species": [{"element": "Te", "occu": 1}], "abc": [0.82800942, 0.90336993, 0.29908204], "properties": {"magmom": -0.0}, "label": "Te", "xyz": [17.44395178180852, 5.775233944929877, 11.336808774830182]}, {"species": [{"element": "Te", "occu": 1}], "abc": [0.32800942, 0.20091796, 0.59663007], "properties": {"magmom": -0.0}, "label": "Te", "xyz": [3.8796987700701226, 11.52084636319148, 4.490987639830183]}, {"species": [{"element": "Te", "occu": 1}], "abc": [0.82800942, 0.29908204, 0.59663007], "properties": {"magmom": -0.0}, "label": "Te", "xyz": [5.775233944929877, 11.52084636319148, 11.336808774830182]}, {"species": [{"element": "Te", "occu": 1}], "abc": [0.82800942, 0.20091796, 0.90336993], "properties": {"magmom": -0.0}, "label": "Te", "xyz": [3.8796987700701226, 17.44395178180852, 11.336808774830182]}, {"species": [{"element": "Te", "occu": 1}], "abc": [0.32800942, 0.29908204, 0.90336993], "properties": {"magmom": -0.0}, "label": "Te", "xyz": [5.775233944929877, 17.44395178180852, 4.490987639830183]}, {"species": [{"element": "Te", "occu": 1}], "abc": [0.03660873, 0.50195654, 0.74873134], "properties": {"magmom": -0.0}, "label": "Te", "xyz": [9.69271323910841, 14.457901418623575, 0.5012336351190171]}, {"species": [{"element": "Te", "occu": 1}], "abc": [0.53660873, 0.99804346, 0.74873134], "properties": {"magmom": -0.0}, "label": "Te", "xyz": [19.272084905891585, 14.457901418623575, 7.3470547701190165]}, {"species": [{"element": "Te", "occu": 1}], "abc": [0.53660873, 0.50195654, 0.75126866], "properties": {"magmom": -0.0}, "label": "Te", "xyz": [9.69271323910841, 14.506896726376423, 7.3470547701190165]}, {"species": [{"element": "Te", "occu": 1}], "abc": [0.03660873, 0.99804346, 0.75126866], "properties": {"magmom": -0.0}, "label": "Te", "xyz": [19.272084905891585, 14.506896726376423, 0.5012336351190171]}, {"species": [{"element": "Te", "occu": 1}], "abc": [0.53660873, 0.74873134, 0.50195654], "properties": {"magmom": -0.0}, "label": "Te", "xyz": [14.457901418623575, 9.69271323910841, 7.3470547701190165]}, {"species": [{"element": "Te", "occu": 1}], "abc": [0.03660873, 0.75126866, 0.50195654], "properties": {"magmom": -0.0}, "label": "Te", "xyz": [14.506896726376423, 9.69271323910841, 0.5012336351190171]}, {"species": [{"element": "Te", "occu": 1}], "abc": [0.03660873, 0.74873134, 0.99804346], "properties": {"magmom": -0.0}, "label": "Te", "xyz": [14.457901418623575, 19.272084905891585, 0.5012336351190171]}, {"species": [{"element": "Te", "occu": 1}], "abc": [0.53660873, 0.75126866, 0.99804346], "properties": {"magmom": -0.0}, "label": "Te", "xyz": [14.506896726376423, 19.272084905891585, 7.3470547701190165]}, {"species": [{"element": "Te", "occu": 1}], "abc": [0.96339127, 0.49804346, 0.25126866000000003], "properties": {"magmom": -0.0}, "label": "Te", "xyz": [9.617152190891588, 4.851964011376424, 13.190408634880983]}, {"species": [{"element": "Te", "occu": 1}], "abc": [0.46339127, 0.00195654, 0.25126866000000003], "properties": {"magmom": -0.0}, "label": "Te", "xyz": [0.0377805241084122, 4.851964011376424, 6.344587499880983]}, {"species": [{"element": "Te", "occu": 1}], "abc": [0.46339127, 0.49804346, 0.24873134], "properties": {"magmom": -0.0}, "label": "Te", "xyz": [9.617152190891588, 4.802968703623575, 6.344587499880983]}, {"species": [{"element": "Te", "occu": 1}], "abc": [0.96339127, 0.00195654, 0.24873134], "properties": {"magmom": -0.0}, "label": "Te", "xyz": [0.0377805241084122, 4.802968703623575, 13.190408634880983]}, {"species": [{"element": "Te", "occu": 1}], "abc": [0.46339127, 0.25126866000000003, 0.49804346], "properties": {"magmom": -0.0}, "label": "Te", "xyz": [4.851964011376424, 9.617152190891588, 6.344587499880983]}, {"species": [{"element": "Te", "occu": 1}], "abc": [0.96339127, 0.24873134, 0.49804346], "properties": {"magmom": -0.0}, "label": "Te", "xyz": [4.802968703623575, 9.617152190891588, 13.190408634880983]}, {"species": [{"element": "Te", "occu": 1}], "abc": [0.96339127, 0.25126866000000003, 0.00195654], "properties": {"magmom": -0.0}, "label": "Te", "xyz": [4.851964011376424, 0.0377805241084122, 13.190408634880983]}, {"species": [{"element": "Te", "occu": 1}], "abc": [0.46339127, 0.24873134, 0.00195654], "properties": {"magmom": -0.0}, "label": "Te", "xyz": [4.802968703623575, 0.0377805241084122, 6.344587499880983]}, {"species": [{"element": "Te", "occu": 1}], "abc": [0.0065635, 0.44671849, 0.59527768], "properties": {"magmom": 0.0}, "label": "Te", "xyz": [8.6260739269928, 11.494731894282602, 0.089865094039145]}, {"species": [{"element": "Te", "occu": 1}], "abc": [0.5065634999999991, 0.053281510000000004, 0.59527768], "properties": {"magmom": 0.0}, "label": "Te", "xyz": [1.0288587880071993, 11.494731894282602, 6.935686229039131]}, {"species": [{"element": "Te", "occu": 1}], "abc": [0.5065634999999991, 0.44671849, 0.90472232], "properties": {"magmom": 0.0}, "label": "Te", "xyz": [8.6260739269928, 17.470066250717394, 6.935686229039131]}, {"species": [{"element": "Te", "occu": 1}], "abc": [0.0065635, 0.053281510000000004, 0.90472232], "properties": {"magmom": 0.0}, "label": "Te", "xyz": [1.0288587880071993, 17.470066250717394, 0.089865094039145]}, {"species": [{"element": "Te", "occu": 1}], "abc": [0.5065634999999991, 0.59527768, 0.44671849], "properties": {"magmom": 0.0}, "label": "Te", "xyz": [11.494731894282602, 8.6260739269928, 6.935686229039131]}, {"species": [{"element": "Te", "occu": 1}], "abc": [0.0065635, 0.90472232, 0.44671849], "properties": {"magmom": 0.0}, "label": "Te", "xyz": [17.470066250717394, 8.6260739269928, 0.089865094039145]}, {"species": [{"element": "Te", "occu": 1}], "abc": [0.0065635, 0.59527768, 0.053281510000000004], "properties": {"magmom": 0.0}, "label": "Te", "xyz": [11.494731894282602, 1.0288587880071993, 0.089865094039145]}, {"species": [{"element": "Te", "occu": 1}], "abc": [0.5065634999999991, 0.90472232, 0.053281510000000004], "properties": {"magmom": 0.0}, "label": "Te", "xyz": [17.470066250717394, 1.0288587880071993, 6.935686229039131]}, {"species": [{"element": "Te", "occu": 1}], "abc": [0.9934365, 0.55328151, 0.40472232], "properties": {"magmom": 0.0}, "label": "Te", "xyz": [10.6837915030072, 7.815133535717398, 13.601777175960853]}, {"species": [{"element": "Te", "occu": 1}], "abc": [0.4934365, 0.94671849, 0.40472232], "properties": {"magmom": 0.0}, "label": "Te", "xyz": [18.2810066419928, 7.815133535717398, 6.755956040960855]}, {"species": [{"element": "Te", "occu": 1}], "abc": [0.4934365, 0.55328151, 0.09527768], "properties": {"magmom": 0.0}, "label": "Te", "xyz": [10.6837915030072, 1.8397991792826023, 6.755956040960855]}, {"species": [{"element": "Te", "occu": 1}], "abc": [0.9934365, 0.94671849, 0.09527768], "properties": {"magmom": 0.0}, "label": "Te", "xyz": [18.2810066419928, 1.8397991792826023, 13.601777175960853]}, {"species": [{"element": "Te", "occu": 1}], "abc": [0.4934365, 0.40472232, 0.55328151], "properties": {"magmom": 0.0}, "label": "Te", "xyz": [7.815133535717398, 10.6837915030072, 6.755956040960855]}, {"species": [{"element": "Te", "occu": 1}], "abc": [0.9934365, 0.09527768, 0.55328151], "properties": {"magmom": 0.0}, "label": "Te", "xyz": [1.8397991792826023, 10.6837915030072, 13.601777175960853]}, {"species": [{"element": "Te", "occu": 1}], "abc": [0.9934365, 0.40472232, 0.94671849], "properties": {"magmom": 0.0}, "label": "Te", "xyz": [7.815133535717398, 18.2810066419928, 13.601777175960853]}, {"species": [{"element": "Te", "occu": 1}], "abc": [0.4934365, 0.09527768, 0.94671849], "properties": {"magmom": 0.0}, "label": "Te", "xyz": [1.8397991792826023, 18.2810066419928, 6.755956040960855]}, {"species": [{"element": "Te", "occu": 1}], "abc": [0.00678001, 0.55518701, 0.90761543], "properties": {"magmom": -0.0}, "label": "Te", "xyz": [10.720586451584063, 17.525931815491585, 0.0928294715070227]}, {"species": [{"element": "Te", "occu": 1}], "abc": [0.5067800100000001, 0.9448129900000001, 0.90761543], "properties": {"magmom": -0.0}, "label": "Te", "xyz": [18.244211693415934, 17.525931815491585, 6.938650606507023]}, {"species": [{"element": "Te", "occu": 1}], "abc": [0.5067800100000001, 0.55518701, 0.59238457], "properties": {"magmom": -0.0}, "label": "Te", "xyz": [10.720586451584063, 11.438866329508414, 6.938650606507023]}, {"species": [{"element": "Te", "occu": 1}], "abc": [0.00678001, 0.9448129900000001, 0.59238457], "properties": {"magmom": -0.0}, "label": "Te", "xyz": [18.244211693415934, 11.438866329508414, 0.0928294715070227]}, {"species": [{"element": "Te", "occu": 1}], "abc": [0.5067800100000001, 0.90761543, 0.55518701], "properties": {"magmom": -0.0}, "label": "Te", "xyz": [17.525931815491585, 10.720586451584063, 6.938650606507023]}, {"species": [{"element": "Te", "occu": 1}], "abc": [0.00678001, 0.59238457, 0.55518701], "properties": {"magmom": -0.0}, "label": "Te", "xyz": [11.438866329508414, 10.720586451584063, 0.0928294715070227]}, {"species": [{"element": "Te", "occu": 1}], "abc": [0.00678001, 0.90761543, 0.9448129900000001], "properties": {"magmom": -0.0}, "label": "Te", "xyz": [17.525931815491585, 18.244211693415934, 0.0928294715070227]}, {"species": [{"element": "Te", "occu": 1}], "abc": [0.5067800100000001, 0.59238457, 0.9448129900000001], "properties": {"magmom": -0.0}, "label": "Te", "xyz": [11.438866329508414, 18.244211693415934, 6.938650606507023]}, {"species": [{"element": "Te", "occu": 1}], "abc": [0.99321999, 0.44481299, 0.09238457], "properties": {"magmom": -0.0}, "label": "Te", "xyz": [8.589278978415935, 1.783933614508415, 13.598812798492977]}, {"species": [{"element": "Te", "occu": 1}], "abc": [0.49321999, 0.05518701, 0.09238457], "properties": {"magmom": -0.0}, "label": "Te", "xyz": [1.0656537365840641, 1.783933614508415, 6.752991663492977]}, {"species": [{"element": "Te", "occu": 1}], "abc": [0.49321999, 0.44481299, 0.40761543], "properties": {"magmom": -0.0}, "label": "Te", "xyz": [8.589278978415935, 7.870999100491584, 6.752991663492977]}, {"species": [{"element": "Te", "occu": 1}], "abc": [0.99321999, 0.05518701, 0.40761543], "properties": {"magmom": -0.0}, "label": "Te", "xyz": [1.0656537365840641, 7.870999100491584, 13.598812798492977]}, {"species": [{"element": "Te", "occu": 1}], "abc": [0.49321999, 0.09238457, 0.44481299], "properties": {"magmom": -0.0}, "label": "Te", "xyz": [1.783933614508415, 8.589278978415935, 6.752991663492977]}, {"species": [{"element": "Te", "occu": 1}], "abc": [0.99321999, 0.40761543, 0.44481299], "properties": {"magmom": -0.0}, "label": "Te", "xyz": [7.870999100491584, 8.589278978415935, 13.598812798492977]}, {"species": [{"element": "Te", "occu": 1}], "abc": [0.99321999, 0.09238457, 0.05518701], "properties": {"magmom": -0.0}, "label": "Te", "xyz": [1.783933614508415, 1.0656537365840641, 13.598812798492977]}, {"species": [{"element": "Te", "occu": 1}], "abc": [0.49321999, 0.40761543, 0.05518701], "properties": {"magmom": -0.0}, "label": "Te", "xyz": [7.870999100491584, 1.0656537365840641, 6.752991663492977]}]}, "task_ids": null, "uncorrected_energy_per_atom": null, "energy_per_atom": -25.58120046833333, "formation_energy_per_atom": -0.20257257208333002, "energy_above_hull": 0.096478226041668, "is_stable": false, "equilibrium_reaction_energy_per_atom": null, "decomposes_to": null, "xas": null, "grain_boundaries": null, "band_gap": 0.113499999999999, "cbm": null, "vbm": null, "efermi": 3.95068838, "is_gap_direct": null, "is_metal": null, "es_source_calc_id": null, "bandstructure": null, "dos": null, "dos_energy_up": null, "dos_energy_down": null, "is_magnetic": null, "ordering": null, "total_magnetization": 2.61e-05, "total_magnetization_normalized_vol": null, "total_magnetization_normalized_formula_units": null, "num_magnetic_sites": null, "num_unique_magnetic_sites": null, "types_of_magnetic_species": null, "bulk_modulus": null, "shear_modulus": null, "universal_anisotropy": null, "homogeneous_poisson": null, "e_total": null, "e_ionic": null, "e_electronic": null, "n": null, "e_ij_max": null, "weighted_surface_energy_EV_PER_ANG2": null, "weighted_surface_energy": null, "weighted_work_function": null, "surface_anisotropy": null, "shape_factor": null, "has_reconstructed": null, "possible_species": null, "has_props": null, "theoretical": null, "database_IDs": null, "fields_not_requested": ["builder_meta", "nsites", "elements", "nelements", "composition", "composition_reduced", "chemsys", "symmetry", "property_name", "deprecated", "deprecation_reasons", "last_updated", "origins", "warnings", "task_ids", "uncorrected_energy_per_atom", "equilibrium_reaction_energy_per_atom", "decomposes_to", "xas", "grain_boundaries", "cbm", "vbm", "is_gap_direct", "is_metal", "es_source_calc_id", "bandstructure", "dos", "dos_energy_up", "dos_energy_down", "is_magnetic", "ordering", "total_magnetization_normalized_vol", "total_magnetization_normalized_formula_units", "num_magnetic_sites", "num_unique_magnetic_sites", "types_of_magnetic_species", "bulk_modulus", "shear_modulus", "universal_anisotropy", "homogeneous_poisson", "e_total", "e_ionic", "e_electronic", "n", "e_ij_max", "weighted_surface_energy_EV_PER_ANG2", "weighted_surface_energy", "weighted_work_function", "surface_anisotropy", "shape_factor", "has_reconstructed", "possible_species", "has_props", "theoretical", "database_IDs"]}