{"builder_meta": null, "nsites": null, "elements": null, "nelements": null, "composition": null, "composition_reduced": null, "formula_pretty": "CsZn8", "formula_anonymous": "AB8", "chemsys": null, "volume": 179.77077479566125, "density": 6.061098055234559, "density_atomic": 19.97453053285125, "symmetry": null, "property_name": null, "material_id": "mp-1228983", "deprecated": null, "deprecation_reasons": null, "last_updated": null, "origins": null, "warnings": null, "structure": {"@module": "pymatgen.core.structure", "@class": "Structure", "charge": 0, "lattice": {"matrix": [[-1.469672, 3.5554740000000002, 8.600846], [1.469672, -3.5554740000000002, 8.600846], [1.469672, 3.5554740000000002, -8.600846]], "pbc": [true, true, true], "a": 9.4220954711771, "b": 9.4220954711771, "c": 9.4220954711771, "alpha": 162.05255827763207, "beta": 135.6601285812604, "gamma": 48.19895059187653, "volume": 179.77077479566128}, "properties": {}, "sites": [{"species": [{"element": "Cs", "occu": 1}], "abc": [0.749398999999999, 0.749398999999999, 0.0], "properties": {"magmom": 0.0}, "label": "Cs", "xyz": [0.0, 0.0, 12.890930783107985]}, {"species": [{"element": "Zn", "occu": 1}], "abc": [0.316953, 0.816952999999999, 0.5], "properties": {"magmom": 0.0}, "label": "Zn", "xyz": [1.4696719999999988, 3.552713678800501e-15, 5.452127884475992]}, {"species": [{"element": "Zn", "occu": 1}], "abc": [0.183645, 0.183645, 0.0], "properties": {"magmom": 0.0}, "label": "Zn", "xyz": [0.0, 0.0, 3.15900472734]}, {"species": [{"element": "Zn", "occu": 1}], "abc": [0.537154, 0.037154, 0.5], "properties": {"magmom": -0.0}, "label": "Zn", "xyz": [0.0, 3.5554740000000002, 0.6391116645680004]}, {"species": [{"element": "Zn", "occu": 1}], "abc": [0.9629900000000001, 0.9629900000000001, 0.0], "properties": {"magmom": -0.0}, "label": "Zn", "xyz": [0.0, 0.0, 16.565057379080002]}, {"species": [{"element": "Zn", "occu": 1}], "abc": [0.880845, 0.5807329999999991, 0.300112], "properties": {"magmom": 0.0}, "label": "Zn", "xyz": [-1.3322676295501878e-15, 2.134080826176003, 9.989590200235993]}, {"species": [{"element": "Zn", "occu": 1}], "abc": [0.620155999999999, 0.418697, 0.201459], "properties": {"magmom": -0.0}, "label": "Zn", "xyz": [1.27675647831893e-15, 1.4325644731319969, 7.202296835323994]}, {"species": [{"element": "Zn", "occu": 1}], "abc": [0.217238, 0.418697, 0.798541], "properties": {"magmom": -0.0}, "label": "Zn", "xyz": [1.469672, 2.122909526868, -1.398549164676]}, {"species": [{"element": "Zn", "occu": 1}], "abc": [0.28062000000000004, 0.5807329999999991, 0.699888], "properties": {"magmom": 0.0}, "label": "Zn", "xyz": [1.4696734696719986, 1.4213896183500034, 1.3887355993899924]}]}, "task_ids": null, "uncorrected_energy_per_atom": null, "energy_per_atom": -10.599471860881227, "formation_energy_per_atom": 0.11089189911877201, "energy_above_hull": 0.11089189911877201, "is_stable": false, "equilibrium_reaction_energy_per_atom": null, "decomposes_to": null, "xas": null, "grain_boundaries": null, "band_gap": 0.0, "cbm": null, "vbm": null, "efermi": 2.35062278, "is_gap_direct": null, "is_metal": null, "es_source_calc_id": null, "bandstructure": null, "dos": null, "dos_energy_up": null, "dos_energy_down": null, "is_magnetic": null, "ordering": null, "total_magnetization": 0.0027156, "total_magnetization_normalized_vol": null, "total_magnetization_normalized_formula_units": null, "num_magnetic_sites": null, "num_unique_magnetic_sites": null, "types_of_magnetic_species": null, "bulk_modulus": null, "shear_modulus": null, "universal_anisotropy": null, "homogeneous_poisson": null, "e_total": null, "e_ionic": null, "e_electronic": null, "n": null, "e_ij_max": null, "weighted_surface_energy_EV_PER_ANG2": null, "weighted_surface_energy": null, "weighted_work_function": null, "surface_anisotropy": null, "shape_factor": null, "has_reconstructed": null, "possible_species": null, "has_props": null, "theoretical": null, "database_IDs": null, "fields_not_requested": ["builder_meta", "nsites", "elements", "nelements", "composition", "composition_reduced", "chemsys", "symmetry", "property_name", "deprecated", "deprecation_reasons", "last_updated", "origins", "warnings", "task_ids", "uncorrected_energy_per_atom", "equilibrium_reaction_energy_per_atom", "decomposes_to", "xas", "grain_boundaries", "cbm", "vbm", "is_gap_direct", "is_metal", "es_source_calc_id", "bandstructure", "dos", "dos_energy_up", "dos_energy_down", "is_magnetic", "ordering", "total_magnetization_normalized_vol", "total_magnetization_normalized_formula_units", "num_magnetic_sites", "num_unique_magnetic_sites", "types_of_magnetic_species", "bulk_modulus", "shear_modulus", "universal_anisotropy", "homogeneous_poisson", "e_total", "e_ionic", "e_electronic", "n", "e_ij_max", "weighted_surface_energy_EV_PER_ANG2", "weighted_surface_energy", "weighted_work_function", "surface_anisotropy", "shape_factor", "has_reconstructed", "possible_species", "has_props", "theoretical", "database_IDs"]}