{"builder_meta": null, "nsites": null, "elements": null, "nelements": null, "composition": null, "composition_reduced": null, "formula_pretty": "Cu2O3", "formula_anonymous": "A2B3", "chemsys": null, "volume": 97.66062516736574, "density": 5.954172764725702, "density_atomic": 9.766062516736573, "symmetry": null, "property_name": null, "material_id": "mp-760432", "deprecated": null, "deprecation_reasons": null, "last_updated": null, "origins": null, "warnings": null, "structure": {"@module": "pymatgen.core.structure", "@class": "Structure", "charge": 0, "lattice": {"matrix": [[-0.00231057, -4.80317016, -1.70671321], [0.12507101, -0.00248751, -3.40312509], [6.02952193, -0.08316088, -1.48062409]], "pbc": [true, true, true], "a": 5.097383535289124, "b": 3.405423516016169, "c": 6.209210749539881, "alpha": 74.09941205216379, "beta": 84.7201642484966, "gamma": 70.41121971975792, "volume": 97.66062516736574}, "properties": {}, "sites": [{"species": [{"element": "Cu", "occu": 1}], "abc": [0.2671695, 0.31604011, 0.09423814], "properties": {"magmom": 0.0}, "label": "Cu", "xyz": [0.6071210736990063, -1.2918836496481092, -1.6710370030272474]}, {"species": [{"element": "Cu", "occu": 1}], "abc": [0.76706355, 0.16000984000000001, 0.40565348], "properties": {"magmom": -0.0}, "label": "Cu", "xyz": [2.464136791912831, -3.718469280632629, -2.4543113095257145]}, {"species": [{"element": "Cu", "occu": 1}], "abc": [0.23276091000000002, 0.33227302000000003, 0.59453078], "properties": {"magmom": -0.0}, "label": "Cu", "xyz": [3.625756287901337, -1.168258492638312, -2.4082993660751835]}, {"species": [{"element": "Cu", "occu": 1}], "abc": [0.732899099999999, 0.67852637, 0.90568041], "properties": {"magmom": 0.0}, "label": "Cu", "xyz": [5.5439904574004375, -3.597244108435851, -4.9009309224278095]}, {"species": [{"element": "O", "occu": 1}], "abc": [0.00010614, 0.16645612, 0.99986755], "properties": {"magmom": 0.0}, "label": "O", "xyz": [6.049541909625553, -0.08407373508528762, -2.0470801302354396]}, {"species": [{"element": "O", "occu": 1}], "abc": [0.53709697, 0.52647889, 0.16358046], "properties": {"magmom": -0.0}, "label": "O", "xyz": [1.0509182172594937, -2.5946812558384837, -2.9505451833936056]}, {"species": [{"element": "O", "occu": 1}], "abc": [0.03716325, 0.43940799, 0.33653668000000003], "properties": {"magmom": -0.0}, "label": "O", "xyz": [2.08402662513021, -0.2075811316789033, -2.0570716807936233]}, {"species": [{"element": "O", "occu": 1}], "abc": [0.50030923, 0.9154607300000001, 0.5000454400000001], "properties": {"magmom": -0.0}, "label": "O", "xyz": [3.1283765450953758, -2.4469318008594465, -4.709691075657294]}, {"species": [{"element": "O", "occu": 1}], "abc": [0.96275922, 0.81372731, 0.6636506600000001], "properties": {"magmom": -0.0}, "label": "O", "xyz": [4.101045382284302, -4.6815102844879535, -5.394986858442904]}, {"species": [{"element": "O", "occu": 1}], "abc": [0.46267114000000004, 0.22785262, 0.8362164], "properties": {"magmom": -0.0}, "label": "O", "xyz": [5.069413845284248, -2.2923954909063906, -2.803180060761071]}]}, "task_ids": null, "uncorrected_energy_per_atom": null, "energy_per_atom": -5.46033676925, "formation_energy_per_atom": -0.851877498249999, "energy_above_hull": 0.0, "is_stable": true, "equilibrium_reaction_energy_per_atom": null, "decomposes_to": null, "xas": null, "grain_boundaries": null, "band_gap": 0.136, "cbm": null, "vbm": null, "efermi": 3.11928098, "is_gap_direct": null, "is_metal": null, "es_source_calc_id": null, "bandstructure": null, "dos": null, "dos_energy_up": null, "dos_energy_down": null, "is_magnetic": null, "ordering": null, "total_magnetization": 0.0, "total_magnetization_normalized_vol": null, "total_magnetization_normalized_formula_units": null, "num_magnetic_sites": null, "num_unique_magnetic_sites": null, "types_of_magnetic_species": null, "bulk_modulus": null, "shear_modulus": null, "universal_anisotropy": null, "homogeneous_poisson": null, "e_total": null, "e_ionic": null, "e_electronic": null, "n": null, "e_ij_max": null, "weighted_surface_energy_EV_PER_ANG2": null, "weighted_surface_energy": null, "weighted_work_function": null, "surface_anisotropy": null, "shape_factor": null, "has_reconstructed": null, "possible_species": null, "has_props": null, "theoretical": null, "database_IDs": null, "fields_not_requested": ["builder_meta", "nsites", "elements", "nelements", "composition", "composition_reduced", "chemsys", "symmetry", "property_name", "deprecated", "deprecation_reasons", "last_updated", "origins", "warnings", "task_ids", "uncorrected_energy_per_atom", "equilibrium_reaction_energy_per_atom", "decomposes_to", "xas", "grain_boundaries", "cbm", "vbm", "is_gap_direct", "is_metal", "es_source_calc_id", "bandstructure", "dos", "dos_energy_up", "dos_energy_down", "is_magnetic", "ordering", "total_magnetization_normalized_vol", "total_magnetization_normalized_formula_units", "num_magnetic_sites", "num_unique_magnetic_sites", "types_of_magnetic_species", "bulk_modulus", "shear_modulus", "universal_anisotropy", "homogeneous_poisson", "e_total", "e_ionic", "e_electronic", "n", "e_ij_max", "weighted_surface_energy_EV_PER_ANG2", "weighted_surface_energy", "weighted_work_function", "surface_anisotropy", "shape_factor", "has_reconstructed", "possible_species", "has_props", "theoretical", "database_IDs"]}