{"builder_meta": null, "nsites": null, "elements": null, "nelements": null, "composition": null, "composition_reduced": null, "formula_pretty": "Cu2Sb", "formula_anonymous": "AB2", "chemsys": null, "volume": 96.8675574193341, "density": 8.531823838866934, "density_atomic": 16.14459290322235, "symmetry": null, "property_name": null, "material_id": "mp-1825", "deprecated": null, "deprecation_reasons": null, "last_updated": null, "origins": null, "warnings": null, "structure": {"@module": "pymatgen.core.structure", "@class": "Structure", "charge": 0, "lattice": {"matrix": [[4.02029744, 0.0, -0.0], [-0.0, 4.02029744, -0.0], [-0.0, 0.0, 5.99324426]], "pbc": [true, true, true], "a": 4.02029744, "b": 4.02029744, "c": 5.99324426, "alpha": 90.0, "beta": 90.0, "gamma": 90.0, "volume": 96.8675574193341}, "properties": {}, "sites": [{"species": [{"element": "Cu", "occu": 1}], "abc": [0.75, 0.25, 0.0], "properties": {"magmom": 0.0}, "label": "Cu", "xyz": [3.01522308, 1.00507436, 0.0]}, {"species": [{"element": "Cu", "occu": 1}], "abc": [0.25, 0.75, 0.0], "properties": {"magmom": 0.0}, "label": "Cu", "xyz": [1.00507436, 3.01522308, 0.0]}, {"species": [{"element": "Cu", "occu": 1}], "abc": [0.25, 0.25, 0.26214317], "properties": {"magmom": 0.0}, "label": "Cu", "xyz": [1.00507436, 1.00507436, 1.5710880489007042]}, {"species": [{"element": "Cu", "occu": 1}], "abc": [0.75, 0.75, 0.73785683], "properties": {"magmom": 0.0}, "label": "Cu", "xyz": [3.01522308, 3.01522308, 4.422156211099296]}, {"species": [{"element": "Sb", "occu": 1}], "abc": [0.25, 0.25, 0.70192221], "properties": {"magmom": -0.0}, "label": "Sb", "xyz": [1.00507436, 1.00507436, 4.206791256049015]}, {"species": [{"element": "Sb", "occu": 1}], "abc": [0.75, 0.75, 0.29807779], "properties": {"magmom": -0.0}, "label": "Sb", "xyz": [3.01522308, 3.01522308, 1.7864530039509854]}]}, "task_ids": null, "uncorrected_energy_per_atom": null, "energy_per_atom": -15.765597666666666, "formation_energy_per_atom": 0.034371576666664, "energy_above_hull": 0.034371576666666, "is_stable": false, "equilibrium_reaction_energy_per_atom": null, "decomposes_to": null, "xas": null, "grain_boundaries": null, "band_gap": 0.0, "cbm": null, "vbm": null, "efermi": 8.16491135, "is_gap_direct": null, "is_metal": null, "es_source_calc_id": null, "bandstructure": null, "dos": null, "dos_energy_up": null, "dos_energy_down": null, "is_magnetic": null, "ordering": null, "total_magnetization": 0.0, "total_magnetization_normalized_vol": null, "total_magnetization_normalized_formula_units": null, "num_magnetic_sites": null, "num_unique_magnetic_sites": null, "types_of_magnetic_species": null, "bulk_modulus": null, "shear_modulus": null, "universal_anisotropy": null, "homogeneous_poisson": null, "e_total": null, "e_ionic": null, "e_electronic": null, "n": null, "e_ij_max": null, "weighted_surface_energy_EV_PER_ANG2": null, "weighted_surface_energy": null, "weighted_work_function": null, "surface_anisotropy": null, "shape_factor": null, "has_reconstructed": null, "possible_species": null, "has_props": null, "theoretical": null, "database_IDs": null, "fields_not_requested": ["builder_meta", "nsites", "elements", "nelements", "composition", "composition_reduced", "chemsys", "symmetry", "property_name", "deprecated", "deprecation_reasons", "last_updated", "origins", "warnings", "task_ids", "uncorrected_energy_per_atom", "equilibrium_reaction_energy_per_atom", "decomposes_to", "xas", "grain_boundaries", "cbm", "vbm", "is_gap_direct", "is_metal", "es_source_calc_id", "bandstructure", "dos", "dos_energy_up", "dos_energy_down", "is_magnetic", "ordering", "total_magnetization_normalized_vol", "total_magnetization_normalized_formula_units", "num_magnetic_sites", "num_unique_magnetic_sites", "types_of_magnetic_species", "bulk_modulus", "shear_modulus", "universal_anisotropy", "homogeneous_poisson", "e_total", "e_ionic", "e_electronic", "n", "e_ij_max", "weighted_surface_energy_EV_PER_ANG2", "weighted_surface_energy", "weighted_work_function", "surface_anisotropy", "shape_factor", "has_reconstructed", "possible_species", "has_props", "theoretical", "database_IDs"]}