{"builder_meta": null, "nsites": null, "elements": null, "nelements": null, "composition": null, "composition_reduced": null, "formula_pretty": "Cu2Se", "formula_anonymous": "AB2", "chemsys": null, "volume": 2456.9320434532096, "density": 6.684578452144643, "density_atomic": 17.062028079536177, "symmetry": null, "property_name": null, "material_id": "mp-1097707", "deprecated": null, "deprecation_reasons": null, "last_updated": null, "origins": null, "warnings": null, "structure": {"@module": "pymatgen.core.structure", "@class": "Structure", "charge": 0, "lattice": {"matrix": [[12.63454275, 6.534000000000001e-05, 0.00010767], [1.2420000000000001e-05, 12.40066152, -6.08266749], [0.00013212, 0.05601172, 15.65406747]], "pbc": [true, true, true], "a": 12.634542750627729, "b": 13.8121413954414, "c": 15.654167677827692, "alpha": 115.92347455713322, "beta": 89.99902710334136, "gamma": 89.99989747786101, "volume": 2456.9320434532096}, "properties": {}, "sites": [{"species": [{"element": "Cu", "occu": 1}], "abc": [0.45802285000000004, 0.64717707, 0.82823715], "properties": {"magmom": -0.0}, "label": "Cu", "xyz": [5.787026743433305, 8.071844703127764, 9.028766618618313]}, {"species": [{"element": "Cu", "occu": 1}], "abc": [0.39315197, 0.95662119, 0.14307968000000001], "properties": {"magmom": 0.0}, "label": "Cu", "xyz": [4.967326157134218, 11.870775407573179, -3.578987317679494]}, {"species": [{"element": "Cu", "occu": 1}], "abc": [0.29083799, 0.7515246, 0.025496480000000002], "properties": {"magmom": -0.0}, "label": "Cu", "xyz": [3.674617720509542, 9.320849293606404, -4.172119319661364]}, {"species": [{"element": "Cu", "occu": 1}], "abc": [0.04191969, 0.14717221, 0.8282500700000001], "properties": {"magmom": 0.0}, "label": "Cu", "xyz": [0.5297473716498441, 1.871427211403724, 12.070287374106792]}, {"species": [{"element": "Cu", "occu": 1}], "abc": [0.55414249, 0.32466285, 0.68550519], "properties": {"magmom": 0.0}, "label": "Cu", "xyz": [7.001431580754748, 4.064466643399656, 8.75618799691132]}, {"species": [{"element": "Cu", "occu": 1}], "abc": [0.59216639, 0.71659847, 0.99203884], "properties": {"magmom": -0.0}, "label": "Cu", "xyz": [7.481891537892712, 8.941899566107002, 11.170676475923004]}, {"species": [{"element": "Cu", "occu": 1}], "abc": [0.84900392, 0.560611, 0.05724457], "properties": {"magmom": 0.0}, "label": "Cu", "xyz": [10.726790848098787, 6.955209096131212, -2.5138085309131855]}, {"species": [{"element": "Cu", "occu": 1}], "abc": [0.66881776, 0.99506718, 0.55273992], "properties": {"magmom": 0.0}, "label": "Cu", "xyz": [8.450291967411845, 12.370494903025216, 2.600037226498644]}, {"species": [{"element": "Cu", "occu": 1}], "abc": [0.41735233, 0.7203052400000001, 0.49695277], "properties": {"magmom": -0.0}, "label": "Cu", "xyz": [5.27313045878816, 8.960123921530071, 3.397999861084114]}, {"species": [{"element": "Cu", "occu": 1}], "abc": [0.75048233, 0.92322424, 0.14039662], "properties": {"magmom": 0.0}, "label": "Cu", "xyz": [9.4820310971511, 11.456504199983073, -3.417807104155535]}, {"species": [{"element": "Cu", "occu": 1}], "abc": [0.29074512, 0.5748218900000001, 0.21465389], "properties": {"magmom": 0.0}, "label": "Cu", "xyz": [3.673467147353701, 7.1402138230464045, -0.1362126415583278]}, {"species": [{"element": "Cu", "occu": 1}], "abc": [0.73173561, 0.21370485, 0.63758227], "properties": {"magmom": -0.0}, "label": "Cu", "xyz": [9.245231737826076, 2.685841401221334, 8.680939114678559]}, {"species": [{"element": "Cu", "occu": 1}], "abc": [0.2489793, 0.85652933, 0.77938642], "properties": {"magmom": -0.0}, "label": "Cu", "xyz": [3.145853220343164, 10.665201345518685, 6.990611301660506]}, {"species": [{"element": "Cu", "occu": 1}], "abc": [0.39752874, 0.9514855, 0.61228829], "properties": {"magmom": -0.0}, "label": "Cu", "xyz": [5.02268657286242, 11.83337092147459, 3.7972750866139657]}, {"species": [{"element": "Cu", "occu": 1}], "abc": [0.57371717, 0.8386564200000001, 0.9000489500000001], "properties": {"magmom": 0.0}, "label": "Cu", "xyz": [7.248783441354028, 10.450345172448541, 8.988220620516564]}, {"species": [{"element": "Cu", "occu": 1}], "abc": [0.86053158, 0.061539250000000004, 0.07466161], "properties": {"magmom": -0.0}, "label": "Cu", "xyz": [10.872433663844443, 0.7673655617721665, 0.7945277384600629]}, {"species": [{"element": "Cu", "occu": 1}], "abc": [0.65098571, 0.06061393, 0.05723123], "properties": {"magmom": -0.0}, "label": "Cu", "xyz": [8.224915096849221, 0.7549009843632807, 0.5272772459903481]}, {"species": [{"element": "Cu", "occu": 1}], "abc": [0.69886249, 0.36117505, 0.28288156000000003], "properties": {"magmom": 0.0}, "label": "Cu", "xyz": [8.829849866382276, 4.494699890926055, 2.231414537949027]}, {"species": [{"element": "Cu", "occu": 1}], "abc": [0.09217515, 0.78341886, 0.00797073], "properties": {"magmom": -0.0}, "label": "Cu", "xyz": [1.1646016563177513, 9.715364588265524, -4.640492161071308]}, {"species": [{"element": "Cu", "occu": 1}], "abc": [0.78414435, 0.22914417, 0.477423799999999], "properties": {"magmom": 0.0}, "label": "Cu", "xyz": [9.90737123544901, 2.8683318556501036, 6.0799010124239015]}, {"species": [{"element": "Cu", "occu": 1}], "abc": [0.26176999, 0.92017867, 0.2712038], "properties": {"magmom": 0.0}, "label": "Cu", "xyz": [3.30739138938721, 11.426031919953461, -1.3516701129052295]}, {"species": [{"element": "Cu", "occu": 1}], "abc": [0.941058899999999, 0.075297099999999, 0.39098834], "properties": {"magmom": 0.0}, "label": "Cu", "xyz": [11.889901494887427, 0.9556952687494504, 5.662651955893789]}, {"species": [{"element": "Cu", "occu": 1}], "abc": [0.95435018, 0.32801057, 0.70284085], "properties": {"magmom": 0.0}, "label": "Cu", "xyz": [12.057875080904578, 4.1069777356877895, 9.00724161094066]}, {"species": [{"element": "Cu", "occu": 1}], "abc": [0.40776714000000003, 0.69396027, 0.13291771], "properties": {"magmom": 0.0}, "label": "Cu", "xyz": [5.151977542449634, 8.613038009658299, -2.1403828690947657]}, {"species": [{"element": "Cu", "occu": 1}], "abc": [0.5826476700000001, 0.27969476, 0.50304723], "properties": {"magmom": -0.0}, "label": "Cu", "xyz": [7.361556831211841, 3.4966146584699285, 6.173507788915884]}, {"species": [{"element": "Cu", "occu": 1}], "abc": [0.7682648200000001, 0.7137079900000001, 0.63756795], "properties": {"magmom": 0.0}, "label": "Cu", "xyz": [9.706767811341845, 8.886212684029257, 5.63936603695651]}, {"species": [{"element": "Cu", "occu": 1}], "abc": [0.15099608, 0.439389, 0.9427554300000001], "properties": {"magmom": -0.0}, "label": "Cu", "xyz": [1.9078964419012114, 5.5015294838687865, 12.085316180913185]}, {"species": [{"element": "Cu", "occu": 1}], "abc": [0.21585565, 0.77085583, 0.522576199999999], "properties": {"magmom": 0.0}, "label": "Cu", "xyz": [2.7273160545509905, 9.588406724349896, 3.4916066375760684]}, {"species": [{"element": "Cu", "occu": 1}], "abc": [0.16883167000000002, 0.50493658, 0.44726255000000004], "properties": {"magmom": -0.0}, "label": "Cu", "xyz": [2.133176315809322, 6.286610593824805, 3.930134992932374]}, {"species": [{"element": "Cu", "occu": 1}], "abc": [0.38638551, 0.15945899, 0.62169802], "properties": {"magmom": 0.0}, "label": "Cu", "xyz": [4.881888363298611, 2.0122445831610825, 8.762208338712036]}, {"species": [{"element": "Cu", "occu": 1}], "abc": [0.74898117, 0.64346459, 0.22059345], "properties": {"magmom": -0.0}, "label": "Cu", "xyz": [9.463071747946838, 7.991791337680458, -0.4607157500165342]}, {"species": [{"element": "Cu", "occu": 1}], "abc": [0.79074928, 0.92517759, 0.78534426], "properties": {"magmom": -0.0}, "label": "Cu", "xyz": [9.990870833081017, 11.516854289832018, 6.66636952402265]}, {"species": [{"element": "Cu", "occu": 1}], "abc": [0.42628283, 0.16134358000000001, 0.09995105], "properties": {"magmom": 0.0}, "label": "Cu", "xyz": [5.385903848645971, 2.0063934075514602, 0.5832870294834352]}, {"species": [{"element": "Cu", "occu": 1}], "abc": [0.7510207, 0.14347067, 0.22061358], "properties": {"magmom": 0.0}, "label": "Cu", "xyz": [9.488834069656836, 1.791537234481314, 2.580896348339493]}, {"species": [{"element": "Cu", "occu": 1}], "abc": [0.26826439, 0.78629515, 0.36241773], "properties": {"magmom": -0.0}, "label": "Cu", "xyz": [3.3894555521739234, 9.770897178778666, 0.8905685353214396]}, {"species": [{"element": "Cu", "occu": 1}], "abc": [0.23823978, 0.42018903, 0.27120268000000003], "properties": {"magmom": -0.0}, "label": "Cu", "xyz": [3.010091735206429, 5.225828030609761, 1.6895805496062977]}, {"species": [{"element": "Cu", "occu": 1}], "abc": [0.5589436600000001, 0.57529734, 0.39099565000000003], "properties": {"magmom": -0.0}, "label": "Cu", "xyz": [7.062056370649706, 7.156004446944118, 2.621390039938901]}, {"species": [{"element": "Cu", "occu": 1}], "abc": [0.25048168, 0.57677265, 0.85960513], "properties": {"magmom": 0.0}, "label": "Cu", "xyz": [3.1648422285979083, 7.2005267349685225, 9.948027424664458]}, {"species": [{"element": "Cu", "occu": 1}], "abc": [0.36999393, 0.48494989, 0.41919507], "properties": {"magmom": -0.0}, "label": "Cu", "xyz": [4.67476553295579, 6.037203452340839, 3.61235881593574]}, {"species": [{"element": "Cu", "occu": 1}], "abc": [0.09223353000000001, 0.19395762, 0.13291717], "properties": {"magmom": -0.0}, "label": "Cu", "xyz": [1.1653484477385483, 2.412653740692865, 0.9009245682738609]}, {"species": [{"element": "Cu", "occu": 1}], "abc": [0.86999306, 0.01505313, 0.58080531], "properties": {"magmom": 0.0}, "label": "Cu", "xyz": [10.992041431730748, 0.2192575196913312, 9.000495997353292]}, {"species": [{"element": "Cu", "occu": 1}], "abc": [0.54197715, 0.35282293000000003, 0.17176285], "properties": {"magmom": 0.0}, "label": "Cu", "xyz": [6.847660546566695, 4.384893876872237, 0.5427410313816838]}, {"species": [{"element": "Cu", "occu": 1}], "abc": [0.76176022, 0.57981097, 0.72879732], "properties": {"magmom": 0.0}, "label": "Cu", "xyz": [9.62459555479357, 7.23091054939024, 7.8819271003937015]}, {"species": [{"element": "Cu", "occu": 1}], "abc": [0.7495183200000001, 0.42322735, 0.14039487], "properties": {"magmom": 0.0}, "label": "Cu", "xyz": [9.469845061402093, 5.256211845031477, -0.3765197746644584]}, {"species": [{"element": "Cu", "occu": 1}], "abc": [0.43261135, 0.11269979000000001, 0.77729105], "properties": {"magmom": -0.0}, "label": "Cu", "xyz": [5.465950691135131, 1.441117624641796, 11.482297771028371]}, {"species": [{"element": "Cu", "occu": 1}], "abc": [0.23173518, 0.28629201, 0.36243205], "properties": {"magmom": 0.0}, "label": "Cu", "xyz": [2.927919478658155, 3.5705258959707424, 3.932141613043489]}, {"species": [{"element": "Cu", "occu": 1}], "abc": [0.44585751, 0.67533715, 0.31449581], "properties": {"magmom": -0.0}, "label": "Cu", "xyz": [5.633255709377373, 8.392271992612066, 0.8153353071561487]}, {"species": [{"element": "Cu", "occu": 1}], "abc": [0.79084201, 0.74848305, 0.97451444], "properties": {"magmom": 0.0}, "label": "Cu", "xyz": [9.992065232848221, 9.336320860073407, 10.702426429157438]}, {"species": [{"element": "Cu", "occu": 1}], "abc": [0.92633242, 0.3386363, 0.90007488], "properties": {"magmom": -0.0}, "label": "Cu", "xyz": [11.703909684956946, 4.249789403403093, 12.030120624839928]}, {"species": [{"element": "Cu", "occu": 1}], "abc": [0.6394675400000001, 0.56153352, 0.07466217], "properties": {"magmom": 0.0}, "label": "Cu", "xyz": [8.079396809979555, 6.967610853023846, -2.2467861885426235]}, {"species": [{"element": "Cu", "occu": 1}], "abc": [0.40783361, 0.28340153, 0.00796116], "properties": {"magmom": 0.0}, "label": "Cu", "xyz": [5.152795752107289, 3.5148390138929986, -1.5991688259230061]}, {"species": [{"element": "Cu", "occu": 1}], "abc": [0.63000607, 0.51505011, 0.58080493], "properties": {"magmom": -0.0}, "label": "Cu", "xyz": [7.95992175704421, 6.419535127659161, 5.95914883406426]}, {"species": [{"element": "Cu", "occu": 1}], "abc": [0.56738865, 0.88730021, 0.22270895000000002], "properties": {"magmom": -0.0}, "label": "Cu", "xyz": [7.16873659886487, 11.015620955358205, -1.9107901210283713]}, {"species": [{"element": "Cu", "occu": 1}], "abc": [0.08265975, 0.22029369000000001, 0.49694397], "properties": {"magmom": 0.0}, "label": "Cu", "xyz": [1.0444365373642588, 2.759627572173202, 6.4392300687498]}, {"species": [{"element": "Cu", "occu": 1}], "abc": [0.73823001, 0.07982133, 0.7287962], "properties": {"magmom": -0.0}, "label": "Cu", "xyz": [9.327295900612791, 1.0307066600465389, 10.923177762905228]}, {"species": [{"element": "Cu", "occu": 1}], "abc": [0.59223286, 0.30603973, 0.86708229], "properties": {"magmom": 0.0}, "label": "Cu", "xyz": [7.482709747550365, 3.843700570341701, 11.711890519094766]}, {"species": [{"element": "Cu", "occu": 1}], "abc": [0.04564982, 0.67198943, 0.29715915], "properties": {"magmom": 0.0}, "label": "Cu", "xyz": [0.5768122090954235, 8.349760844312211, 0.5642660390593388]}, {"species": [{"element": "Cu", "occu": 1}], "abc": [0.05413765, 0.17533837, 0.31449043], "properties": {"magmom": -0.0}, "label": "Cu", "xyz": [0.6840481814877045, 2.191930465100413, 3.8565352359414957]}, {"species": [{"element": "Cu", "occu": 1}], "abc": [0.11361576, 0.65945244, 0.621696399999999], "properties": {"magmom": -0.0}, "label": "Cu", "xyz": [1.4355735057214127, 8.212476205313676, 5.720859706475795]}, {"species": [{"element": "Cu", "occu": 1}], "abc": [0.34901429, 0.9393860700000001, 0.94276877], "properties": {"magmom": 0.0}, "label": "Cu", "xyz": [4.409772193150779, 11.70183759563672, 9.04423040400965]}, {"species": [{"element": "Cu", "occu": 1}], "abc": [0.89316219, 0.5433677100000001, 0.85691583], "properties": {"magmom": -0.0}, "label": "Cu", "xyz": [11.28481583658504, 6.7861747413585425, 10.1091892809713]}, {"species": [{"element": "Cu", "occu": 1}], "abc": [0.54564895, 0.82801344, 0.70283532], "properties": {"magmom": -0.0}, "label": "Cu", "xyz": [6.894128127797016, 10.307317071303173, 5.965759836830422]}, {"species": [{"element": "Cu", "occu": 1}], "abc": [0.90782485, 0.21658114, 0.9920292700000001], "properties": {"magmom": -0.0}, "label": "Cu", "xyz": [11.470085633682249, 2.741373991734476, 14.211999811071308]}, {"species": [{"element": "Cu", "occu": 1}], "abc": [0.9458623500000001, 0.82466163, 0.68551057], "properties": {"magmom": -0.0}, "label": "Cu", "xyz": [11.950639108644415, 10.264808170911307, 5.714988068125974]}, {"species": [{"element": "Cu", "occu": 1}], "abc": [0.0674279, 0.61264843, 0.7772588300000001], "properties": {"magmom": -0.0}, "label": "Cu", "xyz": [0.8520309856228452, 7.640785820881887, 8.440732738474713]}, {"species": [{"element": "Cu", "occu": 1}], "abc": [0.60684803, 0.043378810000000004, 0.8569203200000001], "properties": {"magmom": 0.0}, "label": "Cu", "xyz": [7.667361132865781, 0.5859631724268218, 13.150494967679494]}, {"species": [{"element": "Cu", "occu": 1}], "abc": [0.6024712600000001, 0.048514499999999, 0.38771171], "properties": {"magmom": -0.0}, "label": "Cu", "xyz": [7.6120007171375805, 0.6233676585253971, 5.774232563386039]}, {"species": [{"element": "Cu", "occu": 1}], "abc": [0.33118224, 0.00493282, 0.44726008], "properties": {"magmom": -0.0}, "label": "Cu", "xyz": [4.184395322588155, 0.0862436769747856, 6.971470423501357]}, {"species": [{"element": "Cu", "occu": 1}], "abc": [0.71585633, 0.72914395, 0.47742283], "properties": {"magmom": -0.0}, "label": "Cu", "xyz": [9.044589537315264, 9.068655371233973, 3.038546068594205]}, {"species": [{"element": "Cu", "occu": 1}], "abc": [0.70916201, 0.248475399999999, 0.9745035200000001], "properties": {"magmom": 0.0}, "label": "Cu", "xyz": [8.960069569490459, 3.135889286393583, 13.743626969661372]}, {"species": [{"element": "Cu", "occu": 1}], "abc": [0.91734025, 0.77970631, 0.50305603], "properties": {"magmom": 0.0}, "label": "Cu", "xyz": [11.590250752635741, 9.697111007826798, 3.1322775812501993]}, {"species": [{"element": "Cu", "occu": 1}], "abc": [0.20915799000000002, 0.25151695, 0.02548556], "properties": {"magmom": 0.0}, "label": "Cu", "xyz": [2.642622057151779, 3.1204177199265937, -1.1309187791574393]}, {"species": [{"element": "Cu", "occu": 1}], "abc": [0.20925072, 0.07482241, 0.21465574], "properties": {"magmom": 0.0}, "label": "Cu", "xyz": [2.6438164569189806, 0.9398842901679808, 2.9051381259773494]}, {"species": [{"element": "Cu", "occu": 1}], "abc": [0.28414367, 0.27085605, 0.52257717], "properties": {"magmom": 0.0}, "label": "Cu", "xyz": [3.5900977526847337, 3.388083208766026, 6.532961581405795]}, {"species": [{"element": "Cu", "occu": 1}], "abc": [0.61361449, 0.84054101, 0.37830198], "properties": {"magmom": 0.0}, "label": "Cu", "xyz": [7.752798926701389, 10.444493996838917, 0.8092993112879627]}, {"species": [{"element": "Cu", "occu": 1}], "abc": [0.45435105000000003, 0.17198656, 0.29716468], "properties": {"magmom": -0.0}, "label": "Cu", "xyz": [5.740559162202985, 2.149421508696828, 3.605747813169579]}, {"species": [{"element": "Cu", "occu": 1}], "abc": [0.10683781, 0.45663229, 0.14308417], "properties": {"magmom": -0.0}, "label": "Cu", "xyz": [1.3498714534149596, 5.670563838641459, -0.5376816309712997]}, {"species": [{"element": "Cu", "occu": 1}], "abc": [0.95808031, 0.85282779, 0.17174993], "properties": {"magmom": -0.0}, "label": "Cu", "xyz": [12.104939918350155, 10.585311368596274, -2.498779724106793]}, {"species": [{"element": "Cu", "occu": 1}], "abc": [0.19885895, 0.13883205, 0.71713423], "properties": {"magmom": -0.0}, "label": "Cu", "xyz": [2.512588377063641, 1.7617901753146847, 10.381619835504589]}, {"species": [{"element": "Cu", "occu": 1}], "abc": [0.44105634, 0.42470266, 0.60900435], "properties": {"magmom": 0.0}, "label": "Cu", "xyz": [5.572630919350294, 5.300734133055881, 6.950117610061098]}, {"species": [{"element": "Cu", "occu": 1}], "abc": [0.10250779, 0.45142481, 0.61224155], "properties": {"magmom": -0.0}, "label": "Cu", "xyz": [1.2952255510127486, 5.632265670670276, 6.8382145526847005]}, {"species": [{"element": "Cu", "occu": 1}], "abc": [0.90776647, 0.8060423800000001, 0.86708283], "properties": {"magmom": -0.0}, "label": "Cu", "xyz": [11.469338842261452, 10.044084839307137, 8.670583081726138]}, {"species": [{"element": "Cu", "occu": 1}], "abc": [0.058941099999999004, 0.9247029, 0.6090116600000001], "properties": {"magmom": 0.0}, "label": "Cu", "xyz": [0.7447857951125496, 11.501043311250537, 3.908855694106217]}, {"species": [{"element": "Cu", "occu": 1}], "abc": [0.25101883, 0.35653541, 0.77940655], "properties": {"magmom": 0.0}, "label": "Cu", "xyz": [3.171615542053161, 4.464947242319542, 10.032223400016534]}, {"species": [{"element": "Cu", "occu": 1}], "abc": [0.30113751, 0.6388249500000001, 0.71711844], "properties": {"magmom": 0.0}, "label": "Cu", "xyz": [3.804837423617724, 7.962038689073945, 7.3400931120509725]}, {"species": [{"element": "Cu", "occu": 1}], "abc": [0.9325720999999991, 0.38735157000000003, 0.22274117000000002], "properties": {"magmom": 0.0}, "label": "Cu", "xyz": [11.782656304377143, 4.815952759118113, 1.1307749115252874]}, {"species": [{"element": "Cu", "occu": 1}], "abc": [0.83116833, 0.49506342000000003, 0.55273745], "properties": {"magmom": -0.0}, "label": "Cu", "xyz": [10.501510974190678, 6.170127986175195, 5.641372657067626]}, {"species": [{"element": "Cu", "occu": 1}], "abc": [0.24951767, 0.07677576, 0.85960338], "properties": {"magmom": -0.0}, "label": "Cu", "xyz": [3.1526561928488968, 1.0002343800169267, 12.989314754155535]}, {"species": [{"element": "Cu", "occu": 1}], "abc": [0.70925488, 0.42517811, 0.78534611], "properties": {"magmom": 0.0}, "label": "Cu", "xyz": [8.9612201426463, 5.316524756953596, 9.707720291558326]}, {"species": [{"element": "Cu", "occu": 1}], "abc": [0.36053246, 0.43846648, 0.92533783], "properties": {"magmom": -0.0}, "label": "Cu", "xyz": [4.555290480020447, 5.489127726976154, 11.818293838542623]}, {"species": [{"element": "Cu", "occu": 1}], "abc": [0.13000694000000002, 0.98494687, 0.41919469000000004], "properties": {"magmom": 0.0}, "label": "Cu", "xyz": [1.6426458582692534, 12.237481060308669, 0.5710116526467077]}, {"species": [{"element": "Cu", "occu": 1}], "abc": [0.89749221, 0.54857519, 0.38775845000000003], "properties": {"magmom": 0.0}, "label": "Cu", "xyz": [11.339461738987254, 6.8244729093297245, 2.7332930973152996]}, {"species": [{"element": "Cu", "occu": 1}], "abc": [0.13946842, 0.9384607500000001, 0.9253383900000001], "properties": {"magmom": 0.0}, "label": "Cu", "xyz": [1.7622536261555568, 11.689373018227835, 8.776979911539936]}, {"species": [{"element": "Cu", "occu": 1}], "abc": [0.88638424, 0.34054756, 0.378303599999999], "properties": {"magmom": -0.0}, "label": "Cu", "xyz": [11.199113784278586, 4.244262374686325, 3.850647943524172]}, {"species": [{"element": "Cu", "occu": 1}], "abc": [0.07366758, 0.6613637, 0.09992512], "properties": {"magmom": 0.0}, "label": "Cu", "xyz": [0.9307776050430533, 8.206949176596908, -2.4586129748399284]}, {"species": [{"element": "Cu", "occu": 1}], "abc": [0.80114105, 0.86116795, 0.28286577], "properties": {"magmom": 0.0}, "label": "Cu", "xyz": [10.122098912936359, 10.694948404685313, -0.8101121855045905]}, {"species": [{"element": "Se", "occu": 1}], "abc": [0.57044974, 0.90809572, 0.06998023], "properties": {"magmom": 0.0}, "label": "Se", "xyz": [7.207392151093216, 11.264944637715002, -4.42810765154252]}, {"species": [{"element": "Se", "occu": 1}], "abc": [0.21023992, 0.13234661, 0.55605255], "properties": {"magmom": 0.0}, "label": "Se", "xyz": [2.6563603664043822, 1.6723447107417062, 7.899486349039025]}, {"species": [{"element": "Se", "occu": 1}], "abc": [0.56188975, 0.14117671, 0.55388075], "properties": {"magmom": 0.0}, "label": "Se", "xyz": [7.0992949993012395, 1.781745122575854, 7.811816145241427]}, {"species": [{"element": "Se", "occu": 1}], "abc": [0.081569599999999, 0.29316655, 0.79522584], "properties": {"magmom": 0.0}, "label": "Se", "xyz": [1.0307033046669192, 3.6800064523806655, 10.665293093005797]}, {"species": [{"element": "Se", "occu": 1}], "abc": [0.71024022, 0.367651, 0.44394856], "properties": {"magmom": -0.0}, "label": "Se", "xyz": [8.973623643068573, 4.584028338022619, 4.7133783976478405]}, {"species": [{"element": "Se", "occu": 1}], "abc": [0.41842537, 0.79318686, 0.79522788], "properties": {"magmom": -0.0}, "label": "Se", "xyz": [5.286728141837874, 9.880611194236057, 7.623904012587468]}, {"species": [{"element": "Se", "occu": 1}], "abc": [0.77113013, 0.07629955000000001, 0.94568153], "properties": {"magmom": 0.0}, "label": "Se", "xyz": [9.743002484382211, 0.999184528388542, 14.339740711047295]}, {"species": [{"element": "Se", "occu": 1}], "abc": [0.23260274, 0.72672043, 0.19278638], "properties": {"magmom": 0.0}, "label": "Se", "xyz": [2.9388637591014013, 9.022627567098258, -1.4024826897257463]}, {"species": [{"element": "Se", "occu": 1}], "abc": [0.57307458, 0.98706507, 0.68892961], "properties": {"magmom": -0.0}, "label": "Se", "xyz": [7.240638560676538, 12.278885408393192, 4.78062368815724]}, {"species": [{"element": "Se", "occu": 1}], "abc": [0.57322616, 0.71112702, 0.21266229], "properties": {"magmom": 0.0}, "label": "Se", "xyz": [7.242487353077683, 8.830394507985604, -0.9964576505692269]}, {"species": [{"element": "Se", "occu": 1}], "abc": [0.07044953, 0.59190874, 0.93001327], "properties": {"magmom": 0.0}, "label": "Se", "xyz": [0.8902278233621906, 7.3921561815175, 10.958114012031357]}, {"species": [{"element": "Se", "occu": 1}], "abc": [0.73481431, 0.54280349, 0.31245553], "properties": {"magmom": -0.0}, "label": "Se", "xyz": [9.284090836250721, 6.748671535790533, 1.5895859233698255]}, {"species": [{"element": "Se", "occu": 1}], "abc": [0.42955026, 0.09190428, 0.93001977], "properties": {"magmom": 0.0}, "label": "Se", "xyz": [5.427295138906785, 1.1917939422849986, 13.99961530154252]}, {"species": [{"element": "Se", "occu": 1}], "abc": [0.07978556, 0.98793472, 0.27417906000000003], "properties": {"magmom": 0.0}, "label": "Se", "xyz": [1.0081025633393197, 12.266406520503049, -1.7172523089738299]}, {"species": [{"element": "Se", "occu": 1}], "abc": [0.92693369, 0.4870595, 0.6889233], "properties": {"magmom": -0.0}, "label": "Se", "xyz": [11.711480402545634, 6.07850834442882, 7.821930636459797]}, {"species": [{"element": "Se", "occu": 1}], "abc": [0.08065456, 0.1143371, 0.960903], "properties": {"magmom": -0.0}, "label": "Se", "xyz": [1.019161860873582, 1.4716827760305025, 14.346574517131003]}, {"species": [{"element": "Se", "occu": 1}], "abc": [0.07323098, 0.78885436, 0.78733719], "properties": {"magmom": -0.0}, "label": "Se", "xyz": [0.925353767995089, 9.826420802080326, 7.526698608763069]}, {"species": [{"element": "Se", "occu": 1}], "abc": [0.08955084, 0.8281497800000001, 0.4413738], "properties": {"magmom": -0.0}, "label": "Se", "xyz": [1.1315025162051335, 10.294333066595287, 1.8719451429725744]}, {"species": [{"element": "Se", "occu": 1}], "abc": [0.41044757, 0.32814979, 0.44137418], "properties": {"magmom": -0.0}, "label": "Se", "xyz": [5.18587975977567, 4.094023419278694, 4.913319326642458]}, {"species": [{"element": "Se", "occu": 1}], "abc": [0.22886987, 0.92370045, 0.05431847], "properties": {"magmom": -0.0}, "label": "Se", "xyz": [2.8916848056177877, 11.457554051611458, -4.7682330610472965]}, {"species": [{"element": "Se", "occu": 1}], "abc": [0.9184304, 0.70683345, 0.20477416], "properties": {"magmom": 0.0}, "label": "Se", "xyz": [11.603983985333068, 8.776732127619336, -1.093785443005797]}, {"species": [{"element": "Se", "occu": 1}], "abc": [0.23481884, 0.95720151, 0.68754258], "properties": {"magmom": 0.0}, "label": "Se", "xyz": [2.9669313990538337, 11.908457717484938, 4.940524712506464]}, {"species": [{"element": "Se", "occu": 1}], "abc": [0.72887512, 0.576308399999999, 0.94568396], "properties": {"magmom": 0.0}, "label": "Se", "xyz": [9.209135964566503, 7.199622409409108, 11.29838662422704]}, {"species": [{"element": "Se", "occu": 1}], "abc": [0.26738449000000003, 0.22672659, 0.19279371], "properties": {"magmom": -0.0}, "label": "Se", "xyz": [3.378309057441161, 2.8223758783786743, 1.638932075308093]}, {"species": [{"element": "Se", "occu": 1}], "abc": [0.9193454400000001, 0.885662899999999, 0.039097], "properties": {"magmom": -0.0}, "label": "Se", "xyz": [11.61552542912642, 10.985055803969486, -4.7750668671310015]}, {"species": [{"element": "Se", "occu": 1}], "abc": [0.92021444, 0.01206528, 0.72582094], "properties": {"magmom": -0.0}, "label": "Se", "xyz": [11.62658472666068, 0.190332059496952, 11.288759958973829]}, {"species": [{"element": "Se", "occu": 1}], "abc": [0.57977639, 0.51207049, 0.72582678], "properties": {"magmom": -0.0}, "label": "Se", "xyz": [7.325311841045332, 6.390705509829729, 8.247449288065386]}, {"species": [{"element": "Se", "occu": 1}], "abc": [0.06188606, 0.358819899999999, 0.44610595000000003], "properties": {"magmom": 0.0}, "label": "Se", "xyz": [0.7819654667603368, 4.47459533173713, 4.800797162845481]}, {"species": [{"element": "Se", "occu": 1}], "abc": [0.07306631, 0.5129405, 0.3110767], "properties": {"magmom": -0.0}, "label": "Se", "xyz": [0.9232068874543663, 6.37823023557118, 1.7495770135402005]}, {"species": [{"element": "Se", "occu": 1}], "abc": [0.58955243, 0.67185021, 0.55862582], "properties": {"magmom": 0.0}, "label": "Se", "xyz": [7.44880753022433, 8.362715160721306, 4.65818832335754]}, {"species": [{"element": "Se", "occu": 1}], "abc": [0.43811025000000003, 0.85882329, 0.44611925], "properties": {"magmom": -0.0}, "label": "Se", "xyz": [5.53539229069876, 10.674993457424145, 1.759691504758572]}, {"species": [{"element": "Se", "occu": 1}], "abc": [0.92676902, 0.21114564, 0.21266281], "properties": {"magmom": -0.0}, "label": "Se", "xyz": [11.709333522004911, 2.630317777919673, 2.0448090412369306]}, {"species": [{"element": "Se", "occu": 1}], "abc": [0.92955047, 0.40809126, 0.06998673], "properties": {"magmom": 0.0}, "label": "Se", "xyz": [11.744459466637808, 5.0645823984825, -1.3866063620313596]}, {"species": [{"element": "Se", "occu": 1}], "abc": [0.91044916, 0.17185022, 0.5586262], "properties": {"magmom": -0.0}, "label": "Se", "xyz": [11.503184773794866, 2.1624055134047127, 7.699562507027423]}, {"species": [{"element": "Se", "occu": 1}], "abc": [0.27112488, 0.4236916, 0.05431604], "properties": {"magmom": 0.0}, "label": "Se", "xyz": [3.4255513254334966, 5.25711617059088, -1.726878974227036]}, {"species": [{"element": "Se", "occu": 1}], "abc": [0.58065239, 0.38565971, 0.03910283], "properties": {"magmom": 0.0}, "label": "Se", "xyz": [7.33628740050417, 4.784663682203689, -1.7336589222890568]}, {"species": [{"element": "Se", "occu": 1}], "abc": [0.42677384, 0.28887298, 0.78733771], "properties": {"magmom": -0.0}, "label": "Se", "xyz": [5.392199936922317, 3.6263440720143967, 10.567965300569224]}, {"species": [{"element": "Se", "occu": 1}], "abc": [0.42022361, 0.48792951, 0.27417322], "properties": {"magmom": -0.0}, "label": "Se", "xyz": [5.309375448954668, 6.066033070170271, 1.324058361934612]}, {"species": [{"element": "Se", "occu": 1}], "abc": [0.42692542, 0.01293493, 0.31107039000000003], "properties": {"magmom": 0.0}, "label": "Se", "xyz": [5.394048729323462, 0.17785317160680722, 4.790883961842759]}, {"species": [{"element": "Se", "occu": 1}], "abc": [0.41934761, 0.61434029, 0.96089717], "properties": {"magmom": 0.0}, "label": "Se", "xyz": [5.29839988949583, 7.6720748977963105, 11.305166572289055]}, {"species": [{"element": "Se", "occu": 1}], "abc": [0.78976008, 0.86765339, 0.44394745], "properties": {"magmom": 0.0}, "label": "Se", "xyz": [9.978326923595617, 10.784393869258292, 1.6720213009609735]}, {"species": [{"element": "Se", "occu": 1}], "abc": [0.93811394, 0.641180099999999, 0.55389405], "properties": {"magmom": 0.0}, "label": "Se", "xyz": [11.852721823239662, 7.982143248262846, 4.77071048715453]}, {"species": [{"element": "Se", "occu": 1}], "abc": [0.76739726, 0.27327957, 0.80721362], "properties": {"magmom": 0.0}, "label": "Se", "xyz": [9.695823530898597, 3.434111012901741, 10.973990339725745]}, {"species": [{"element": "Se", "occu": 1}], "abc": [0.26518569000000003, 0.45719651, 0.68754447], "properties": {"magmom": 0.0}, "label": "Se", "xyz": [3.350596453749278, 5.708067044209468, 7.981921726630173]}, {"species": [{"element": "Se", "occu": 1}], "abc": [0.73261551, 0.77327341, 0.80720629], "properties": {"magmom": -0.0}, "label": "Se", "xyz": [9.256378232558838, 9.634362701621326, 7.9325755746919056]}, {"species": [{"element": "Se", "occu": 1}], "abc": [0.28975978, 0.632348999999999, 0.5560514400000001], "properties": {"magmom": -0.0}, "label": "Se", "xyz": [3.661063646931428, 7.872710241977369, 4.858129252352166]}, {"species": [{"element": "Se", "occu": 1}], "abc": [0.76518116, 0.04279849, 0.31245742], "properties": {"magmom": 0.0}, "label": "Se", "xyz": [9.667755890946166, 0.5482808625150616, 4.630982937493534]}, {"species": [{"element": "Se", "occu": 1}], "abc": [0.58157463, 0.20681314, 0.20477212], "properties": {"magmom": -0.0}, "label": "Se", "xyz": [7.347959148162126, 2.5761273857639435, 1.9476036374125296]}]}, "task_ids": null, "uncorrected_energy_per_atom": null, "energy_per_atom": -12.077324986458333, "formation_energy_per_atom": -0.07560757614583201, "energy_above_hull": 0.082633770208332, "is_stable": false, "equilibrium_reaction_energy_per_atom": null, "decomposes_to": null, "xas": null, "grain_boundaries": null, "band_gap": 0.07629999999999901, "cbm": null, "vbm": null, "efermi": 5.02705281, "is_gap_direct": null, "is_metal": null, "es_source_calc_id": null, "bandstructure": null, "dos": null, "dos_energy_up": null, "dos_energy_down": null, "is_magnetic": null, "ordering": null, "total_magnetization": 5e-07, "total_magnetization_normalized_vol": null, "total_magnetization_normalized_formula_units": null, "num_magnetic_sites": null, "num_unique_magnetic_sites": null, "types_of_magnetic_species": null, "bulk_modulus": null, "shear_modulus": null, "universal_anisotropy": null, "homogeneous_poisson": null, "e_total": null, "e_ionic": null, "e_electronic": null, "n": null, "e_ij_max": null, "weighted_surface_energy_EV_PER_ANG2": null, "weighted_surface_energy": null, "weighted_work_function": null, "surface_anisotropy": null, "shape_factor": null, "has_reconstructed": null, "possible_species": null, "has_props": null, "theoretical": null, "database_IDs": null, "fields_not_requested": ["builder_meta", "nsites", "elements", "nelements", "composition", "composition_reduced", "chemsys", "symmetry", "property_name", "deprecated", "deprecation_reasons", "last_updated", "origins", "warnings", "task_ids", "uncorrected_energy_per_atom", "equilibrium_reaction_energy_per_atom", "decomposes_to", "xas", "grain_boundaries", "cbm", "vbm", "is_gap_direct", "is_metal", "es_source_calc_id", "bandstructure", "dos", "dos_energy_up", "dos_energy_down", "is_magnetic", "ordering", "total_magnetization_normalized_vol", "total_magnetization_normalized_formula_units", "num_magnetic_sites", "num_unique_magnetic_sites", "types_of_magnetic_species", "bulk_modulus", "shear_modulus", "universal_anisotropy", "homogeneous_poisson", "e_total", "e_ionic", "e_electronic", "n", "e_ij_max", "weighted_surface_energy_EV_PER_ANG2", "weighted_surface_energy", "weighted_work_function", "surface_anisotropy", "shape_factor", "has_reconstructed", "possible_species", "has_props", "theoretical", "database_IDs"]}