{
  "builder_meta": null,
  "nsites": null,
  "elements": null,
  "nelements": null,
  "composition": null,
  "composition_reduced": null,
  "formula_pretty": "Cu3As4",
  "formula_anonymous": "A3B4",
  "chemsys": null,
  "volume": 281.67391772672545,
  "density": 5.781172982420961,
  "density_atomic": 20.11956555190896,
  "symmetry": null,
  "property_name": null,
  "material_id": "mp-633403",
  "deprecated": null,
  "deprecation_reasons": null,
  "last_updated": null,
  "origins": null,
  "warnings": null,
  "structure": {
    "@module": "pymatgen.core.structure",
    "@class": "Structure",
    "charge": 0,
    "lattice": {
      "matrix": [
        [-1.767688999999999, 4.261728, 9.347491],
        [1.767688999999999, -4.261728, 9.347491],
        [1.767688999999999, 4.261728, -9.347491]
      ],
      "pbc": [true, true, true],
      "a": 10.424137275659122,
      "b": 10.424137275659122,
      "c": 10.424137275659122,
      "alpha": 160.47360323272062,
      "beta": 131.73694643921277,
      "gamma": 52.54058730674844,
      "volume": 281.6739177267253
    },
    "properties": {},
    "sites": [
      {
        "species": [{ "element": "Cu", "occu": 1 }],
        "abc": [0.272057999999999, 0.431264999999999, 0.840792],
        "properties": { "magmom": 0.0 },
        "label": "Cu",
        "xyz": [1.767687232310999, 2.9047298788799996, -1.2849902402790185]
      },
      {
        "species": [{ "element": "Cu", "occu": 1 }],
        "abc": [0.727942, 0.568735, 0.159208],
        "properties": { "magmom": 0.0 },
        "label": "Cu",
        "xyz": [1.7676889998985423e-6, 1.3569981211199997, 10.632481240279]
      },
      {
        "species": [{ "element": "Cu", "occu": 1 }],
        "abc": [0.409527, 0.568735, 0.840792],
        "properties": { "magmom": 0.0 },
        "label": "Cu",
        "xyz": [1.767688999999999, 2.9047256171519997, 1.2849995877700007]
      },
      {
        "species": [{ "element": "Cu", "occu": 1 }],
        "abc": [0.590473, 0.431264999999999, 0.159208],
        "properties": { "magmom": 0.0 },
        "label": "Cu",
        "xyz": [-1.7208456881689926e-15, 1.357002382848004, 8.06249141222999]
      },
      {
        "species": [{ "element": "Cu", "occu": 1 }],
        "abc": [0.318944, 0.318944, 0.0],
        "properties": { "magmom": 0.0 },
        "label": "Cu",
        "xyz": [0.0, 0.0, 5.962652339008]
      },
      {
        "species": [{ "element": "Cu", "occu": 1 }],
        "abc": [0.681056, 0.681056, 0.0],
        "properties": { "magmom": 0.0 },
        "label": "Cu",
        "xyz": [0.0, 0.0, 12.732329660991999]
      },
      {
        "species": [{ "element": "As", "occu": 1 }],
        "abc": [0.132102, 0.838575, 0.293528],
        "properties": { "magmom": -0.0 },
        "label": "As",
        "xyz": [1.7676907676889988, -1.7598592689599997, 6.329644183158999]
      },
      {
        "species": [{ "element": "As", "occu": 1 }],
        "abc": [0.867898, 0.161424999999999, 0.706472],
        "properties": { "magmom": -0.0 },
        "label": "As",
        "xyz": [-1.767689001619388e-6, 6.021587268960003, 3.017846816840989]
      },
      {
        "species": [{ "element": "As", "occu": 1 }],
        "abc": [0.454953, 0.161424999999999, 0.293528],
        "properties": { "magmom": -0.0 },
        "label": "As",
        "xyz": [-1.7763568394002505e-15, 2.501872992768004, 3.0178374693499905]
      },
      {
        "species": [{ "element": "As", "occu": 1 }],
        "abc": [0.545047, 0.838575, 0.706472],
        "properties": { "magmom": -0.0 },
        "label": "As",
        "xyz": [1.767688999999999, 1.7598550072319998, 6.329653530649998]
      },
      {
        "species": [{ "element": "As", "occu": 1 }],
        "abc": [0.212956999999999, 0.0, 0.212956999999999],
        "properties": { "magmom": 0.0 },
        "label": "As",
        "xyz": [0.0, 1.8151296193919915, 0.0]
      },
      {
        "species": [{ "element": "As", "occu": 1 }],
        "abc": [0.787042999999999, 0.0, 0.787042999999999],
        "properties": { "magmom": 0.0 },
        "label": "As",
        "xyz": [0.0, 6.708326380607992, 0.0]
      },
      {
        "species": [{ "element": "As", "occu": 1 }],
        "abc": [0.22841000000000003, 0.7284100000000001, 0.5],
        "properties": { "magmom": 0.0 },
        "label": "As",
        "xyz": [1.767688999999999, 0.0, 4.270120838620001]
      },
      {
        "species": [{ "element": "As", "occu": 1 }],
        "abc": [0.7715900000000001, 0.27159, 0.5],
        "properties": { "magmom": 0.0 },
        "label": "As",
        "xyz": [-1.1102230246251565e-16, 4.261728, 5.07737016138]
      }
    ]
  },
  "task_ids": null,
  "uncorrected_energy_per_atom": null,
  "energy_per_atom": -12.838154386428569,
  "formation_energy_per_atom": 0.21477589214286102,
  "energy_above_hull": 0.21477589214285803,
  "is_stable": false,
  "equilibrium_reaction_energy_per_atom": null,
  "decomposes_to": null,
  "xas": null,
  "grain_boundaries": null,
  "band_gap": 0.0,
  "cbm": null,
  "vbm": null,
  "efermi": 4.3406674,
  "is_gap_direct": null,
  "is_metal": null,
  "es_source_calc_id": null,
  "bandstructure": null,
  "dos": null,
  "dos_energy_up": null,
  "dos_energy_down": null,
  "is_magnetic": null,
  "ordering": null,
  "total_magnetization": 5.17e-5,
  "total_magnetization_normalized_vol": null,
  "total_magnetization_normalized_formula_units": null,
  "num_magnetic_sites": null,
  "num_unique_magnetic_sites": null,
  "types_of_magnetic_species": null,
  "bulk_modulus": null,
  "shear_modulus": null,
  "universal_anisotropy": null,
  "homogeneous_poisson": null,
  "e_total": null,
  "e_ionic": null,
  "e_electronic": null,
  "n": null,
  "e_ij_max": null,
  "weighted_surface_energy_EV_PER_ANG2": null,
  "weighted_surface_energy": null,
  "weighted_work_function": null,
  "surface_anisotropy": null,
  "shape_factor": null,
  "has_reconstructed": null,
  "possible_species": null,
  "has_props": null,
  "theoretical": null,
  "database_IDs": null,
  "fields_not_requested": [
    "builder_meta",
    "nsites",
    "elements",
    "nelements",
    "composition",
    "composition_reduced",
    "chemsys",
    "symmetry",
    "property_name",
    "deprecated",
    "deprecation_reasons",
    "last_updated",
    "origins",
    "warnings",
    "task_ids",
    "uncorrected_energy_per_atom",
    "equilibrium_reaction_energy_per_atom",
    "decomposes_to",
    "xas",
    "grain_boundaries",
    "cbm",
    "vbm",
    "is_gap_direct",
    "is_metal",
    "es_source_calc_id",
    "bandstructure",
    "dos",
    "dos_energy_up",
    "dos_energy_down",
    "is_magnetic",
    "ordering",
    "total_magnetization_normalized_vol",
    "total_magnetization_normalized_formula_units",
    "num_magnetic_sites",
    "num_unique_magnetic_sites",
    "types_of_magnetic_species",
    "bulk_modulus",
    "shear_modulus",
    "universal_anisotropy",
    "homogeneous_poisson",
    "e_total",
    "e_ionic",
    "e_electronic",
    "n",
    "e_ij_max",
    "weighted_surface_energy_EV_PER_ANG2",
    "weighted_surface_energy",
    "weighted_work_function",
    "surface_anisotropy",
    "shape_factor",
    "has_reconstructed",
    "possible_species",
    "has_props",
    "theoretical",
    "database_IDs"
  ]
}
