{"builder_meta": null, "nsites": null, "elements": null, "nelements": null, "composition": null, "composition_reduced": null, "formula_pretty": "Cu3F", "formula_anonymous": "AB3", "chemsys": null, "volume": 96.09040382407449, "density": 7.245456849831532, "density_atomic": 12.01130047800931, "symmetry": null, "property_name": null, "material_id": "mp-1183996", "deprecated": null, "deprecation_reasons": null, "last_updated": null, "origins": null, "warnings": null, "structure": {"@module": "pymatgen.core.structure", "@class": "Structure", "charge": 0, "lattice": {"matrix": [[2.599577, -4.502599, 0.0], [2.599577, 4.502599, 0.0], [0.0, 0.0, 4.104725]], "pbc": [true, true, true], "a": 5.199153617054415, "b": 5.199153617054415, "c": 4.104725, "alpha": 90.0, "beta": 90.0, "gamma": 119.99999512699985, "volume": 96.09040382407449}, "properties": {}, "sites": [{"species": [{"element": "Cu", "occu": 1}], "abc": [0.163323, 0.326646999999999, 0.25], "properties": {"magmom": 0.0}, "label": "Cu", "xyz": [1.2737147426899975, 0.7353824790759956, 1.02618125]}, {"species": [{"element": "Cu", "occu": 1}], "abc": [0.673353, 0.836677, 0.25], "properties": {"magmom": 0.0}, "label": "Cu", "xyz": [3.92543925731, 0.7353824790760002, 1.02618125]}, {"species": [{"element": "Cu", "occu": 1}], "abc": [0.163323, 0.836677, 0.25], "properties": {"magmom": 0.0}, "label": "Cu", "xyz": [2.599577, 3.0318430470460003, 1.02618125]}, {"species": [{"element": "Cu", "occu": 1}], "abc": [0.836677, 0.673353, 0.75], "properties": {"magmom": 0.0}, "label": "Cu", "xyz": [3.92543925731, -0.7353824790760002, 3.07854375]}, {"species": [{"element": "Cu", "occu": 1}], "abc": [0.326646999999999, 0.163323, 0.75], "properties": {"magmom": 0.0}, "label": "Cu", "xyz": [1.2737147426899975, -0.7353824790759956, 3.07854375]}, {"species": [{"element": "Cu", "occu": 1}], "abc": [0.836677, 0.163323, 0.75], "properties": {"magmom": 0.0}, "label": "Cu", "xyz": [2.599577, -3.0318430470460003, 3.07854375]}, {"species": [{"element": "F", "occu": 1}], "abc": [0.333333, 0.666667, 0.75], "properties": {"magmom": 0.001}, "label": "F", "xyz": [2.599577, 1.5008693350660003, 3.07854375]}, {"species": [{"element": "F", "occu": 1}], "abc": [0.666667, 0.333333, 0.25], "properties": {"magmom": 0.001}, "label": "F", "xyz": [2.599577, -1.5008693350660003, 1.02618125]}]}, "task_ids": null, "uncorrected_energy_per_atom": null, "energy_per_atom": -9.139351096249998, "formation_energy_per_atom": -0.222747108749997, "energy_above_hull": 0.457889122500001, "is_stable": false, "equilibrium_reaction_energy_per_atom": null, "decomposes_to": null, "xas": null, "grain_boundaries": null, "band_gap": 0.0, "cbm": null, "vbm": null, "efermi": 4.97862141, "is_gap_direct": null, "is_metal": null, "es_source_calc_id": null, "bandstructure": null, "dos": null, "dos_energy_up": null, "dos_energy_down": null, "is_magnetic": null, "ordering": null, "total_magnetization": 0.0386716, "total_magnetization_normalized_vol": null, "total_magnetization_normalized_formula_units": null, "num_magnetic_sites": null, "num_unique_magnetic_sites": null, "types_of_magnetic_species": null, "bulk_modulus": null, "shear_modulus": null, "universal_anisotropy": null, "homogeneous_poisson": null, "e_total": null, "e_ionic": null, "e_electronic": null, "n": null, "e_ij_max": null, "weighted_surface_energy_EV_PER_ANG2": null, "weighted_surface_energy": null, "weighted_work_function": null, "surface_anisotropy": null, "shape_factor": null, "has_reconstructed": null, "possible_species": null, "has_props": null, "theoretical": null, "database_IDs": null, "fields_not_requested": ["builder_meta", "nsites", "elements", "nelements", "composition", "composition_reduced", "chemsys", "symmetry", "property_name", "deprecated", "deprecation_reasons", "last_updated", "origins", "warnings", "task_ids", "uncorrected_energy_per_atom", "equilibrium_reaction_energy_per_atom", "decomposes_to", "xas", "grain_boundaries", "cbm", "vbm", "is_gap_direct", "is_metal", "es_source_calc_id", "bandstructure", "dos", "dos_energy_up", "dos_energy_down", "is_magnetic", "ordering", "total_magnetization_normalized_vol", "total_magnetization_normalized_formula_units", "num_magnetic_sites", "num_unique_magnetic_sites", "types_of_magnetic_species", "bulk_modulus", "shear_modulus", "universal_anisotropy", "homogeneous_poisson", "e_total", "e_ionic", "e_electronic", "n", "e_ij_max", "weighted_surface_energy_EV_PER_ANG2", "weighted_surface_energy", "weighted_work_function", "surface_anisotropy", "shape_factor", "has_reconstructed", "possible_species", "has_props", "theoretical", "database_IDs"]}