{
  "builder_meta": null,
  "nsites": null,
  "elements": null,
  "nelements": null,
  "composition": null,
  "composition_reduced": null,
  "formula_pretty": "Cu3Ge",
  "formula_anonymous": "AB3",
  "chemsys": null,
  "volume": 98.69749213819236,
  "density": 8.859058014649202,
  "density_atomic": 12.337186517274045,
  "symmetry": null,
  "property_name": null,
  "material_id": "mp-19724",
  "deprecated": null,
  "deprecation_reasons": null,
  "last_updated": null,
  "origins": null,
  "warnings": null,
  "structure": {
    "@module": "pymatgen.core.structure",
    "@class": "Structure",
    "charge": 0,
    "lattice": {
      "matrix": [
        [4.54115926, -0.0, 0.0],
        [0.0, 4.1707672, 0.0],
        [0.0, 0.0, 5.21102834]
      ],
      "pbc": [true, true, true],
      "a": 4.54115926,
      "b": 4.1707672,
      "c": 5.21102834,
      "alpha": 90.0,
      "beta": 90.0,
      "gamma": 90.0,
      "volume": 98.69749213819236
    },
    "properties": {},
    "sites": [
      {
        "species": [{ "element": "Cu", "occu": 1 }],
        "abc": [0.16331172, 0.75, 0.25],
        "properties": { "magmom": -0.0 },
        "label": "Cu",
        "xyz": [0.7416245295445271, 3.1280754, 1.302757085]
      },
      {
        "species": [{ "element": "Cu", "occu": 1 }],
        "abc": [0.8366882800000001, 0.25, 0.75],
        "properties": { "magmom": -0.0 },
        "label": "Cu",
        "xyz": [3.799534730455473, 1.0426918, 3.9082712550000003]
      },
      {
        "species": [{ "element": "Cu", "occu": 1 }],
        "abc": [0.33709903, 0.25, 0.5016889800000001],
        "properties": { "magmom": -0.0 },
        "label": "Cu",
        "xyz": [1.5308203816215178, 1.0426918, 2.6143154926456935]
      },
      {
        "species": [{ "element": "Cu", "occu": 1 }],
        "abc": [0.33709903, 0.25, 0.99831102],
        "properties": { "magmom": -0.0 },
        "label": "Cu",
        "xyz": [1.5308203816215178, 1.0426918, 5.202227017354307]
      },
      {
        "species": [{ "element": "Cu", "occu": 1 }],
        "abc": [0.66290097, 0.75, 0.49831102],
        "properties": { "magmom": -0.0 },
        "label": "Cu",
        "xyz": [3.0103388783784824, 3.1280754, 2.596712847354307]
      },
      {
        "species": [{ "element": "Cu", "occu": 1 }],
        "abc": [0.66290097, 0.75, 0.00168898],
        "properties": { "magmom": -0.0 },
        "label": "Cu",
        "xyz": [3.0103388783784824, 3.1280754, 0.0088013226456932]
      },
      {
        "species": [{ "element": "Ge", "occu": 1 }],
        "abc": [0.8248574, 0.25, 0.25],
        "properties": { "magmom": 0.0 },
        "label": "Ge",
        "xyz": [3.7458088201895237, 1.0426918, 1.302757085]
      },
      {
        "species": [{ "element": "Ge", "occu": 1 }],
        "abc": [0.175142599999999, 0.75, 0.75],
        "properties": { "magmom": 0.0 },
        "label": "Ge",
        "xyz": [0.7953504398104715, 3.1280754, 3.9082712550000003]
      }
    ]
  },
  "task_ids": null,
  "uncorrected_energy_per_atom": null,
  "energy_per_atom": -11.59045154875,
  "formation_energy_per_atom": 0.012639846249999,
  "energy_above_hull": 0.012639846249999,
  "is_stable": false,
  "equilibrium_reaction_energy_per_atom": null,
  "decomposes_to": null,
  "xas": null,
  "grain_boundaries": null,
  "band_gap": 0.0,
  "cbm": null,
  "vbm": null,
  "efermi": 7.91035795,
  "is_gap_direct": null,
  "is_metal": null,
  "es_source_calc_id": null,
  "bandstructure": null,
  "dos": null,
  "dos_energy_up": null,
  "dos_energy_down": null,
  "is_magnetic": null,
  "ordering": null,
  "total_magnetization": 0.0,
  "total_magnetization_normalized_vol": null,
  "total_magnetization_normalized_formula_units": null,
  "num_magnetic_sites": null,
  "num_unique_magnetic_sites": null,
  "types_of_magnetic_species": null,
  "bulk_modulus": null,
  "shear_modulus": null,
  "universal_anisotropy": null,
  "homogeneous_poisson": null,
  "e_total": null,
  "e_ionic": null,
  "e_electronic": null,
  "n": null,
  "e_ij_max": null,
  "weighted_surface_energy_EV_PER_ANG2": null,
  "weighted_surface_energy": null,
  "weighted_work_function": null,
  "surface_anisotropy": null,
  "shape_factor": null,
  "has_reconstructed": null,
  "possible_species": null,
  "has_props": null,
  "theoretical": null,
  "database_IDs": null,
  "fields_not_requested": [
    "builder_meta",
    "nsites",
    "elements",
    "nelements",
    "composition",
    "composition_reduced",
    "chemsys",
    "symmetry",
    "property_name",
    "deprecated",
    "deprecation_reasons",
    "last_updated",
    "origins",
    "warnings",
    "task_ids",
    "uncorrected_energy_per_atom",
    "equilibrium_reaction_energy_per_atom",
    "decomposes_to",
    "xas",
    "grain_boundaries",
    "cbm",
    "vbm",
    "is_gap_direct",
    "is_metal",
    "es_source_calc_id",
    "bandstructure",
    "dos",
    "dos_energy_up",
    "dos_energy_down",
    "is_magnetic",
    "ordering",
    "total_magnetization_normalized_vol",
    "total_magnetization_normalized_formula_units",
    "num_magnetic_sites",
    "num_unique_magnetic_sites",
    "types_of_magnetic_species",
    "bulk_modulus",
    "shear_modulus",
    "universal_anisotropy",
    "homogeneous_poisson",
    "e_total",
    "e_ionic",
    "e_electronic",
    "n",
    "e_ij_max",
    "weighted_surface_energy_EV_PER_ANG2",
    "weighted_surface_energy",
    "weighted_work_function",
    "surface_anisotropy",
    "shape_factor",
    "has_reconstructed",
    "possible_species",
    "has_props",
    "theoretical",
    "database_IDs"
  ]
}
