{
  "builder_meta": null,
  "nsites": null,
  "elements": null,
  "nelements": null,
  "composition": null,
  "composition_reduced": null,
  "formula_pretty": "Cu3O4",
  "formula_anonymous": "A3B4",
  "chemsys": null,
  "volume": 148.6477949366881,
  "density": 5.689049901173754,
  "density_atomic": 10.617699638334864,
  "symmetry": null,
  "property_name": null,
  "material_id": "mp-1178476",
  "deprecated": null,
  "deprecation_reasons": null,
  "last_updated": null,
  "origins": null,
  "warnings": null,
  "structure": {
    "@module": "pymatgen.core.structure",
    "@class": "Structure",
    "charge": 0,
    "lattice": {
      "matrix": [
        [-2.97912713, 3.34533241, 3.73144659],
        [2.977897699999999, -3.34487914, 3.73007432],
        [2.978283659999999, 3.34416074, -3.73106449]
      ],
      "pbc": [true, true, true],
      "a": 5.830106435059404,
      "b": 5.82833986702868,
      "c": 5.828758602217053,
      "alpha": 118.5458895193386,
      "beta": 109.97308649244438,
      "gamma": 100.41488648037934,
      "volume": 148.64779493668803
    },
    "properties": {},
    "sites": [
      {
        "species": [{ "element": "Cu", "occu": 1 }],
        "abc": [-0.0, -0.0, 0.5],
        "properties": { "magmom": 0.027 },
        "label": "Cu",
        "xyz": [1.4891418299999994, 1.67208037, -1.865532245]
      },
      {
        "species": [{ "element": "Cu", "occu": 1 }],
        "abc": [-0.0, 0.5, 0.5],
        "properties": { "magmom": -0.905 },
        "label": "Cu",
        "xyz": [
          2.978090679999999, -0.000359200000000115, -0.0004950850000000617
        ]
      },
      {
        "species": [{ "element": "Cu", "occu": 1 }],
        "abc": [-0.0, 0.5, -0.0],
        "properties": { "magmom": 0.015 },
        "label": "Cu",
        "xyz": [1.4889488499999994, -1.67243957, 1.86503716]
      },
      {
        "species": [{ "element": "Cu", "occu": 1 }],
        "abc": [0.5, 0.5, 0.5],
        "properties": { "magmom": 0.026000000000000002 },
        "label": "Cu",
        "xyz": [1.4885271149999988, 1.672307005, 1.86522821]
      },
      {
        "species": [{ "element": "Cu", "occu": 1 }],
        "abc": [-0.0, -0.0, -0.0],
        "properties": { "magmom": -0.906 },
        "label": "Cu",
        "xyz": [0.0, 0.0, 0.0]
      },
      {
        "species": [{ "element": "Cu", "occu": 1 }],
        "abc": [0.5, -0.0, -0.0],
        "properties": { "magmom": 0.02 },
        "label": "Cu",
        "xyz": [-1.489563565, 1.672666205, 1.865723295]
      },
      {
        "species": [{ "element": "O", "occu": 1 }],
        "abc": [0.8036139600000001, 0.74990217, 0.553517599999999],
        "properties": { "magmom": -0.293 },
        "label": "O",
        "xyz": [1.4875962205876858, 2.031075526861731, 3.7306235355976507]
      },
      {
        "species": [{ "element": "O", "occu": 1 }],
        "abc": [0.6646432600000001, 0.24483287, 0.41982061],
        "properties": { "magmom": -0.165 },
        "label": "O",
        "xyz": [-0.0006246642860132656, 2.8084638809215763, 1.8269478570312432]
      },
      {
        "species": [{ "element": "O", "occu": 1 }],
        "abc": [0.80365165, 0.24994571000000002, 0.053565299999999004],
        "properties": { "magmom": -0.295 },
        "label": "O",
        "xyz": [-1.490335020917403, 2.031574692869806, 3.731243694479348]
      },
      {
        "species": [{ "element": "O", "occu": 1 }],
        "abc": [0.82502979, 0.7447018400000001, 0.08004568000000001],
        "properties": { "magmom": -0.165 },
        "label": "O",
        "xyz": [-0.0018239931278469512, 0.5367468660294792, 5.557692211758762]
      },
      {
        "species": [{ "element": "O", "occu": 1 }],
        "abc": [0.17497021000000001, 0.25529816, 0.91995432],
        "properties": { "magmom": -0.165 },
        "label": "O",
        "xyz": [2.9788782231278446, 2.8078671439705203, -1.8272357917587616]
      },
      {
        "species": [{ "element": "O", "occu": 1 }],
        "abc": [0.19634835, 0.75005429, 0.9464347],
        "properties": { "magmom": -0.295 },
        "label": "O",
        "xyz": [4.467389250917398, 1.3130393171301908, -0.0007872744793435693]
      },
      {
        "species": [{ "element": "O", "occu": 1 }],
        "abc": [0.33535674, 0.75516713, 0.58017939],
        "properties": { "magmom": -0.165 },
        "label": "O",
        "xyz": [2.9776788942860106, 0.5361501290784236, 1.9035085629687574]
      },
      {
        "species": [{ "element": "O", "occu": 1 }],
        "abc": [0.19638604, 0.25009783, 0.4464824],
        "properties": { "magmom": -0.293 },
        "label": "O",
        "xyz": [1.4894580094123089, 1.3135384831382662, -0.00016711559764659434]
      }
    ]
  },
  "task_ids": null,
  "uncorrected_energy_per_atom": null,
  "energy_per_atom": -5.420668524999998,
  "formation_energy_per_atom": -0.8364593778571411,
  "energy_above_hull": 0.041394533035716004,
  "is_stable": false,
  "equilibrium_reaction_energy_per_atom": null,
  "decomposes_to": null,
  "xas": null,
  "grain_boundaries": null,
  "band_gap": 0.0,
  "cbm": null,
  "vbm": null,
  "efermi": 3.02024691,
  "is_gap_direct": null,
  "is_metal": null,
  "es_source_calc_id": null,
  "bandstructure": null,
  "dos": null,
  "dos_energy_up": null,
  "dos_energy_down": null,
  "is_magnetic": null,
  "ordering": null,
  "total_magnetization": 3.741084,
  "total_magnetization_normalized_vol": null,
  "total_magnetization_normalized_formula_units": null,
  "num_magnetic_sites": null,
  "num_unique_magnetic_sites": null,
  "types_of_magnetic_species": null,
  "bulk_modulus": null,
  "shear_modulus": null,
  "universal_anisotropy": null,
  "homogeneous_poisson": null,
  "e_total": null,
  "e_ionic": null,
  "e_electronic": null,
  "n": null,
  "e_ij_max": null,
  "weighted_surface_energy_EV_PER_ANG2": null,
  "weighted_surface_energy": null,
  "weighted_work_function": null,
  "surface_anisotropy": null,
  "shape_factor": null,
  "has_reconstructed": null,
  "possible_species": null,
  "has_props": null,
  "theoretical": null,
  "database_IDs": null,
  "fields_not_requested": [
    "builder_meta",
    "nsites",
    "elements",
    "nelements",
    "composition",
    "composition_reduced",
    "chemsys",
    "symmetry",
    "property_name",
    "deprecated",
    "deprecation_reasons",
    "last_updated",
    "origins",
    "warnings",
    "task_ids",
    "uncorrected_energy_per_atom",
    "equilibrium_reaction_energy_per_atom",
    "decomposes_to",
    "xas",
    "grain_boundaries",
    "cbm",
    "vbm",
    "is_gap_direct",
    "is_metal",
    "es_source_calc_id",
    "bandstructure",
    "dos",
    "dos_energy_up",
    "dos_energy_down",
    "is_magnetic",
    "ordering",
    "total_magnetization_normalized_vol",
    "total_magnetization_normalized_formula_units",
    "num_magnetic_sites",
    "num_unique_magnetic_sites",
    "types_of_magnetic_species",
    "bulk_modulus",
    "shear_modulus",
    "universal_anisotropy",
    "homogeneous_poisson",
    "e_total",
    "e_ionic",
    "e_electronic",
    "n",
    "e_ij_max",
    "weighted_surface_energy_EV_PER_ANG2",
    "weighted_surface_energy",
    "weighted_work_function",
    "surface_anisotropy",
    "shape_factor",
    "has_reconstructed",
    "possible_species",
    "has_props",
    "theoretical",
    "database_IDs"
  ]
}
