{"builder_meta": null, "nsites": null, "elements": null, "nelements": null, "composition": null, "composition_reduced": null, "formula_pretty": "Cu3Pd", "formula_anonymous": "AB3", "chemsys": null, "volume": 346.36633493116415, "density": 9.96902571091, "density_atomic": 12.370226247541577, "symmetry": null, "property_name": null, "material_id": "mp-672265", "deprecated": null, "deprecation_reasons": null, "last_updated": null, "origins": null, "warnings": null, "structure": {"@module": "pymatgen.core.structure", "@class": "Structure", "charge": 0, "lattice": {"matrix": [[3.6838010800000003, -1.009999999999998e-06, 1.009999999999998e-06], [-1.009999999999998e-06, 3.68379703, -1.009999999999998e-06], [8.099999999999999e-06, -4.07e-06, 25.52371049]], "pbc": [true, true, true], "a": 3.683801080000277, "b": 3.6837970300002767, "c": 25.52371049000161, "alpha": 90.00002484535737, "beta": 89.99996610809403, "gamma": 90.00003141797062, "volume": 346.36633493116415}, "properties": {}, "sites": [{"species": [{"element": "Cu", "occu": 1}], "abc": [0.5, 0.0, 0.14294985], "properties": {"magmom": 0.0}, "label": "Cu", "xyz": [1.8419016978937852, -1.0868058894999989e-06, 3.648611090988926]}, {"species": [{"element": "Cu", "occu": 1}], "abc": [0.499998999999999, 0.499998999999999, 0.92867767], "properties": {"magmom": -0.0}, "label": "Cu", "xyz": [1.8419038734890536, 1.8418905464858595, 23.703299987607757]}, {"species": [{"element": "Cu", "occu": 1}], "abc": [2e-06, 0.0, 0.6431711800000001], "properties": {"magmom": -0.0}, "label": "Cu", "xyz": [1.2577288718e-05, -2.6177087226000005e-06, 16.416114993833702]}, {"species": [{"element": "Cu", "occu": 1}], "abc": [0.500001, 0.499998999999999, 0.78573768], "properties": {"magmom": -0.0}, "label": "Cu", "xyz": [1.8419100832772983, 1.8418911282495989, 20.054941065406283]}, {"species": [{"element": "Cu", "occu": 1}], "abc": [0.499998999999999, 1e-06, 0.28561829], "properties": {"magmom": 0.0}, "label": "Cu", "xyz": [1.8418991697060556, 2.016331599700002e-06, 7.290039049606842]}, {"species": [{"element": "Cu", "occu": 1}], "abc": [0.999999, 0.499998999999999, 0.71437635], "properties": {"magmom": -0.0}, "label": "Cu", "xyz": [3.683802677648365, 1.841890913692232, 18.23353564330291]}, {"species": [{"element": "Cu", "occu": 1}], "abc": [0.500001, -0.0, 0.8570612200000001], "properties": {"magmom": -0.0}, "label": "Cu", "xyz": [1.8419111659969623, -3.993240175399999e-06, 21.87538295648721]}, {"species": [{"element": "Cu", "occu": 1}], "abc": [0.5, 0.5, 0.07134339], "properties": {"magmom": 0.0}, "label": "Cu", "xyz": [1.841900612881459, 1.8418977196324027, 1.8209480317351612]}, {"species": [{"element": "Cu", "occu": 1}], "abc": [0.500001, 1e-06, 0.57157281], "properties": {"magmom": 0.0}, "label": "Cu", "xyz": [1.8419088535398311, 8.524946833000006e-07, 14.588659431395776]}, {"species": [{"element": "Cu", "occu": 1}], "abc": [1e-06, 0.5, 0.14294885000000002], "properties": {"magmom": 0.0}, "label": "Cu", "xyz": [4.336686765000001e-06, 1.8418979331971703, 3.6485845572794466]}, {"species": [{"element": "Cu", "occu": 1}], "abc": [1e-06, 0.499998999999999, 0.42841168], "properties": {"magmom": 0.0}, "label": "Cu", "xyz": [6.648936698000002e-06, 1.8418930875664188, 10.934655185856544]}, {"species": [{"element": "Cu", "occu": 1}], "abc": [0.499998999999999, 0.999999, 0.71437635], "properties": {"magmom": -0.0}, "label": "Cu", "xyz": [1.8419016326483617, 3.683789933692235, 18.233534633302913]}, {"species": [{"element": "Cu", "occu": 1}], "abc": [0.0, 0.5, 0.85706222], "properties": {"magmom": -0.0}, "label": "Cu", "xyz": [6.437203982e-06, 1.8418950267567646, 21.875407470196688]}, {"species": [{"element": "Cu", "occu": 1}], "abc": [0.0, 0.500002, 0.5715698100000001], "properties": {"magmom": 0.0}, "label": "Cu", "xyz": [4.124713441000001e-06, 1.841903556304933, 14.588581850262287]}, {"species": [{"element": "Cu", "occu": 1}], "abc": [0.999997999999999, 0.999999, 0.35682292], "properties": {"magmom": -0.0}, "label": "Cu", "xyz": [3.6837955926644987, 3.6837908839357056, 9.10744490627542]}, {"species": [{"element": "Cu", "occu": 1}], "abc": [0.5, 0.0, 0.42840968], "properties": {"magmom": 0.0}, "label": "Cu", "xyz": [1.841904010118408, -2.2486273975999993e-06, 10.934605148433542]}, {"species": [{"element": "Cu", "occu": 1}], "abc": [0.500001, 0.500001, 0.21426653], "properties": {"magmom": -0.0}, "label": "Cu", "xyz": [1.8419054543589635, 1.8419008217312431, 5.4688768794169]}, {"species": [{"element": "Cu", "occu": 1}], "abc": [0.999999, 0.5, 0.28561829], "properties": {"magmom": 0.0}, "label": "Cu", "xyz": [3.683799204707069, 1.8418963425345698, 7.290039049607852]}, {"species": [{"element": "Cu", "occu": 1}], "abc": [1e-06, 1e-06, 0.49998738000000004], "properties": {"magmom": 0.0}, "label": "Cu", "xyz": [7.733697848e-06, 1.6488473833999997e-06, 12.761533135773616]}, {"species": [{"element": "Cu", "occu": 1}], "abc": [-0.0, 0.5, 1.0740000000000002e-05], "properties": {"magmom": -0.0}, "label": "Cu", "xyz": [-5.049130059999989e-07, 1.8418985149562883, 0.0002736196506626001]}, {"species": [{"element": "Cu", "occu": 1}], "abc": [0.499998999999999, 0.999999, 1.0740000000000002e-05], "properties": {"magmom": -0.0}, "label": "Cu", "xyz": [1.8418958462869206, 3.683792841160268, 0.0002736196506626001]}, {"species": [{"element": "Pd", "occu": 1}], "abc": [0.499998999999999, 0.5, 0.35680504], "properties": {"magmom": -0.0}, "label": "Pd", "xyz": [1.8418992413197406, 1.8418965578044972, 9.106988542331859]}, {"species": [{"element": "Pd", "occu": 1}], "abc": [0.999999, 1e-06, 0.92838962], "properties": {"magmom": -0.0}, "label": "Pd", "xyz": [3.683804916153832, -1.1047477133999981e-06, 23.695948892799095]}, {"species": [{"element": "Pd", "occu": 1}], "abc": [0.500001, 0.5, 0.64318589], "properties": {"magmom": -0.0}, "label": "Pd", "xyz": [1.8419089286067893, 1.8418953922324177, 16.416490447613995]}, {"species": [{"element": "Pd", "occu": 1}], "abc": [1e-06, 0.999999, 0.78549754], "properties": {"magmom": -0.0}, "label": "Pd", "xyz": [9.036332164000001e-06, 3.6837901492269722, 20.048810791569213]}, {"species": [{"element": "Pd", "occu": 1}], "abc": [0.5, 0.500001, 0.49999374], "properties": {"magmom": -0.0}, "label": "Pd", "xyz": [1.8419040849482842, 1.8418996588225083, 12.761695466571322]}, {"species": [{"element": "Pd", "occu": 1}], "abc": [-0.0, 0.0, 0.07162223], "properties": {"magmom": 0.0}, "label": "Pd", "xyz": [5.801400629999999e-07, -2.915024761e-07, 1.8280650631681925]}, {"species": [{"element": "Pd", "occu": 1}], "abc": [1e-06, 0.0, 0.21450432], "properties": {"magmom": -0.0}, "label": "Pd", "xyz": [5.4212860719999995e-06, -8.730335923999999e-07, 5.474946162535327]}]}, "task_ids": null, "uncorrected_energy_per_atom": null, "energy_per_atom": -13.974745316071429, "formation_energy_per_atom": -0.099534913571428, "energy_above_hull": 0.0, "is_stable": true, "equilibrium_reaction_energy_per_atom": null, "decomposes_to": null, "xas": null, "grain_boundaries": null, "band_gap": 0.0, "cbm": null, "vbm": null, "efermi": 5.99772994, "is_gap_direct": null, "is_metal": null, "es_source_calc_id": null, "bandstructure": null, "dos": null, "dos_energy_up": null, "dos_energy_down": null, "is_magnetic": null, "ordering": null, "total_magnetization": 1e-07, "total_magnetization_normalized_vol": null, "total_magnetization_normalized_formula_units": null, "num_magnetic_sites": null, "num_unique_magnetic_sites": null, "types_of_magnetic_species": null, "bulk_modulus": null, "shear_modulus": null, "universal_anisotropy": null, "homogeneous_poisson": null, "e_total": null, "e_ionic": null, "e_electronic": null, "n": null, "e_ij_max": null, "weighted_surface_energy_EV_PER_ANG2": null, "weighted_surface_energy": null, "weighted_work_function": null, "surface_anisotropy": null, "shape_factor": null, "has_reconstructed": null, "possible_species": null, "has_props": null, "theoretical": null, "database_IDs": null, "fields_not_requested": ["builder_meta", "nsites", "elements", "nelements", "composition", "composition_reduced", "chemsys", "symmetry", "property_name", "deprecated", "deprecation_reasons", "last_updated", "origins", "warnings", "task_ids", "uncorrected_energy_per_atom", "equilibrium_reaction_energy_per_atom", "decomposes_to", "xas", "grain_boundaries", "cbm", "vbm", "is_gap_direct", "is_metal", "es_source_calc_id", "bandstructure", "dos", "dos_energy_up", "dos_energy_down", "is_magnetic", "ordering", "total_magnetization_normalized_vol", "total_magnetization_normalized_formula_units", "num_magnetic_sites", "num_unique_magnetic_sites", "types_of_magnetic_species", "bulk_modulus", "shear_modulus", "universal_anisotropy", "homogeneous_poisson", "e_total", "e_ionic", "e_electronic", "n", "e_ij_max", "weighted_surface_energy_EV_PER_ANG2", "weighted_surface_energy", "weighted_work_function", "surface_anisotropy", "shape_factor", "has_reconstructed", "possible_species", "has_props", "theoretical", "database_IDs"]}