{"builder_meta": null, "nsites": null, "elements": null, "nelements": null, "composition": null, "composition_reduced": null, "formula_pretty": "Cu3P", "formula_anonymous": "AB3", "chemsys": null, "volume": 294.02952028914564, "density": 7.509347797265637, "density_atomic": 12.251230012047735, "symmetry": null, "property_name": null, "material_id": "mp-7463", "deprecated": null, "deprecation_reasons": null, "last_updated": null, "origins": null, "warnings": null, "structure": {"@module": "pymatgen.core.structure", "@class": "Structure", "charge": 0, "lattice": {"matrix": [[3.44803256, -5.97216782, 0.0], [3.44803256, 5.97216782, 0.0], [0.0, -0.0, 7.139332]], "pbc": [true, true, true], "a": 6.896065327783932, "b": 6.896065327783932, "c": 7.139332, "alpha": 90.0, "beta": 90.0, "gamma": 120.00000199343737, "volume": 294.02952028914564}, "properties": {}, "sites": [{"species": [{"element": "Cu", "occu": 1}], "abc": [0.383672099999999, 0.0, 0.42810515], "properties": {"magmom": -0.0}, "label": "Cu", "xyz": [1.3229138931635727, -2.291354169051816, 3.0563847967598]}, {"species": [{"element": "Cu", "occu": 1}], "abc": [0.383672099999999, 0.383672099999999, 0.92810515], "properties": {"magmom": -0.0}, "label": "Cu", "xyz": [2.6458277863271453, 0.0, 6.6260507967598]}, {"species": [{"element": "Cu", "occu": 1}], "abc": [1.0, 0.616327899999999, 0.92810515], "properties": {"magmom": -0.0}, "label": "Cu", "xyz": [5.573151226836421, -2.2913541690518278, 6.6260507967598]}, {"species": [{"element": "Cu", "occu": 1}], "abc": [0.0, 0.383672099999999, 0.42810515], "properties": {"magmom": -0.0}, "label": "Cu", "xyz": [1.3229138931635727, 2.291354169051816, 3.0563847967598]}, {"species": [{"element": "Cu", "occu": 1}], "abc": [0.616327899999999, 0.616327899999999, 0.42810515], "properties": {"magmom": -0.0}, "label": "Cu", "xyz": [4.250237333672842, 0.0, 3.0563847967598]}, {"species": [{"element": "Cu", "occu": 1}], "abc": [0.616327899999999, 1.0, 0.92810515], "properties": {"magmom": -0.0}, "label": "Cu", "xyz": [5.573151226836421, 2.2913541690518278, 6.6260507967598]}, {"species": [{"element": "Cu", "occu": 1}], "abc": [0.333333, 0.666667, 0.18752894], "properties": {"magmom": -0.0}, "label": "Cu", "xyz": [3.4480325599999997, 1.9907265881118803, 1.3388313622680799]}, {"species": [{"element": "Cu", "occu": 1}], "abc": [0.666667, 0.333333, 0.68752894], "properties": {"magmom": -0.0}, "label": "Cu", "xyz": [3.4480325599999997, -1.9907265881118803, 4.908497362268079]}, {"species": [{"element": "Cu", "occu": 1}], "abc": [0.333333, 0.666667, 0.68752894], "properties": {"magmom": -0.0}, "label": "Cu", "xyz": [3.4480325599999997, 1.9907265881118803, 4.908497362268079]}, {"species": [{"element": "Cu", "occu": 1}], "abc": [0.666667, 0.333333, 0.18752894], "properties": {"magmom": -0.0}, "label": "Cu", "xyz": [3.4480325599999997, -1.9907265881118803, 1.3388313622680799]}, {"species": [{"element": "Cu", "occu": 1}], "abc": [-0.0, -0.0, 0.32764697], "properties": {"magmom": 0.0}, "label": "Cu", "xyz": [0.0, 0.0, 2.3391804976240396]}, {"species": [{"element": "Cu", "occu": 1}], "abc": [-0.0, -0.0, 0.82764697], "properties": {"magmom": 0.0}, "label": "Cu", "xyz": [0.0, 0.0, 5.908846497624039]}, {"species": [{"element": "Cu", "occu": 1}], "abc": [0.72683528, 0.0, 0.5776709600000001], "properties": {"magmom": 0.0}, "label": "Cu", "xyz": [2.5061517111967166, -4.34078226965669, 4.12418477019872]}, {"species": [{"element": "Cu", "occu": 1}], "abc": [0.72683528, 0.72683528, 0.07767096], "properties": {"magmom": 0.0}, "label": "Cu", "xyz": [5.012303422393433, 0.0, 0.55451877019872]}, {"species": [{"element": "Cu", "occu": 1}], "abc": [1.0, 0.27316472, 0.07767096], "properties": {"magmom": 0.0}, "label": "Cu", "xyz": [4.389913408803284, -4.34078226965669, 0.55451877019872]}, {"species": [{"element": "Cu", "occu": 1}], "abc": [0.0, 0.72683528, 0.5776709600000001], "properties": {"magmom": 0.0}, "label": "Cu", "xyz": [2.5061517111967166, 4.34078226965669, 4.12418477019872]}, {"species": [{"element": "Cu", "occu": 1}], "abc": [0.27316472, 0.27316472, 0.5776709600000001], "properties": {"magmom": 0.0}, "label": "Cu", "xyz": [1.8837616976065668, 0.0, 4.12418477019872]}, {"species": [{"element": "Cu", "occu": 1}], "abc": [0.27316472, 1.0, 0.07767096], "properties": {"magmom": 0.0}, "label": "Cu", "xyz": [4.389913408803284, 4.34078226965669, 0.55451877019872]}, {"species": [{"element": "P", "occu": 1}], "abc": [0.66900168, 0.0, 0.25138927], "properties": {"magmom": 0.0}, "label": "P", "xyz": [2.306739575334701, -3.995390304821938, 1.79475145976764]}, {"species": [{"element": "P", "occu": 1}], "abc": [0.66900168, 0.66900168, 0.75138927], "properties": {"magmom": 0.0}, "label": "P", "xyz": [4.613479150669402, 0.0, 5.3644174597676395]}, {"species": [{"element": "P", "occu": 1}], "abc": [1.0, 0.33099832, 0.75138927], "properties": {"magmom": 0.0}, "label": "P", "xyz": [4.589325544665299, -3.995390304821938, 5.3644174597676395]}, {"species": [{"element": "P", "occu": 1}], "abc": [0.0, 0.66900168, 0.25138927], "properties": {"magmom": 0.0}, "label": "P", "xyz": [2.306739575334701, 3.995390304821938, 1.79475145976764]}, {"species": [{"element": "P", "occu": 1}], "abc": [0.33099832, 0.33099832, 0.25138927], "properties": {"magmom": 0.0}, "label": "P", "xyz": [2.2825859693305985, 0.0, 1.79475145976764]}, {"species": [{"element": "P", "occu": 1}], "abc": [0.33099832, 1.0, 0.75138927], "properties": {"magmom": 0.0}, "label": "P", "xyz": [4.589325544665299, 3.995390304821938, 5.3644174597676395]}]}, "task_ids": null, "uncorrected_energy_per_atom": null, "energy_per_atom": -10.418969917083333, "formation_energy_per_atom": -0.03335383907738, "energy_above_hull": 0.025262583854166003, "is_stable": false, "equilibrium_reaction_energy_per_atom": null, "decomposes_to": null, "xas": null, "grain_boundaries": null, "band_gap": 0.0, "cbm": null, "vbm": null, "efermi": 8.41579258, "is_gap_direct": null, "is_metal": null, "es_source_calc_id": null, "bandstructure": null, "dos": null, "dos_energy_up": null, "dos_energy_down": null, "is_magnetic": null, "ordering": null, "total_magnetization": 0.0, "total_magnetization_normalized_vol": null, "total_magnetization_normalized_formula_units": null, "num_magnetic_sites": null, "num_unique_magnetic_sites": null, "types_of_magnetic_species": null, "bulk_modulus": null, "shear_modulus": null, "universal_anisotropy": null, "homogeneous_poisson": null, "e_total": null, "e_ionic": null, "e_electronic": null, "n": null, "e_ij_max": null, "weighted_surface_energy_EV_PER_ANG2": null, "weighted_surface_energy": null, "weighted_work_function": null, "surface_anisotropy": null, "shape_factor": null, "has_reconstructed": null, "possible_species": null, "has_props": null, "theoretical": null, "database_IDs": null, "fields_not_requested": ["builder_meta", "nsites", "elements", "nelements", "composition", "composition_reduced", "chemsys", "symmetry", "property_name", "deprecated", "deprecation_reasons", "last_updated", "origins", "warnings", "task_ids", "uncorrected_energy_per_atom", "equilibrium_reaction_energy_per_atom", "decomposes_to", "xas", "grain_boundaries", "cbm", "vbm", "is_gap_direct", "is_metal", "es_source_calc_id", "bandstructure", "dos", "dos_energy_up", "dos_energy_down", "is_magnetic", "ordering", "total_magnetization_normalized_vol", "total_magnetization_normalized_formula_units", "num_magnetic_sites", "num_unique_magnetic_sites", "types_of_magnetic_species", "bulk_modulus", "shear_modulus", "universal_anisotropy", "homogeneous_poisson", "e_total", "e_ionic", "e_electronic", "n", "e_ij_max", "weighted_surface_energy_EV_PER_ANG2", "weighted_surface_energy", "weighted_work_function", "surface_anisotropy", "shape_factor", "has_reconstructed", "possible_species", "has_props", "theoretical", "database_IDs"]}