{"builder_meta": null, "nsites": null, "elements": null, "nelements": null, "composition": null, "composition_reduced": null, "formula_pretty": "Cu3Ru", "formula_anonymous": "AB3", "chemsys": null, "volume": 100.86468972574635, "density": 9.604798891600785, "density_atomic": 12.608086215718293, "symmetry": null, "property_name": null, "material_id": "mp-1184026", "deprecated": null, "deprecation_reasons": null, "last_updated": null, "origins": null, "warnings": null, "structure": {"@module": "pymatgen.core.structure", "@class": "Structure", "charge": 0, "lattice": {"matrix": [[2.629242999999999, -4.5539819999999995, 0.0], [2.629242999999999, 4.5539819999999995, 0.0], [0.0, 0.0, 4.211988]], "pbc": [true, true, true], "a": 5.258485600377069, "b": 5.258485600377069, "c": 4.211988, "alpha": 90.0, "beta": 90.0, "gamma": 119.99999497215691, "volume": 100.86468972574627}, "properties": {}, "sites": [{"species": [{"element": "Cu", "occu": 1}], "abc": [0.16440000000000002, 0.32880000000000004, 0.25], "properties": {"magmom": 0.067}, "label": "Cu", "xyz": [1.2967426475999995, 0.7486746408, 1.052997]}, {"species": [{"element": "Cu", "occu": 1}], "abc": [0.6712, 0.8356, 0.25], "properties": {"magmom": 0.096}, "label": "Cu", "xyz": [3.9617433523999983, 0.7486746407999996, 1.052997]}, {"species": [{"element": "Cu", "occu": 1}], "abc": [0.16440000000000002, 0.8356, 0.25], "properties": {"magmom": 0.05}, "label": "Cu", "xyz": [2.629242999999999, 3.0566327183999995, 1.052997]}, {"species": [{"element": "Cu", "occu": 1}], "abc": [0.8356, 0.6712, 0.75], "properties": {"magmom": 0.067}, "label": "Cu", "xyz": [3.9617433523999983, -0.7486746407999996, 3.158991]}, {"species": [{"element": "Cu", "occu": 1}], "abc": [0.32880000000000004, 0.16440000000000002, 0.75], "properties": {"magmom": 0.096}, "label": "Cu", "xyz": [1.2967426475999995, -0.7486746408, 3.158991]}, {"species": [{"element": "Cu", "occu": 1}], "abc": [0.8356, 0.16440000000000002, 0.75], "properties": {"magmom": 0.05}, "label": "Cu", "xyz": [2.629242999999999, -3.0566327183999995, 3.158991]}, {"species": [{"element": "Ru", "occu": 1}], "abc": [0.333333, 0.666667, 0.75], "properties": {"magmom": 0.809}, "label": "Ru", "xyz": [2.629242999999999, 1.5179970359879997, 3.158991]}, {"species": [{"element": "Ru", "occu": 1}], "abc": [0.666667, 0.333333, 0.25], "properties": {"magmom": 0.809}, "label": "Ru", "xyz": [2.629242999999999, -1.5179970359879997, 1.052997]}]}, "task_ids": null, "uncorrected_energy_per_atom": null, "energy_per_atom": -14.2184775075, "formation_energy_per_atom": 0.27275331625000004, "energy_above_hull": 0.27275331625000004, "is_stable": false, "equilibrium_reaction_energy_per_atom": null, "decomposes_to": null, "xas": null, "grain_boundaries": null, "band_gap": 0.0, "cbm": null, "vbm": null, "efermi": 6.73537664, "is_gap_direct": null, "is_metal": null, "es_source_calc_id": null, "bandstructure": null, "dos": null, "dos_energy_up": null, "dos_energy_down": null, "is_magnetic": null, "ordering": null, "total_magnetization": 1.9772652, "total_magnetization_normalized_vol": null, "total_magnetization_normalized_formula_units": null, "num_magnetic_sites": null, "num_unique_magnetic_sites": null, "types_of_magnetic_species": null, "bulk_modulus": null, "shear_modulus": null, "universal_anisotropy": null, "homogeneous_poisson": null, "e_total": null, "e_ionic": null, "e_electronic": null, "n": null, "e_ij_max": null, "weighted_surface_energy_EV_PER_ANG2": null, "weighted_surface_energy": null, "weighted_work_function": null, "surface_anisotropy": null, "shape_factor": null, "has_reconstructed": null, "possible_species": null, "has_props": null, "theoretical": null, "database_IDs": null, "fields_not_requested": ["builder_meta", "nsites", "elements", "nelements", "composition", "composition_reduced", "chemsys", "symmetry", "property_name", "deprecated", "deprecation_reasons", "last_updated", "origins", "warnings", "task_ids", "uncorrected_energy_per_atom", "equilibrium_reaction_energy_per_atom", "decomposes_to", "xas", "grain_boundaries", "cbm", "vbm", "is_gap_direct", "is_metal", "es_source_calc_id", "bandstructure", "dos", "dos_energy_up", "dos_energy_down", "is_magnetic", "ordering", "total_magnetization_normalized_vol", "total_magnetization_normalized_formula_units", "num_magnetic_sites", "num_unique_magnetic_sites", "types_of_magnetic_species", "bulk_modulus", "shear_modulus", "universal_anisotropy", "homogeneous_poisson", "e_total", "e_ionic", "e_electronic", "n", "e_ij_max", "weighted_surface_energy_EV_PER_ANG2", "weighted_surface_energy", "weighted_work_function", "surface_anisotropy", "shape_factor", "has_reconstructed", "possible_species", "has_props", "theoretical", "database_IDs"]}