{
  "builder_meta": null,
  "nsites": null,
  "elements": null,
  "nelements": null,
  "composition": null,
  "composition_reduced": null,
  "formula_pretty": "Cu3Sn",
  "formula_anonymous": "AB3",
  "chemsys": null,
  "volume": 584.0238453039103,
  "density": 8.795607290782264,
  "density_atomic": 14.600596132597758,
  "symmetry": null,
  "property_name": null,
  "material_id": "mp-1195862",
  "deprecated": null,
  "deprecation_reasons": null,
  "last_updated": null,
  "origins": null,
  "warnings": null,
  "structure": {
    "@module": "pymatgen.core.structure",
    "@class": "Structure",
    "charge": 0,
    "lattice": {
      "matrix": [
        [2.819555, -23.902209, 0.0],
        [2.819555, 23.902209, 0.0],
        [0.0, 0.0, 4.332933]
      ],
      "pbc": [true, true, true],
      "a": 24.067934798767133,
      "b": 24.067934798767133,
      "c": 4.332933,
      "alpha": 90.0,
      "beta": 90.0,
      "gamma": 166.5447183793315,
      "volume": 584.0238453039103
    },
    "properties": {},
    "sites": [
      {
        "species": [{ "element": "Cu", "occu": 1 }],
        "abc": [0.930396, 0.069604, 0.25],
        "properties": { "magmom": 0.008 },
        "label": "Cu",
        "xyz": [2.819555, -20.574830289528002, 1.08323325]
      },
      {
        "species": [{ "element": "Cu", "occu": 1 }],
        "abc": [0.069604, 0.930396, 0.75],
        "properties": { "magmom": 0.008 },
        "label": "Cu",
        "xyz": [2.819555, 20.574830289528002, 3.2496997499999996]
      },
      {
        "species": [{ "element": "Cu", "occu": 1 }],
        "abc": [0.829700999999999, 0.170299, 0.25],
        "properties": { "magmom": 0.001 },
        "label": "Cu",
        "xyz": [2.8195549999999967, -15.761164419017977, 1.08323325]
      },
      {
        "species": [{ "element": "Cu", "occu": 1 }],
        "abc": [0.170299, 0.829700999999999, 0.75],
        "properties": { "magmom": 0.001 },
        "label": "Cu",
        "xyz": [2.8195549999999967, 15.761164419017977, 3.2496997499999996]
      },
      {
        "species": [{ "element": "Cu", "occu": 1 }],
        "abc": [0.729478, 0.270522, 0.25],
        "properties": { "magmom": 0.013000000000000001 },
        "label": "Cu",
        "xyz": [2.819555, -10.970062233804, 1.08323325]
      },
      {
        "species": [{ "element": "Cu", "occu": 1 }],
        "abc": [0.270522, 0.729478, 0.75],
        "properties": { "magmom": 0.013000000000000001 },
        "label": "Cu",
        "xyz": [2.819555, 10.970062233804, 3.2496997499999996]
      },
      {
        "species": [{ "element": "Cu", "occu": 1 }],
        "abc": [0.629197999999999, 0.370801999999999, 0.25],
        "properties": { "magmom": 0.007 },
        "label": "Cu",
        "xyz": [2.819554999999994, -6.176235196764001, 1.08323325]
      },
      {
        "species": [{ "element": "Cu", "occu": 1 }],
        "abc": [0.370801999999999, 0.629197999999999, 0.75],
        "properties": { "magmom": 0.007 },
        "label": "Cu",
        "xyz": [2.819554999999994, 6.176235196764001, 3.2496997499999996]
      },
      {
        "species": [{ "element": "Cu", "occu": 1 }],
        "abc": [0.530181999999999, 0.469817999999999, 0.25],
        "properties": { "magmom": -0.001 },
        "label": "Cu",
        "xyz": [2.819554999999994, -1.4428329440760006, 1.08323325]
      },
      {
        "species": [{ "element": "Cu", "occu": 1 }],
        "abc": [0.469817999999999, 0.530181999999999, 0.75],
        "properties": { "magmom": -0.001 },
        "label": "Cu",
        "xyz": [2.819554999999994, 1.4428329440760006, 3.2496997499999996]
      },
      {
        "species": [{ "element": "Cu", "occu": 1 }],
        "abc": [0.722189, 0.753363999999999, 0.25],
        "properties": { "magmom": 0.002 },
        "label": "Cu",
        "xyz": [4.160402838914997, 0.74515136557498, 1.08323325]
      },
      {
        "species": [{ "element": "Cu", "occu": 1 }],
        "abc": [0.753363999999999, 0.722189, 0.75],
        "properties": { "magmom": 0.002 },
        "label": "Cu",
        "xyz": [4.160402838914997, -0.74515136557498, 3.2496997499999996]
      },
      {
        "species": [{ "element": "Cu", "occu": 1 }],
        "abc": [0.277811, 0.246636, 0.75],
        "properties": { "magmom": 0.002 },
        "label": "Cu",
        "xyz": [1.4787071610849998, -0.7451513655749995, 3.2496997499999996]
      },
      {
        "species": [{ "element": "Cu", "occu": 1 }],
        "abc": [0.246636, 0.277811, 0.25],
        "properties": { "magmom": 0.002 },
        "label": "Cu",
        "xyz": [1.4787071610849998, 0.7451513655749995, 1.08323325]
      },
      {
        "species": [{ "element": "Cu", "occu": 1 }],
        "abc": [0.633438, 0.864238, 0.25],
        "properties": { "magmom": 0.008 },
        "label": "Cu",
        "xyz": [4.222779854179999, 5.5166298372, 1.08323325]
      },
      {
        "species": [{ "element": "Cu", "occu": 1 }],
        "abc": [0.864238, 0.633438, 0.75],
        "properties": { "magmom": 0.008 },
        "label": "Cu",
        "xyz": [4.222779854179999, -5.5166298372, 3.2496997499999996]
      },
      {
        "species": [{ "element": "Cu", "occu": 1 }],
        "abc": [0.366562, 0.135762, 0.75],
        "properties": { "magmom": 0.008 },
        "label": "Cu",
        "xyz": [1.41633014582, -5.516629837199999, 3.2496997499999996]
      },
      {
        "species": [{ "element": "Cu", "occu": 1 }],
        "abc": [0.135762, 0.366562, 0.25],
        "properties": { "magmom": 0.008 },
        "label": "Cu",
        "xyz": [1.41633014582, 5.516629837199999, 1.08323325]
      },
      {
        "species": [{ "element": "Cu", "occu": 1 }],
        "abc": [0.531261, 0.962074, 0.25],
        "properties": { "magmom": -0.005 },
        "label": "Cu",
        "xyz": [4.210540165925, 10.297382365916999, 1.08323325]
      },
      {
        "species": [{ "element": "Cu", "occu": 1 }],
        "abc": [0.962074, 0.531261, 0.75],
        "properties": { "magmom": -0.005 },
        "label": "Cu",
        "xyz": [4.210540165925, -10.297382365916999, 3.2496997499999996]
      },
      {
        "species": [{ "element": "Cu", "occu": 1 }],
        "abc": [0.468738999999999, 0.037926, 0.75],
        "properties": { "magmom": -0.005 },
        "label": "Cu",
        "xyz": [1.4285698340749973, -10.297382365916976, 3.2496997499999996]
      },
      {
        "species": [{ "element": "Cu", "occu": 1 }],
        "abc": [0.037926, 0.468738999999999, 0.25],
        "properties": { "magmom": -0.005 },
        "label": "Cu",
        "xyz": [1.4285698340749973, 10.297382365916976, 1.08323325]
      },
      {
        "species": [{ "element": "Cu", "occu": 1 }],
        "abc": [0.430606, 0.06158, 0.25],
        "properties": { "magmom": 0.128 },
        "label": "Cu",
        "xyz": [1.3877454972299998, -8.820536578434, 1.08323325]
      },
      {
        "species": [{ "element": "Cu", "occu": 1 }],
        "abc": [0.06158, 0.430606, 0.75],
        "properties": { "magmom": 0.128 },
        "label": "Cu",
        "xyz": [1.3877454972299998, 8.820536578434, 3.2496997499999996]
      },
      {
        "species": [{ "element": "Cu", "occu": 1 }],
        "abc": [0.569394, 0.93842, 0.75],
        "properties": { "magmom": 0.128 },
        "label": "Cu",
        "xyz": [4.2513645027699996, 8.820536578434, 3.2496997499999996]
      },
      {
        "species": [{ "element": "Cu", "occu": 1 }],
        "abc": [0.93842, 0.569394, 0.25],
        "properties": { "magmom": 0.128 },
        "label": "Cu",
        "xyz": [4.2513645027699996, -8.820536578434, 1.08323325]
      },
      {
        "species": [{ "element": "Cu", "occu": 1 }],
        "abc": [0.328077, 0.159374, 0.25],
        "properties": { "magmom": 0.002 },
        "label": "Cu",
        "xyz": [1.3743949043049999, -4.0323743649270005, 1.08323325]
      },
      {
        "species": [{ "element": "Cu", "occu": 1 }],
        "abc": [0.159374, 0.328077, 0.75],
        "properties": { "magmom": 0.002 },
        "label": "Cu",
        "xyz": [1.3743949043049999, 4.0323743649270005, 3.2496997499999996]
      },
      {
        "species": [{ "element": "Cu", "occu": 1 }],
        "abc": [0.671922999999999, 0.840626, 0.75],
        "properties": { "magmom": 0.002 },
        "label": "Cu",
        "xyz": [4.264715095694997, 4.032374364927023, 3.2496997499999996]
      },
      {
        "species": [{ "element": "Cu", "occu": 1 }],
        "abc": [0.840626, 0.671922999999999, 0.25],
        "properties": { "magmom": 0.002 },
        "label": "Cu",
        "xyz": [4.264715095694997, -4.032374364927023, 1.08323325]
      },
      {
        "species": [{ "element": "Sn", "occu": 1 }],
        "abc": [0.034134, 0.965866, 0.25],
        "properties": { "magmom": 0.001 },
        "label": "Sn",
        "xyz": [2.819555, 22.270452995988002, 1.08323325]
      },
      {
        "species": [{ "element": "Sn", "occu": 1 }],
        "abc": [0.965866, 0.034134, 0.75],
        "properties": { "magmom": 0.001 },
        "label": "Sn",
        "xyz": [2.819555, -22.270452995988002, 3.2496997499999996]
      },
      {
        "species": [{ "element": "Sn", "occu": 1 }],
        "abc": [0.134539, 0.865460999999999, 0.25],
        "properties": { "magmom": 0.0 },
        "label": "Sn",
        "xyz": [2.8195549999999967, 17.470650406697978, 1.08323325]
      },
      {
        "species": [{ "element": "Sn", "occu": 1 }],
        "abc": [0.865460999999999, 0.134539, 0.75],
        "properties": { "magmom": 0.0 },
        "label": "Sn",
        "xyz": [2.8195549999999967, -17.470650406697978, 3.2496997499999996]
      },
      {
        "species": [{ "element": "Sn", "occu": 1 }],
        "abc": [0.234521999999999, 0.765478, 0.25],
        "properties": { "magmom": -0.003 },
        "label": "Sn",
        "xyz": [2.8195549999999967, 12.691021281804023, 1.08323325]
      },
      {
        "species": [{ "element": "Sn", "occu": 1 }],
        "abc": [0.765478, 0.234521999999999, 0.75],
        "properties": { "magmom": -0.003 },
        "label": "Sn",
        "xyz": [2.8195549999999967, -12.691021281804023, 3.2496997499999996]
      },
      {
        "species": [{ "element": "Sn", "occu": 1 }],
        "abc": [0.33453000000000005, 0.66547, 0.25],
        "properties": { "magmom": 0.003 },
        "label": "Sn",
        "xyz": [2.8195550000000003, 7.910197046459998, 1.08323325]
      },
      {
        "species": [{ "element": "Sn", "occu": 1 }],
        "abc": [0.66547, 0.33453000000000005, 0.75],
        "properties": { "magmom": 0.003 },
        "label": "Sn",
        "xyz": [2.8195550000000003, -7.910197046459998, 3.2496997499999996]
      },
      {
        "species": [{ "element": "Sn", "occu": 1 }],
        "abc": [0.433807999999999, 0.566192, 0.25],
        "properties": { "magmom": -0.004 },
        "label": "Sn",
        "xyz": [2.819554999999997, 3.164270036256024, 1.08323325]
      },
      {
        "species": [{ "element": "Sn", "occu": 1 }],
        "abc": [0.566192, 0.433807999999999, 0.75],
        "properties": { "magmom": -0.004 },
        "label": "Sn",
        "xyz": [2.819554999999997, -3.164270036256024, 3.2496997499999996]
      }
    ]
  },
  "task_ids": null,
  "uncorrected_energy_per_atom": null,
  "energy_per_atom": -14.294786162,
  "formation_energy_per_atom": 0.026856782999999003,
  "energy_above_hull": 0.026856783000001,
  "is_stable": false,
  "equilibrium_reaction_energy_per_atom": null,
  "decomposes_to": null,
  "xas": null,
  "grain_boundaries": null,
  "band_gap": 0.0,
  "cbm": null,
  "vbm": null,
  "efermi": 7.97270947,
  "is_gap_direct": null,
  "is_metal": null,
  "es_source_calc_id": null,
  "bandstructure": null,
  "dos": null,
  "dos_energy_up": null,
  "dos_energy_down": null,
  "is_magnetic": null,
  "ordering": null,
  "total_magnetization": 1.4175493,
  "total_magnetization_normalized_vol": null,
  "total_magnetization_normalized_formula_units": null,
  "num_magnetic_sites": null,
  "num_unique_magnetic_sites": null,
  "types_of_magnetic_species": null,
  "bulk_modulus": null,
  "shear_modulus": null,
  "universal_anisotropy": null,
  "homogeneous_poisson": null,
  "e_total": null,
  "e_ionic": null,
  "e_electronic": null,
  "n": null,
  "e_ij_max": null,
  "weighted_surface_energy_EV_PER_ANG2": null,
  "weighted_surface_energy": null,
  "weighted_work_function": null,
  "surface_anisotropy": null,
  "shape_factor": null,
  "has_reconstructed": null,
  "possible_species": null,
  "has_props": null,
  "theoretical": null,
  "database_IDs": null,
  "fields_not_requested": [
    "builder_meta",
    "nsites",
    "elements",
    "nelements",
    "composition",
    "composition_reduced",
    "chemsys",
    "symmetry",
    "property_name",
    "deprecated",
    "deprecation_reasons",
    "last_updated",
    "origins",
    "warnings",
    "task_ids",
    "uncorrected_energy_per_atom",
    "equilibrium_reaction_energy_per_atom",
    "decomposes_to",
    "xas",
    "grain_boundaries",
    "cbm",
    "vbm",
    "is_gap_direct",
    "is_metal",
    "es_source_calc_id",
    "bandstructure",
    "dos",
    "dos_energy_up",
    "dos_energy_down",
    "is_magnetic",
    "ordering",
    "total_magnetization_normalized_vol",
    "total_magnetization_normalized_formula_units",
    "num_magnetic_sites",
    "num_unique_magnetic_sites",
    "types_of_magnetic_species",
    "bulk_modulus",
    "shear_modulus",
    "universal_anisotropy",
    "homogeneous_poisson",
    "e_total",
    "e_ionic",
    "e_electronic",
    "n",
    "e_ij_max",
    "weighted_surface_energy_EV_PER_ANG2",
    "weighted_surface_energy",
    "weighted_work_function",
    "surface_anisotropy",
    "shape_factor",
    "has_reconstructed",
    "possible_species",
    "has_props",
    "theoretical",
    "database_IDs"
  ]
}
