{
  "builder_meta": null,
  "nsites": null,
  "elements": null,
  "nelements": null,
  "composition": null,
  "composition_reduced": null,
  "formula_pretty": "Cu3Se2",
  "formula_anonymous": "A2B3",
  "chemsys": null,
  "volume": 172.7420110289248,
  "density": 6.701255502681932,
  "density_atomic": 17.27420110289248,
  "symmetry": null,
  "property_name": null,
  "material_id": "mp-20683",
  "deprecated": null,
  "deprecation_reasons": null,
  "last_updated": null,
  "origins": null,
  "warnings": null,
  "structure": {
    "@module": "pymatgen.core.structure",
    "@class": "Structure",
    "charge": 0,
    "lattice": {
      "matrix": [
        [4.31788968, -1.02e-6, 1.029999999999998e-6],
        [-1.009999999999998e-6, 6.32503858, -3.89e-6],
        [2.019999999999999e-6, -6.53e-6, 6.32503962]
      ],
      "pbc": [true, true, true],
      "a": 4.317889680000244,
      "b": 6.325038580001277,
      "c": 6.325039620003693,
      "alpha": 90.00009439025106,
      "beta": 89.99996803420984,
      "gamma": 90.00002268394198,
      "volume": 172.7420110289248
    },
    "properties": {},
    "sites": [
      {
        "species": [{ "element": "Cu", "occu": 1 }],
        "abc": [0.999999, 2e-6, -0.0],
        "properties": { "magmom": 0.123 },
        "label": "Cu",
        "xyz": [4.3178853621083, 1.163007818e-5, 1.029991189999998e-6]
      },
      {
        "species": [{ "element": "Cu", "occu": 1 }],
        "abc": [0.999999, 0.499998, 0.500001],
        "properties": { "magmom": 0.123 },
        "label": "Cu",
        "xyz": [4.317885867114359, 3.16250235491733, 3.16252522004637]
      },
      {
        "species": [{ "element": "Cu", "occu": 1 }],
        "abc": [0.75998663, 0.14389298, 0.35625852],
        "properties": { "magmom": 0.10400000000000001 },
        "label": "Cu",
        "xyz": [3.2815390009252794, 0.9101255483366704, 2.2533494770050995]
      },
      {
        "species": [{ "element": "Cu", "occu": 1 }],
        "abc": [0.24001437, 0.35625552, 0.85610502],
        "properties": { "magmom": 0.10400000000000001 },
        "label": "Cu",
        "xyz": [1.036356940788767, 2.2533240731575237, 5.414897031761721]
      },
      {
        "species": [{ "element": "Cu", "occu": 1 }],
        "abc": [0.24001437, 0.64374248, 0.14389298],
        "properties": { "magmom": 0.10400000000000001 },
        "label": "Cu",
        "xyz": [1.0363552117586166, 4.071694837149062, 0.9101265425964215]
      },
      {
        "species": [{ "element": "Cu", "occu": 1 }],
        "abc": [0.75998663, 0.85610902, 0.64374248],
        "properties": { "magmom": 0.10400000000000001 },
        "label": "Cu",
        "xyz": [3.281538862304678, 5.414917601361235, 4.071694143599199]
      },
      {
        "species": [{ "element": "Se", "occu": 1 }],
        "abc": [0.26461303, 0.2688858, 0.23104217],
        "properties": { "magmom": 0.098 },
        "label": "Se",
        "xyz": [1.1425700665610559, 1.7007112800035034, 1.4613501057264344]
      },
      {
        "species": [{ "element": "Se", "occu": 1 }],
        "abc": [0.73538697, 0.23104317, 0.7311152],
        "properties": { "magmom": 0.098 },
        "label": "Se",
        "xyz": [3.175321052068572, 1.4613514396185332, 4.624332465474872]
      },
      {
        "species": [{ "element": "Se", "occu": 1 }],
        "abc": [0.73538797, 0.76895683, 0.2688848],
        "properties": { "magmom": 0.098 },
        "label": "Se",
        "xyz": [3.175323892960048, 4.863679110191028, 1.7007047794233163]
      },
      {
        "species": [{ "element": "Se", "occu": 1 }],
        "abc": [0.26461303, 0.731114199999999, 0.7689578300000001],
        "properties": { "magmom": 0.098 },
        "label": "Se",
        "xyz": [1.1425706863000051, 4.624320230185909, 4.863686169376408]
      }
    ]
  },
  "task_ids": null,
  "uncorrected_energy_per_atom": null,
  "energy_per_atom": -12.422591308,
  "formation_energy_per_atom": -0.189889615625,
  "energy_above_hull": 0.0,
  "is_stable": true,
  "equilibrium_reaction_energy_per_atom": null,
  "decomposes_to": null,
  "xas": null,
  "grain_boundaries": null,
  "band_gap": 0.0,
  "cbm": null,
  "vbm": null,
  "efermi": 4.55413923,
  "is_gap_direct": null,
  "is_metal": null,
  "es_source_calc_id": null,
  "bandstructure": null,
  "dos": null,
  "dos_energy_up": null,
  "dos_energy_down": null,
  "is_magnetic": null,
  "ordering": null,
  "total_magnetization": 1.1752741,
  "total_magnetization_normalized_vol": null,
  "total_magnetization_normalized_formula_units": null,
  "num_magnetic_sites": null,
  "num_unique_magnetic_sites": null,
  "types_of_magnetic_species": null,
  "bulk_modulus": null,
  "shear_modulus": null,
  "universal_anisotropy": null,
  "homogeneous_poisson": null,
  "e_total": null,
  "e_ionic": null,
  "e_electronic": null,
  "n": null,
  "e_ij_max": null,
  "weighted_surface_energy_EV_PER_ANG2": null,
  "weighted_surface_energy": null,
  "weighted_work_function": null,
  "surface_anisotropy": null,
  "shape_factor": null,
  "has_reconstructed": null,
  "possible_species": null,
  "has_props": null,
  "theoretical": null,
  "database_IDs": null,
  "fields_not_requested": [
    "builder_meta",
    "nsites",
    "elements",
    "nelements",
    "composition",
    "composition_reduced",
    "chemsys",
    "symmetry",
    "property_name",
    "deprecated",
    "deprecation_reasons",
    "last_updated",
    "origins",
    "warnings",
    "task_ids",
    "uncorrected_energy_per_atom",
    "equilibrium_reaction_energy_per_atom",
    "decomposes_to",
    "xas",
    "grain_boundaries",
    "cbm",
    "vbm",
    "is_gap_direct",
    "is_metal",
    "es_source_calc_id",
    "bandstructure",
    "dos",
    "dos_energy_up",
    "dos_energy_down",
    "is_magnetic",
    "ordering",
    "total_magnetization_normalized_vol",
    "total_magnetization_normalized_formula_units",
    "num_magnetic_sites",
    "num_unique_magnetic_sites",
    "types_of_magnetic_species",
    "bulk_modulus",
    "shear_modulus",
    "universal_anisotropy",
    "homogeneous_poisson",
    "e_total",
    "e_ionic",
    "e_electronic",
    "n",
    "e_ij_max",
    "weighted_surface_energy_EV_PER_ANG2",
    "weighted_surface_energy",
    "weighted_work_function",
    "surface_anisotropy",
    "shape_factor",
    "has_reconstructed",
    "possible_species",
    "has_props",
    "theoretical",
    "database_IDs"
  ]
}
