{
  "builder_meta": null,
  "nsites": null,
  "elements": null,
  "nelements": null,
  "composition": null,
  "composition_reduced": null,
  "formula_pretty": "Cu3Sb",
  "formula_anonymous": "AB3",
  "chemsys": null,
  "volume": 119.02312431386834,
  "density": 8.716778127244357,
  "density_atomic": 14.877890539233542,
  "symmetry": null,
  "property_name": null,
  "material_id": "mp-20900",
  "deprecated": null,
  "deprecation_reasons": null,
  "last_updated": null,
  "origins": null,
  "warnings": null,
  "structure": {
    "@module": "pymatgen.core.structure",
    "@class": "Structure",
    "charge": 0,
    "lattice": {
      "matrix": [
        [4.343706, 0.0, 0.0],
        [0.0, 4.98255, 0.0],
        [0.0, 0.0, 5.49945]
      ],
      "pbc": [true, true, true],
      "a": 4.343706,
      "b": 4.98255,
      "c": 5.49945,
      "alpha": 90.0,
      "beta": 90.0,
      "gamma": 90.0,
      "volume": 119.02312431386834
    },
    "properties": {},
    "sites": [
      {
        "species": [{ "element": "Cu", "occu": 1 }],
        "abc": [0.5, 0.703318, 0.0],
        "properties": { "magmom": 0.0 },
        "label": "Cu",
        "xyz": [2.171853, 3.5043171009, 0.0]
      },
      {
        "species": [{ "element": "Cu", "occu": 1 }],
        "abc": [0.0, 0.296682, 0.5],
        "properties": { "magmom": -0.0 },
        "label": "Cu",
        "xyz": [0.0, 1.4782328991, 2.749725]
      },
      {
        "species": [{ "element": "Cu", "occu": 1 }],
        "abc": [0.0, 0.851202999999999, 0.248254],
        "properties": { "magmom": 0.0 },
        "label": "Cu",
        "xyz": [0.0, 4.241161507649995, 1.3652604603]
      },
      {
        "species": [{ "element": "Cu", "occu": 1 }],
        "abc": [0.5, 0.148796999999999, 0.251745999999999],
        "properties": { "magmom": -0.0 },
        "label": "Cu",
        "xyz": [2.171853, 0.741388492349995, 1.3844645396999948]
      },
      {
        "species": [{ "element": "Cu", "occu": 1 }],
        "abc": [0.0, 0.851202999999999, 0.751745999999999],
        "properties": { "magmom": 0.0 },
        "label": "Cu",
        "xyz": [0.0, 4.241161507649995, 4.134189539699995]
      },
      {
        "species": [{ "element": "Cu", "occu": 1 }],
        "abc": [0.5, 0.148796999999999, 0.748254],
        "properties": { "magmom": -0.0 },
        "label": "Cu",
        "xyz": [2.171853, 0.741388492349995, 4.1149854603]
      },
      {
        "species": [{ "element": "Sb", "occu": 1 }],
        "abc": [0.0, 0.339991999999999, 0.0],
        "properties": { "magmom": 0.0 },
        "label": "Sb",
        "xyz": [0.0, 1.694027139599995, 0.0]
      },
      {
        "species": [{ "element": "Sb", "occu": 1 }],
        "abc": [0.5, 0.660007999999999, 0.5],
        "properties": { "magmom": -0.0 },
        "label": "Sb",
        "xyz": [2.171853, 3.288522860399995, 2.749725]
      }
    ]
  },
  "task_ids": null,
  "uncorrected_energy_per_atom": null,
  "energy_per_atom": -14.49867384625,
  "formation_energy_per_atom": 0.063002086249999,
  "energy_above_hull": 0.063002086249999,
  "is_stable": false,
  "equilibrium_reaction_energy_per_atom": null,
  "decomposes_to": null,
  "xas": null,
  "grain_boundaries": null,
  "band_gap": 0.0,
  "cbm": null,
  "vbm": null,
  "efermi": 8.5920194,
  "is_gap_direct": null,
  "is_metal": null,
  "es_source_calc_id": null,
  "bandstructure": null,
  "dos": null,
  "dos_energy_up": null,
  "dos_energy_down": null,
  "is_magnetic": null,
  "ordering": null,
  "total_magnetization": 1e-7,
  "total_magnetization_normalized_vol": null,
  "total_magnetization_normalized_formula_units": null,
  "num_magnetic_sites": null,
  "num_unique_magnetic_sites": null,
  "types_of_magnetic_species": null,
  "bulk_modulus": null,
  "shear_modulus": null,
  "universal_anisotropy": null,
  "homogeneous_poisson": null,
  "e_total": null,
  "e_ionic": null,
  "e_electronic": null,
  "n": null,
  "e_ij_max": null,
  "weighted_surface_energy_EV_PER_ANG2": null,
  "weighted_surface_energy": null,
  "weighted_work_function": null,
  "surface_anisotropy": null,
  "shape_factor": null,
  "has_reconstructed": null,
  "possible_species": null,
  "has_props": null,
  "theoretical": null,
  "database_IDs": null,
  "fields_not_requested": [
    "builder_meta",
    "nsites",
    "elements",
    "nelements",
    "composition",
    "composition_reduced",
    "chemsys",
    "symmetry",
    "property_name",
    "deprecated",
    "deprecation_reasons",
    "last_updated",
    "origins",
    "warnings",
    "task_ids",
    "uncorrected_energy_per_atom",
    "equilibrium_reaction_energy_per_atom",
    "decomposes_to",
    "xas",
    "grain_boundaries",
    "cbm",
    "vbm",
    "is_gap_direct",
    "is_metal",
    "es_source_calc_id",
    "bandstructure",
    "dos",
    "dos_energy_up",
    "dos_energy_down",
    "is_magnetic",
    "ordering",
    "total_magnetization_normalized_vol",
    "total_magnetization_normalized_formula_units",
    "num_magnetic_sites",
    "num_unique_magnetic_sites",
    "types_of_magnetic_species",
    "bulk_modulus",
    "shear_modulus",
    "universal_anisotropy",
    "homogeneous_poisson",
    "e_total",
    "e_ionic",
    "e_electronic",
    "n",
    "e_ij_max",
    "weighted_surface_energy_EV_PER_ANG2",
    "weighted_surface_energy",
    "weighted_work_function",
    "surface_anisotropy",
    "shape_factor",
    "has_reconstructed",
    "possible_species",
    "has_props",
    "theoretical",
    "database_IDs"
  ]
}
