{
  "builder_meta": null,
  "nsites": null,
  "elements": null,
  "nelements": null,
  "composition": null,
  "composition_reduced": null,
  "formula_pretty": "Cu3Si",
  "formula_anonymous": "AB3",
  "chemsys": null,
  "volume": 93.06427166091677,
  "density": 7.805335174315106,
  "density_atomic": 11.633033957614597,
  "symmetry": null,
  "property_name": null,
  "material_id": "mp-867317",
  "deprecated": null,
  "deprecation_reasons": null,
  "last_updated": null,
  "origins": null,
  "warnings": null,
  "structure": {
    "@module": "pymatgen.core.structure",
    "@class": "Structure",
    "charge": 0,
    "lattice": {
      "matrix": [
        [5.13505599, 0.00077918, -0.00044133000000000003],
        [-2.56685343, 4.44750598, 0.0004341],
        [-0.00036117, 0.000202, 4.07458359]
      ],
      "pbc": [true, true, true],
      "a": 5.13505606808032,
      "b": 5.135079956697981,
      "c": 4.074583611014143,
      "alpha": 89.9901576303018,
      "beta": 90.01000251055396,
      "gamma": 119.9824614723938,
      "volume": 93.06427166091677
    },
    "properties": {},
    "sites": [
      {
        "species": [{ "element": "Cu", "occu": 1 }],
        "abc": [0.16793441, 0.33589107, 0.25001675],
        "properties": { "magmom": 0.0 },
        "label": "Cu",
        "xyz": [7.915431214824469e-5, 1.4940588969706825, 1.0187858425954541]
      },
      {
        "species": [{ "element": "Cu", "occu": 1 }],
        "abc": [0.66411235, 0.83206662, 0.25002147],
        "properties": { "magmom": -0.0 },
        "label": "Cu",
        "xyz": [1.27437074311065, 3.7011892356062006, 1.0188014862259938]
      },
      {
        "species": [{ "element": "Cu", "occu": 1 }],
        "abc": [0.16791422, 0.8320852200000001, 0.24996044],
        "properties": { "magmom": -0.0 },
        "label": "Cu",
        "xyz": [-1.2736821580042421, 3.7008853192304354, 1.018771809584469]
      },
      {
        "species": [{ "element": "Cu", "occu": 1 }],
        "abc": [0.83206371, 0.66410785, 0.7499844],
        "properties": { "magmom": 0.0 },
        "label": "Cu",
        "xyz": [2.5677553535689484, 2.954423458490301, 3.0557952035365465]
      },
      {
        "species": [{ "element": "Cu", "occu": 1 }],
        "abc": [0.33588918, 0.16793307, 0.74997965],
        "properties": { "magmom": -0.0 },
        "label": "Cu",
        "xyz": [1.2934792988450674, 0.7472965470853309, 3.055779436497821]
      },
      {
        "species": [{ "element": "Cu", "occu": 1 }],
        "abc": [0.83208583, 0.16791397, 0.75003453],
        "properties": { "magmom": -0.0 },
        "label": "Cu",
        "xyz": [3.8415258857250043, 0.7475982373126199, 3.0557840548863857]
      },
      {
        "species": [{ "element": "Si", "occu": 1 }],
        "abc": [0.33334654, 0.66665185, 0.75000062],
        "properties": { "magmom": 0.0 },
        "label": "Si",
        "xyz": [0.00028468146050366635, 2.965349326535341, 3.0560824964814124]
      },
      {
        "species": [{ "element": "Si", "occu": 1 }],
        "abc": [0.66665176, 0.33334635, 0.24999915],
        "properties": { "magmom": 0.0 },
        "label": "Si",
        "xyz": [2.567552599363556, 1.4831298265828297, 1.0184929263332425]
      }
    ]
  },
  "task_ids": null,
  "uncorrected_energy_per_atom": null,
  "energy_per_atom": -10.37476500125,
  "formation_energy_per_atom": -0.046226852500000006,
  "energy_above_hull": 0.026808796999999003,
  "is_stable": false,
  "equilibrium_reaction_energy_per_atom": null,
  "decomposes_to": null,
  "xas": null,
  "grain_boundaries": null,
  "band_gap": 0.0,
  "cbm": null,
  "vbm": null,
  "efermi": 8.90452371,
  "is_gap_direct": null,
  "is_metal": null,
  "es_source_calc_id": null,
  "bandstructure": null,
  "dos": null,
  "dos_energy_up": null,
  "dos_energy_down": null,
  "is_magnetic": null,
  "ordering": null,
  "total_magnetization": 0.0,
  "total_magnetization_normalized_vol": null,
  "total_magnetization_normalized_formula_units": null,
  "num_magnetic_sites": null,
  "num_unique_magnetic_sites": null,
  "types_of_magnetic_species": null,
  "bulk_modulus": null,
  "shear_modulus": null,
  "universal_anisotropy": null,
  "homogeneous_poisson": null,
  "e_total": null,
  "e_ionic": null,
  "e_electronic": null,
  "n": null,
  "e_ij_max": null,
  "weighted_surface_energy_EV_PER_ANG2": null,
  "weighted_surface_energy": null,
  "weighted_work_function": null,
  "surface_anisotropy": null,
  "shape_factor": null,
  "has_reconstructed": null,
  "possible_species": null,
  "has_props": null,
  "theoretical": null,
  "database_IDs": null,
  "fields_not_requested": [
    "builder_meta",
    "nsites",
    "elements",
    "nelements",
    "composition",
    "composition_reduced",
    "chemsys",
    "symmetry",
    "property_name",
    "deprecated",
    "deprecation_reasons",
    "last_updated",
    "origins",
    "warnings",
    "task_ids",
    "uncorrected_energy_per_atom",
    "equilibrium_reaction_energy_per_atom",
    "decomposes_to",
    "xas",
    "grain_boundaries",
    "cbm",
    "vbm",
    "is_gap_direct",
    "is_metal",
    "es_source_calc_id",
    "bandstructure",
    "dos",
    "dos_energy_up",
    "dos_energy_down",
    "is_magnetic",
    "ordering",
    "total_magnetization_normalized_vol",
    "total_magnetization_normalized_formula_units",
    "num_magnetic_sites",
    "num_unique_magnetic_sites",
    "types_of_magnetic_species",
    "bulk_modulus",
    "shear_modulus",
    "universal_anisotropy",
    "homogeneous_poisson",
    "e_total",
    "e_ionic",
    "e_electronic",
    "n",
    "e_ij_max",
    "weighted_surface_energy_EV_PER_ANG2",
    "weighted_surface_energy",
    "weighted_work_function",
    "surface_anisotropy",
    "shape_factor",
    "has_reconstructed",
    "possible_species",
    "has_props",
    "theoretical",
    "database_IDs"
  ]
}
