{
  "builder_meta": null,
  "nsites": null,
  "elements": null,
  "nelements": null,
  "composition": null,
  "composition_reduced": null,
  "formula_pretty": "Cu4Au",
  "formula_anonymous": "AB4",
  "chemsys": null,
  "volume": 66.75093780063357,
  "density": 11.223110407539595,
  "density_atomic": 13.350187560126713,
  "symmetry": null,
  "property_name": null,
  "material_id": "mp-1225761",
  "deprecated": null,
  "deprecation_reasons": null,
  "last_updated": null,
  "origins": null,
  "warnings": null,
  "structure": {
    "@module": "pymatgen.core.structure",
    "@class": "Structure",
    "charge": 0,
    "lattice": {
      "matrix": [
        [10.532923, -1.354438, 0.0],
        [10.532923, 1.354438, 0.0],
        [10.358755, 0.0, 2.33948]
      ],
      "pbc": [true, true, true],
      "a": 10.619650145827451,
      "b": 10.619650145827451,
      "c": 10.619650268272729,
      "alpha": 14.655001943076721,
      "beta": 14.655001943076721,
      "gamma": 14.655007776112159,
      "volume": 66.75093780063357
    },
    "properties": {},
    "sites": [
      {
        "species": [{ "element": "Cu", "occu": 1 }],
        "abc": [0.594241999999999, 0.594241999999999, 0.594241999999999],
        "properties": { "magmom": 0.0 },
        "label": "Cu",
        "xyz": [18.67381774744197, 0.0, 1.3902172741599979]
      },
      {
        "species": [{ "element": "Cu", "occu": 1 }],
        "abc": [0.197957, 0.197957, 0.197957],
        "properties": { "magmom": 0.0 },
        "label": "Cu",
        "xyz": [6.220719740157, 0.0, 0.46311644236]
      },
      {
        "species": [{ "element": "Cu", "occu": 1 }],
        "abc": [0.802043, 0.802043, 0.802043],
        "properties": { "magmom": 0.0 },
        "label": "Cu",
        "xyz": [25.203881259842998, 0.0, 1.87636355764]
      },
      {
        "species": [{ "element": "Cu", "occu": 1 }],
        "abc": [0.405758, 0.405758, 0.405758],
        "properties": { "magmom": 0.0 },
        "label": "Cu",
        "xyz": [12.750783252558001, 0.0, 0.94926272584]
      },
      {
        "species": [{ "element": "Au", "occu": 1 }],
        "abc": [0.0, 0.0, 0.0],
        "properties": { "magmom": -0.0 },
        "label": "Au",
        "xyz": [0.0, 0.0, 0.0]
      }
    ]
  },
  "task_ids": null,
  "uncorrected_energy_per_atom": null,
  "energy_per_atom": -3.869343792,
  "formation_energy_per_atom": 0.06479794400000001,
  "energy_above_hull": 0.094049346,
  "is_stable": false,
  "equilibrium_reaction_energy_per_atom": null,
  "decomposes_to": null,
  "xas": null,
  "grain_boundaries": null,
  "band_gap": 0.0,
  "cbm": null,
  "vbm": null,
  "efermi": 6.11079401,
  "is_gap_direct": null,
  "is_metal": null,
  "es_source_calc_id": null,
  "bandstructure": null,
  "dos": null,
  "dos_energy_up": null,
  "dos_energy_down": null,
  "is_magnetic": null,
  "ordering": null,
  "total_magnetization": 0.004007,
  "total_magnetization_normalized_vol": null,
  "total_magnetization_normalized_formula_units": null,
  "num_magnetic_sites": null,
  "num_unique_magnetic_sites": null,
  "types_of_magnetic_species": null,
  "bulk_modulus": null,
  "shear_modulus": null,
  "universal_anisotropy": null,
  "homogeneous_poisson": null,
  "e_total": null,
  "e_ionic": null,
  "e_electronic": null,
  "n": null,
  "e_ij_max": null,
  "weighted_surface_energy_EV_PER_ANG2": null,
  "weighted_surface_energy": null,
  "weighted_work_function": null,
  "surface_anisotropy": null,
  "shape_factor": null,
  "has_reconstructed": null,
  "possible_species": null,
  "has_props": null,
  "theoretical": null,
  "database_IDs": null,
  "fields_not_requested": [
    "builder_meta",
    "nsites",
    "elements",
    "nelements",
    "composition",
    "composition_reduced",
    "chemsys",
    "symmetry",
    "property_name",
    "deprecated",
    "deprecation_reasons",
    "last_updated",
    "origins",
    "warnings",
    "task_ids",
    "uncorrected_energy_per_atom",
    "equilibrium_reaction_energy_per_atom",
    "decomposes_to",
    "xas",
    "grain_boundaries",
    "cbm",
    "vbm",
    "is_gap_direct",
    "is_metal",
    "es_source_calc_id",
    "bandstructure",
    "dos",
    "dos_energy_up",
    "dos_energy_down",
    "is_magnetic",
    "ordering",
    "total_magnetization_normalized_vol",
    "total_magnetization_normalized_formula_units",
    "num_magnetic_sites",
    "num_unique_magnetic_sites",
    "types_of_magnetic_species",
    "bulk_modulus",
    "shear_modulus",
    "universal_anisotropy",
    "homogeneous_poisson",
    "e_total",
    "e_ionic",
    "e_electronic",
    "n",
    "e_ij_max",
    "weighted_surface_energy_EV_PER_ANG2",
    "weighted_surface_energy",
    "weighted_work_function",
    "surface_anisotropy",
    "shape_factor",
    "has_reconstructed",
    "possible_species",
    "has_props",
    "theoretical",
    "database_IDs"
  ]
}
