{
  "builder_meta": null,
  "nsites": null,
  "elements": null,
  "nelements": null,
  "composition": null,
  "composition_reduced": null,
  "formula_pretty": "Cu4As",
  "formula_anonymous": "AB4",
  "chemsys": null,
  "volume": 261.6785605362801,
  "density": 8.35364891517072,
  "density_atomic": 13.083928026814004,
  "symmetry": null,
  "property_name": null,
  "material_id": "mp-1246292",
  "deprecated": null,
  "deprecation_reasons": null,
  "last_updated": null,
  "origins": null,
  "warnings": null,
  "structure": {
    "@module": "pymatgen.core.structure",
    "@class": "Structure",
    "charge": 0,
    "lattice": {
      "matrix": [
        [6.39621, 0.0, 0.0],
        [0.0, 6.39621, 0.0],
        [0.0, 0.0, 6.39621]
      ],
      "pbc": [true, true, true],
      "a": 6.39621,
      "b": 6.39621,
      "c": 6.39621,
      "alpha": 90.0,
      "beta": 90.0,
      "gamma": 90.0,
      "volume": 261.6785605362801
    },
    "properties": {},
    "sites": [
      {
        "species": [{ "element": "Cu", "occu": 1 }],
        "abc": [0.810053999999999, 0.310054, 0.189946],
        "properties": { "magmom": 0.0 },
        "label": "Cu",
        "xyz": [5.181275495339994, 1.98317049534, 1.21493450466]
      },
      {
        "species": [{ "element": "Cu", "occu": 1 }],
        "abc": [0.310054, 0.189946, 0.810053999999999],
        "properties": { "magmom": 0.0 },
        "label": "Cu",
        "xyz": [1.98317049534, 1.21493450466, 5.181275495339994]
      },
      {
        "species": [{ "element": "Cu", "occu": 1 }],
        "abc": [0.189946, 0.810053999999999, 0.310054],
        "properties": { "magmom": 0.0 },
        "label": "Cu",
        "xyz": [1.21493450466, 5.181275495339994, 1.98317049534]
      },
      {
        "species": [{ "element": "Cu", "occu": 1 }],
        "abc": [0.689946, 0.689946, 0.689946],
        "properties": { "magmom": 0.0 },
        "label": "Cu",
        "xyz": [4.4130395046599995, 4.4130395046599995, 4.4130395046599995]
      },
      {
        "species": [{ "element": "Cu", "occu": 1 }],
        "abc": [0.043785, 0.879949, 0.703198],
        "properties": { "magmom": -0.0 },
        "label": "Cu",
        "xyz": [0.28005805484999996, 5.62833859329, 4.49780207958]
      },
      {
        "species": [{ "element": "Cu", "occu": 1 }],
        "abc": [0.296802, 0.543785, 0.620051],
        "properties": { "magmom": -0.0 },
        "label": "Cu",
        "xyz": [1.89840792042, 3.4781630548499995, 3.9659764067100003]
      },
      {
        "species": [{ "element": "Cu", "occu": 1 }],
        "abc": [0.379949, 0.796802, 0.956214999999999],
        "properties": { "magmom": -0.0 },
        "label": "Cu",
        "xyz": [2.4302335932899997, 5.09651292042, 6.116151945149994]
      },
      {
        "species": [{ "element": "Cu", "occu": 1 }],
        "abc": [0.543785, 0.620051, 0.296802],
        "properties": { "magmom": -0.0 },
        "label": "Cu",
        "xyz": [3.4781630548499995, 3.9659764067100003, 1.89840792042]
      },
      {
        "species": [{ "element": "Cu", "occu": 1 }],
        "abc": [0.796802, 0.956214999999999, 0.379949],
        "properties": { "magmom": -0.0 },
        "label": "Cu",
        "xyz": [5.09651292042, 6.116151945149994, 2.4302335932899997]
      },
      {
        "species": [{ "element": "Cu", "occu": 1 }],
        "abc": [0.879949, 0.703198, 0.043785],
        "properties": { "magmom": -0.0 },
        "label": "Cu",
        "xyz": [5.62833859329, 4.49780207958, 0.28005805484999996]
      },
      {
        "species": [{ "element": "Cu", "occu": 1 }],
        "abc": [0.956214999999999, 0.379949, 0.796802],
        "properties": { "magmom": -0.0 },
        "label": "Cu",
        "xyz": [6.116151945149994, 2.4302335932899997, 5.09651292042]
      },
      {
        "species": [{ "element": "Cu", "occu": 1 }],
        "abc": [0.703198, 0.043785, 0.879949],
        "properties": { "magmom": -0.0 },
        "label": "Cu",
        "xyz": [4.49780207958, 0.28005805484999996, 5.62833859329]
      },
      {
        "species": [{ "element": "Cu", "occu": 1 }],
        "abc": [0.620051, 0.296802, 0.543785],
        "properties": { "magmom": -0.0 },
        "label": "Cu",
        "xyz": [3.9659764067100003, 1.89840792042, 3.4781630548499995]
      },
      {
        "species": [{ "element": "Cu", "occu": 1 }],
        "abc": [0.456215, 0.120050999999999, 0.203198],
        "properties": { "magmom": -0.0 },
        "label": "Cu",
        "xyz": [2.91804694515, 0.7678714067099937, 1.29969707958]
      },
      {
        "species": [{ "element": "Cu", "occu": 1 }],
        "abc": [0.203198, 0.456215, 0.120050999999999],
        "properties": { "magmom": -0.0 },
        "label": "Cu",
        "xyz": [1.29969707958, 2.91804694515, 0.7678714067099937]
      },
      {
        "species": [{ "element": "Cu", "occu": 1 }],
        "abc": [0.120050999999999, 0.203198, 0.456215],
        "properties": { "magmom": -0.0 },
        "label": "Cu",
        "xyz": [0.7678714067099937, 1.29969707958, 2.91804694515]
      },
      {
        "species": [{ "element": "As", "occu": 1 }],
        "abc": [0.43988000000000005, 0.93988, 0.5601200000000001],
        "properties": { "magmom": 0.0 },
        "label": "As",
        "xyz": [2.8135648548, 6.0116698548, 3.5826451452000003]
      },
      {
        "species": [{ "element": "As", "occu": 1 }],
        "abc": [0.93988, 0.5601200000000001, 0.43988000000000005],
        "properties": { "magmom": 0.0 },
        "label": "As",
        "xyz": [6.0116698548, 3.5826451452000003, 2.8135648548]
      },
      {
        "species": [{ "element": "As", "occu": 1 }],
        "abc": [0.5601200000000001, 0.43988000000000005, 0.93988],
        "properties": { "magmom": 0.0 },
        "label": "As",
        "xyz": [3.5826451452000003, 2.8135648548, 6.0116698548]
      },
      {
        "species": [{ "element": "As", "occu": 1 }],
        "abc": [0.06012000000000001, 0.06012000000000001, 0.06012000000000001],
        "properties": { "magmom": 0.0 },
        "label": "As",
        "xyz": [0.3845401452, 0.3845401452, 0.3845401452]
      }
    ]
  },
  "task_ids": null,
  "uncorrected_energy_per_atom": null,
  "energy_per_atom": -11.525513225500001,
  "formation_energy_per_atom": 0.09342977199999801,
  "energy_above_hull": 0.09342977200000001,
  "is_stable": false,
  "equilibrium_reaction_energy_per_atom": null,
  "decomposes_to": null,
  "xas": null,
  "grain_boundaries": null,
  "band_gap": 0.0,
  "cbm": null,
  "vbm": null,
  "efermi": 7.41865851,
  "is_gap_direct": null,
  "is_metal": null,
  "es_source_calc_id": null,
  "bandstructure": null,
  "dos": null,
  "dos_energy_up": null,
  "dos_energy_down": null,
  "is_magnetic": null,
  "ordering": null,
  "total_magnetization": 0.0035431,
  "total_magnetization_normalized_vol": null,
  "total_magnetization_normalized_formula_units": null,
  "num_magnetic_sites": null,
  "num_unique_magnetic_sites": null,
  "types_of_magnetic_species": null,
  "bulk_modulus": null,
  "shear_modulus": null,
  "universal_anisotropy": null,
  "homogeneous_poisson": null,
  "e_total": null,
  "e_ionic": null,
  "e_electronic": null,
  "n": null,
  "e_ij_max": null,
  "weighted_surface_energy_EV_PER_ANG2": null,
  "weighted_surface_energy": null,
  "weighted_work_function": null,
  "surface_anisotropy": null,
  "shape_factor": null,
  "has_reconstructed": null,
  "possible_species": null,
  "has_props": null,
  "theoretical": null,
  "database_IDs": null,
  "fields_not_requested": [
    "builder_meta",
    "nsites",
    "elements",
    "nelements",
    "composition",
    "composition_reduced",
    "chemsys",
    "symmetry",
    "property_name",
    "deprecated",
    "deprecation_reasons",
    "last_updated",
    "origins",
    "warnings",
    "task_ids",
    "uncorrected_energy_per_atom",
    "equilibrium_reaction_energy_per_atom",
    "decomposes_to",
    "xas",
    "grain_boundaries",
    "cbm",
    "vbm",
    "is_gap_direct",
    "is_metal",
    "es_source_calc_id",
    "bandstructure",
    "dos",
    "dos_energy_up",
    "dos_energy_down",
    "is_magnetic",
    "ordering",
    "total_magnetization_normalized_vol",
    "total_magnetization_normalized_formula_units",
    "num_magnetic_sites",
    "num_unique_magnetic_sites",
    "types_of_magnetic_species",
    "bulk_modulus",
    "shear_modulus",
    "universal_anisotropy",
    "homogeneous_poisson",
    "e_total",
    "e_ionic",
    "e_electronic",
    "n",
    "e_ij_max",
    "weighted_surface_energy_EV_PER_ANG2",
    "weighted_surface_energy",
    "weighted_work_function",
    "surface_anisotropy",
    "shape_factor",
    "has_reconstructed",
    "possible_species",
    "has_props",
    "theoretical",
    "database_IDs"
  ]
}
