{"builder_meta": null, "nsites": null, "elements": null, "nelements": null, "composition": null, "composition_reduced": null, "formula_pretty": "Cu4O3", "formula_anonymous": "A3B4", "chemsys": null, "volume": 165.84962311746816, "density": 6.051088195427846, "density_atomic": 11.846401651247726, "symmetry": null, "property_name": null, "material_id": "mp-1478", "deprecated": null, "deprecation_reasons": null, "last_updated": null, "origins": null, "warnings": null, "structure": {"@module": "pymatgen.core.structure", "@class": "Structure", "charge": 0, "lattice": {"matrix": [[5.16475629, -0.00127414, -2.618460299999999], [-1.32825339, 4.99101745, -2.61845736], [0.00884682, 0.01151242, 6.42226086]], "pbc": [true, true, true], "a": 5.79059958045826, "b": 5.790581248923908, "c": 6.4222772718036945, "alpha": 116.80543811261684, "beta": 116.80543234590037, "gamma": 90.01732266559294, "volume": 165.84962311746813}, "properties": {}, "sites": [{"species": [{"element": "Cu", "occu": 1}], "abc": [0.5, 0.5, 0.5], "properties": {"magmom": 0.626}, "label": "Cu", "xyz": [1.9226748599999999, 2.5006278650000002, 0.5926716000000005]}, {"species": [{"element": "Cu", "occu": 1}], "abc": [0.5, -0.0, 0.0], "properties": {"magmom": 0.626}, "label": "Cu", "xyz": [2.582378145, -0.00063707, -1.3092301499999994]}, {"species": [{"element": "Cu", "occu": 1}], "abc": [-0.0, 0.5, 0.5], "properties": {"magmom": 0.626}, "label": "Cu", "xyz": [-0.659703285, 2.501264935, 1.90190175]}, {"species": [{"element": "Cu", "occu": 1}], "abc": [0.5, 0.5, 0.0], "properties": {"magmom": 0.626}, "label": "Cu", "xyz": [1.9182514499999999, 2.4948716550000003, -2.6184588299999993]}, {"species": [{"element": "Cu", "occu": 1}], "abc": [-0.0, 0.5, 0.0], "properties": {"magmom": 0.049}, "label": "Cu", "xyz": [-0.664126695, 2.495508725, -1.30922868]}, {"species": [{"element": "Cu", "occu": 1}], "abc": [-0.0, -0.0, 0.5], "properties": {"magmom": 0.049}, "label": "Cu", "xyz": [0.00442341, 0.00575621, 3.21113043]}, {"species": [{"element": "Cu", "occu": 1}], "abc": [0.5, -0.0, 0.5], "properties": {"magmom": 0.049}, "label": "Cu", "xyz": [2.5868015549999996, 0.00511914, 1.9019002800000004]}, {"species": [{"element": "Cu", "occu": 1}], "abc": [-0.0, -0.0, 0.0], "properties": {"magmom": 0.049}, "label": "Cu", "xyz": [0.0, 0.0, 0.0]}, {"species": [{"element": "O", "occu": 1}], "abc": [0.62499592, 0.37500478, 0.25000041], "properties": {"magmom": 0.28600000000000003}, "label": "O", "xyz": [2.7320619473703287, 1.8737371782319945, -1.0128931822812033]}, {"species": [{"element": "O", "occu": 1}], "abc": [0.37500408, 0.62499522, 0.74999959], "properties": {"magmom": 0.28600000000000003}, "label": "O", "xyz": [1.1132877726296713, 3.1275185517680053, 2.1982363822812045]}, {"species": [{"element": "O", "occu": 1}], "abc": [0.63657949, 0.88658401, 0.27313582000000003], "properties": {"magmom": 0.168}, "label": "O", "xyz": [2.1125860916952903, 4.427289627686471, -2.2341910623520542]}, {"species": [{"element": "O", "occu": 1}], "abc": [0.8865833200000001, 0.63657843, 0.77313456], "properties": {"magmom": 0.168}, "label": "O", "xyz": [3.740289103218804, 3.184945070923494, 0.9769351228883818]}, {"species": [{"element": "O", "occu": 1}], "abc": [0.36342051000000003, 0.11341599000000001, 0.72686418], "properties": {"magmom": 0.168}, "label": "O", "xyz": [1.7327636283047094, 0.5739661023135298, 3.4195342623520553]}, {"species": [{"element": "O", "occu": 1}], "abc": [0.11341668, 0.36342157, 0.22686544], "properties": {"magmom": 0.168}, "label": "O", "xyz": [0.10506061678119566, 1.8163106590765066, 0.20840807711161924]}]}, "task_ids": null, "uncorrected_energy_per_atom": null, "energy_per_atom": -5.270399153571427, "formation_energy_per_atom": -0.8074406257142841, "energy_above_hull": 0.007515957857144001, "is_stable": false, "equilibrium_reaction_energy_per_atom": null, "decomposes_to": null, "xas": null, "grain_boundaries": null, "band_gap": 0.0, "cbm": null, "vbm": null, "efermi": 4.00000232, "is_gap_direct": null, "is_metal": null, "es_source_calc_id": null, "bandstructure": null, "dos": null, "dos_energy_up": null, "dos_energy_down": null, "is_magnetic": null, "ordering": null, "total_magnetization": 3.95472, "total_magnetization_normalized_vol": null, "total_magnetization_normalized_formula_units": null, "num_magnetic_sites": null, "num_unique_magnetic_sites": null, "types_of_magnetic_species": null, "bulk_modulus": null, "shear_modulus": null, "universal_anisotropy": null, "homogeneous_poisson": null, "e_total": null, "e_ionic": null, "e_electronic": null, "n": null, "e_ij_max": null, "weighted_surface_energy_EV_PER_ANG2": null, "weighted_surface_energy": null, "weighted_work_function": null, "surface_anisotropy": null, "shape_factor": null, "has_reconstructed": null, "possible_species": null, "has_props": null, "theoretical": null, "database_IDs": null, "fields_not_requested": ["builder_meta", "nsites", "elements", "nelements", "composition", "composition_reduced", "chemsys", "symmetry", "property_name", "deprecated", "deprecation_reasons", "last_updated", "origins", "warnings", "task_ids", "uncorrected_energy_per_atom", "equilibrium_reaction_energy_per_atom", "decomposes_to", "xas", "grain_boundaries", "cbm", "vbm", "is_gap_direct", "is_metal", "es_source_calc_id", "bandstructure", "dos", "dos_energy_up", "dos_energy_down", "is_magnetic", "ordering", "total_magnetization_normalized_vol", "total_magnetization_normalized_formula_units", "num_magnetic_sites", "num_unique_magnetic_sites", "types_of_magnetic_species", "bulk_modulus", "shear_modulus", "universal_anisotropy", "homogeneous_poisson", "e_total", "e_ionic", "e_electronic", "n", "e_ij_max", "weighted_surface_energy_EV_PER_ANG2", "weighted_surface_energy", "weighted_work_function", "surface_anisotropy", "shape_factor", "has_reconstructed", "possible_species", "has_props", "theoretical", "database_IDs"]}