{
  "builder_meta": null,
  "nsites": null,
  "elements": null,
  "nelements": null,
  "composition": null,
  "composition_reduced": null,
  "formula_pretty": "Cu4Pd",
  "formula_anonymous": "AB4",
  "chemsys": null,
  "volume": 244.415824778757,
  "density": 9.799644194302918,
  "density_atomic": 12.220791238937851,
  "symmetry": null,
  "property_name": null,
  "material_id": "mp-30594",
  "deprecated": null,
  "deprecation_reasons": null,
  "last_updated": null,
  "origins": null,
  "warnings": null,
  "structure": {
    "@module": "pymatgen.core.structure",
    "@class": "Structure",
    "charge": 0,
    "lattice": {
      "matrix": [
        [5.8299169200000005, -8.119999999999997e-6, 0.0],
        [8.119999999999997e-6, 5.8299169200000005, 0.0],
        [0.0, 0.0, 7.19125335]
      ],
      "pbc": [true, true, true],
      "a": 5.829916920005655,
      "b": 5.829916920005655,
      "c": 7.19125335,
      "alpha": 90.0,
      "beta": 90.0,
      "gamma": 90.0,
      "volume": 244.41582477875704
    },
    "properties": {},
    "sites": [
      {
        "species": [{ "element": "Cu", "occu": 1 }],
        "abc": [0.0, -0.0, 0.0],
        "properties": { "magmom": 0.0 },
        "label": "Cu",
        "xyz": [0.0, 0.0, 0.0]
      },
      {
        "species": [{ "element": "Cu", "occu": 1 }],
        "abc": [0.0, -0.0, 0.5],
        "properties": { "magmom": 0.0 },
        "label": "Cu",
        "xyz": [0.0, 0.0, 3.595626675]
      },
      {
        "species": [{ "element": "Cu", "occu": 1 }],
        "abc": [0.5, 0.5, 0.25],
        "properties": { "magmom": 0.0 },
        "label": "Cu",
        "xyz": [2.9149625200000004, 2.9149544, 1.7978133375]
      },
      {
        "species": [{ "element": "Cu", "occu": 1 }],
        "abc": [0.5, 0.5, 0.75],
        "properties": { "magmom": 0.0 },
        "label": "Cu",
        "xyz": [2.9149625200000004, 2.9149544, 5.3934400125]
      },
      {
        "species": [{ "element": "Cu", "occu": 1 }],
        "abc": [0.19239792, 0.60473475, 0.0],
        "properties": { "magmom": -0.0 },
        "label": "Cu",
        "xyz": [1.1216687996269763, 3.52555178886586, 0.0]
      },
      {
        "species": [{ "element": "Cu", "occu": 1 }],
        "abc": [0.39526525, 0.19239792, 0.5],
        "properties": { "magmom": -0.0 },
        "label": "Cu",
        "xyz": [2.3043651311341407, 1.1216606796269764, 3.595626675]
      },
      {
        "species": [{ "element": "Cu", "occu": 1 }],
        "abc": [0.60473475, 0.80760208, 0.5],
        "properties": { "magmom": -0.0 },
        "label": "Cu",
        "xyz": [3.52555990886586, 4.708248120373025, 3.595626675]
      },
      {
        "species": [{ "element": "Cu", "occu": 1 }],
        "abc": [0.80760208, 0.39526525, 0.0],
        "properties": { "magmom": -0.0 },
        "label": "Cu",
        "xyz": [4.708256240373024, 2.3043570111341407, 0.0]
      },
      {
        "species": [{ "element": "Cu", "occu": 1 }],
        "abc": [0.09584427, 0.29635118, 0.24938685],
        "properties": { "magmom": 0.0 },
        "label": "Cu",
        "xyz": [0.5587665377296299, 1.7277019802884934, 1.7934040205084476]
      },
      {
        "species": [{ "element": "Cu", "occu": 1 }],
        "abc": [0.7036488200000001, 0.09584427, 0.74938685],
        "properties": { "magmom": 0.0 },
        "label": "Cu",
        "xyz": [4.102214939711508, 0.55875841772963, 5.389030695508448]
      },
      {
        "species": [{ "element": "Cu", "occu": 1 }],
        "abc": [0.29635118, 0.90415573, 0.74938685],
        "properties": { "magmom": 0.0 },
        "label": "Cu",
        "xyz": [1.7277101002884934, 5.2711503822703705, 5.389030695508448]
      },
      {
        "species": [{ "element": "Cu", "occu": 1 }],
        "abc": [0.90415573, 0.7036488200000001, 0.24938685],
        "properties": { "magmom": 0.0 },
        "label": "Cu",
        "xyz": [5.271158502270371, 4.102206819711507, 1.7934040205084476]
      },
      {
        "species": [{ "element": "Cu", "occu": 1 }],
        "abc": [0.90415573, 0.7036488200000001, 0.7506131500000001],
        "properties": { "magmom": 0.0 },
        "label": "Cu",
        "xyz": [5.271158502270371, 4.102206819711507, 5.397849329491553]
      },
      {
        "species": [{ "element": "Cu", "occu": 1 }],
        "abc": [0.29635118, 0.90415573, 0.25061315],
        "properties": { "magmom": 0.0 },
        "label": "Cu",
        "xyz": [1.7277101002884934, 5.2711503822703705, 1.8022226544915525]
      },
      {
        "species": [{ "element": "Cu", "occu": 1 }],
        "abc": [0.7036488200000001, 0.09584427, 0.25061315],
        "properties": { "magmom": 0.0 },
        "label": "Cu",
        "xyz": [4.102214939711508, 0.55875841772963, 1.8022226544915525]
      },
      {
        "species": [{ "element": "Cu", "occu": 1 }],
        "abc": [0.09584427, 0.29635118, 0.7506131500000001],
        "properties": { "magmom": 0.0 },
        "label": "Cu",
        "xyz": [0.5587665377296299, 1.7277019802884934, 5.397849329491553]
      },
      {
        "species": [{ "element": "Pd", "occu": 1 }],
        "abc": [0.39714149, 0.20808108, 0.0],
        "properties": { "magmom": -0.0 },
        "label": "Pd",
        "xyz": [2.3153035818033807, 1.213092184234975, 0.0]
      },
      {
        "species": [{ "element": "Pd", "occu": 1 }],
        "abc": [0.79191892, 0.39714149, 0.5],
        "properties": { "magmom": -0.0 },
        "label": "Pd",
        "xyz": [4.616824735765026, 2.3152954618033807, 3.595626675]
      },
      {
        "species": [{ "element": "Pd", "occu": 1 }],
        "abc": [0.20808108, 0.60285851, 0.5],
        "properties": { "magmom": -0.0 },
        "label": "Pd",
        "xyz": [1.2131003042349748, 3.51461333819662, 3.595626675]
      },
      {
        "species": [{ "element": "Pd", "occu": 1 }],
        "abc": [0.60285851, 0.79191892, 0.0],
        "properties": { "magmom": -0.0 },
        "label": "Pd",
        "xyz": [3.5146214581966198, 4.616816615765026, 0.0]
      }
    ]
  },
  "task_ids": null,
  "uncorrected_energy_per_atom": null,
  "energy_per_atom": -13.3332607445,
  "formation_energy_per_atom": -0.063733222500002,
  "energy_above_hull": 0.015894708357143,
  "is_stable": false,
  "equilibrium_reaction_energy_per_atom": null,
  "decomposes_to": null,
  "xas": null,
  "grain_boundaries": null,
  "band_gap": 0.0,
  "cbm": null,
  "vbm": null,
  "efermi": 6.02202724,
  "is_gap_direct": null,
  "is_metal": null,
  "es_source_calc_id": null,
  "bandstructure": null,
  "dos": null,
  "dos_energy_up": null,
  "dos_energy_down": null,
  "is_magnetic": null,
  "ordering": null,
  "total_magnetization": 0.0,
  "total_magnetization_normalized_vol": null,
  "total_magnetization_normalized_formula_units": null,
  "num_magnetic_sites": null,
  "num_unique_magnetic_sites": null,
  "types_of_magnetic_species": null,
  "bulk_modulus": null,
  "shear_modulus": null,
  "universal_anisotropy": null,
  "homogeneous_poisson": null,
  "e_total": null,
  "e_ionic": null,
  "e_electronic": null,
  "n": null,
  "e_ij_max": null,
  "weighted_surface_energy_EV_PER_ANG2": null,
  "weighted_surface_energy": null,
  "weighted_work_function": null,
  "surface_anisotropy": null,
  "shape_factor": null,
  "has_reconstructed": null,
  "possible_species": null,
  "has_props": null,
  "theoretical": null,
  "database_IDs": null,
  "fields_not_requested": [
    "builder_meta",
    "nsites",
    "elements",
    "nelements",
    "composition",
    "composition_reduced",
    "chemsys",
    "symmetry",
    "property_name",
    "deprecated",
    "deprecation_reasons",
    "last_updated",
    "origins",
    "warnings",
    "task_ids",
    "uncorrected_energy_per_atom",
    "equilibrium_reaction_energy_per_atom",
    "decomposes_to",
    "xas",
    "grain_boundaries",
    "cbm",
    "vbm",
    "is_gap_direct",
    "is_metal",
    "es_source_calc_id",
    "bandstructure",
    "dos",
    "dos_energy_up",
    "dos_energy_down",
    "is_magnetic",
    "ordering",
    "total_magnetization_normalized_vol",
    "total_magnetization_normalized_formula_units",
    "num_magnetic_sites",
    "num_unique_magnetic_sites",
    "types_of_magnetic_species",
    "bulk_modulus",
    "shear_modulus",
    "universal_anisotropy",
    "homogeneous_poisson",
    "e_total",
    "e_ionic",
    "e_electronic",
    "n",
    "e_ij_max",
    "weighted_surface_energy_EV_PER_ANG2",
    "weighted_surface_energy",
    "weighted_work_function",
    "surface_anisotropy",
    "shape_factor",
    "has_reconstructed",
    "possible_species",
    "has_props",
    "theoretical",
    "database_IDs"
  ]
}
