{"builder_meta": null, "nsites": null, "elements": null, "nelements": null, "composition": null, "composition_reduced": null, "formula_pretty": "Cu4Se3", "formula_anonymous": "A3B4", "chemsys": null, "volume": 118.87121006798851, "density": 6.8597851046899905, "density_atomic": 16.981601438284073, "symmetry": null, "property_name": null, "material_id": "mp-1225796", "deprecated": null, "deprecation_reasons": null, "last_updated": null, "origins": null, "warnings": null, "structure": {"@module": "pymatgen.core.structure", "@class": "Structure", "charge": 0, "lattice": {"matrix": [[-1.887894, -3.269929, 0.0], [1.887894, -3.269929, 0.0], [0.0, 2.179952, 9.627882]], "pbc": [true, true, true], "a": 3.7757885825714608, "b": 3.7757885825714608, "c": 9.871590678721844, "alpha": 101.0254590485444, "beta": 101.0254590485444, "gamma": 59.99998979216772, "volume": 118.87121006798851}, "properties": {}, "sites": [{"species": [{"element": "Cu", "occu": 1}], "abc": [0.36877000000000004, 0.36877000000000004, 0.106309], "properties": {"magmom": -0.0}, "label": "Cu", "xyz": [0.0, -2.179954917492, 1.023530507538]}, {"species": [{"element": "Cu", "occu": 1}], "abc": [0.893652, 0.893652, 0.680955], "properties": {"magmom": 0.0}, "label": "Cu", "xyz": [0.0, -4.3599079672559995, 6.556154387309999]}, {"species": [{"element": "Cu", "occu": 1}], "abc": [0.13123, 0.13123, 0.393690999999999], "properties": {"magmom": -0.0}, "label": "Cu", "xyz": [0.0, 1.9174919978492966e-06, 3.7904104924619904]}, {"species": [{"element": "Cu", "occu": 1}], "abc": [0.606348, 0.606348, 0.819044999999999], "properties": {"magmom": 0.0}, "label": "Cu", "xyz": [0.0, -2.179951032744002, 7.88566861268999]}, {"species": [{"element": "Se", "occu": 1}], "abc": [0.981671, 0.981671, 0.945013999999999], "properties": {"magmom": 0.0}, "label": "Se", "xyz": [0.0, -4.359903783390002, 9.09848328034799]}, {"species": [{"element": "Se", "occu": 1}], "abc": [0.518328999999999, 0.518328999999999, 0.554986], "properties": {"magmom": 0.0}, "label": "Se", "xyz": [0.0, -2.1799552166099936, 5.343339719652]}, {"species": [{"element": "Se", "occu": 1}], "abc": [0.75, 0.75, 0.25], "properties": {"magmom": 0.0}, "label": "Se", "xyz": [0.0, -4.3599055, 2.4069705]}]}, "task_ids": null, "uncorrected_energy_per_atom": null, "energy_per_atom": -12.418663249523807, "formation_energy_per_atom": -0.08696829340773601, "energy_above_hull": 0.101588879761907, "is_stable": false, "equilibrium_reaction_energy_per_atom": null, "decomposes_to": null, "xas": null, "grain_boundaries": null, "band_gap": 0.0, "cbm": null, "vbm": null, "efermi": 4.98746208, "is_gap_direct": null, "is_metal": null, "es_source_calc_id": null, "bandstructure": null, "dos": null, "dos_energy_up": null, "dos_energy_down": null, "is_magnetic": null, "ordering": null, "total_magnetization": 0.002374299999999, "total_magnetization_normalized_vol": null, "total_magnetization_normalized_formula_units": null, "num_magnetic_sites": null, "num_unique_magnetic_sites": null, "types_of_magnetic_species": null, "bulk_modulus": null, "shear_modulus": null, "universal_anisotropy": null, "homogeneous_poisson": null, "e_total": null, "e_ionic": null, "e_electronic": null, "n": null, "e_ij_max": null, "weighted_surface_energy_EV_PER_ANG2": null, "weighted_surface_energy": null, "weighted_work_function": null, "surface_anisotropy": null, "shape_factor": null, "has_reconstructed": null, "possible_species": null, "has_props": null, "theoretical": null, "database_IDs": null, "fields_not_requested": ["builder_meta", "nsites", "elements", "nelements", "composition", "composition_reduced", "chemsys", "symmetry", "property_name", "deprecated", "deprecation_reasons", "last_updated", "origins", "warnings", "task_ids", "uncorrected_energy_per_atom", "equilibrium_reaction_energy_per_atom", "decomposes_to", "xas", "grain_boundaries", "cbm", "vbm", "is_gap_direct", "is_metal", "es_source_calc_id", "bandstructure", "dos", "dos_energy_up", "dos_energy_down", "is_magnetic", "ordering", "total_magnetization_normalized_vol", "total_magnetization_normalized_formula_units", "num_magnetic_sites", "num_unique_magnetic_sites", "types_of_magnetic_species", "bulk_modulus", "shear_modulus", "universal_anisotropy", "homogeneous_poisson", "e_total", "e_ionic", "e_electronic", "n", "e_ij_max", "weighted_surface_energy_EV_PER_ANG2", "weighted_surface_energy", "weighted_work_function", "surface_anisotropy", "shape_factor", "has_reconstructed", "possible_species", "has_props", "theoretical", "database_IDs"]}