{"builder_meta": null, "nsites": null, "elements": null, "nelements": null, "composition": null, "composition_reduced": null, "formula_pretty": "Cu5As2", "formula_anonymous": "A2B5", "chemsys": null, "volume": 187.78256819532797, "density": 8.269389140397246, "density_atomic": 13.41304058538057, "symmetry": null, "property_name": null, "material_id": "mp-504746", "deprecated": null, "deprecation_reasons": null, "last_updated": null, "origins": null, "warnings": null, "structure": {"@module": "pymatgen.core.structure", "@class": "Structure", "charge": 0, "lattice": {"matrix": [[5.09639961, 0.00337469, -2.14135115], [-1.05768164, 5.27659504, -2.51298684], [-0.03923889, -0.01809229, 7.00862018]], "pbc": [true, true, true], "a": 5.527991056518369, "b": 5.939381156800671, "c": 7.008753373385963, "alpha": 115.11232004360185, "beta": 113.11144404070397, "gamma": 89.98494727112191, "volume": 187.78256819532797}, "properties": {}, "sites": [{"species": [{"element": "Cu", "occu": 1}], "abc": [0.39472464, 0.70095735, 0.78917868], "properties": {"magmom": 0.0}, "label": "Cu", "xyz": [1.2393182864204715, 3.6857221000165286, 2.924312964525153]}, {"species": [{"element": "Cu", "occu": 1}], "abc": [0.60527536, 0.29904265, 0.21082132], "properties": {"magmom": 0.0}, "label": "Cu", "xyz": [2.760160793579529, 1.5761553399834716, -0.5700307745251523]}, {"species": [{"element": "Cu", "occu": 1}], "abc": [0.10454927, 0.91151973, 0.20909225], "properties": {"magmom": 0.0}, "label": "Cu", "xyz": [-0.43947737186257496, 4.806290349932363, -1.049065622604908]}, {"species": [{"element": "Cu", "occu": 1}], "abc": [0.89545073, 0.08848027, 0.79090775], "properties": {"magmom": 0.0}, "label": "Cu", "xyz": [4.438956451862575, 0.45558709006763703, 3.4033478126049093]}, {"species": [{"element": "Cu", "occu": 1}], "abc": [0.51955518, 0.26951075, 0.53936384], "properties": {"magmom": 0.0}, "label": "Cu", "xyz": [2.341640206280112, 1.4140940973382807, 1.9903692432163047]}, {"species": [{"element": "Cu", "occu": 1}], "abc": [0.9803443700000001, 0.7306176, 0.46065628000000003], "properties": {"magmom": 0.0}, "label": "Cu", "xyz": [4.205390202454103, 3.8501472356306183, -0.7067290579161787]}, {"species": [{"element": "Cu", "occu": 1}], "abc": [0.48044482, 0.73048925, 0.46063616], "properties": {"magmom": 0.0}, "label": "Cu", "xyz": [1.6578388737198875, 3.847783342661719, 0.3639129467836959]}, {"species": [{"element": "Cu", "occu": 1}], "abc": [0.01965563, 0.269382399999999, 0.53934372], "properties": {"magmom": 0.0}, "label": "Cu", "xyz": [-0.20591112245410148, 1.4117302043693767, 3.0610112479161815]}, {"species": [{"element": "Cu", "occu": 1}], "abc": [0.25026568, 0.50010502, 0.00036256], "properties": {"magmom": -0.0}, "label": "Cu", "xyz": [0.7464877897705935, 2.639689677558078, -1.790122990219008]}, {"species": [{"element": "Cu", "occu": 1}], "abc": [0.7497343200000001, 0.49989498, -0.00036256], "properties": {"magmom": -0.0}, "label": "Cu", "xyz": [3.2922301802294065, 2.640280052441922, -2.8642149997809923]}, {"species": [{"element": "As", "occu": 1}], "abc": [0.11649747, 0.34005099, 0.23404368], "properties": {"magmom": -0.0}, "label": "As", "xyz": [0.2248683576724479, 1.7904701238968965, 0.5363176044939004]}, {"species": [{"element": "As", "occu": 1}], "abc": [0.88350253, 0.6599490100000001, 0.76595632], "properties": {"magmom": -0.0}, "label": "As", "xyz": [3.774610722327552, 3.4714073161031034, 1.8179645855061]}, {"species": [{"element": "As", "occu": 1}], "abc": [0.38294185000000003, 0.10618621, 0.76655226], "properties": {"magmom": 0.0}, "label": "As", "xyz": [1.8092348304451027, 0.5477252532460996, 4.285616119260503]}, {"species": [{"element": "As", "occu": 1}], "abc": [0.61705815, 0.89381379, 0.23344774000000001], "properties": {"magmom": 0.0}, "label": "As", "xyz": [2.190244249554897, 4.714152186753901, -1.9313339292605027]}]}, "task_ids": null, "uncorrected_energy_per_atom": null, "energy_per_atom": -11.902722757857143, "formation_energy_per_atom": 0.04714038142857, "energy_above_hull": 0.04714038142857101, "is_stable": false, "equilibrium_reaction_energy_per_atom": null, "decomposes_to": null, "xas": null, "grain_boundaries": null, "band_gap": 0.0, "cbm": null, "vbm": null, "efermi": 7.08591188, "is_gap_direct": null, "is_metal": null, "es_source_calc_id": null, "bandstructure": null, "dos": null, "dos_energy_up": null, "dos_energy_down": null, "is_magnetic": null, "ordering": null, "total_magnetization": 0.0, "total_magnetization_normalized_vol": null, "total_magnetization_normalized_formula_units": null, "num_magnetic_sites": null, "num_unique_magnetic_sites": null, "types_of_magnetic_species": null, "bulk_modulus": null, "shear_modulus": null, "universal_anisotropy": null, "homogeneous_poisson": null, "e_total": null, "e_ionic": null, "e_electronic": null, "n": null, "e_ij_max": null, "weighted_surface_energy_EV_PER_ANG2": null, "weighted_surface_energy": null, "weighted_work_function": null, "surface_anisotropy": null, "shape_factor": null, "has_reconstructed": null, "possible_species": null, "has_props": null, "theoretical": null, "database_IDs": null, "fields_not_requested": ["builder_meta", "nsites", "elements", "nelements", "composition", "composition_reduced", "chemsys", "symmetry", "property_name", "deprecated", "deprecation_reasons", "last_updated", "origins", "warnings", "task_ids", "uncorrected_energy_per_atom", "equilibrium_reaction_energy_per_atom", "decomposes_to", "xas", "grain_boundaries", "cbm", "vbm", "is_gap_direct", "is_metal", "es_source_calc_id", "bandstructure", "dos", "dos_energy_up", "dos_energy_down", "is_magnetic", "ordering", "total_magnetization_normalized_vol", "total_magnetization_normalized_formula_units", "num_magnetic_sites", "num_unique_magnetic_sites", "types_of_magnetic_species", "bulk_modulus", "shear_modulus", "universal_anisotropy", "homogeneous_poisson", "e_total", "e_ionic", "e_electronic", "n", "e_ij_max", "weighted_surface_energy_EV_PER_ANG2", "weighted_surface_energy", "weighted_work_function", "surface_anisotropy", "shape_factor", "has_reconstructed", "possible_species", "has_props", "theoretical", "database_IDs"]}