{"builder_meta": null, "nsites": null, "elements": null, "nelements": null, "composition": null, "composition_reduced": null, "formula_pretty": "Cu5Ge2", "formula_anonymous": "A2B5", "chemsys": null, "volume": 98.53300401047906, "density": 7.802930611398984, "density_atomic": 14.076143430068438, "symmetry": null, "property_name": null, "material_id": "mp-1225722", "deprecated": null, "deprecation_reasons": null, "last_updated": null, "origins": null, "warnings": null, "structure": {"@module": "pymatgen.core.structure", "@class": "Structure", "charge": 0, "lattice": {"matrix": [[6.783842, -2.063763, 0.0], [6.783842, 2.063763, 0.0], [6.15601, 0.0, 3.518975]], "pbc": [true, true, true], "a": 7.09081307052534, "b": 7.09081307052534, "c": 7.090814069676697, "alpha": 33.841352970827195, "beta": 33.841352970827195, "gamma": 33.841350403030525, "volume": 98.53300401047906}, "properties": {}, "sites": [{"species": [{"element": "Cu", "occu": 1}], "abc": [0.377019, 0.377019, 0.377019], "properties": {"magmom": -0.0}, "label": "Cu", "xyz": [7.436207388186, 0.0, 1.326720435525]}, {"species": [{"element": "Cu", "occu": 1}], "abc": [0.873475999999999, 0.873475999999999, 0.873475999999999], "properties": {"magmom": -0.0}, "label": "Cu", "xyz": [17.228173340343982, 0.0, 3.0737402070999966]}, {"species": [{"element": "Cu", "occu": 1}], "abc": [0.622981, 0.622981, 0.622981], "properties": {"magmom": -0.0}, "label": "Cu", "xyz": [12.287486611814, 0.0, 2.1922545644750002]}, {"species": [{"element": "Cu", "occu": 1}], "abc": [0.126524, 0.126524, 0.126524], "properties": {"magmom": -0.0}, "label": "Cu", "xyz": [2.495520659656, 0.0, 0.4452347929]}, {"species": [{"element": "Cu", "occu": 1}], "abc": [0.0, 0.0, 0.0], "properties": {"magmom": -0.0}, "label": "Cu", "xyz": [0.0, 0.0, 0.0]}, {"species": [{"element": "Ge", "occu": 1}], "abc": [0.751602, 0.751602, 0.751602], "properties": {"magmom": 0.0}, "label": "Ge", "xyz": [14.824367857788001, 0.0, 2.64486864795]}, {"species": [{"element": "Ge", "occu": 1}], "abc": [0.248397999999999, 0.248397999999999, 0.248397999999999], "properties": {"magmom": 0.0}, "label": "Ge", "xyz": [4.899326142211981, 0.0, 0.8741063520499965]}]}, "task_ids": null, "uncorrected_energy_per_atom": null, "energy_per_atom": -11.64017730738095, "formation_energy_per_atom": 0.07095628690476201, "energy_above_hull": 0.07095628690476101, "is_stable": false, "equilibrium_reaction_energy_per_atom": null, "decomposes_to": null, "xas": null, "grain_boundaries": null, "band_gap": 0.0, "cbm": null, "vbm": null, "efermi": 7.41794907, "is_gap_direct": null, "is_metal": null, "es_source_calc_id": null, "bandstructure": null, "dos": null, "dos_energy_up": null, "dos_energy_down": null, "is_magnetic": null, "ordering": null, "total_magnetization": 0.0014555, "total_magnetization_normalized_vol": null, "total_magnetization_normalized_formula_units": null, "num_magnetic_sites": null, "num_unique_magnetic_sites": null, "types_of_magnetic_species": null, "bulk_modulus": null, "shear_modulus": null, "universal_anisotropy": null, "homogeneous_poisson": null, "e_total": null, "e_ionic": null, "e_electronic": null, "n": null, "e_ij_max": null, "weighted_surface_energy_EV_PER_ANG2": null, "weighted_surface_energy": null, "weighted_work_function": null, "surface_anisotropy": null, "shape_factor": null, "has_reconstructed": null, "possible_species": null, "has_props": null, "theoretical": null, "database_IDs": null, "fields_not_requested": ["builder_meta", "nsites", "elements", "nelements", "composition", "composition_reduced", "chemsys", "symmetry", "property_name", "deprecated", "deprecation_reasons", "last_updated", "origins", "warnings", "task_ids", "uncorrected_energy_per_atom", "equilibrium_reaction_energy_per_atom", "decomposes_to", "xas", "grain_boundaries", "cbm", "vbm", "is_gap_direct", "is_metal", "es_source_calc_id", "bandstructure", "dos", "dos_energy_up", "dos_energy_down", "is_magnetic", "ordering", "total_magnetization_normalized_vol", "total_magnetization_normalized_formula_units", "num_magnetic_sites", "num_unique_magnetic_sites", "types_of_magnetic_species", "bulk_modulus", "shear_modulus", "universal_anisotropy", "homogeneous_poisson", "e_total", "e_ionic", "e_electronic", "n", "e_ij_max", "weighted_surface_energy_EV_PER_ANG2", "weighted_surface_energy", "weighted_work_function", "surface_anisotropy", "shape_factor", "has_reconstructed", "possible_species", "has_props", "theoretical", "database_IDs"]}