{"builder_meta": null, "nsites": null, "elements": null, "nelements": null, "composition": null, "composition_reduced": null, "formula_pretty": "Cu5O7", "formula_anonymous": "A5B7", "chemsys": null, "volume": 256.32068887834845, "density": 5.5678414563297824, "density_atomic": 10.680028703264519, "symmetry": null, "property_name": null, "material_id": "mp-1045868", "deprecated": null, "deprecation_reasons": null, "last_updated": null, "origins": null, "warnings": null, "structure": {"@module": "pymatgen.core.structure", "@class": "Structure", "charge": 0, "lattice": {"matrix": [[1.458446, -4.914852, 0.0], [1.458446, 4.914852, 0.0], [0.0, 0.0, 17.879397]], "pbc": [true, true, true], "a": 5.126678741331467, "b": 5.126678741331467, "c": 17.879397, "alpha": 90.0, "beta": 90.0, "gamma": 146.94426700981717, "volume": 256.32068887834845}, "properties": {}, "sites": [{"species": [{"element": "Cu", "occu": 1}], "abc": [0.732622999999999, 0.267377, 0.574611], "properties": {"magmom": -0.08}, "label": "Cu", "xyz": [1.4584459999999984, -2.2866152335919954, 10.273698189567]}, {"species": [{"element": "Cu", "occu": 1}], "abc": [0.0, 0.0, 0.5], "properties": {"magmom": -0.147}, "label": "Cu", "xyz": [0.0, 0.0, 8.9396985]}, {"species": [{"element": "Cu", "occu": 1}], "abc": [0.0, 0.0, 0.0], "properties": {"magmom": -0.147}, "label": "Cu", "xyz": [0.0, 0.0, 0.0]}, {"species": [{"element": "Cu", "occu": 1}], "abc": [0.267377, 0.732622999999999, 0.425388999999999], "properties": {"magmom": -0.08}, "label": "Cu", "xyz": [1.4584459999999984, 2.2866152335919954, 7.605698810432983]}, {"species": [{"element": "Cu", "occu": 1}], "abc": [0.267377, 0.732622999999999, 0.074611], "properties": {"magmom": -0.08}, "label": "Cu", "xyz": [1.4584459999999984, 2.2866152335919954, 1.333999689567]}, {"species": [{"element": "Cu", "occu": 1}], "abc": [0.732622999999999, 0.267377, 0.925388999999999], "properties": {"magmom": -0.08}, "label": "Cu", "xyz": [1.4584459999999984, -2.2866152335919954, 16.545397310432982]}, {"species": [{"element": "Cu", "occu": 1}], "abc": [0.531961, 0.468039, 0.155187], "properties": {"magmom": 0.438}, "label": "Cu", "xyz": [1.458446, -0.3141671695440005, 2.774649982239]}, {"species": [{"element": "Cu", "occu": 1}], "abc": [0.468039, 0.531961, 0.844812999999999], "properties": {"magmom": 0.438}, "label": "Cu", "xyz": [1.458446, 0.3141671695440005, 15.104747017760983]}, {"species": [{"element": "Cu", "occu": 1}], "abc": [0.468039, 0.531961, 0.655187], "properties": {"magmom": 0.438}, "label": "Cu", "xyz": [1.458446, 0.3141671695440005, 11.714348482239]}, {"species": [{"element": "Cu", "occu": 1}], "abc": [0.531961, 0.468039, 0.344813], "properties": {"magmom": 0.438}, "label": "Cu", "xyz": [1.458446, -0.3141671695440005, 6.165048517761]}, {"species": [{"element": "O", "occu": 1}], "abc": [0.358705999999999, 0.641293999999999, 0.9770200000000001], "properties": {"magmom": -0.07100000000000001}, "label": "O", "xyz": [1.4584459999999972, 1.3888781969759998, 17.468528456940003]}, {"species": [{"element": "O", "occu": 1}], "abc": [0.641293999999999, 0.358705999999999, 0.02298], "properties": {"magmom": -0.07100000000000001}, "label": "O", "xyz": [1.4584459999999972, -1.3888781969759998, 0.41086854306000004]}, {"species": [{"element": "O", "occu": 1}], "abc": [0.641293999999999, 0.358705999999999, 0.47702000000000006], "properties": {"magmom": -0.07100000000000001}, "label": "O", "xyz": [1.4584459999999972, -1.3888781969759998, 8.528829956940001]}, {"species": [{"element": "O", "occu": 1}], "abc": [0.358705999999999, 0.641293999999999, 0.52298], "properties": {"magmom": -0.07100000000000001}, "label": "O", "xyz": [1.4584459999999972, 1.3888781969759998, 9.35056704306]}, {"species": [{"element": "O", "occu": 1}], "abc": [0.84179, 0.15821000000000002, 0.841402], "properties": {"magmom": 0.163}, "label": "O", "xyz": [1.458446, -3.35969453016, 15.043760394594]}, {"species": [{"element": "O", "occu": 1}], "abc": [0.15821000000000002, 0.84179, 0.158598], "properties": {"magmom": 0.163}, "label": "O", "xyz": [1.458446, 3.35969453016, 2.835636605406]}, {"species": [{"element": "O", "occu": 1}], "abc": [0.15821000000000002, 0.84179, 0.341402], "properties": {"magmom": 0.163}, "label": "O", "xyz": [1.458446, 3.35969453016, 6.104061894594]}, {"species": [{"element": "O", "occu": 1}], "abc": [0.84179, 0.15821000000000002, 0.658598], "properties": {"magmom": 0.163}, "label": "O", "xyz": [1.458446, -3.35969453016, 11.775335105406]}, {"species": [{"element": "O", "occu": 1}], "abc": [0.082901, 0.917099, 0.898907], "properties": {"magmom": 0.022}, "label": "O", "xyz": [1.458446, 4.099959708696, 16.071915119079]}, {"species": [{"element": "O", "occu": 1}], "abc": [0.917099, 0.082901, 0.101093], "properties": {"magmom": 0.022}, "label": "O", "xyz": [1.458446, -4.099959708696, 1.807481880921]}, {"species": [{"element": "O", "occu": 1}], "abc": [0.917099, 0.082901, 0.398906999999999], "properties": {"magmom": 0.022}, "label": "O", "xyz": [1.458446, -4.099959708696, 7.132216619078982]}, {"species": [{"element": "O", "occu": 1}], "abc": [0.082901, 0.917099, 0.601093], "properties": {"magmom": 0.022}, "label": "O", "xyz": [1.458446, 4.099959708696, 10.747180380921]}, {"species": [{"element": "O", "occu": 1}], "abc": [0.54656, 0.45344, 0.75], "properties": {"magmom": 0.801}, "label": "O", "xyz": [1.458446, -0.4576710182400001, 13.409547750000002]}, {"species": [{"element": "O", "occu": 1}], "abc": [0.45344, 0.54656, 0.25], "properties": {"magmom": 0.801}, "label": "O", "xyz": [1.458446, 0.4576710182400001, 4.46984925]}]}, "task_ids": null, "uncorrected_energy_per_atom": null, "energy_per_atom": -5.2739643625, "formation_energy_per_atom": -0.6796509970833321, "energy_above_hull": 0.18737940854166701, "is_stable": false, "equilibrium_reaction_energy_per_atom": null, "decomposes_to": null, "xas": null, "grain_boundaries": null, "band_gap": 0.0, "cbm": null, "vbm": null, "efermi": 3.30478081, "is_gap_direct": null, "is_metal": null, "es_source_calc_id": null, "bandstructure": null, "dos": null, "dos_energy_up": null, "dos_energy_down": null, "is_magnetic": null, "ordering": null, "total_magnetization": 3.6155218, "total_magnetization_normalized_vol": null, "total_magnetization_normalized_formula_units": null, "num_magnetic_sites": null, "num_unique_magnetic_sites": null, "types_of_magnetic_species": null, "bulk_modulus": null, "shear_modulus": null, "universal_anisotropy": null, "homogeneous_poisson": null, "e_total": null, "e_ionic": null, "e_electronic": null, "n": null, "e_ij_max": null, "weighted_surface_energy_EV_PER_ANG2": null, "weighted_surface_energy": null, "weighted_work_function": null, "surface_anisotropy": null, "shape_factor": null, "has_reconstructed": null, "possible_species": null, "has_props": null, "theoretical": null, "database_IDs": null, "fields_not_requested": ["builder_meta", "nsites", "elements", "nelements", "composition", "composition_reduced", "chemsys", "symmetry", "property_name", "deprecated", "deprecation_reasons", "last_updated", "origins", "warnings", "task_ids", "uncorrected_energy_per_atom", "equilibrium_reaction_energy_per_atom", "decomposes_to", "xas", "grain_boundaries", "cbm", "vbm", "is_gap_direct", "is_metal", "es_source_calc_id", "bandstructure", "dos", "dos_energy_up", "dos_energy_down", "is_magnetic", "ordering", "total_magnetization_normalized_vol", "total_magnetization_normalized_formula_units", "num_magnetic_sites", "num_unique_magnetic_sites", "types_of_magnetic_species", "bulk_modulus", "shear_modulus", "universal_anisotropy", "homogeneous_poisson", "e_total", "e_ionic", "e_electronic", "n", "e_ij_max", "weighted_surface_energy_EV_PER_ANG2", "weighted_surface_energy", "weighted_work_function", "surface_anisotropy", "shape_factor", "has_reconstructed", "possible_species", "has_props", "theoretical", "database_IDs"]}