{"builder_meta": null, "nsites": null, "elements": null, "nelements": null, "composition": null, "composition_reduced": null, "formula_pretty": "Cu5Sn4", "formula_anonymous": "A4B5", "chemsys": null, "volume": 629.4202279166032, "density": 8.36384589908376, "density_atomic": 17.483895219905644, "symmetry": null, "property_name": null, "material_id": "mp-845", "deprecated": null, "deprecation_reasons": null, "last_updated": null, "origins": null, "warnings": null, "structure": {"@module": "pymatgen.core.structure", "@class": "Structure", "charge": 0, "lattice": {"matrix": [[7.35850666, 0.0, 0.0], [0.0, 8.73463919, -4.55068947], [0.0, -0.024924520000000002, 9.80576643]], "pbc": [true, true, true], "a": 7.35850666, "b": 9.848994691431848, "c": 9.805798106804573, "alpha": 117.6648522453793, "beta": 90.0, "gamma": 90.0, "volume": 629.4202279166032}, "properties": {}, "sites": [{"species": [{"element": "Cu", "occu": 1}], "abc": [0.7756064500000001, 0.9415141300000001, 0.05764297], "properties": {"magmom": 0.0}, "label": "Cu", "xyz": [5.707305227863957, 8.22234949447813, -3.719304937095714]}, {"species": [{"element": "Cu", "occu": 1}], "abc": [0.27560645, 0.05848587, 0.44235703], "properties": {"magmom": 0.0}, "label": "Cu", "xyz": [2.028051897863957, 0.4998274355218697, 4.071498682095714]}, {"species": [{"element": "Cu", "occu": 1}], "abc": [0.22439355, 0.05848587, 0.94235703], "properties": {"magmom": 0.0}, "label": "Cu", "xyz": [1.6512014321360429, 0.4873651755218697, 8.974381897095714]}, {"species": [{"element": "Cu", "occu": 1}], "abc": [0.72439355, 0.9415141300000001, 0.55764297], "properties": {"magmom": 0.0}, "label": "Cu", "xyz": [5.330454762136044, 8.209887234478131, 1.1835782779042852]}, {"species": [{"element": "Cu", "occu": 1}], "abc": [0.25503349000000003, 0.81031523, 0.18754029], "properties": {"magmom": 0.0}, "label": "Cu", "xyz": [1.8766656346880435, 7.073136812502953, -1.8485167045871638]}, {"species": [{"element": "Cu", "occu": 1}], "abc": [0.75503349, 0.18968477, 0.31245971], "properties": {"magmom": 0.0}, "label": "Cu", "xyz": [5.555918964688043, 1.649040117497047, 2.2007104495871634]}, {"species": [{"element": "Cu", "occu": 1}], "abc": [0.74496651, 0.18968477, 0.8124597100000001], "properties": {"magmom": 0.0}, "label": "Cu", "xyz": [5.481841025311956, 1.636577857497047, 7.103593664587165]}, {"species": [{"element": "Cu", "occu": 1}], "abc": [0.24496651, 0.81031523, 0.68754029], "properties": {"magmom": 0.0}, "label": "Cu", "xyz": [1.8025876953119566, 7.060674552502952, 3.0543665104128372]}, {"species": [{"element": "Cu", "occu": 1}], "abc": [0.7241290300000001, 0.68418618, 0.31566615000000003], "properties": {"magmom": 0.0}, "label": "Cu", "xyz": [5.32850828995434, 5.9682515938153955, -0.018170308088179876]}, {"species": [{"element": "Cu", "occu": 1}], "abc": [0.22412903, 0.31581382, 0.18433385], "properties": {"magmom": 0.0}, "label": "Cu", "xyz": [1.6492549599543398, 2.7539253361846034, 0.37036405308818]}, {"species": [{"element": "Cu", "occu": 1}], "abc": [0.27587097, 0.31581382, 0.68433385], "properties": {"magmom": 0.0}, "label": "Cu", "xyz": [2.02999837004566, 2.7414630761846035, 5.27324726808818]}, {"species": [{"element": "Cu", "occu": 1}], "abc": [0.77587097, 0.68418618, 0.81566615], "properties": {"magmom": 0.0}, "label": "Cu", "xyz": [5.709251700045661, 5.955789333815396, 4.884712906911821]}, {"species": [{"element": "Cu", "occu": 1}], "abc": [0.24319879, 0.57047141, 0.43279058000000004], "properties": {"magmom": -0.0}, "label": "Cu", "xyz": [1.7895799159189414, 4.972074837093536, 1.6478051021611773]}, {"species": [{"element": "Cu", "occu": 1}], "abc": [0.74319879, 0.42952859, 0.06720942], "properties": {"magmom": -0.0}, "label": "Cu", "xyz": [5.468833245918941, 3.7501020929064635, -1.2956113571611767]}, {"species": [{"element": "Cu", "occu": 1}], "abc": [0.75680121, 0.42952859, 0.56720942], "properties": {"magmom": -0.0}, "label": "Cu", "xyz": [5.568926744081058, 3.7376398329064635, 3.607271857838823]}, {"species": [{"element": "Cu", "occu": 1}], "abc": [0.25680121, 0.57047141, 0.93279058], "properties": {"magmom": -0.0}, "label": "Cu", "xyz": [1.8896734140810585, 4.959612577093536, 6.550688317161177]}, {"species": [{"element": "Cu", "occu": 1}], "abc": [0.090535999999999, 0.80912845, 0.93762638], "properties": {"magmom": 0.0}, "label": "Cu", "xyz": [0.6662097589697527, 7.044075181653117, 5.5120529635940025]}, {"species": [{"element": "Cu", "occu": 1}], "abc": [0.590536, 0.19087155, 0.56237362], "properties": {"magmom": 0.0}, "label": "Cu", "xyz": [4.345463088969759, 1.653177228346882, 4.645907211405999]}, {"species": [{"element": "Cu", "occu": 1}], "abc": [0.909463999999999, 0.19087155, 0.062373620000000005], "properties": {"magmom": 0.0}, "label": "Cu", "xyz": [6.6922969010302324, 1.665639488346882, -0.25697600359400186]}, {"species": [{"element": "Cu", "occu": 1}], "abc": [0.409464, 0.80912845, 0.43762638], "properties": {"magmom": 0.0}, "label": "Cu", "xyz": [3.0130435710302397, 7.056537441653117, 0.6091697485940015]}, {"species": [{"element": "Sn", "occu": 1}], "abc": [0.5949542, 0.92897225, 0.28521785], "properties": {"magmom": -0.0}, "label": "Sn", "xyz": [4.377974443094971, 8.107128503265795, -1.4306846172304324]}, {"species": [{"element": "Sn", "occu": 1}], "abc": [0.0949542, 0.07102775, 0.21478215], "properties": {"magmom": -0.0}, "label": "Sn", "xyz": [0.698721113094972, 0.6150484267342045, 1.782878362230432]}, {"species": [{"element": "Sn", "occu": 1}], "abc": [0.405045799999999, 0.07102775, 0.71478215], "properties": {"magmom": -0.0}, "label": "Sn", "xyz": [2.980532216905021, 0.6025861667342045, 6.685761577230433]}, {"species": [{"element": "Sn", "occu": 1}], "abc": [0.9050458, 0.92897225, 0.78521785], "properties": {"magmom": -0.0}, "label": "Sn", "xyz": [6.659785546905028, 8.094666243265795, 3.4721985977695677]}, {"species": [{"element": "Sn", "occu": 1}], "abc": [0.05183781, 0.81588514, 0.4357618], "properties": {"magmom": -0.0}, "label": "Sn", "xyz": [0.3814488701248146, 7.1156011646833, 0.560138514588898]}, {"species": [{"element": "Sn", "occu": 1}], "abc": [0.55183781, 0.18411486, 0.0642382], "properties": {"magmom": -0.0}, "label": "Sn", "xyz": [4.0607022001248145, 1.6065757653166992, -0.20794476958889818]}, {"species": [{"element": "Sn", "occu": 1}], "abc": [0.94816219, 0.18411486, 0.5642382], "properties": {"magmom": -0.0}, "label": "Sn", "xyz": [6.977057789875185, 1.5941135053166993, 4.694938445411102]}, {"species": [{"element": "Sn", "occu": 1}], "abc": [0.44816219, 0.81588514, 0.9357618], "properties": {"magmom": -0.0}, "label": "Sn", "xyz": [3.2978044598751852, 7.1031389046833, 5.463021729588898]}, {"species": [{"element": "Sn", "occu": 1}], "abc": [0.5840264, 0.67617347, 0.57691919], "properties": {"magmom": -0.0}, "label": "Sn", "xyz": [4.297562154015823, 5.8917518564107505, 2.580079336302431]}, {"species": [{"element": "Sn", "occu": 1}], "abc": [0.0840264, 0.32382653, 0.92308081], "properties": {"magmom": -0.0}, "label": "Sn", "xyz": [0.618308824015824, 2.805500553589249, 7.57788083869757]}, {"species": [{"element": "Sn", "occu": 1}], "abc": [0.4159736, 0.32382653, 0.42308081000000003], "properties": {"magmom": -0.0}, "label": "Sn", "xyz": [3.060944505984176, 2.8179628135892494, 2.6749976236975694]}, {"species": [{"element": "Sn", "occu": 1}], "abc": [0.915973599999999, 0.67617347, 0.07691919], "properties": {"magmom": -0.0}, "label": "Sn", "xyz": [6.740197835984169, 5.90421411641075, -2.3228038786975693]}, {"species": [{"element": "Sn", "occu": 1}], "abc": [0.0922708, 0.5429925800000001, 0.66929658], "properties": {"magmom": 0.0}, "label": "Sn", "xyz": [0.6789752963235279, 4.726162373153069, 4.091975319783677]}, {"species": [{"element": "Sn", "occu": 1}], "abc": [0.5922708, 0.45700742, 0.83070342], "properties": {"magmom": 0.0}, "label": "Sn", "xyz": [4.358228626323528, 3.971090036846931, 6.065984855216323]}, {"species": [{"element": "Sn", "occu": 1}], "abc": [0.9077292, 0.45700742, 0.33070342], "properties": {"magmom": 0.0}, "label": "Sn", "xyz": [6.679531363676472, 3.9835522968469315, 1.1631016402163237]}, {"species": [{"element": "Sn", "occu": 1}], "abc": [0.407729199999999, 0.5429925800000001, 0.16929658], "properties": {"magmom": 0.0}, "label": "Sn", "xyz": [3.0002780336764645, 4.738624633153068, -0.8109078952163236]}]}, "task_ids": null, "uncorrected_energy_per_atom": null, "energy_per_atom": -16.999947610555555, "formation_energy_per_atom": 0.024354069444443002, "energy_above_hull": 0.024354069444441, "is_stable": false, "equilibrium_reaction_energy_per_atom": null, "decomposes_to": null, "xas": null, "grain_boundaries": null, "band_gap": 0.0, "cbm": null, "vbm": null, "efermi": 8.18854295, "is_gap_direct": null, "is_metal": null, "es_source_calc_id": null, "bandstructure": null, "dos": null, "dos_energy_up": null, "dos_energy_down": null, "is_magnetic": null, "ordering": null, "total_magnetization": 2e-07, "total_magnetization_normalized_vol": null, "total_magnetization_normalized_formula_units": null, "num_magnetic_sites": null, "num_unique_magnetic_sites": null, "types_of_magnetic_species": null, "bulk_modulus": null, "shear_modulus": null, "universal_anisotropy": null, "homogeneous_poisson": null, "e_total": null, "e_ionic": null, "e_electronic": null, "n": null, "e_ij_max": null, "weighted_surface_energy_EV_PER_ANG2": null, "weighted_surface_energy": null, "weighted_work_function": null, "surface_anisotropy": null, "shape_factor": null, "has_reconstructed": null, "possible_species": null, "has_props": null, "theoretical": null, "database_IDs": null, "fields_not_requested": ["builder_meta", "nsites", "elements", "nelements", "composition", "composition_reduced", "chemsys", "symmetry", "property_name", "deprecated", "deprecation_reasons", "last_updated", "origins", "warnings", "task_ids", "uncorrected_energy_per_atom", "equilibrium_reaction_energy_per_atom", "decomposes_to", "xas", "grain_boundaries", "cbm", "vbm", "is_gap_direct", "is_metal", "es_source_calc_id", "bandstructure", "dos", "dos_energy_up", "dos_energy_down", "is_magnetic", "ordering", "total_magnetization_normalized_vol", "total_magnetization_normalized_formula_units", "num_magnetic_sites", "num_unique_magnetic_sites", "types_of_magnetic_species", "bulk_modulus", "shear_modulus", "universal_anisotropy", "homogeneous_poisson", "e_total", "e_ionic", "e_electronic", "n", "e_ij_max", "weighted_surface_energy_EV_PER_ANG2", "weighted_surface_energy", "weighted_work_function", "surface_anisotropy", "shape_factor", "has_reconstructed", "possible_species", "has_props", "theoretical", "database_IDs"]}