{"builder_meta": null, "nsites": null, "elements": null, "nelements": null, "composition": null, "composition_reduced": null, "formula_pretty": "Cu6O", "formula_anonymous": "AB6", "chemsys": null, "volume": 734.8962083083154, "density": 0.897665975740586, "density_atomic": 104.98517261547363, "symmetry": null, "property_name": null, "material_id": "mp-1207322", "deprecated": null, "deprecation_reasons": null, "last_updated": null, "origins": null, "warnings": null, "structure": {"@module": "pymatgen.core.structure", "@class": "Structure", "charge": 0, "lattice": {"matrix": [[-2.358615, -4.085241, 0.0], [-3.248967, 4.599285, 0.0], [0.0, 0.0, -30.467379]], "pbc": [true, true, true], "a": 4.717229986581744, "b": 5.63109306248032, "c": 30.467379, "alpha": 90.0, "beta": 90.0, "gamma": 114.76234970299276, "volume": 734.8962083083154}, "properties": {}, "sites": [{"species": [{"element": "Cu", "occu": 1}], "abc": [0.0, 0.0, 0.750116999999999], "properties": {"magmom": 0.193}, "label": "Cu", "xyz": [0.0, 0.0, -22.85409893334297]}, {"species": [{"element": "Cu", "occu": 1}], "abc": [0.0, 0.0, 0.249883], "properties": {"magmom": 0.193}, "label": "Cu", "xyz": [0.0, 0.0, -7.613280066657]}, {"species": [{"element": "Cu", "occu": 1}], "abc": [0.602217, 0.722144999999999, 0.0], "properties": {"magmom": -0.009000000000000001}, "label": "Cu", "xyz": [-3.7666233236699966, 0.8611490870279956, 0.0]}, {"species": [{"element": "Cu", "occu": 1}], "abc": [0.397783, 0.277854999999999, 0.0], "properties": {"magmom": -0.009000000000000001}, "label": "Cu", "xyz": [-1.8409586763299968, -0.34710508702800436, 0.0]}, {"species": [{"element": "Cu", "occu": 1}], "abc": [0.880072, 0.277854999999999, 0.0], "properties": {"magmom": -0.009000000000000001}, "label": "Cu", "xyz": [-2.9784927460649966, -2.317371883677004, 0.0]}, {"species": [{"element": "Cu", "occu": 1}], "abc": [0.11992799999999901, 0.722144999999999, 0.0], "properties": {"magmom": -0.009000000000000001}, "label": "Cu", "xyz": [-2.6290892539349944, 2.8314158836769994, 0.0]}, {"species": [{"element": "O", "occu": 1}], "abc": [0.0, 0.0, 0.0], "properties": {"magmom": -0.007}, "label": "O", "xyz": [0.0, 0.0, 0.0]}]}, "task_ids": null, "uncorrected_energy_per_atom": null, "energy_per_atom": -3.03424749, "formation_energy_per_atom": 1.186209799285714, "energy_above_hull": 1.462426415714285, "is_stable": false, "equilibrium_reaction_energy_per_atom": null, "decomposes_to": null, "xas": null, "grain_boundaries": null, "band_gap": 0.0, "cbm": null, "vbm": null, "efermi": -3.46397793, "is_gap_direct": null, "is_metal": null, "es_source_calc_id": null, "bandstructure": null, "dos": null, "dos_energy_up": null, "dos_energy_down": null, "is_magnetic": null, "ordering": null, "total_magnetization": 1.9286766, "total_magnetization_normalized_vol": null, "total_magnetization_normalized_formula_units": null, "num_magnetic_sites": null, "num_unique_magnetic_sites": null, "types_of_magnetic_species": null, "bulk_modulus": null, "shear_modulus": null, "universal_anisotropy": null, "homogeneous_poisson": null, "e_total": null, "e_ionic": null, "e_electronic": null, "n": null, "e_ij_max": null, "weighted_surface_energy_EV_PER_ANG2": null, "weighted_surface_energy": null, "weighted_work_function": null, "surface_anisotropy": null, "shape_factor": null, "has_reconstructed": null, "possible_species": null, "has_props": null, "theoretical": null, "database_IDs": null, "fields_not_requested": ["builder_meta", "nsites", "elements", "nelements", "composition", "composition_reduced", "chemsys", "symmetry", "property_name", "deprecated", "deprecation_reasons", "last_updated", "origins", "warnings", "task_ids", "uncorrected_energy_per_atom", "equilibrium_reaction_energy_per_atom", "decomposes_to", "xas", "grain_boundaries", "cbm", "vbm", "is_gap_direct", "is_metal", "es_source_calc_id", "bandstructure", "dos", "dos_energy_up", "dos_energy_down", "is_magnetic", "ordering", "total_magnetization_normalized_vol", "total_magnetization_normalized_formula_units", "num_magnetic_sites", "num_unique_magnetic_sites", "types_of_magnetic_species", "bulk_modulus", "shear_modulus", "universal_anisotropy", "homogeneous_poisson", "e_total", "e_ionic", "e_electronic", "n", "e_ij_max", "weighted_surface_energy_EV_PER_ANG2", "weighted_surface_energy", "weighted_work_function", "surface_anisotropy", "shape_factor", "has_reconstructed", "possible_species", "has_props", "theoretical", "database_IDs"]}