{
  "builder_meta": null,
  "nsites": null,
  "elements": null,
  "nelements": null,
  "composition": null,
  "composition_reduced": null,
  "formula_pretty": "Cu6Sn5",
  "formula_anonymous": "A5B6",
  "chemsys": null,
  "volume": 388.7817147163499,
  "density": 8.327226280785457,
  "density_atomic": 17.67189612347045,
  "symmetry": null,
  "property_name": null,
  "material_id": "mp-1233",
  "deprecated": null,
  "deprecation_reasons": null,
  "last_updated": null,
  "origins": null,
  "warnings": null,
  "structure": {
    "@module": "pymatgen.core.structure",
    "@class": "Structure",
    "charge": 0,
    "lattice": {
      "matrix": [
        [6.52815335, -0.01975083, 0.84842942],
        [2.46649783, 6.04430035, 0.84842942],
        [-0.02085485, -0.01396754, 9.83693799]
      ],
      "pbc": [true, true, true],
      "a": 6.583085047082671,
      "b": 6.5830851997468764,
      "c": 9.8369700129688,
      "alpha": 82.71633713130704,
      "beta": 82.71634172389182,
      "gamma": 67.33136046071915,
      "volume": 388.7817147163499
    },
    "properties": {},
    "sites": [
      {
        "species": [{ "element": "Cu", "occu": 1 }],
        "abc": [0.57540692, 0.62821983, 0.79554821],
        "properties": { "magmom": 0.0 },
        "label": "Cu",
        "xyz": [5.289256421281833, 3.7746727226430936, 8.846950755224482]
      },
      {
        "species": [{ "element": "Cu", "occu": 1 }],
        "abc": [0.37178017, 0.42459308, 0.70445179],
        "properties": { "magmom": 0.0 },
        "label": "Cu",
        "xyz": [3.459604636289405, 2.5491856765616405, 7.605315069775517]
      },
      {
        "species": [{ "element": "Cu", "occu": 1 }],
        "abc": [0.42459308, 0.37178017, 0.20445179],
        "properties": { "magmom": 0.0 },
        "label": "Cu",
        "xyz": [3.684539908718168, 2.235909257356907, 2.686846074775517]
      },
      {
        "species": [{ "element": "Cu", "occu": 1 }],
        "abc": [0.62821983, 0.57540692, 0.29554821000000003],
        "properties": { "magmom": 0.0 },
        "label": "Cu",
        "xyz": [5.514191693710596, 3.46139630343836, 3.928481760224483]
      },
      {
        "species": [{ "element": "Cu", "occu": 1 }],
        "abc": [0.81111157, 0.80065462, 0.39085433],
        "properties": { "magmom": 0.0 },
        "label": "Cu",
        "xyz": [7.261722387304734, 4.817917599676566, 5.212279661090307]
      },
      {
        "species": [{ "element": "Cu", "occu": 1 }],
        "abc": [0.19934538000000002, 0.18888843, 0.10914567],
        "properties": { "magmom": 0.0 },
        "label": "Cu",
        "xyz": [1.7649738963851305, 1.1362366703367333, 1.4030481739096934]
      },
      {
        "species": [{ "element": "Cu", "occu": 1 }],
        "abc": [0.18888843, 0.19934538000000002, 0.60914567],
        "properties": { "magmom": 0.0 },
        "label": "Cu",
        "xyz": [1.7120739426952662, 1.1926643803234342, 6.3215171689096925]
      },
      {
        "species": [{ "element": "Cu", "occu": 1 }],
        "abc": [0.80065462, 0.81111157, 0.89085433],
        "properties": { "magmom": 0.0 },
        "label": "Cu",
        "xyz": [7.208822433614869, 4.8743453096632665, 10.130748656090306]
      },
      {
        "species": [{ "element": "Cu", "occu": 1 }],
        "abc": [0.0, 0.0, -0.0],
        "properties": { "magmom": 0.0 },
        "label": "Cu",
        "xyz": [0.0, 0.0, 0.0]
      },
      {
        "species": [{ "element": "Cu", "occu": 1 }],
        "abc": [0.0, 0.0, 0.5],
        "properties": { "magmom": 0.0 },
        "label": "Cu",
        "xyz": [-0.010427425, -0.00698377, 4.918468995]
      },
      {
        "species": [{ "element": "Cu", "occu": 1 }],
        "abc": [0.16181527, 0.83818473, 0.75],
        "properties": { "magmom": -0.0 },
        "label": "Cu",
        "xyz": [3.1080945771157906, 5.052568616014483, 8.226132912499999]
      },
      {
        "species": [{ "element": "Cu", "occu": 1 }],
        "abc": [0.83818473, 0.16181527, 0.25],
        "properties": { "magmom": -0.0 },
        "label": "Cu",
        "xyz": [5.865701752884211, 0.9580133639855188, 3.3076639174999998]
      },
      {
        "species": [{ "element": "Sn", "occu": 1 }],
        "abc": [0.55483206, 0.22896516, 0.47103856],
        "properties": { "magmom": 0.0 },
        "label": "Sn",
        "xyz": [4.176947402948987, 1.366396553101854, 5.298573726381107]
      },
      {
        "species": [{ "element": "Sn", "occu": 1 }],
        "abc": [0.77103484, 0.44516794, 0.02896144],
        "properties": { "magmom": 0.0 },
        "label": "Sn",
        "xyz": [6.130835445221301, 2.675095637430204, 1.3167541086188932]
      },
      {
        "species": [{ "element": "Sn", "occu": 1 }],
        "abc": [0.44516794, 0.77103484, 0.52896144],
        "properties": { "magmom": 0.0 },
        "label": "Sn",
        "xyz": [4.796848927051012, 4.6441854268981455, 6.2352231036188925]
      },
      {
        "species": [{ "element": "Sn", "occu": 1 }],
        "abc": [0.22896516, 0.55483206, 0.97103856],
        "properties": { "magmom": 0.0 },
        "label": "Sn",
        "xyz": [2.8429608847786993, 3.3354863425697956, 10.217042721381105]
      },
      {
        "species": [{ "element": "Sn", "occu": 1 }],
        "abc": [0.94194791, 0.63040451, 0.64282507],
        "properties": { "magmom": -0.0 },
        "label": "Sn",
        "xyz": [7.690665739718122, 3.7827712625170853, 7.657460403743606]
      },
      {
        "species": [{ "element": "Sn", "occu": 1 }],
        "abc": [0.36959549, 0.05805209, 0.85717493],
        "properties": { "magmom": -0.0 },
        "label": "Sn",
        "xyz": [2.5380851356114458, 0.3316118250917026, 8.794805421256394]
      },
      {
        "species": [{ "element": "Sn", "occu": 1 }],
        "abc": [0.05805209, 0.36959549, 0.35717493],
        "properties": { "magmom": -0.0 },
        "label": "Sn",
        "xyz": [1.2831305902818777, 2.227810717482915, 3.876336426256394]
      },
      {
        "species": [{ "element": "Sn", "occu": 1 }],
        "abc": [0.63040451, 0.94194791, 0.14282507],
        "properties": { "magmom": -0.0 },
        "label": "Sn",
        "xyz": [6.435711194388554, 5.678970154908298, 2.7389914087436056]
      },
      {
        "species": [{ "element": "Sn", "occu": 1 }],
        "abc": [0.80080923, 0.19919077000000002, 0.75],
        "properties": { "magmom": 0.0 },
        "label": "Sn",
        "xyz": [5.70346792199645, 1.1776765388636086, 8.226132912499999]
      },
      {
        "species": [{ "element": "Sn", "occu": 1 }],
        "abc": [0.19919077000000002, 0.80080923, 0.25],
        "properties": { "magmom": 0.0 },
        "label": "Sn",
        "xyz": [3.2703284080035506, 4.8329054411363925, 3.3076639174999998]
      }
    ]
  },
  "task_ids": null,
  "uncorrected_energy_per_atom": null,
  "energy_per_atom": -17.141633775454547,
  "formation_energy_per_atom": 0.023065760909089003,
  "energy_above_hull": 0.023065760909087,
  "is_stable": false,
  "equilibrium_reaction_energy_per_atom": null,
  "decomposes_to": null,
  "xas": null,
  "grain_boundaries": null,
  "band_gap": 0.0,
  "cbm": null,
  "vbm": null,
  "efermi": 8.25702598,
  "is_gap_direct": null,
  "is_metal": null,
  "es_source_calc_id": null,
  "bandstructure": null,
  "dos": null,
  "dos_energy_up": null,
  "dos_energy_down": null,
  "is_magnetic": null,
  "ordering": null,
  "total_magnetization": 0.0,
  "total_magnetization_normalized_vol": null,
  "total_magnetization_normalized_formula_units": null,
  "num_magnetic_sites": null,
  "num_unique_magnetic_sites": null,
  "types_of_magnetic_species": null,
  "bulk_modulus": null,
  "shear_modulus": null,
  "universal_anisotropy": null,
  "homogeneous_poisson": null,
  "e_total": null,
  "e_ionic": null,
  "e_electronic": null,
  "n": null,
  "e_ij_max": null,
  "weighted_surface_energy_EV_PER_ANG2": null,
  "weighted_surface_energy": null,
  "weighted_work_function": null,
  "surface_anisotropy": null,
  "shape_factor": null,
  "has_reconstructed": null,
  "possible_species": null,
  "has_props": null,
  "theoretical": null,
  "database_IDs": null,
  "fields_not_requested": [
    "builder_meta",
    "nsites",
    "elements",
    "nelements",
    "composition",
    "composition_reduced",
    "chemsys",
    "symmetry",
    "property_name",
    "deprecated",
    "deprecation_reasons",
    "last_updated",
    "origins",
    "warnings",
    "task_ids",
    "uncorrected_energy_per_atom",
    "equilibrium_reaction_energy_per_atom",
    "decomposes_to",
    "xas",
    "grain_boundaries",
    "cbm",
    "vbm",
    "is_gap_direct",
    "is_metal",
    "es_source_calc_id",
    "bandstructure",
    "dos",
    "dos_energy_up",
    "dos_energy_down",
    "is_magnetic",
    "ordering",
    "total_magnetization_normalized_vol",
    "total_magnetization_normalized_formula_units",
    "num_magnetic_sites",
    "num_unique_magnetic_sites",
    "types_of_magnetic_species",
    "bulk_modulus",
    "shear_modulus",
    "universal_anisotropy",
    "homogeneous_poisson",
    "e_total",
    "e_ionic",
    "e_electronic",
    "n",
    "e_ij_max",
    "weighted_surface_energy_EV_PER_ANG2",
    "weighted_surface_energy",
    "weighted_work_function",
    "surface_anisotropy",
    "shape_factor",
    "has_reconstructed",
    "possible_species",
    "has_props",
    "theoretical",
    "database_IDs"
  ]
}
