{
  "builder_meta": null,
  "nsites": null,
  "elements": null,
  "nelements": null,
  "composition": null,
  "composition_reduced": null,
  "formula_pretty": "Cu7Hg6",
  "formula_anonymous": "A6B7",
  "chemsys": null,
  "volume": 436.61015646132233,
  "density": 12.538276796322693,
  "density_atomic": 16.792698325435474,
  "symmetry": null,
  "property_name": null,
  "material_id": "mp-1192757",
  "deprecated": null,
  "deprecation_reasons": null,
  "last_updated": null,
  "origins": null,
  "warnings": null,
  "structure": {
    "@module": "pymatgen.core.structure",
    "@class": "Structure",
    "charge": 0,
    "lattice": {
      "matrix": [
        [0.0, 0.0, -8.189561],
        [0.0, -7.846054, 2.729854],
        [-6.794882, 3.923027, 2.729854]
      ],
      "pbc": [true, true, true],
      "a": 8.189561,
      "b": 8.307386245518622,
      "c": 8.30738617725028,
      "alpha": 109.75674417871514,
      "beta": 109.18416570854029,
      "gamma": 109.18416554472076,
      "volume": 436.61015646132233
    },
    "properties": {},
    "sites": [
      {
        "species": [{ "element": "Cu", "occu": 1 }],
        "abc": [0.004491999999999, 0.0, 0.0],
        "properties": { "magmom": -0.0 },
        "label": "Cu",
        "xyz": [0.0, 0.0, -0.03678750801199181]
      },
      {
        "species": [{ "element": "Cu", "occu": 1 }],
        "abc": [0.503481, 0.0, 0.0],
        "properties": { "magmom": 0.0 },
        "label": "Cu",
        "xyz": [0.0, 0.0, -4.1232883618409994]
      },
      {
        "species": [{ "element": "Cu", "occu": 1 }],
        "abc": [0.152518, 0.320534999999999, 0.320534999999999],
        "properties": { "magmom": 0.0 },
        "label": "Cu",
        "xyz": [-2.1779975018699935, -1.2574674594449962, 0.5009720391819947]
      },
      {
        "species": [{ "element": "Cu", "occu": 1 }],
        "abc": [0.831982999999999, 0.679465, 0.0],
        "properties": { "magmom": 0.0 },
        "label": "Cu",
        "xyz": [0.0, -5.33111908111, -4.9587352813529915]
      },
      {
        "species": [{ "element": "Cu", "occu": 1 }],
        "abc": [0.831982999999999, 0.0, 0.679465],
        "properties": { "magmom": 0.0 },
        "label": "Cu",
        "xyz": [-4.61688449813, 2.665559540555, -4.9587352813529915]
      },
      {
        "species": [{ "element": "Cu", "occu": 1 }],
        "abc": [0.853949, 0.679735, 0.679735],
        "properties": { "magmom": 0.0 },
        "label": "Cu",
        "xyz": [-4.61871911627, -2.666618757845, -3.2823128090089995]
      },
      {
        "species": [{ "element": "Cu", "occu": 1 }],
        "abc": [0.174213999999999, 0.320264999999999, 0.0],
        "properties": { "magmom": 0.0 },
        "label": "Cu",
        "xyz": [0.0, -2.512816484309992, -0.5524594887439944]
      },
      {
        "species": [{ "element": "Cu", "occu": 1 }],
        "abc": [0.174213999999999, 0.0, 0.320264999999999],
        "properties": { "magmom": 0.0 },
        "label": "Cu",
        "xyz": [-2.1761628837299933, 1.256408242154996, -0.5524594887439944]
      },
      {
        "species": [{ "element": "Cu", "occu": 1 }],
        "abc": [0.630786, 0.804435, 0.804435],
        "properties": { "magmom": -0.0 },
        "label": "Cu",
        "xyz": [-5.4660409016700005, -3.155820224745, -0.7738802199659993]
      },
      {
        "species": [{ "element": "Cu", "occu": 1 }],
        "abc": [0.826351, 0.195565, 0.0],
        "properties": { "magmom": -0.0 },
        "label": "Cu",
        "xyz": [0.0, -1.5344135505099998, -6.233588024401]
      },
      {
        "species": [{ "element": "Cu", "occu": 1 }],
        "abc": [0.826351, 0.0, 0.195565],
        "properties": { "magmom": -0.0 },
        "label": "Cu",
        "xyz": [-1.32884109833, 0.7672067752549999, -6.233588024401]
      },
      {
        "species": [{ "element": "Cu", "occu": 1 }],
        "abc": [0.377025, 0.19625, 0.19625],
        "properties": { "magmom": -0.0 },
        "label": "Cu",
        "xyz": [-1.3334955925, -0.76989404875, -2.016201541025]
      },
      {
        "species": [{ "element": "Cu", "occu": 1 }],
        "abc": [0.180775, 0.8037500000000001, 0.0],
        "properties": { "magmom": -0.0 },
        "label": "Cu",
        "xyz": [0.0, -6.306265902500001, 0.7136522627250002]
      },
      {
        "species": [{ "element": "Cu", "occu": 1 }],
        "abc": [0.180775, 0.0, 0.8037500000000001],
        "properties": { "magmom": -0.0 },
        "label": "Cu",
        "xyz": [-5.461386407500001, 3.1531329512500004, 0.7136522627250002]
      },
      {
        "species": [{ "element": "Hg", "occu": 1 }],
        "abc": [0.115123999999999, 0.224727999999999, 0.611406999999999],
        "properties": { "magmom": 0.0 },
        "label": "Hg",
        "xyz": [-4.154438418973994, 0.6353381456770038, 1.3397114537260029]
      },
      {
        "species": [{ "element": "Hg", "occu": 1 }],
        "abc": [0.503717, 0.388592999999999, 0.613321999999999],
        "properties": { "magmom": 0.0 },
        "label": "Hg",
        "xyz": [-4.167450618003993, -0.6428428963279962, -1.390139427827005]
      },
      {
        "species": [{ "element": "Hg", "occu": 1 }],
        "abc": [0.890394999999999, 0.386677999999999, 0.775272],
        "properties": { "magmom": 0.0 },
        "label": "Hg",
        "xyz": [-5.267881757904, 0.0075165197320075094, -4.119990311294995]
      },
      {
        "species": [{ "element": "Hg", "occu": 1 }],
        "abc": [0.115123999999999, 0.611406999999999, 0.224727999999999],
        "properties": { "magmom": 0.0 },
        "label": "Hg",
        "xyz": [-1.5270002420959934, -3.9155183263219957, 1.3397114537260029]
      },
      {
        "species": [{ "element": "Hg", "occu": 1 }],
        "abc": [0.890394999999999, 0.775272, 0.386677999999999],
        "properties": { "magmom": 0.0 },
        "label": "Hg",
        "xyz": [-2.6274313819959936, -4.565877742382003, -4.119990311294995]
      },
      {
        "species": [{ "element": "Hg", "occu": 1 }],
        "abc": [0.503717, 0.613321999999999, 0.388592999999999],
        "properties": { "magmom": 0.0 },
        "label": "Hg",
        "xyz": [-2.6404435810259934, -3.287696700376996, -1.390139427827005]
      },
      {
        "species": [{ "element": "Hg", "occu": 1 }],
        "abc": [0.202093, 0.646923, 0.646923],
        "properties": { "magmom": 0.0 },
        "label": "Hg",
        "xyz": [-4.395765448086, -2.537896395921, 1.8769577273110003]
      },
      {
        "species": [{ "element": "Hg", "occu": 1 }],
        "abc": [0.55517, 0.353077, 0.0],
        "properties": { "magmom": 0.0 },
        "label": "Hg",
        "xyz": [0.0, -2.770261208158, -3.5827499196120005]
      },
      {
        "species": [{ "element": "Hg", "occu": 1 }],
        "abc": [0.55517, 0.0, 0.353077],
        "properties": { "magmom": 0.0 },
        "label": "Hg",
        "xyz": [-2.399116551914, 1.385130604079, -3.5827499196120005]
      },
      {
        "species": [{ "element": "Hg", "occu": 1 }],
        "abc": [0.803057999999999, 0.352889, 0.352889],
        "properties": { "magmom": 0.0 },
        "label": "Hg",
        "xyz": [-2.397839114098, -1.384393075003, -4.6500215811259915]
      },
      {
        "species": [{ "element": "Hg", "occu": 1 }],
        "abc": [0.450169, 0.647111, 0.0],
        "properties": { "magmom": 0.0 },
        "label": "Hg",
        "xyz": [0.0, -5.077267849994, -1.9201679340149995]
      },
      {
        "species": [{ "element": "Hg", "occu": 1 }],
        "abc": [0.450169, 0.0, 0.647111],
        "properties": { "magmom": 0.0 },
        "label": "Hg",
        "xyz": [-4.3970428859020005, 2.538633924997, -1.9201679340149995]
      }
    ]
  },
  "task_ids": null,
  "uncorrected_energy_per_atom": null,
  "energy_per_atom": -28.485743897307692,
  "formation_energy_per_atom": 0.13998003615384602,
  "energy_above_hull": 0.13998003615384302,
  "is_stable": false,
  "equilibrium_reaction_energy_per_atom": null,
  "decomposes_to": null,
  "xas": null,
  "grain_boundaries": null,
  "band_gap": 0.0,
  "cbm": null,
  "vbm": null,
  "efermi": 4.66860677,
  "is_gap_direct": null,
  "is_metal": null,
  "es_source_calc_id": null,
  "bandstructure": null,
  "dos": null,
  "dos_energy_up": null,
  "dos_energy_down": null,
  "is_magnetic": null,
  "ordering": null,
  "total_magnetization": 0.0009201999999990001,
  "total_magnetization_normalized_vol": null,
  "total_magnetization_normalized_formula_units": null,
  "num_magnetic_sites": null,
  "num_unique_magnetic_sites": null,
  "types_of_magnetic_species": null,
  "bulk_modulus": null,
  "shear_modulus": null,
  "universal_anisotropy": null,
  "homogeneous_poisson": null,
  "e_total": null,
  "e_ionic": null,
  "e_electronic": null,
  "n": null,
  "e_ij_max": null,
  "weighted_surface_energy_EV_PER_ANG2": null,
  "weighted_surface_energy": null,
  "weighted_work_function": null,
  "surface_anisotropy": null,
  "shape_factor": null,
  "has_reconstructed": null,
  "possible_species": null,
  "has_props": null,
  "theoretical": null,
  "database_IDs": null,
  "fields_not_requested": [
    "builder_meta",
    "nsites",
    "elements",
    "nelements",
    "composition",
    "composition_reduced",
    "chemsys",
    "symmetry",
    "property_name",
    "deprecated",
    "deprecation_reasons",
    "last_updated",
    "origins",
    "warnings",
    "task_ids",
    "uncorrected_energy_per_atom",
    "equilibrium_reaction_energy_per_atom",
    "decomposes_to",
    "xas",
    "grain_boundaries",
    "cbm",
    "vbm",
    "is_gap_direct",
    "is_metal",
    "es_source_calc_id",
    "bandstructure",
    "dos",
    "dos_energy_up",
    "dos_energy_down",
    "is_magnetic",
    "ordering",
    "total_magnetization_normalized_vol",
    "total_magnetization_normalized_formula_units",
    "num_magnetic_sites",
    "num_unique_magnetic_sites",
    "types_of_magnetic_species",
    "bulk_modulus",
    "shear_modulus",
    "universal_anisotropy",
    "homogeneous_poisson",
    "e_total",
    "e_ionic",
    "e_electronic",
    "n",
    "e_ij_max",
    "weighted_surface_energy_EV_PER_ANG2",
    "weighted_surface_energy",
    "weighted_work_function",
    "surface_anisotropy",
    "shape_factor",
    "has_reconstructed",
    "possible_species",
    "has_props",
    "theoretical",
    "database_IDs"
  ]
}
