{
  "builder_meta": null,
  "nsites": null,
  "elements": null,
  "nelements": null,
  "composition": null,
  "composition_reduced": null,
  "formula_pretty": "Cu7Si6",
  "formula_anonymous": "A6B7",
  "chemsys": null,
  "volume": 8059.216641844316,
  "density": 0.12637291856942,
  "density_atomic": 619.939741680332,
  "symmetry": null,
  "property_name": null,
  "material_id": "mp-1213668",
  "deprecated": null,
  "deprecation_reasons": null,
  "last_updated": null,
  "origins": null,
  "warnings": null,
  "structure": {
    "@module": "pymatgen.core.structure",
    "@class": "Structure",
    "charge": 0,
    "lattice": {
      "matrix": [
        [-10.56074709, -18.30140749, -0.01039925],
        [-10.15708491, 18.06817095, 0.00220164],
        [-0.008411499999999001, -0.00730671, -21.39413034]
      ],
      "pbc": [true, true, true],
      "a": 21.12986046708241,
      "b": 20.72740167494692,
      "c": 21.394133241294256,
      "alpha": 90.01210464134074,
      "beta": 89.94359362497161,
      "gamma": 120.67042350551715,
      "volume": 8059.216641844316
    },
    "properties": {},
    "sites": [
      {
        "species": [{ "element": "Cu", "occu": 1 }],
        "abc": [0.9999970300000001, 0.33332634, 0.8939228100000001],
        "properties": { "magmom": 0.009000000000000001 },
        "label": "Cu",
        "xyz": [-13.953858894416987, -12.285287476296988, -19.134366465550087]
      },
      {
        "species": [{ "element": "Cu", "occu": 1 }],
        "abc": [2.969999999999998e-6, 0.6666736600000001, 0.10607719],
        "properties": { "magmom": 0.009000000000000001 },
        "label": "Cu",
        "xyz": [-6.772384605583014, 12.044744226296988, -2.2679614844499145]
      },
      {
        "species": [{ "element": "Cu", "occu": 1 }],
        "abc": [0.89208452, 0.89207585, 0.66665704],
        "properties": { "magmom": 0.009000000000000001 },
        "label": "Cu",
        "xyz": [-18.48757673892643, -0.21309442753523672, -14.26986058590881]
      },
      {
        "species": [{ "element": "Cu", "occu": 1 }],
        "abc": [0.10791548000000001, 0.10792415, 0.33334296],
        "properties": { "magmom": 0.009000000000000001 },
        "label": "Cu",
        "xyz": [-2.2386667610735693, -0.027448822464764454, -7.132467364091191]
      },
      {
        "species": [{ "element": "Cu", "occu": 1 }],
        "abc": [0.6666908300000001, 0.77456197, 1.94e-6],
        "properties": { "magmom": 0.029 },
        "label": "Cu",
        "xyz": [-14.908044956517369, 1.7935375214774372, -0.005269282611106301]
      },
      {
        "species": [{ "element": "Cu", "occu": 1 }],
        "abc": [0.33330917, 0.22543803, 0.99999806],
        "properties": { "magmom": 0.029 },
        "label": "Cu",
        "xyz": [-5.818198543482632, -2.0340807714774374, -21.397058667388894]
      },
      {
        "species": [{ "element": "Cu", "occu": 1 }],
        "abc": [-0.0, 0.0, 0.0],
        "properties": { "magmom": 0.187 },
        "label": "Cu",
        "xyz": [0.0, 0.0, 0.0]
      },
      {
        "species": [{ "element": "Si", "occu": 1 }],
        "abc": [0.9968057100000001, 0.9968086500000001, 0.66662958],
        "properties": { "magmom": 0.269 },
        "label": "Si",
        "xyz": [-20.657290452962528, -0.23730926344853323, -14.27013154100299]
      },
      {
        "species": [{ "element": "Si", "occu": 1 }],
        "abc": [0.0031942900000000002, 0.00319135, 0.33337042],
        "properties": { "magmom": 0.269 },
        "label": "Si",
        "xyz": [
          -0.06895304703747428, -0.0032339865514678084, -7.132196408997012
        ]
      },
      {
        "species": [{ "element": "Si", "occu": 1 }],
        "abc": [0.66667538, 0.66983637, 0.9999972500000001],
        "properties": { "magmom": 0.258 },
        "label": "Si",
        "xyz": [-13.852586442074195, -0.10568644114969473, -21.399529691541385]
      },
      {
        "species": [{ "element": "Si", "occu": 1 }],
        "abc": [0.33332462, 0.33016363, 2.75e-6],
        "properties": { "magmom": 0.258 },
        "label": "Si",
        "xyz": [
          -6.873657057925804, -0.13485680885030887, -0.0027982584586168004
        ]
      },
      {
        "species": [{ "element": "Si", "occu": 1 }],
        "abc": [3.194e-5, 0.33336203000000003, 0.99497272],
        "properties": { "magmom": 0.265 },
        "label": "Si",
        "xyz": [-3.3946929677763014, 6.015387622200847, -21.285842445396643]
      },
      {
        "species": [{ "element": "Si", "occu": 1 }],
        "abc": [0.99996806, 0.66663797, 0.00502728],
        "properties": { "magmom": 0.265 },
        "label": "Si",
        "xyz": [-17.331550532223698, -6.255930872200845, -0.11648550460335941]
      }
    ]
  },
  "task_ids": null,
  "uncorrected_energy_per_atom": null,
  "energy_per_atom": -7.124312604717947,
  "formation_energy_per_atom": 2.765699669897436,
  "energy_above_hull": 2.818135520820512,
  "is_stable": false,
  "equilibrium_reaction_energy_per_atom": null,
  "decomposes_to": null,
  "xas": null,
  "grain_boundaries": null,
  "band_gap": 0.006399999999999,
  "cbm": null,
  "vbm": null,
  "efermi": -3.92136155,
  "is_gap_direct": null,
  "is_metal": null,
  "es_source_calc_id": null,
  "bandstructure": null,
  "dos": null,
  "dos_energy_up": null,
  "dos_energy_down": null,
  "is_magnetic": null,
  "ordering": null,
  "total_magnetization": 6.9174416999999995,
  "total_magnetization_normalized_vol": null,
  "total_magnetization_normalized_formula_units": null,
  "num_magnetic_sites": null,
  "num_unique_magnetic_sites": null,
  "types_of_magnetic_species": null,
  "bulk_modulus": null,
  "shear_modulus": null,
  "universal_anisotropy": null,
  "homogeneous_poisson": null,
  "e_total": null,
  "e_ionic": null,
  "e_electronic": null,
  "n": null,
  "e_ij_max": null,
  "weighted_surface_energy_EV_PER_ANG2": null,
  "weighted_surface_energy": null,
  "weighted_work_function": null,
  "surface_anisotropy": null,
  "shape_factor": null,
  "has_reconstructed": null,
  "possible_species": null,
  "has_props": null,
  "theoretical": null,
  "database_IDs": null,
  "fields_not_requested": [
    "builder_meta",
    "nsites",
    "elements",
    "nelements",
    "composition",
    "composition_reduced",
    "chemsys",
    "symmetry",
    "property_name",
    "deprecated",
    "deprecation_reasons",
    "last_updated",
    "origins",
    "warnings",
    "task_ids",
    "uncorrected_energy_per_atom",
    "equilibrium_reaction_energy_per_atom",
    "decomposes_to",
    "xas",
    "grain_boundaries",
    "cbm",
    "vbm",
    "is_gap_direct",
    "is_metal",
    "es_source_calc_id",
    "bandstructure",
    "dos",
    "dos_energy_up",
    "dos_energy_down",
    "is_magnetic",
    "ordering",
    "total_magnetization_normalized_vol",
    "total_magnetization_normalized_formula_units",
    "num_magnetic_sites",
    "num_unique_magnetic_sites",
    "types_of_magnetic_species",
    "bulk_modulus",
    "shear_modulus",
    "universal_anisotropy",
    "homogeneous_poisson",
    "e_total",
    "e_ionic",
    "e_electronic",
    "n",
    "e_ij_max",
    "weighted_surface_energy_EV_PER_ANG2",
    "weighted_surface_energy",
    "weighted_work_function",
    "surface_anisotropy",
    "shape_factor",
    "has_reconstructed",
    "possible_species",
    "has_props",
    "theoretical",
    "database_IDs"
  ]
}
