{
  "builder_meta": null,
  "nsites": null,
  "elements": null,
  "nelements": null,
  "composition": null,
  "composition_reduced": null,
  "formula_pretty": "Cu7Si2",
  "formula_anonymous": "A2B7",
  "chemsys": null,
  "volume": 109.637235564794,
  "density": 7.587918869967147,
  "density_atomic": 12.18191506275489,
  "symmetry": null,
  "property_name": null,
  "material_id": "mp-1206157",
  "deprecated": null,
  "deprecation_reasons": null,
  "last_updated": null,
  "origins": null,
  "warnings": null,
  "structure": {
    "@module": "pymatgen.core.structure",
    "@class": "Structure",
    "charge": 0,
    "lattice": {
      "matrix": [
        [2.042384, -3.537513, 0.0],
        [2.042384, 3.537513, 0.0],
        [0.0, 0.0, 7.587394]
      ],
      "pbc": [true, true, true],
      "a": 4.084768124217702,
      "b": 4.084768124217702,
      "c": 7.587394,
      "alpha": 90.0,
      "beta": 90.0,
      "gamma": 120.00000201190781,
      "volume": 109.637235564794
    },
    "properties": {},
    "sites": [
      {
        "species": [{ "element": "Cu", "occu": 1 }],
        "abc": [0.333333, 0.666667, 0.154862],
        "properties": { "magmom": 0.0 },
        "label": "Cu",
        "xyz": [2.042384, 1.1791733583420003, 1.1749990096279999]
      },
      {
        "species": [{ "element": "Cu", "occu": 1 }],
        "abc": [0.666667, 0.333333, 0.845138],
        "properties": { "magmom": 0.0 },
        "label": "Cu",
        "xyz": [2.042384, -1.1791733583420003, 6.4123949903719994]
      },
      {
        "species": [{ "element": "Cu", "occu": 1 }],
        "abc": [0.333333, 0.666667, 0.495758],
        "properties": { "magmom": 0.0 },
        "label": "Cu",
        "xyz": [2.042384, 1.1791733583420003, 3.761511274652]
      },
      {
        "species": [{ "element": "Cu", "occu": 1 }],
        "abc": [0.666667, 0.333333, 0.504242],
        "properties": { "magmom": 0.0 },
        "label": "Cu",
        "xyz": [2.042384, -1.1791733583420003, 3.8258827253479994]
      },
      {
        "species": [{ "element": "Cu", "occu": 1 }],
        "abc": [0.0, 0.0, 0.33047000000000004],
        "properties": { "magmom": 0.0 },
        "label": "Cu",
        "xyz": [0.0, 0.0, 2.5074060951800003]
      },
      {
        "species": [{ "element": "Cu", "occu": 1 }],
        "abc": [0.0, 0.0, 0.6695300000000001],
        "properties": { "magmom": 0.0 },
        "label": "Cu",
        "xyz": [0.0, 0.0, 5.07998790482]
      },
      {
        "species": [{ "element": "Cu", "occu": 1 }],
        "abc": [0.0, 0.0, 0.0],
        "properties": { "magmom": 0.0 },
        "label": "Cu",
        "xyz": [0.0, 0.0, 0.0]
      },
      {
        "species": [{ "element": "Si", "occu": 1 }],
        "abc": [0.333333, 0.666667, 0.808705],
        "properties": { "magmom": 0.0 },
        "label": "Si",
        "xyz": [2.042384, 1.1791733583420003, 6.13596346477]
      },
      {
        "species": [{ "element": "Si", "occu": 1 }],
        "abc": [0.666667, 0.333333, 0.191295],
        "properties": { "magmom": 0.0 },
        "label": "Si",
        "xyz": [2.042384, -1.1791733583420003, 1.4514305352299999]
      }
    ]
  },
  "task_ids": null,
  "uncorrected_energy_per_atom": null,
  "energy_per_atom": -10.394724813481481,
  "formation_energy_per_atom": -0.008602459037037,
  "energy_above_hull": 0.06713821451851801,
  "is_stable": false,
  "equilibrium_reaction_energy_per_atom": null,
  "decomposes_to": null,
  "xas": null,
  "grain_boundaries": null,
  "band_gap": 0.0,
  "cbm": null,
  "vbm": null,
  "efermi": 8.90381219,
  "is_gap_direct": null,
  "is_metal": null,
  "es_source_calc_id": null,
  "bandstructure": null,
  "dos": null,
  "dos_energy_up": null,
  "dos_energy_down": null,
  "is_magnetic": null,
  "ordering": null,
  "total_magnetization": 0.0001478,
  "total_magnetization_normalized_vol": null,
  "total_magnetization_normalized_formula_units": null,
  "num_magnetic_sites": null,
  "num_unique_magnetic_sites": null,
  "types_of_magnetic_species": null,
  "bulk_modulus": null,
  "shear_modulus": null,
  "universal_anisotropy": null,
  "homogeneous_poisson": null,
  "e_total": null,
  "e_ionic": null,
  "e_electronic": null,
  "n": null,
  "e_ij_max": null,
  "weighted_surface_energy_EV_PER_ANG2": null,
  "weighted_surface_energy": null,
  "weighted_work_function": null,
  "surface_anisotropy": null,
  "shape_factor": null,
  "has_reconstructed": null,
  "possible_species": null,
  "has_props": null,
  "theoretical": null,
  "database_IDs": null,
  "fields_not_requested": [
    "builder_meta",
    "nsites",
    "elements",
    "nelements",
    "composition",
    "composition_reduced",
    "chemsys",
    "symmetry",
    "property_name",
    "deprecated",
    "deprecation_reasons",
    "last_updated",
    "origins",
    "warnings",
    "task_ids",
    "uncorrected_energy_per_atom",
    "equilibrium_reaction_energy_per_atom",
    "decomposes_to",
    "xas",
    "grain_boundaries",
    "cbm",
    "vbm",
    "is_gap_direct",
    "is_metal",
    "es_source_calc_id",
    "bandstructure",
    "dos",
    "dos_energy_up",
    "dos_energy_down",
    "is_magnetic",
    "ordering",
    "total_magnetization_normalized_vol",
    "total_magnetization_normalized_formula_units",
    "num_magnetic_sites",
    "num_unique_magnetic_sites",
    "types_of_magnetic_species",
    "bulk_modulus",
    "shear_modulus",
    "universal_anisotropy",
    "homogeneous_poisson",
    "e_total",
    "e_ionic",
    "e_electronic",
    "n",
    "e_ij_max",
    "weighted_surface_energy_EV_PER_ANG2",
    "weighted_surface_energy",
    "weighted_work_function",
    "surface_anisotropy",
    "shape_factor",
    "has_reconstructed",
    "possible_species",
    "has_props",
    "theoretical",
    "database_IDs"
  ]
}
