{
  "builder_meta": null,
  "nsites": null,
  "elements": null,
  "nelements": null,
  "composition": null,
  "composition_reduced": null,
  "formula_pretty": "Cu7Te4",
  "formula_anonymous": "A4B7",
  "chemsys": null,
  "volume": 407.45295611017156,
  "density": 7.785848277644575,
  "density_atomic": 18.520588914098706,
  "symmetry": null,
  "property_name": null,
  "material_id": "mp-624307",
  "deprecated": null,
  "deprecation_reasons": null,
  "last_updated": null,
  "origins": null,
  "warnings": null,
  "structure": {
    "@module": "pymatgen.core.structure",
    "@class": "Structure",
    "charge": 0,
    "lattice": {
      "matrix": [
        [3.870561, -6.704009, 0.0],
        [3.870561, 6.704009, 0.0],
        [0.0, 0.0, 7.851253]
      ],
      "pbc": [true, true, true],
      "a": 7.7411226011995184,
      "b": 7.7411226011995184,
      "c": 7.851253,
      "alpha": 90.0,
      "beta": 90.0,
      "gamma": 120.00000513814878,
      "volume": 407.45295611017156
    },
    "properties": {},
    "sites": [
      {
        "species": [{ "element": "Cu", "occu": 1 }],
        "abc": [0.333333, 0.666667, 0.205266999999999],
        "properties": { "magmom": -0.0 },
        "label": "Cu",
        "xyz": [3.8705609999999995, 2.2346741360060003, 1.6116031495509922]
      },
      {
        "species": [{ "element": "Cu", "occu": 1 }],
        "abc": [0.666667, 0.333333, 0.971443],
        "properties": { "magmom": -0.0 },
        "label": "Cu",
        "xyz": [3.8705609999999995, -2.2346741360060003, 7.627044768078999]
      },
      {
        "species": [{ "element": "Cu", "occu": 1 }],
        "abc": [0.799429, 0.200571, 0.478933],
        "properties": { "magmom": 0.0 },
        "label": "Cu",
        "xyz": [3.870561, -4.014749421722, 3.7602241530489997]
      },
      {
        "species": [{ "element": "Cu", "occu": 1 }],
        "abc": [0.799429, 0.598858, 0.478933],
        "properties": { "magmom": -0.0 },
        "label": "Cu",
        "xyz": [5.412155129006999, -1.3446297891389998, 3.7602241530489997]
      },
      {
        "species": [{ "element": "Cu", "occu": 1 }],
        "abc": [0.401142, 0.200571, 0.478933],
        "properties": { "magmom": -0.0 },
        "label": "Cu",
        "xyz": [2.328966870993, -1.344629789139, 3.7602241530489997]
      },
      {
        "species": [{ "element": "Cu", "occu": 1 }],
        "abc": [0.204080999999999, 0.795918999999999, 0.447233999999999],
        "properties": { "magmom": 0.0 },
        "label": "Cu",
        "xyz": [3.8705609999999924, 3.967687278542, 3.5113472842019924]
      },
      {
        "species": [{ "element": "Cu", "occu": 1 }],
        "abc": [0.204080999999999, 0.408161999999999, 0.447233999999999],
        "properties": { "magmom": -0.0 },
        "label": "Cu",
        "xyz": [2.3697238783229926, 1.3681608607290001, 3.5113472842019924]
      },
      {
        "species": [{ "element": "Cu", "occu": 1 }],
        "abc": [0.591838, 0.795918999999999, 0.447233999999999],
        "properties": { "magmom": -0.0 },
        "label": "Cu",
        "xyz": [5.371398121676996, 1.3681608607289935, 3.5113472842019924]
      },
      {
        "species": [{ "element": "Cu", "occu": 1 }],
        "abc": [0.853596999999999, 0.146403, 0.848495999999999],
        "properties": { "magmom": 0.0 },
        "label": "Cu",
        "xyz": [3.870560999999996, -4.741034940745994, 6.661756765487993]
      },
      {
        "species": [{ "element": "Cu", "occu": 1 }],
        "abc": [0.853596999999999, 0.707193, 0.848495999999999],
        "properties": { "magmom": -0.0 },
        "label": "Cu",
        "xyz": [6.041132903189996, -0.9814937336359941, 6.661756765487993]
      },
      {
        "species": [{ "element": "Cu", "occu": 1 }],
        "abc": [0.292807, 0.146403, 0.848495999999999],
        "properties": { "magmom": -0.0 },
        "label": "Cu",
        "xyz": [1.69998909681, -0.9814937336359998, 6.661756765487993]
      },
      {
        "species": [{ "element": "Cu", "occu": 1 }],
        "abc": [0.207527, 0.792473, 0.963637],
        "properties": { "magmom": -0.001 },
        "label": "Cu",
        "xyz": [3.8705609999999995, 3.921483248514, 7.565757887160999]
      },
      {
        "species": [{ "element": "Cu", "occu": 1 }],
        "abc": [0.207527, 0.415054, 0.963637],
        "properties": { "magmom": 0.0 },
        "label": "Cu",
        "xyz": [2.4097377379409997, 1.391262875743, 7.565757887160999]
      },
      {
        "species": [{ "element": "Cu", "occu": 1 }],
        "abc": [0.584946, 0.792473, 0.963637],
        "properties": { "magmom": 0.0 },
        "label": "Cu",
        "xyz": [5.331384262059, 1.3912628757430001, 7.565757887160999]
      },
      {
        "species": [{ "element": "Te", "occu": 1 }],
        "abc": [0.0, 0.0, 0.06452000000000001],
        "properties": { "magmom": -0.0 },
        "label": "Te",
        "xyz": [0.0, 0.0, 0.50656284356]
      },
      {
        "species": [{ "element": "Te", "occu": 1 }],
        "abc": [0.0, 0.0, 0.546823],
        "properties": { "magmom": 0.0 },
        "label": "Te",
        "xyz": [0.0, 0.0, 4.293245719219]
      },
      {
        "species": [{ "element": "Te", "occu": 1 }],
        "abc": [0.518863, 0.481137, 0.227474999999999],
        "properties": { "magmom": -0.001 },
        "label": "Te",
        "xyz": [3.8705609999999995, -0.252915443534, 1.7859637761749922]
      },
      {
        "species": [{ "element": "Te", "occu": 1 }],
        "abc": [0.518863, 0.037725999999999, 0.227474999999999],
        "properties": { "magmom": 0.0 },
        "label": "Te",
        "xyz": [2.154311676428996, -3.2255467782330065, 1.7859637761749922]
      },
      {
        "species": [{ "element": "Te", "occu": 1 }],
        "abc": [0.962274, 0.481137, 0.227474999999999],
        "properties": { "magmom": 0.0 },
        "label": "Te",
        "xyz": [5.586810323570999, -3.225546778233, 1.7859637761749922]
      },
      {
        "species": [{ "element": "Te", "occu": 1 }],
        "abc": [0.493807999999999, 0.506192, 0.7155400000000001],
        "properties": { "magmom": 0.001 },
        "label": "Te",
        "xyz": [3.870560999999996, 0.08302244745600662, 5.6178855716200005]
      },
      {
        "species": [{ "element": "Te", "occu": 1 }],
        "abc": [0.493807999999999, 0.987615999999999, 0.7155400000000001],
        "properties": { "magmom": -0.001 },
        "label": "Te",
        "xyz": [5.733941958863992, 3.3104932762720005, 5.6178855716200005]
      },
      {
        "species": [{ "element": "Te", "occu": 1 }],
        "abc": [0.012384, 0.506192, 0.7155400000000001],
        "properties": { "magmom": -0.0 },
        "label": "Te",
        "xyz": [2.007180041136, 3.310493276272, 5.6178855716200005]
      }
    ]
  },
  "task_ids": null,
  "uncorrected_energy_per_atom": null,
  "energy_per_atom": -16.060471613636363,
  "formation_energy_per_atom": 0.084661953636361,
  "energy_above_hull": 0.14590168272727402,
  "is_stable": false,
  "equilibrium_reaction_energy_per_atom": null,
  "decomposes_to": null,
  "xas": null,
  "grain_boundaries": null,
  "band_gap": 0.0,
  "cbm": null,
  "vbm": null,
  "efermi": 7.42847646,
  "is_gap_direct": null,
  "is_metal": null,
  "es_source_calc_id": null,
  "bandstructure": null,
  "dos": null,
  "dos_energy_up": null,
  "dos_energy_down": null,
  "is_magnetic": null,
  "ordering": null,
  "total_magnetization": 0.0043564,
  "total_magnetization_normalized_vol": null,
  "total_magnetization_normalized_formula_units": null,
  "num_magnetic_sites": null,
  "num_unique_magnetic_sites": null,
  "types_of_magnetic_species": null,
  "bulk_modulus": null,
  "shear_modulus": null,
  "universal_anisotropy": null,
  "homogeneous_poisson": null,
  "e_total": null,
  "e_ionic": null,
  "e_electronic": null,
  "n": null,
  "e_ij_max": null,
  "weighted_surface_energy_EV_PER_ANG2": null,
  "weighted_surface_energy": null,
  "weighted_work_function": null,
  "surface_anisotropy": null,
  "shape_factor": null,
  "has_reconstructed": null,
  "possible_species": null,
  "has_props": null,
  "theoretical": null,
  "database_IDs": null,
  "fields_not_requested": [
    "builder_meta",
    "nsites",
    "elements",
    "nelements",
    "composition",
    "composition_reduced",
    "chemsys",
    "symmetry",
    "property_name",
    "deprecated",
    "deprecation_reasons",
    "last_updated",
    "origins",
    "warnings",
    "task_ids",
    "uncorrected_energy_per_atom",
    "equilibrium_reaction_energy_per_atom",
    "decomposes_to",
    "xas",
    "grain_boundaries",
    "cbm",
    "vbm",
    "is_gap_direct",
    "is_metal",
    "es_source_calc_id",
    "bandstructure",
    "dos",
    "dos_energy_up",
    "dos_energy_down",
    "is_magnetic",
    "ordering",
    "total_magnetization_normalized_vol",
    "total_magnetization_normalized_formula_units",
    "num_magnetic_sites",
    "num_unique_magnetic_sites",
    "types_of_magnetic_species",
    "bulk_modulus",
    "shear_modulus",
    "universal_anisotropy",
    "homogeneous_poisson",
    "e_total",
    "e_ionic",
    "e_electronic",
    "n",
    "e_ij_max",
    "weighted_surface_energy_EV_PER_ANG2",
    "weighted_surface_energy",
    "weighted_work_function",
    "surface_anisotropy",
    "shape_factor",
    "has_reconstructed",
    "possible_species",
    "has_props",
    "theoretical",
    "database_IDs"
  ]
}
