{
  "builder_meta": null,
  "nsites": null,
  "elements": null,
  "nelements": null,
  "composition": null,
  "composition_reduced": null,
  "formula_pretty": "Cu8O7",
  "formula_anonymous": "A7B8",
  "chemsys": null,
  "volume": 172.54328033558244,
  "density": 5.970318423301649,
  "density_atomic": 11.502885355705496,
  "symmetry": null,
  "property_name": null,
  "material_id": "mp-760084",
  "deprecated": null,
  "deprecation_reasons": null,
  "last_updated": null,
  "origins": null,
  "warnings": null,
  "structure": {
    "@module": "pymatgen.core.structure",
    "@class": "Structure",
    "charge": 0,
    "lattice": {
      "matrix": [
        [2.942024, 5.743594, 0.0],
        [-2.942024, 5.743594, 0.0],
        [0.0, 2.956696, 5.105498]
      ],
      "pbc": [true, true, true],
      "a": 6.453245482190493,
      "b": 6.453245482190493,
      "c": 5.899844155943443,
      "alpha": 63.51024291084948,
      "beta": 63.51024291084948,
      "gamma": 54.245501762464016,
      "volume": 172.54328033558244
    },
    "properties": {},
    "sites": [
      {
        "species": [{ "element": "Cu", "occu": 1 }],
        "abc": [0.002235999999999, 0.002235999999999, 0.007940000000000001],
        "properties": { "magmom": 0.011 },
        "label": "Cu",
        "xyz": [0.0, 0.049161518607988515, 0.04053765412]
      },
      {
        "species": [{ "element": "Cu", "occu": 1 }],
        "abc": [0.509147999999999, 0.509147999999999, 0.971467],
        "properties": { "magmom": 0.053 },
        "label": "Cu",
        "xyz": [0.0, 8.721011388855988, 4.9598228255659995]
      },
      {
        "species": [{ "element": "Cu", "occu": 1 }],
        "abc": [0.500652, 0.007580000000000001, 0.999173],
        "properties": { "magmom": 0.09 },
        "label": "Cu",
        "xyz": [1.450629657728, 5.873329078216, 5.101275753154]
      },
      {
        "species": [{ "element": "Cu", "occu": 1 }],
        "abc": [0.007580000000000001, 0.500652, 0.999173],
        "properties": { "magmom": 0.09 },
        "label": "Cu",
        "xyz": [-1.450629657728, 5.873329078216, 5.101275753154]
      },
      {
        "species": [{ "element": "Cu", "occu": 1 }],
        "abc": [0.744340999999999, 0.744340999999999, 0.499131999999999],
        "properties": { "magmom": 0.134 },
        "label": "Cu",
        "xyz": [0.0, 10.026166590979987, 2.548317427735995]
      },
      {
        "species": [{ "element": "Cu", "occu": 1 }],
        "abc": [0.265310999999999, 0.265310999999999, 0.499874],
        "properties": { "magmom": -0.058 },
        "label": "Cu",
        "xyz": [0.0, 4.525652791771988, 2.5521057072519997]
      },
      {
        "species": [{ "element": "Cu", "occu": 1 }],
        "abc": [0.264167, 0.758332, 0.514852],
        "properties": { "magmom": 0.188 },
        "label": "Cu",
        "xyz": [-1.4538452899599998, 7.395079970397999, 2.628575856296]
      },
      {
        "species": [{ "element": "Cu", "occu": 1 }],
        "abc": [0.758332, 0.264167, 0.514852],
        "properties": { "magmom": 0.188 },
        "label": "Cu",
        "xyz": [1.4538452899599998, 7.395079970397999, 2.628575856296]
      },
      {
        "species": [{ "element": "O", "occu": 1 }],
        "abc": [0.810932, 0.810932, 0.129894999999999],
        "properties": { "magmom": 0.032 },
        "label": "O",
        "xyz": [0.0, 9.699388366135997, 0.6631786627099949]
      },
      {
        "species": [{ "element": "O", "occu": 1 }],
        "abc": [0.321231, 0.321231, 0.129907],
        "properties": { "magmom": 0.018000000000000002 },
        "label": "O",
        "xyz": [0.0, 4.0741363957, 0.6632399286859999]
      },
      {
        "species": [{ "element": "O", "occu": 1 }],
        "abc": [0.19393000000000002, 0.19393000000000002, 0.8737400000000001],
        "properties": { "magmom": 0.015 },
        "label": "O",
        "xyz": [0.0, 4.81109393188, 4.4608778225200005]
      },
      {
        "species": [{ "element": "O", "occu": 1 }],
        "abc": [0.071765, 0.071765, 0.630486],
        "properties": { "magmom": 0.015 },
        "label": "O",
        "xyz": [0.0, 2.688533481076, 3.2189450120279997]
      },
      {
        "species": [{ "element": "O", "occu": 1 }],
        "abc": [0.691790999999999, 0.691790999999999, 0.858096],
        "properties": { "magmom": 0.049 },
        "label": "O",
        "xyz": [0.0, 10.483862284523989, 4.381007411808]
      },
      {
        "species": [{ "element": "O", "occu": 1 }],
        "abc": [0.946083, 0.946083, 0.367494],
        "properties": { "magmom": 0.181 },
        "label": "O",
        "xyz": [0.0, 11.954401324428, 1.8762398820119999]
      },
      {
        "species": [{ "element": "O", "occu": 1 }],
        "abc": [0.452364999999999, 0.452364999999999, 0.405443],
        "properties": { "magmom": 0.069 },
        "label": "O",
        "xyz": [0.0, 6.395173495947988, 2.069988425614]
      }
    ]
  },
  "task_ids": null,
  "uncorrected_energy_per_atom": null,
  "energy_per_atom": -5.326830868666666,
  "formation_energy_per_atom": -0.8315388423333321,
  "energy_above_hull": 0.051598199333333004,
  "is_stable": false,
  "equilibrium_reaction_energy_per_atom": null,
  "decomposes_to": null,
  "xas": null,
  "grain_boundaries": null,
  "band_gap": 0.0,
  "cbm": null,
  "vbm": null,
  "efermi": 4.43055258,
  "is_gap_direct": null,
  "is_metal": null,
  "es_source_calc_id": null,
  "bandstructure": null,
  "dos": null,
  "dos_energy_up": null,
  "dos_energy_down": null,
  "is_magnetic": null,
  "ordering": null,
  "total_magnetization": 1.1268036,
  "total_magnetization_normalized_vol": null,
  "total_magnetization_normalized_formula_units": null,
  "num_magnetic_sites": null,
  "num_unique_magnetic_sites": null,
  "types_of_magnetic_species": null,
  "bulk_modulus": null,
  "shear_modulus": null,
  "universal_anisotropy": null,
  "homogeneous_poisson": null,
  "e_total": null,
  "e_ionic": null,
  "e_electronic": null,
  "n": null,
  "e_ij_max": null,
  "weighted_surface_energy_EV_PER_ANG2": null,
  "weighted_surface_energy": null,
  "weighted_work_function": null,
  "surface_anisotropy": null,
  "shape_factor": null,
  "has_reconstructed": null,
  "possible_species": null,
  "has_props": null,
  "theoretical": null,
  "database_IDs": null,
  "fields_not_requested": [
    "builder_meta",
    "nsites",
    "elements",
    "nelements",
    "composition",
    "composition_reduced",
    "chemsys",
    "symmetry",
    "property_name",
    "deprecated",
    "deprecation_reasons",
    "last_updated",
    "origins",
    "warnings",
    "task_ids",
    "uncorrected_energy_per_atom",
    "equilibrium_reaction_energy_per_atom",
    "decomposes_to",
    "xas",
    "grain_boundaries",
    "cbm",
    "vbm",
    "is_gap_direct",
    "is_metal",
    "es_source_calc_id",
    "bandstructure",
    "dos",
    "dos_energy_up",
    "dos_energy_down",
    "is_magnetic",
    "ordering",
    "total_magnetization_normalized_vol",
    "total_magnetization_normalized_formula_units",
    "num_magnetic_sites",
    "num_unique_magnetic_sites",
    "types_of_magnetic_species",
    "bulk_modulus",
    "shear_modulus",
    "universal_anisotropy",
    "homogeneous_poisson",
    "e_total",
    "e_ionic",
    "e_electronic",
    "n",
    "e_ij_max",
    "weighted_surface_energy_EV_PER_ANG2",
    "weighted_surface_energy",
    "weighted_work_function",
    "surface_anisotropy",
    "shape_factor",
    "has_reconstructed",
    "possible_species",
    "has_props",
    "theoretical",
    "database_IDs"
  ]
}
