{
  "builder_meta": null,
  "nsites": null,
  "elements": null,
  "nelements": null,
  "composition": null,
  "composition_reduced": null,
  "formula_pretty": "Cu8O",
  "formula_anonymous": "AB8",
  "chemsys": null,
  "volume": 106.07990017217307,
  "density": 8.208270855630762,
  "density_atomic": 11.786655574685897,
  "symmetry": null,
  "property_name": null,
  "material_id": "mp-31217",
  "deprecated": null,
  "deprecation_reasons": null,
  "last_updated": null,
  "origins": null,
  "warnings": null,
  "structure": {
    "@module": "pymatgen.core.structure",
    "@class": "Structure",
    "charge": 0,
    "lattice": {
      "matrix": [
        [3.087784, -3.15959, 0.0],
        [3.087784, 3.15959, 0.0],
        [0.0, 0.0, 5.436576]
      ],
      "pbc": [true, true, true],
      "a": 4.417852306127492,
      "b": 4.417852306127492,
      "c": 5.436576,
      "alpha": 90.0,
      "beta": 90.0,
      "gamma": 91.31703323256197,
      "volume": 106.07990017217307
    },
    "properties": {},
    "sites": [
      {
        "species": [{ "element": "Cu", "occu": 1 }],
        "abc": [0.7879100000000001, 0.7879100000000001, 0.5],
        "properties": { "magmom": 0.0 },
        "label": "Cu",
        "xyz": [4.865791782880001, 0.0, 2.718288]
      },
      {
        "species": [{ "element": "Cu", "occu": 1 }],
        "abc": [0.21209000000000003, 0.21209000000000003, 0.5],
        "properties": { "magmom": 0.0 },
        "label": "Cu",
        "xyz": [1.3097762171200003, 0.0, 2.718288]
      },
      {
        "species": [{ "element": "Cu", "occu": 1 }],
        "abc": [0.811801, 0.811801, 0.0],
        "properties": { "magmom": 0.0 },
        "label": "Cu",
        "xyz": [5.013332277968, 0.0, 0.0]
      },
      {
        "species": [{ "element": "Cu", "occu": 1 }],
        "abc": [0.188199, 0.188199, 0.0],
        "properties": { "magmom": 0.0 },
        "label": "Cu",
        "xyz": [1.162235722032, 0.0, 0.0]
      },
      {
        "species": [{ "element": "Cu", "occu": 1 }],
        "abc": [0.27583799999999903, 0.724162, 0.272837],
        "properties": { "magmom": -0.0 },
        "label": "Cu",
        "xyz": [3.0877839999999974, 1.4165200271600034, 1.483299086112]
      },
      {
        "species": [{ "element": "Cu", "occu": 1 }],
        "abc": [0.27583799999999903, 0.724162, 0.727163],
        "properties": { "magmom": 0.0 },
        "label": "Cu",
        "xyz": [3.0877839999999974, 1.4165200271600034, 3.9532769138879997]
      },
      {
        "species": [{ "element": "Cu", "occu": 1 }],
        "abc": [0.724162, 0.27583799999999903, 0.727163],
        "properties": { "magmom": -0.0 },
        "label": "Cu",
        "xyz": [3.0877839999999974, -1.4165200271600034, 3.9532769138879997]
      },
      {
        "species": [{ "element": "Cu", "occu": 1 }],
        "abc": [0.724162, 0.27583799999999903, 0.272837],
        "properties": { "magmom": 0.0 },
        "label": "Cu",
        "xyz": [3.0877839999999974, -1.4165200271600034, 1.483299086112]
      },
      {
        "species": [{ "element": "O", "occu": 1 }],
        "abc": [0.5, 0.5, 0.0],
        "properties": { "magmom": 0.0 },
        "label": "O",
        "xyz": [3.087784, 0.0, 0.0]
      }
    ]
  },
  "task_ids": null,
  "uncorrected_energy_per_atom": null,
  "energy_per_atom": -4.290759046666666,
  "formation_energy_per_atom": -0.09724633944444301,
  "energy_above_hull": 0.117588806666667,
  "is_stable": false,
  "equilibrium_reaction_energy_per_atom": null,
  "decomposes_to": null,
  "xas": null,
  "grain_boundaries": null,
  "band_gap": 0.0,
  "cbm": null,
  "vbm": null,
  "efermi": 6.34696577,
  "is_gap_direct": null,
  "is_metal": null,
  "es_source_calc_id": null,
  "bandstructure": null,
  "dos": null,
  "dos_energy_up": null,
  "dos_energy_down": null,
  "is_magnetic": null,
  "ordering": null,
  "total_magnetization": 0.0008361,
  "total_magnetization_normalized_vol": null,
  "total_magnetization_normalized_formula_units": null,
  "num_magnetic_sites": null,
  "num_unique_magnetic_sites": null,
  "types_of_magnetic_species": null,
  "bulk_modulus": null,
  "shear_modulus": null,
  "universal_anisotropy": null,
  "homogeneous_poisson": null,
  "e_total": null,
  "e_ionic": null,
  "e_electronic": null,
  "n": null,
  "e_ij_max": null,
  "weighted_surface_energy_EV_PER_ANG2": null,
  "weighted_surface_energy": null,
  "weighted_work_function": null,
  "surface_anisotropy": null,
  "shape_factor": null,
  "has_reconstructed": null,
  "possible_species": null,
  "has_props": null,
  "theoretical": null,
  "database_IDs": null,
  "fields_not_requested": [
    "builder_meta",
    "nsites",
    "elements",
    "nelements",
    "composition",
    "composition_reduced",
    "chemsys",
    "symmetry",
    "property_name",
    "deprecated",
    "deprecation_reasons",
    "last_updated",
    "origins",
    "warnings",
    "task_ids",
    "uncorrected_energy_per_atom",
    "equilibrium_reaction_energy_per_atom",
    "decomposes_to",
    "xas",
    "grain_boundaries",
    "cbm",
    "vbm",
    "is_gap_direct",
    "is_metal",
    "es_source_calc_id",
    "bandstructure",
    "dos",
    "dos_energy_up",
    "dos_energy_down",
    "is_magnetic",
    "ordering",
    "total_magnetization_normalized_vol",
    "total_magnetization_normalized_formula_units",
    "num_magnetic_sites",
    "num_unique_magnetic_sites",
    "types_of_magnetic_species",
    "bulk_modulus",
    "shear_modulus",
    "universal_anisotropy",
    "homogeneous_poisson",
    "e_total",
    "e_ionic",
    "e_electronic",
    "n",
    "e_ij_max",
    "weighted_surface_energy_EV_PER_ANG2",
    "weighted_surface_energy",
    "weighted_work_function",
    "surface_anisotropy",
    "shape_factor",
    "has_reconstructed",
    "possible_species",
    "has_props",
    "theoretical",
    "database_IDs"
  ]
}
