{
  "builder_meta": null,
  "nsites": null,
  "elements": null,
  "nelements": null,
  "composition": null,
  "composition_reduced": null,
  "formula_pretty": "CuAg3",
  "formula_anonymous": "AB3",
  "chemsys": null,
  "volume": 132.66793233845002,
  "density": 9.691546172854762,
  "density_atomic": 16.583491542306252,
  "symmetry": null,
  "property_name": null,
  "material_id": "mp-984351",
  "deprecated": null,
  "deprecation_reasons": null,
  "last_updated": null,
  "origins": null,
  "warnings": null,
  "structure": {
    "@module": "pymatgen.core.structure",
    "@class": "Structure",
    "charge": 0,
    "lattice": {
      "matrix": [
        [2.873008999999999, -4.976197, 0.0],
        [2.873008999999999, 4.976197, 0.0],
        [0.0, 0.0, 4.639823]
      ],
      "pbc": [true, true, true],
      "a": 5.746017516235918,
      "b": 5.746017516235918,
      "c": 4.639823,
      "alpha": 90.0,
      "beta": 90.0,
      "gamma": 119.99999442995532,
      "volume": 132.66793233844993
    },
    "properties": {},
    "sites": [
      {
        "species": [{ "element": "Cu", "occu": 1 }],
        "abc": [0.333333, 0.666667, 0.75],
        "properties": { "magmom": -0.0 },
        "label": "Cu",
        "xyz": [2.873008999999999, 1.6587356507980002, 3.47986725]
      },
      {
        "species": [{ "element": "Cu", "occu": 1 }],
        "abc": [0.666667, 0.333333, 0.25],
        "properties": { "magmom": -0.0 },
        "label": "Cu",
        "xyz": [2.873008999999999, -1.6587356507980002, 1.15995575]
      },
      {
        "species": [{ "element": "Ag", "occu": 1 }],
        "abc": [0.169397, 0.338794, 0.25],
        "properties": { "magmom": -0.0 },
        "label": "Ag",
        "xyz": [1.4600373167189993, 0.842952843209, 1.15995575]
      },
      {
        "species": [{ "element": "Ag", "occu": 1 }],
        "abc": [0.661206, 0.830603, 0.25],
        "properties": { "magmom": -0.0 },
        "label": "Ag",
        "xyz": [4.285980683280998, 0.8429528432090003, 1.15995575]
      },
      {
        "species": [{ "element": "Ag", "occu": 1 }],
        "abc": [0.169397, 0.830603, 0.25],
        "properties": { "magmom": -0.0 },
        "label": "Ag",
        "xyz": [2.873008999999999, 3.290291313582, 1.15995575]
      },
      {
        "species": [{ "element": "Ag", "occu": 1 }],
        "abc": [0.830603, 0.661206, 0.75],
        "properties": { "magmom": -0.0 },
        "label": "Ag",
        "xyz": [4.285980683280998, -0.8429528432090003, 3.47986725]
      },
      {
        "species": [{ "element": "Ag", "occu": 1 }],
        "abc": [0.338794, 0.169397, 0.75],
        "properties": { "magmom": -0.0 },
        "label": "Ag",
        "xyz": [1.4600373167189993, -0.842952843209, 3.47986725]
      },
      {
        "species": [{ "element": "Ag", "occu": 1 }],
        "abc": [0.830603, 0.169397, 0.75],
        "properties": { "magmom": -0.0 },
        "label": "Ag",
        "xyz": [2.873008999999999, -3.290291313582, 3.47986725]
      }
    ]
  },
  "task_ids": null,
  "uncorrected_energy_per_atom": null,
  "energy_per_atom": -18.64289905125,
  "formation_energy_per_atom": 0.08570780750000001,
  "energy_above_hull": 0.08570780750000001,
  "is_stable": false,
  "equilibrium_reaction_energy_per_atom": null,
  "decomposes_to": null,
  "xas": null,
  "grain_boundaries": null,
  "band_gap": 0.0,
  "cbm": null,
  "vbm": null,
  "efermi": 3.78740584,
  "is_gap_direct": null,
  "is_metal": null,
  "es_source_calc_id": null,
  "bandstructure": null,
  "dos": null,
  "dos_energy_up": null,
  "dos_energy_down": null,
  "is_magnetic": null,
  "ordering": null,
  "total_magnetization": 0.0001484,
  "total_magnetization_normalized_vol": null,
  "total_magnetization_normalized_formula_units": null,
  "num_magnetic_sites": null,
  "num_unique_magnetic_sites": null,
  "types_of_magnetic_species": null,
  "bulk_modulus": null,
  "shear_modulus": null,
  "universal_anisotropy": null,
  "homogeneous_poisson": null,
  "e_total": null,
  "e_ionic": null,
  "e_electronic": null,
  "n": null,
  "e_ij_max": null,
  "weighted_surface_energy_EV_PER_ANG2": null,
  "weighted_surface_energy": null,
  "weighted_work_function": null,
  "surface_anisotropy": null,
  "shape_factor": null,
  "has_reconstructed": null,
  "possible_species": null,
  "has_props": null,
  "theoretical": null,
  "database_IDs": null,
  "fields_not_requested": [
    "builder_meta",
    "nsites",
    "elements",
    "nelements",
    "composition",
    "composition_reduced",
    "chemsys",
    "symmetry",
    "property_name",
    "deprecated",
    "deprecation_reasons",
    "last_updated",
    "origins",
    "warnings",
    "task_ids",
    "uncorrected_energy_per_atom",
    "equilibrium_reaction_energy_per_atom",
    "decomposes_to",
    "xas",
    "grain_boundaries",
    "cbm",
    "vbm",
    "is_gap_direct",
    "is_metal",
    "es_source_calc_id",
    "bandstructure",
    "dos",
    "dos_energy_up",
    "dos_energy_down",
    "is_magnetic",
    "ordering",
    "total_magnetization_normalized_vol",
    "total_magnetization_normalized_formula_units",
    "num_magnetic_sites",
    "num_unique_magnetic_sites",
    "types_of_magnetic_species",
    "bulk_modulus",
    "shear_modulus",
    "universal_anisotropy",
    "homogeneous_poisson",
    "e_total",
    "e_ionic",
    "e_electronic",
    "n",
    "e_ij_max",
    "weighted_surface_energy_EV_PER_ANG2",
    "weighted_surface_energy",
    "weighted_work_function",
    "surface_anisotropy",
    "shape_factor",
    "has_reconstructed",
    "possible_species",
    "has_props",
    "theoretical",
    "database_IDs"
  ]
}
