{
  "builder_meta": null,
  "nsites": null,
  "elements": null,
  "nelements": null,
  "composition": null,
  "composition_reduced": null,
  "formula_pretty": "CuB5",
  "formula_anonymous": "AB5",
  "chemsys": null,
  "volume": 869.9323215547628,
  "density": 3.591655119510278,
  "density_atomic": 9.061795016195445,
  "symmetry": null,
  "property_name": null,
  "material_id": "mp-1181765",
  "deprecated": null,
  "deprecation_reasons": null,
  "last_updated": null,
  "origins": null,
  "warnings": null,
  "structure": {
    "@module": "pymatgen.core.structure",
    "@class": "Structure",
    "charge": 0,
    "lattice": {
      "matrix": [
        [5.806383, -4.7000000000000004e-5, -1.9e-5],
        [-8.800000000000001e-5, 10.882123, -3.1e-5],
        [-4.4000000000000006e-5, -4.7000000000000004e-5, 13.767851]
      ],
      "pbc": [true, true, true],
      "a": 5.806383000221309,
      "b": 10.882123000399968,
      "c": 13.767851000150532,
      "alpha": 90.0003588109746,
      "beta": 90.00037059392781,
      "gamma": 90.00092711378724,
      "volume": 869.9323215547628
    },
    "properties": {},
    "sites": [
      {
        "species": [{ "element": "Cu", "occu": 1 }],
        "abc": [0.749629, 0.791051, 0.248742],
        "properties": { "magmom": -0.0 },
        "label": "Cu",
        "xyz": [4.352552524771, 8.608267357835999, 3.42460402791]
      },
      {
        "species": [{ "element": "Cu", "occu": 1 }],
        "abc": [0.249535999999999, 0.208934999999999, 0.251222],
        "properties": { "magmom": -0.0 },
        "label": "Cu",
        "xyz": [1.4488721482399942, 2.2736328333789895, 3.4587758457530002]
      },
      {
        "species": [{ "element": "Cu", "occu": 1 }],
        "abc": [0.250415, 0.708917, 0.748748],
        "properties": { "magmom": 0.0 },
        "label": "Cu",
        "xyz": [1.4539100693370002, 7.71447503013, 10.308624166236]
      },
      {
        "species": [{ "element": "Cu", "occu": 1 }],
        "abc": [0.750419, 0.291086, 0.751259],
        "properties": { "magmom": 0.0 },
        "label": "Cu",
        "xyz": [4.357161453513, 3.167563076712, 10.343198692782]
      },
      {
        "species": [{ "element": "Cu", "occu": 1 }],
        "abc": [0.250371, 0.208949, 0.751258],
        "properties": { "magmom": -0.0 },
        "label": "Cu",
        "xyz": [1.453698475229, 2.273761642164, 10.34319697209]
      },
      {
        "species": [{ "element": "Cu", "occu": 1 }],
        "abc": [0.750464, 0.791065, 0.748777999999999],
        "properties": { "magmom": -0.0 },
        "label": "Cu",
        "xyz": [4.35737885176, 8.608396166621, 10.309025154246987]
      },
      {
        "species": [{ "element": "Cu", "occu": 1 }],
        "abc": [0.749585, 0.291083, 0.251252],
        "properties": { "magmom": 0.0 },
        "label": "Cu",
        "xyz": [4.352340930663001, 3.1675539698699997, 3.4591768337639994]
      },
      {
        "species": [{ "element": "Cu", "occu": 1 }],
        "abc": [0.249581, 0.708913999999999, 0.248741],
        "properties": { "magmom": 0.0 },
        "label": "Cu",
        "xyz": [1.4490895464870002, 7.71446592328799, 3.424602307218]
      },
      {
        "species": [{ "element": "Cu", "occu": 1 }],
        "abc": [0.727704999999999, 0.778578999999999, 0.003444],
        "properties": { "magmom": 0.0 },
        "label": "Cu",
        "xyz": [4.225265274526995, 8.47255807921399, 0.0473785165]
      },
      {
        "species": [{ "element": "Cu", "occu": 1 }],
        "abc": [0.227621, 0.221416, 0.496569],
        "properties": { "magmom": 0.0 },
        "label": "Cu",
        "xyz": [1.3216133711990001, 2.4094421092380003, 6.836676814524]
      },
      {
        "species": [{ "element": "Cu", "occu": 1 }],
        "abc": [0.272321, 0.721417, 0.503432],
        "properties": { "magmom": -0.0 },
        "label": "Cu",
        "xyz": [1.581114389239, 7.8505120679000004, 6.931149226606]
      },
      {
        "species": [{ "element": "Cu", "occu": 1 }],
        "abc": [0.772299, 0.278582, 0.996574],
        "properties": { "magmom": -0.0 },
        "label": "Cu",
        "xyz": [4.484195420044999, 3.0314804525549994, 13.720659032751]
      },
      {
        "species": [{ "element": "Cu", "occu": 1 }],
        "abc": [0.272295, 0.221420999999999, 0.996556],
        "properties": { "magmom": -0.0 },
        "label": "Cu",
        "xyz": [1.5809857254730002, 2.409470920785989, 13.7204224835]
      },
      {
        "species": [{ "element": "Cu", "occu": 1 }],
        "abc": [0.772378999999999, 0.778583999999999, 0.503431],
        "properties": { "magmom": 0.0 },
        "label": "Cu",
        "xyz": [4.484637628800995, 8.47258689076199, 6.9311241854759995]
      },
      {
        "species": [{ "element": "Cu", "occu": 1 }],
        "abc": [0.727679, 0.278582999999999, 0.49656799999999907],
        "properties": { "magmom": -0.0 },
        "label": "Cu",
        "xyz": [4.225136610761, 3.0315169320999895, 6.836651773393988]
      },
      {
        "species": [{ "element": "Cu", "occu": 1 }],
        "abc": [0.227701, 0.721418, 0.003426],
        "properties": { "magmom": -0.0 },
        "label": "Cu",
        "xyz": [1.322055579955, 7.850548547445, 0.047141967248999994]
      },
      {
        "species": [{ "element": "B", "occu": 1 }],
        "abc": [0.748482, 0.950824, 0.078418],
        "properties": { "magmom": -0.0 },
        "label": "B",
        "xyz": [4.345886037702001, 10.346944855052, 1.0796036430159999]
      },
      {
        "species": [{ "element": "B", "occu": 1 }],
        "abc": [0.24848000000000003, 0.049170000000000005, 0.421578],
        "properties": { "magmom": -0.0 },
        "label": "B",
        "xyz": [1.4427471714480002, 0.535042495184, 5.804216843488001]
      },
      {
        "species": [{ "element": "B", "occu": 1 }],
        "abc": [0.251514, 0.549153999999999, 0.578415999999999],
        "properties": { "magmom": 0.0 },
        "label": "B",
        "xyz": [1.460312838006, 5.975922367231989, 7.963523501475987]
      },
      {
        "species": [{ "element": "B", "occu": 1 }],
        "abc": [0.751510999999999, 0.450837999999999, 0.921589],
        "properties": { "magmom": 0.0 },
        "label": "B",
        "xyz": [4.363480471052994, 4.905995933373989, 12.688271780552]
      },
      {
        "species": [{ "element": "B", "occu": 1 }],
        "abc": [0.251517999999999, 0.049176, 0.921582],
        "properties": { "magmom": -0.0 },
        "label": "B",
        "xyz": [1.4603649622979944, 0.535084144948, 12.688197356984]
      },
      {
        "species": [{ "element": "B", "occu": 1 }],
        "abc": [0.7515200000000001, 0.9508300000000001, 0.578422],
        "properties": { "magmom": -0.0 },
        "label": "B",
        "xyz": [4.363503828552001, 10.346986504816, 7.963584156512]
      },
      {
        "species": [{ "element": "B", "occu": 1 }],
        "abc": [0.748486, 0.450845999999999, 0.421583999999999],
        "properties": { "magmom": 0.0 },
        "label": "B",
        "xyz": [4.345938161994001, 4.906106632767989, 5.8042774985239864]
      },
      {
        "species": [{ "element": "B", "occu": 1 }],
        "abc": [0.248489, 0.549161999999999, 0.078411],
        "properties": { "magmom": 0.0 },
        "label": "B",
        "xyz": [1.4427705289469999, 5.976033066625989, 1.079529219448]
      },
      {
        "species": [{ "element": "B", "occu": 1 }],
        "abc": [0.7506, 0.956878, 0.946334999999999],
        "properties": { "magmom": -0.001 },
        "label": "B",
        "xyz": [4.358145235796001, 10.412784336049, 13.028955351466987]
      },
      {
        "species": [{ "element": "B", "occu": 1 }],
        "abc": [0.250606, 0.043120000000000006, 0.553659],
        "properties": { "magmom": -0.001 },
        "label": "B",
        "xyz": [1.455086262542, 0.46919934330500007, 7.622688518575]
      },
      {
        "species": [{ "element": "B", "occu": 1 }],
        "abc": [0.249406, 0.543115, 0.446328],
        "properties": { "magmom": 0.001 },
        "label": "B",
        "xyz": [1.4480793259459999, 5.910211533647, 6.144955825849]
      },
      {
        "species": [{ "element": "B", "occu": 1 }],
        "abc": [0.749398, 0.456881999999999, 0.053673],
        "properties": { "magmom": 0.001 },
        "label": "B",
        "xyz": [4.351249240206, 4.9718083761489895, 0.738933464819]
      },
      {
        "species": [{ "element": "B", "occu": 1 }],
        "abc": [0.2494, 0.043122, 0.053665],
        "properties": { "magmom": -0.001 },
        "label": "B",
        "xyz": [1.448105764204, 0.469244663951, 0.7388456485329999]
      },
      {
        "species": [{ "element": "B", "occu": 1 }],
        "abc": [0.749394, 0.9568800000000001, 0.446341],
        "properties": { "magmom": -0.001 },
        "label": "B",
        "xyz": [4.351164737458, 10.412829656695, 6.1451124814249996]
      },
      {
        "species": [{ "element": "B", "occu": 1 }],
        "abc": [0.750594, 0.456885, 0.553671999999999],
        "properties": { "magmom": 0.001 },
        "label": "B",
        "xyz": [4.358171674054, 4.971817466353, 7.622845174150987]
      },
      {
        "species": [{ "element": "B", "occu": 1 }],
        "abc": [0.250602, 0.543118, 0.946326999999999],
        "properties": { "magmom": 0.001 },
        "label": "B",
        "xyz": [1.455001759794, 5.910220623851, 13.028867535180988]
      },
      {
        "species": [{ "element": "B", "occu": 1 }],
        "abc": [0.517324999999999, 0.060873, 0.105702999999999],
        "properties": { "magmom": -0.002 },
        "label": "B",
        "xyz": [3.0037770777189947, 0.6623981910629999, 1.4552914380149864]
      },
      {
        "species": [{ "element": "B", "occu": 1 }],
        "abc": [0.017308, 0.939116, 0.394293],
        "properties": { "magmom": -0.001 },
        "label": "B",
        "xyz": [0.100396885864, 10.219556478021001, 5.428537832895]
      },
      {
        "species": [{ "element": "B", "occu": 1 }],
        "abc": [0.482686, 0.439117, 0.605692999999999],
        "properties": { "magmom": 0.002 },
        "label": "B",
        "xyz": [2.8025944919500003, 4.778474051578, 8.339068192081987]
      },
      {
        "species": [{ "element": "B", "occu": 1 }],
        "abc": [0.9826900000000001, 0.560874, 0.894308],
        "properties": { "magmom": 0.001 },
        "label": "B",
        "xyz": [5.705785803806001, 6.103411636596, 12.312663233904]
      },
      {
        "species": [{ "element": "B", "occu": 1 }],
        "abc": [0.482674999999999, 0.939128, 0.894297],
        "properties": { "magmom": -0.002 },
        "label": "B",
        "xyz": [2.8024739221929944, 10.21964169106, 12.312509561954]
      },
      {
        "species": [{ "element": "B", "occu": 1 }],
        "abc": [0.982692, 0.060884, 0.605707],
        "properties": { "magmom": -0.001 },
        "label": "B",
        "xyz": [5.705854114136001, 0.662472521979, 8.339263167104999]
      },
      {
        "species": [{ "element": "B", "occu": 1 }],
        "abc": [0.517313999999999, 0.560883, 0.394306999999999],
        "properties": { "magmom": 0.002 },
        "label": "B",
        "xyz": [3.003656508049995, 6.103554948422, 5.428732807917986]
      },
      {
        "species": [{ "element": "B", "occu": 1 }],
        "abc": [0.017310000000000002, 0.439125999999999, 0.105692],
        "properties": { "magmom": 0.001 },
        "label": "B",
        "xyz": [0.10046519619400003, 4.778617363403989, 1.455137766096]
      },
      {
        "species": [{ "element": "B", "occu": 1 }],
        "abc": [0.5909, 0.957816999999999, 0.199089],
        "properties": { "magmom": 0.0 },
        "label": "B",
        "xyz": [3.430898666888, 10.42304527600799, 2.7409867683119997]
      },
      {
        "species": [{ "element": "B", "occu": 1 }],
        "abc": [0.090892, 0.042184, 0.300915999999999],
        "properties": { "magmom": 0.0 },
        "label": "B",
        "xyz": [0.52773681114, 0.459033061656, 4.1429636168639865]
      },
      {
        "species": [{ "element": "B", "occu": 1 }],
        "abc": [0.40910799999999903, 0.542172, 0.699087999999999],
        "properties": { "magmom": -0.0 },
        "label": "B",
        "xyz": [2.375359265355994, 5.899930305943999, 9.624914839503987]
      },
      {
        "species": [{ "element": "B", "occu": 1 }],
        "abc": [0.9091, 0.45783, 0.80091],
        "properties": { "magmom": 0.0 },
        "label": "B",
        "xyz": [5.27850725622, 4.98208200262, 11.02677807878]
      },
      {
        "species": [{ "element": "B", "occu": 1 }],
        "abc": [0.4091, 0.042183, 0.800910999999999],
        "properties": { "magmom": 0.0 },
        "label": "B",
        "xyz": [2.375352333112, 0.45898372399199994, 11.026814231687988]
      },
      {
        "species": [{ "element": "B", "occu": 1 }],
        "abc": [0.909107999999999, 0.957816, 0.699083999999999],
        "properties": { "magmom": -0.0 },
        "label": "B",
        "xyz": [5.278514188859995, 10.422995938344, 9.624837383135986]
      },
      {
        "species": [{ "element": "B", "occu": 1 }],
        "abc": [0.590892, 0.457827999999999, 0.300912],
        "properties": { "magmom": -0.0 },
        "label": "B",
        "xyz": [3.4308917346439998, 4.98209869405599, 4.142886160496]
      },
      {
        "species": [{ "element": "B", "occu": 1 }],
        "abc": [0.09090000000000001, 0.54217, 0.19909000000000002],
        "properties": { "magmom": 0.0 },
        "label": "B",
        "xyz": [0.52774374378, 5.899946997380001, 2.7410229212200004]
      },
      {
        "species": [{ "element": "B", "occu": 1 }],
        "abc": [0.907646, 0.9563900000000001, 0.199464],
        "properties": { "magmom": -0.0 },
        "label": "B",
        "xyz": [5.270047365681999, 10.4075015818, 2.7461437385000003]
      },
      {
        "species": [{ "element": "B", "occu": 1 }],
        "abc": [0.40763699999999903, 0.043612, 0.300531],
        "properties": { "magmom": -0.0 },
        "label": "B",
        "xyz": [2.3668794857509945, 0.47455786437999997, 4.137656931806]
      },
      {
        "species": [{ "element": "B", "occu": 1 }],
        "abc": [0.092356, 0.543593, 0.699469],
        "properties": { "magmom": 0.0 },
        "label": "B",
        "xyz": [0.536175695528, 5.915408672164, 9.630166364972]
      },
      {
        "species": [{ "element": "B", "occu": 1 }],
        "abc": [0.592339, 0.456405, 0.800532999999999],
        "properties": { "magmom": 0.0 },
        "label": "B",
        "xyz": [3.4392717127449997, 4.966589882831, 11.021593661586987]
      },
      {
        "species": [{ "element": "B", "occu": 1 }],
        "abc": [0.092353999999999, 0.04361, 0.800535999999999],
        "properties": { "magmom": -0.0 },
        "label": "B",
        "xyz": [0.5362036343179942, 0.47452741820000005, 11.021657261499987]
      },
      {
        "species": [{ "element": "B", "occu": 1 }],
        "abc": [0.592363, 0.9563879999999991, 0.699469],
        "properties": { "magmom": -0.0 },
        "label": "B",
        "xyz": [3.439371514249, 10.40747113561999, 9.630144068194]
      },
      {
        "species": [{ "element": "B", "occu": 1 }],
        "abc": [0.907644, 0.456406999999999, 0.300531],
        "properties": { "magmom": 0.0 },
        "label": "B",
        "xyz": [5.270075304472, 4.96662032783599, 4.137634635028]
      },
      {
        "species": [{ "element": "B", "occu": 1 }],
        "abc": [0.407661, 0.543594999999999, 0.199466999999999],
        "properties": { "magmom": 0.0 },
        "label": "B",
        "xyz": [2.3669792872550004, 5.91543911716899, 2.7462073384129866]
      },
      {
        "species": [{ "element": "B", "occu": 1 }],
        "abc": [0.7526079999999991, 0.16797499999999901, 0.121707],
        "properties": { "magmom": -0.0 },
        "label": "B",
        "xyz": [4.369910159955995, 1.8278835181199893, 1.67562433488]
      },
      {
        "species": [{ "element": "B", "occu": 1 }],
        "abc": [0.25261, 0.83203, 0.378291],
        "properties": { "magmom": -0.0 },
        "label": "B",
        "xyz": [1.466660546186, 9.054223147343002, 5.208223530121]
      },
      {
        "species": [{ "element": "B", "occu": 1 }],
        "abc": [0.247372999999999, 0.332041, 0.621696],
        "properties": { "magmom": 0.0 },
        "label": "B",
        "xyz": [1.4362858076269944, 3.613270156799999, 8.559402901938]
      },
      {
        "species": [{ "element": "B", "occu": 1 }],
        "abc": [0.747402, 0.667962, 0.878308],
        "properties": { "magmom": 0.0 },
        "label": "B",
        "xyz": [4.339604840758, 7.268768234955999, 12.092378768648]
      },
      {
        "species": [{ "element": "B", "occu": 1 }],
        "abc": [0.247392, 0.832025, 0.878293],
        "properties": { "magmom": 0.0 },
        "label": "B",
        "xyz": [1.436340840044, 9.05414548188, 12.092176665119998]
      },
      {
        "species": [{ "element": "B", "occu": 1 }],
        "abc": [0.7473900000000001, 0.16797, 0.621709],
        "properties": { "magmom": -0.0 },
        "label": "B",
        "xyz": [4.339590453814001, 1.827805852657, 8.559577469878999]
      },
      {
        "species": [{ "element": "B", "occu": 1 }],
        "abc": [0.752626999999999, 0.667959, 0.378304],
        "properties": { "magmom": 0.0 },
        "label": "B",
        "xyz": [4.3699651923729945, 7.2687588432, 5.208398098061999]
      },
      {
        "species": [{ "element": "B", "occu": 1 }],
        "abc": [0.252598, 0.332038, 0.121692],
        "properties": { "magmom": 0.0 },
        "label": "B",
        "xyz": [1.466646159242, 3.6132607650439996, 1.675422231352]
      },
      {
        "species": [{ "element": "B", "occu": 1 }],
        "abc": [0.589532, 0.119398999999999, 0.224002999999999],
        "properties": { "magmom": 0.0 },
        "label": "B",
        "xyz": [3.423028219512, 1.299276367931989, 3.0840250250759866]
      },
      {
        "species": [{ "element": "B", "occu": 1 }],
        "abc": [0.08956, 0.880603999999999, 0.275988],
        "properties": { "magmom": 0.0 },
        "label": "B",
        "xyz": [0.519930024856, 9.58282386153599, 3.799732661424]
      },
      {
        "species": [{ "element": "B", "occu": 1 }],
        "abc": [0.410437999999999, 0.380625, 0.724008],
        "properties": { "magmom": -0.0 },
        "label": "B",
        "xyz": [2.3830948744019946, 4.141954747913001, 9.968014669111001]
      },
      {
        "species": [{ "element": "B", "occu": 1 }],
        "abc": [0.910458, 0.619373, 0.775999],
        "properties": { "magmom": -0.0 },
        "label": "B",
        "xyz": [5.286379204634, 6.7400139054, 10.683802108883999]
      },
      {
        "species": [{ "element": "B", "occu": 1 }],
        "abc": [0.410468, 0.880601, 0.775996999999999],
        "properties": { "magmom": 0.0 },
        "label": "B",
        "xyz": [2.3832227804880004, 9.582752632067999, 10.683775974923988]
      },
      {
        "species": [{ "element": "B", "occu": 1 }],
        "abc": [0.91044, 0.119395999999999, 0.724012],
        "properties": { "magmom": 0.0 },
        "label": "B",
        "xyz": [5.286320975144, 1.299205138463989, 9.968068338576]
      },
      {
        "species": [{ "element": "B", "occu": 1 }],
        "abc": [0.589561999999999, 0.619375, 0.275992],
        "properties": { "magmom": -0.0 },
        "label": "B",
        "xyz": [3.4231561255979943, 6.740074252087, 3.7997863308890003]
      },
      {
        "species": [{ "element": "B", "occu": 1 }],
        "abc": [0.089542, 0.380627, 0.224000999999999],
        "properties": { "magmom": -0.0 },
        "label": "B",
        "xyz": [0.519871795366, 4.142015094599999, 3.083998891115986]
      },
      {
        "species": [{ "element": "B", "occu": 1 }],
        "abc": [0.909613999999999, 0.117862, 0.22445],
        "properties": { "magmom": -0.0 },
        "label": "B",
        "xyz": [5.281547018505995, 1.282535480018, 3.090173220562]
      },
      {
        "species": [{ "element": "B", "occu": 1 }],
        "abc": [0.409624999999999, 0.8821300000000001, 0.275549],
        "properties": { "magmom": 0.0 },
        "label": "B",
        "xyz": [2.378349884778994, 9.599414958812002, 3.793682446294]
      },
      {
        "species": [{ "element": "B", "occu": 1 }],
        "abc": [0.090373, 0.38215000000000005, 0.72445],
        "properties": { "magmom": 0.0 },
        "label": "B",
        "xyz": [0.524674745859, 4.158565007769001, 9.974106093213]
      },
      {
        "species": [{ "element": "B", "occu": 1 }],
        "abc": [0.59038, 0.617850999999999, 0.775552999999999],
        "properties": { "magmom": -0.0 },
        "label": "B",
        "xyz": [3.4278839003200003, 6.72346637882199, 10.677667776001988]
      },
      {
        "species": [{ "element": "B", "occu": 1 }],
        "abc": [0.090386, 0.882138, 0.7755500000000001],
        "properties": { "magmom": -0.0 },
        "label": "B",
        "xyz": [0.5247039814939999, 9.599493519982, 10.677627779438001]
      },
      {
        "species": [{ "element": "B", "occu": 1 }],
        "abc": [0.590375, 0.11787000000000002, 0.724451],
        "properties": { "magmom": -0.0 },
        "label": "B",
        "xyz": [3.4279011152210006, 1.2826140411880003, 9.974118553705999]
      },
      {
        "species": [{ "element": "B", "occu": 1 }],
        "abc": [0.909627, 0.61785, 0.27555],
        "properties": { "magmom": 0.0 },
        "label": "B",
        "xyz": [5.281576254140999, 6.723463992231, 3.793694906787]
      },
      {
        "species": [{ "element": "B", "occu": 1 }],
        "abc": [0.40962000000000004, 0.382148999999999, 0.224446999999999],
        "properties": { "magmom": -0.0 },
        "label": "B",
        "xyz": [2.3783670996800006, 4.158562621177989, 3.090133223997986]
      },
      {
        "species": [{ "element": "B", "occu": 1 }],
        "abc": [0.983587, 0.057950999999999, 0.106373],
        "properties": { "magmom": -0.002 },
        "label": "B",
        "xyz": [5.711073055721, 0.6305786818529892, 1.464507129789]
      },
      {
        "species": [{ "element": "B", "occu": 1 }],
        "abc": [0.483587999999999, 0.942052, 0.393627],
        "properties": { "magmom": -0.001 },
        "label": "B",
        "xyz": [2.8077969220399943, 10.251484507290998, 5.419359493793]
      },
      {
        "species": [{ "element": "B", "occu": 1 }],
        "abc": [0.016385999999999002, 0.442040999999999, 0.606364999999999],
        "properties": { "magmom": 0.002 },
        "label": "B",
        "xyz": [0.0950778121699942, 4.810315263745989, 8.348328957009986]
      },
      {
        "species": [{ "element": "B", "occu": 1 }],
        "abc": [0.516404, 0.557960999999999, 0.893637999999999],
        "properties": { "magmom": 0.001 },
        "label": "B",
        "xyz": [2.998350986092, 6.07173395922899, 12.303447723470986]
      },
      {
        "species": [{ "element": "B", "occu": 1 }],
        "abc": [0.016413, 0.942048999999999, 0.893627],
        "properties": { "magmom": -0.002 },
        "label": "B",
        "xyz": [0.09517794427899999, 10.25145031814699, 12.303293870211]
      },
      {
        "species": [{ "element": "B", "occu": 1 }],
        "abc": [0.516412, 0.057948, 0.606372999999999],
        "properties": { "magmom": -0.001 },
        "label": "B",
        "xyz": [2.99845407796, 0.630544492709, 8.348441506206987]
      },
      {
        "species": [{ "element": "B", "occu": 1 }],
        "abc": [0.983614, 0.557959, 0.393634999999999],
        "properties": { "magmom": 0.002 },
        "label": "B",
        "xyz": [5.711173187829999, 6.071713736253999, 5.4194720429899865]
      },
      {
        "species": [{ "element": "B", "occu": 1 }],
        "abc": [0.483595999999999, 0.442038999999999, 0.106362],
        "properties": { "magmom": 0.001 },
        "label": "B",
        "xyz": [2.807900013907995, 4.810295040770989, 1.464353276529]
      },
      {
        "species": [{ "element": "B", "occu": 1 }],
        "abc": [0.751444, 0.087724, 0.021081],
        "properties": { "magmom": -0.0 },
        "label": "B",
        "xyz": [4.3631630197760005, 0.9545870493769999, 0.290223070051]
      },
      {
        "species": [{ "element": "B", "occu": 1 }],
        "abc": [0.251438, 0.912272, 0.478925],
        "properties": { "magmom": -0.0 },
        "label": "B",
        "xyz": [1.459843976118, 9.927421786395, 6.593734982421]
      },
      {
        "species": [{ "element": "B", "occu": 1 }],
        "abc": [0.248547, 0.412271, 0.52108],
        "properties": { "magmom": 0.001 },
        "label": "B",
        "xyz": [1.4430998681329998, 4.486347558864, 7.174134296286]
      },
      {
        "species": [{ "element": "B", "occu": 1 }],
        "abc": [0.748567, 0.587723, 0.978914],
        "properties": { "magmom": 0.0 },
        "label": "B",
        "xyz": [4.3463719113209995, 6.395592784322, 13.477509651627999]
      },
      {
        "species": [{ "element": "B", "occu": 1 }],
        "abc": [0.248556, 0.912276, 0.978919],
        "properties": { "magmom": -0.001 },
        "label": "B",
        "xyz": [1.443087980224, 9.927441950623, 13.477577929949]
      },
      {
        "species": [{ "element": "B", "occu": 1 }],
        "abc": [0.748562, 0.087728, 0.521075],
        "properties": { "magmom": -0.001 },
        "label": "B",
        "xyz": [4.3464070238820005, 0.954607213605, 7.174066017578999]
      },
      {
        "species": [{ "element": "B", "occu": 1 }],
        "abc": [0.751452999999999, 0.587729, 0.47892],
        "properties": { "magmom": 0.001 },
        "label": "B",
        "xyz": [4.363151131866994, 6.3956814411359995, 6.593666703714001]
      },
      {
        "species": [{ "element": "B", "occu": 1 }],
        "abc": [0.251432999999999, 0.412277, 0.021086],
        "properties": { "magmom": 0.0 },
        "label": "B",
        "xyz": [1.4598790886789943, 4.486436215678, 0.29029134837200005]
      }
    ]
  },
  "task_ids": null,
  "uncorrected_energy_per_atom": null,
  "energy_per_atom": -7.54512948347222,
  "formation_energy_per_atom": 0.384631681111113,
  "energy_above_hull": 0.384631681111112,
  "is_stable": false,
  "equilibrium_reaction_energy_per_atom": null,
  "decomposes_to": null,
  "xas": null,
  "grain_boundaries": null,
  "band_gap": 0.0,
  "cbm": null,
  "vbm": null,
  "efermi": 5.0416171,
  "is_gap_direct": null,
  "is_metal": null,
  "es_source_calc_id": null,
  "bandstructure": null,
  "dos": null,
  "dos_energy_up": null,
  "dos_energy_down": null,
  "is_magnetic": null,
  "ordering": null,
  "total_magnetization": 0.0011627,
  "total_magnetization_normalized_vol": null,
  "total_magnetization_normalized_formula_units": null,
  "num_magnetic_sites": null,
  "num_unique_magnetic_sites": null,
  "types_of_magnetic_species": null,
  "bulk_modulus": null,
  "shear_modulus": null,
  "universal_anisotropy": null,
  "homogeneous_poisson": null,
  "e_total": null,
  "e_ionic": null,
  "e_electronic": null,
  "n": null,
  "e_ij_max": null,
  "weighted_surface_energy_EV_PER_ANG2": null,
  "weighted_surface_energy": null,
  "weighted_work_function": null,
  "surface_anisotropy": null,
  "shape_factor": null,
  "has_reconstructed": null,
  "possible_species": null,
  "has_props": null,
  "theoretical": null,
  "database_IDs": null,
  "fields_not_requested": [
    "builder_meta",
    "nsites",
    "elements",
    "nelements",
    "composition",
    "composition_reduced",
    "chemsys",
    "symmetry",
    "property_name",
    "deprecated",
    "deprecation_reasons",
    "last_updated",
    "origins",
    "warnings",
    "task_ids",
    "uncorrected_energy_per_atom",
    "equilibrium_reaction_energy_per_atom",
    "decomposes_to",
    "xas",
    "grain_boundaries",
    "cbm",
    "vbm",
    "is_gap_direct",
    "is_metal",
    "es_source_calc_id",
    "bandstructure",
    "dos",
    "dos_energy_up",
    "dos_energy_down",
    "is_magnetic",
    "ordering",
    "total_magnetization_normalized_vol",
    "total_magnetization_normalized_formula_units",
    "num_magnetic_sites",
    "num_unique_magnetic_sites",
    "types_of_magnetic_species",
    "bulk_modulus",
    "shear_modulus",
    "universal_anisotropy",
    "homogeneous_poisson",
    "e_total",
    "e_ionic",
    "e_electronic",
    "n",
    "e_ij_max",
    "weighted_surface_energy_EV_PER_ANG2",
    "weighted_surface_energy",
    "weighted_work_function",
    "surface_anisotropy",
    "shape_factor",
    "has_reconstructed",
    "possible_species",
    "has_props",
    "theoretical",
    "database_IDs"
  ]
}
