{"builder_meta": null, "nsites": null, "elements": null, "nelements": null, "composition": null, "composition_reduced": null, "formula_pretty": "CuC6", "formula_anonymous": "AB6", "chemsys": null, "volume": 123.11768665393306, "density": 1.829030751385106, "density_atomic": 17.588240950561865, "symmetry": null, "property_name": null, "material_id": "mp-1213653", "deprecated": null, "deprecation_reasons": null, "last_updated": null, "origins": null, "warnings": null, "structure": {"@module": "pymatgen.core.structure", "@class": "Structure", "charge": 0, "lattice": {"matrix": [[0.0, 0.0, -4.975796], [-2.570304, -4.451898, 0.0], [-2.883292, 4.632601, 0.0]], "pbc": [true, true, true], "a": 4.975796, "b": 5.140608763057154, "c": 5.456589116148018, "alpha": 118.1022171402058, "beta": 90.0, "gamma": 90.0, "volume": 123.11768665393306}, "properties": {}, "sites": [{"species": [{"element": "Cu", "occu": 1}], "abc": [0.0, 0.0, 0.0], "properties": {"magmom": 0.353}, "label": "Cu", "xyz": [0.0, 0.0, 0.0]}, {"species": [{"element": "C", "occu": 1}], "abc": [0.625788999999999, 0.0, 0.0], "properties": {"magmom": 0.111}, "label": "C", "xyz": [0.0, 0.0, -3.113798403043995]}, {"species": [{"element": "C", "occu": 1}], "abc": [0.374210999999999, 0.0, 0.0], "properties": {"magmom": 0.111}, "label": "C", "xyz": [0.0, 0.0, -1.861997596955995]}, {"species": [{"element": "C", "occu": 1}], "abc": [0.0, 0.632004, 0.524359], "properties": {"magmom": 0.039}, "label": "C", "xyz": [-3.1363225190440005, -0.38447131583299976, 0.0]}, {"species": [{"element": "C", "occu": 1}], "abc": [0.0, 0.367996, 0.475641], "properties": {"magmom": 0.039}, "label": "C", "xyz": [-2.3172734809559996, 0.565174315833, 0.0]}, {"species": [{"element": "C", "occu": 1}], "abc": [0.0, 0.107643999999999, 0.475641], "properties": {"magmom": 0.039}, "label": "C", "xyz": [-1.6480896939479972, 1.7242348639290044, 0.0]}, {"species": [{"element": "C", "occu": 1}], "abc": [0.0, 0.892355999999999, 0.524359], "properties": {"magmom": 0.039}, "label": "C", "xyz": [-3.805506306051998, -1.5435318639289952, 0.0]}]}, "task_ids": null, "uncorrected_energy_per_atom": null, "energy_per_atom": -7.163707808571429, "formation_energy_per_atom": 1.332177852142856, "energy_above_hull": 1.3321778521428551, "is_stable": false, "equilibrium_reaction_energy_per_atom": null, "decomposes_to": null, "xas": null, "grain_boundaries": null, "band_gap": 0.0, "cbm": null, "vbm": null, "efermi": -0.90452518, "is_gap_direct": null, "is_metal": null, "es_source_calc_id": null, "bandstructure": null, "dos": null, "dos_energy_up": null, "dos_energy_down": null, "is_magnetic": null, "ordering": null, "total_magnetization": 0.999549599999999, "total_magnetization_normalized_vol": null, "total_magnetization_normalized_formula_units": null, "num_magnetic_sites": null, "num_unique_magnetic_sites": null, "types_of_magnetic_species": null, "bulk_modulus": null, "shear_modulus": null, "universal_anisotropy": null, "homogeneous_poisson": null, "e_total": null, "e_ionic": null, "e_electronic": null, "n": null, "e_ij_max": null, "weighted_surface_energy_EV_PER_ANG2": null, "weighted_surface_energy": null, "weighted_work_function": null, "surface_anisotropy": null, "shape_factor": null, "has_reconstructed": null, "possible_species": null, "has_props": null, "theoretical": null, "database_IDs": null, "fields_not_requested": ["builder_meta", "nsites", "elements", "nelements", "composition", "composition_reduced", "chemsys", "symmetry", "property_name", "deprecated", "deprecation_reasons", "last_updated", "origins", "warnings", "task_ids", "uncorrected_energy_per_atom", "equilibrium_reaction_energy_per_atom", "decomposes_to", "xas", "grain_boundaries", "cbm", "vbm", "is_gap_direct", "is_metal", "es_source_calc_id", "bandstructure", "dos", "dos_energy_up", "dos_energy_down", "is_magnetic", "ordering", "total_magnetization_normalized_vol", "total_magnetization_normalized_formula_units", "num_magnetic_sites", "num_unique_magnetic_sites", "types_of_magnetic_species", "bulk_modulus", "shear_modulus", "universal_anisotropy", "homogeneous_poisson", "e_total", "e_ionic", "e_electronic", "n", "e_ij_max", "weighted_surface_energy_EV_PER_ANG2", "weighted_surface_energy", "weighted_work_function", "surface_anisotropy", "shape_factor", "has_reconstructed", "possible_species", "has_props", "theoretical", "database_IDs"]}