{"builder_meta": null, "nsites": null, "elements": null, "nelements": null, "composition": null, "composition_reduced": null, "formula_pretty": "CuCl3", "formula_anonymous": "AB3", "chemsys": null, "volume": 494.36494550818117, "density": 2.282798508868012, "density_atomic": 30.897809094261323, "symmetry": null, "property_name": null, "material_id": "mp-1213141", "deprecated": null, "deprecation_reasons": null, "last_updated": null, "origins": null, "warnings": null, "structure": {"@module": "pymatgen.core.structure", "@class": "Structure", "charge": 0, "lattice": {"matrix": [[0.0, 0.0, -3.599194], [-6.801851, -10.096836, 0.0], [-6.801851, 10.096836, 0.0]], "pbc": [true, true, true], "a": 3.599194, "b": 12.174205281540845, "c": 12.174205281540845, "alpha": 112.06672626433186, "beta": 90.0, "gamma": 90.0, "volume": 494.3649455081811}, "properties": {}, "sites": [{"species": [{"element": "Cu", "occu": 1}], "abc": [0.0, 0.813773, 0.186227], "properties": {"magmom": 0.641}, "label": "Cu", "xyz": [-6.801850999999999, -6.336229044455998, 0.0]}, {"species": [{"element": "Cu", "occu": 1}], "abc": [0.0, 0.186227, 0.813773], "properties": {"magmom": 0.641}, "label": "Cu", "xyz": [-6.801850999999999, 6.336229044455998, 0.0]}, {"species": [{"element": "Cu", "occu": 1}], "abc": [0.0, 0.715272, 0.715272], "properties": {"magmom": 0.641}, "label": "Cu", "xyz": [-9.730347136944001, 0.0, 0.0]}, {"species": [{"element": "Cu", "occu": 1}], "abc": [0.0, 0.284728, 0.284728], "properties": {"magmom": 0.641}, "label": "Cu", "xyz": [-3.873354863056, 0.0, 0.0]}, {"species": [{"element": "Cl", "occu": 1}], "abc": [0.5, 0.881054, 0.118946], "properties": {"magmom": 0.23900000000000002}, "label": "Cl", "xyz": [-6.801851, -7.694879490287999, -1.799597]}, {"species": [{"element": "Cl", "occu": 1}], "abc": [0.5, 0.118946, 0.881054], "properties": {"magmom": 0.23900000000000002}, "label": "Cl", "xyz": [-6.801851, 7.694879490287999, -1.799597]}, {"species": [{"element": "Cl", "occu": 1}], "abc": [0.0, 0.536791999999999, 0.712865], "properties": {"magmom": 0.424}, "label": "Cl", "xyz": [-8.499980715106993, 1.7777802050280096, 0.0]}, {"species": [{"element": "Cl", "occu": 1}], "abc": [0.0, 0.463207999999999, 0.287135], "properties": {"magmom": 0.424}, "label": "Cl", "xyz": [-5.103721284892993, -1.7777802050279905, 0.0]}, {"species": [{"element": "Cl", "occu": 1}], "abc": [0.0, 0.287135, 0.463207999999999], "properties": {"magmom": 0.424}, "label": "Cl", "xyz": [-5.103721284892993, 1.7777802050279905, 0.0]}, {"species": [{"element": "Cl", "occu": 1}], "abc": [0.0, 0.712865, 0.536791999999999], "properties": {"magmom": 0.424}, "label": "Cl", "xyz": [-8.499980715106993, -1.7777802050280096, 0.0]}, {"species": [{"element": "Cl", "occu": 1}], "abc": [0.5, 0.818323999999999, 0.818323999999999], "properties": {"magmom": 0.232}, "label": "Cl", "xyz": [-11.132235835447988, 0.0, -1.799597]}, {"species": [{"element": "Cl", "occu": 1}], "abc": [0.5, 0.181676, 0.181676], "properties": {"magmom": 0.232}, "label": "Cl", "xyz": [-2.471466164552, 0.0, -1.799597]}, {"species": [{"element": "Cl", "occu": 1}], "abc": [0.0, 0.621574, 0.11709000000000001], "properties": {"magmom": 0.419}, "label": "Cl", "xyz": [-5.024282467063999, -5.093692212623999, 0.0]}, {"species": [{"element": "Cl", "occu": 1}], "abc": [0.0, 0.378426, 0.8829100000000001], "properties": {"magmom": 0.419}, "label": "Cl", "xyz": [-8.579419532936, 5.093692212624001, 0.0]}, {"species": [{"element": "Cl", "occu": 1}], "abc": [0.0, 0.8829100000000001, 0.378426], "properties": {"magmom": 0.419}, "label": "Cl", "xyz": [-8.579419532936, -5.093692212624001, 0.0]}, {"species": [{"element": "Cl", "occu": 1}], "abc": [0.0, 0.11709000000000001, 0.621574], "properties": {"magmom": 0.419}, "label": "Cl", "xyz": [-5.024282467063999, 5.093692212623999, 0.0]}]}, "task_ids": null, "uncorrected_energy_per_atom": null, "energy_per_atom": -7.761021304999998, "formation_energy_per_atom": -0.43499313187499805, "energy_above_hull": 0.067526264374999, "is_stable": false, "equilibrium_reaction_energy_per_atom": null, "decomposes_to": null, "xas": null, "grain_boundaries": null, "band_gap": 0.0, "cbm": null, "vbm": null, "efermi": -1.4364113, "is_gap_direct": null, "is_metal": null, "es_source_calc_id": null, "bandstructure": null, "dos": null, "dos_energy_up": null, "dos_energy_down": null, "is_magnetic": null, "ordering": null, "total_magnetization": 8.0009063, "total_magnetization_normalized_vol": null, "total_magnetization_normalized_formula_units": null, "num_magnetic_sites": null, "num_unique_magnetic_sites": null, "types_of_magnetic_species": null, "bulk_modulus": null, "shear_modulus": null, "universal_anisotropy": null, "homogeneous_poisson": null, "e_total": null, "e_ionic": null, "e_electronic": null, "n": null, "e_ij_max": null, "weighted_surface_energy_EV_PER_ANG2": null, "weighted_surface_energy": null, "weighted_work_function": null, "surface_anisotropy": null, "shape_factor": null, "has_reconstructed": null, "possible_species": null, "has_props": null, "theoretical": null, "database_IDs": null, "fields_not_requested": ["builder_meta", "nsites", "elements", "nelements", "composition", "composition_reduced", "chemsys", "symmetry", "property_name", "deprecated", "deprecation_reasons", "last_updated", "origins", "warnings", "task_ids", "uncorrected_energy_per_atom", "equilibrium_reaction_energy_per_atom", "decomposes_to", "xas", "grain_boundaries", "cbm", "vbm", "is_gap_direct", "is_metal", "es_source_calc_id", "bandstructure", "dos", "dos_energy_up", "dos_energy_down", "is_magnetic", "ordering", "total_magnetization_normalized_vol", "total_magnetization_normalized_formula_units", "num_magnetic_sites", "num_unique_magnetic_sites", "types_of_magnetic_species", "bulk_modulus", "shear_modulus", "universal_anisotropy", "homogeneous_poisson", "e_total", "e_ionic", "e_electronic", "n", "e_ij_max", "weighted_surface_energy_EV_PER_ANG2", "weighted_surface_energy", "weighted_work_function", "surface_anisotropy", "shape_factor", "has_reconstructed", "possible_species", "has_props", "theoretical", "database_IDs"]}