{"builder_meta": null, "nsites": null, "elements": null, "nelements": null, "composition": null, "composition_reduced": null, "formula_pretty": "CuCl4", "formula_anonymous": "AB4", "chemsys": null, "volume": 123.90051056367945, "density": 2.752248397423521, "density_atomic": 24.78010211273589, "symmetry": null, "property_name": null, "material_id": "mp-32829", "deprecated": null, "deprecation_reasons": null, "last_updated": null, "origins": null, "warnings": null, "structure": {"@module": "pymatgen.core.structure", "@class": "Structure", "charge": 0, "lattice": {"matrix": [[-2.432563, 2.432563, 5.234617], [2.432563, -2.432563, 5.234617], [2.432563, 2.432563, -5.234617]], "pbc": [true, true, true], "a": 6.263859883061482, "b": 6.263859883061482, "c": 6.263859883061482, "alpha": 134.29639772892313, "beta": 134.29639772892313, "gamma": 66.6254264482651, "volume": 123.90051056367945}, "properties": {}, "sites": [{"species": [{"element": "Cu", "occu": 1}], "abc": [0.0, 0.0, 0.0], "properties": {"magmom": 0.656}, "label": "Cu", "xyz": [0.0, 0.0, 0.0]}, {"species": [{"element": "Cl", "occu": 1}], "abc": [0.116827, 0.116827, 0.495645], "properties": {"magmom": 0.39}, "label": "Cl", "xyz": [1.205687688135, 1.205687688135, -1.371422542447]}, {"species": [{"element": "Cl", "occu": 1}], "abc": [0.621182, 0.621182, 0.504355], "properties": {"magmom": 0.34800000000000003}, "label": "Cl", "xyz": [1.226875311865, 1.226875311865, 3.8631944575530004]}, {"species": [{"element": "Cl", "occu": 1}], "abc": [0.883173, 0.378818, 0.0], "properties": {"magmom": 0.406}, "label": "Cl", "xyz": [-1.226875311865, 1.226875311865, 6.606039542447]}, {"species": [{"element": "Cl", "occu": 1}], "abc": [0.378818, 0.883173, 0.0], "properties": {"magmom": 0.391}, "label": "Cl", "xyz": [1.226875311865, -1.226875311865, 6.606039542447]}]}, "task_ids": null, "uncorrected_energy_per_atom": null, "energy_per_atom": -7.4017741149999985, "formation_energy_per_atom": -0.31046379699999804, "energy_above_hull": 0.09155172, "is_stable": false, "equilibrium_reaction_energy_per_atom": null, "decomposes_to": null, "xas": null, "grain_boundaries": null, "band_gap": 0.0, "cbm": null, "vbm": null, "efermi": -0.00213087, "is_gap_direct": null, "is_metal": null, "es_source_calc_id": null, "bandstructure": null, "dos": null, "dos_energy_up": null, "dos_energy_down": null, "is_magnetic": null, "ordering": null, "total_magnetization": 2.574957, "total_magnetization_normalized_vol": null, "total_magnetization_normalized_formula_units": null, "num_magnetic_sites": null, "num_unique_magnetic_sites": null, "types_of_magnetic_species": null, "bulk_modulus": null, "shear_modulus": null, "universal_anisotropy": null, "homogeneous_poisson": null, "e_total": null, "e_ionic": null, "e_electronic": null, "n": null, "e_ij_max": null, "weighted_surface_energy_EV_PER_ANG2": null, "weighted_surface_energy": null, "weighted_work_function": null, "surface_anisotropy": null, "shape_factor": null, "has_reconstructed": null, "possible_species": null, "has_props": null, "theoretical": null, "database_IDs": null, "fields_not_requested": ["builder_meta", "nsites", "elements", "nelements", "composition", "composition_reduced", "chemsys", "symmetry", "property_name", "deprecated", "deprecation_reasons", "last_updated", "origins", "warnings", "task_ids", "uncorrected_energy_per_atom", "equilibrium_reaction_energy_per_atom", "decomposes_to", "xas", "grain_boundaries", "cbm", "vbm", "is_gap_direct", "is_metal", "es_source_calc_id", "bandstructure", "dos", "dos_energy_up", "dos_energy_down", "is_magnetic", "ordering", "total_magnetization_normalized_vol", "total_magnetization_normalized_formula_units", "num_magnetic_sites", "num_unique_magnetic_sites", "types_of_magnetic_species", "bulk_modulus", "shear_modulus", "universal_anisotropy", "homogeneous_poisson", "e_total", "e_ionic", "e_electronic", "n", "e_ij_max", "weighted_surface_energy_EV_PER_ANG2", "weighted_surface_energy", "weighted_work_function", "surface_anisotropy", "shape_factor", "has_reconstructed", "possible_species", "has_props", "theoretical", "database_IDs"]}