{"builder_meta": null, "nsites": null, "elements": null, "nelements": null, "composition": null, "composition_reduced": null, "formula_pretty": "CuF2", "formula_anonymous": "AB2", "chemsys": null, "volume": 68.09158710604335, "density": 4.952617617703766, "density_atomic": 11.348597851007225, "symmetry": null, "property_name": null, "material_id": "mp-1229", "deprecated": null, "deprecation_reasons": null, "last_updated": null, "origins": null, "warnings": null, "structure": {"@module": "pymatgen.core.structure", "@class": "Structure", "charge": 0, "lattice": {"matrix": [[3.26716085, -3.07e-06, -0.39889192], [-5.32e-06, 4.52331826, 4.16e-06], [-0.04222606, 4.02e-06, 4.61266022]], "pbc": [true, true, true], "a": 3.2914213925936973, "b": 4.523318260005041, "c": 4.612853492723321, "alpha": 89.99989675962374, "beta": 97.48535869923329, "gamma": 90.00012671784127, "volume": 68.09158710604335}, "properties": {}, "sites": [{"species": [{"element": "Cu", "occu": 1}], "abc": [0.49999491, 0.49999074, 0.499998899999999], "properties": {"magmom": 0.807}, "label": "Cu", "xyz": [1.6124481516492026, 2.2616177190841165, 2.1068831863951045]}, {"species": [{"element": "Cu", "occu": 1}], "abc": [-5.089999999999999e-06, 9.26e-06, -1.1e-06], "properties": {"magmom": 0.807}, "label": "Cu", "xyz": [-1.6583449323699995e-05, 4.18859382919e-05, -3.0435278476000014e-06]}, {"species": [{"element": "F", "occu": 1}], "abc": [0.469310199999999, 0.79921222, 0.20688625], "properties": {"magmom": 0.10300000000000001}, "label": "F", "xyz": [1.5245716689309812, 3.615090619241548, 0.7670952534092266]}, {"species": [{"element": "F", "occu": 1}], "abc": [0.03069489, 0.2992207, 0.29311685], "properties": {"magmom": 0.10300000000000001}, "label": "F", "xyz": [0.08790638135382148, 1.3534715401764066, 1.3398057349585304]}, {"species": [{"element": "F", "occu": 1}], "abc": [0.9693102, 0.70078678, 0.70688425], "properties": {"magmom": 0.10300000000000001}, "label": "F", "xyz": [3.1370396720064453, 3.1698815042329738, 2.8739697686389563]}, {"species": [{"element": "F", "occu": 1}], "abc": [0.5306958900000001, 0.2007803, 0.79311485], "properties": {"magmom": 0.10300000000000001}, "label": "F", "xyz": [1.7003776516697198, 0.9081947563235927, 3.446679851234107]}]}, "task_ids": null, "uncorrected_energy_per_atom": null, "energy_per_atom": -7.5146472499999994, "formation_energy_per_atom": -1.8150299499999991, "energy_above_hull": 0.0, "is_stable": true, "equilibrium_reaction_energy_per_atom": null, "decomposes_to": null, "xas": null, "grain_boundaries": null, "band_gap": 0.0, "cbm": null, "vbm": null, "efermi": 1.09219321, "is_gap_direct": null, "is_metal": null, "es_source_calc_id": null, "bandstructure": null, "dos": null, "dos_energy_up": null, "dos_energy_down": null, "is_magnetic": null, "ordering": null, "total_magnetization": 2.0000003, "total_magnetization_normalized_vol": null, "total_magnetization_normalized_formula_units": null, "num_magnetic_sites": null, "num_unique_magnetic_sites": null, "types_of_magnetic_species": null, "bulk_modulus": null, "shear_modulus": null, "universal_anisotropy": null, "homogeneous_poisson": null, "e_total": null, "e_ionic": null, "e_electronic": null, "n": null, "e_ij_max": null, "weighted_surface_energy_EV_PER_ANG2": null, "weighted_surface_energy": null, "weighted_work_function": null, "surface_anisotropy": null, "shape_factor": null, "has_reconstructed": null, "possible_species": null, "has_props": null, "theoretical": null, "database_IDs": null, "fields_not_requested": ["builder_meta", "nsites", "elements", "nelements", "composition", "composition_reduced", "chemsys", "symmetry", "property_name", "deprecated", "deprecation_reasons", "last_updated", "origins", "warnings", "task_ids", "uncorrected_energy_per_atom", "equilibrium_reaction_energy_per_atom", "decomposes_to", "xas", "grain_boundaries", "cbm", "vbm", "is_gap_direct", "is_metal", "es_source_calc_id", "bandstructure", "dos", "dos_energy_up", "dos_energy_down", "is_magnetic", "ordering", "total_magnetization_normalized_vol", "total_magnetization_normalized_formula_units", "num_magnetic_sites", "num_unique_magnetic_sites", "types_of_magnetic_species", "bulk_modulus", "shear_modulus", "universal_anisotropy", "homogeneous_poisson", "e_total", "e_ionic", "e_electronic", "n", "e_ij_max", "weighted_surface_energy_EV_PER_ANG2", "weighted_surface_energy", "weighted_work_function", "surface_anisotropy", "shape_factor", "has_reconstructed", "possible_species", "has_props", "theoretical", "database_IDs"]}