{"builder_meta": null, "nsites": null, "elements": null, "nelements": null, "composition": null, "composition_reduced": null, "formula_pretty": "CuI", "formula_anonymous": "AB", "chemsys": null, "volume": 110.40773980176633, "density": 5.728773114188356, "density_atomic": 27.60193495044158, "symmetry": null, "property_name": null, "material_id": "mp-570081", "deprecated": null, "deprecation_reasons": null, "last_updated": null, "origins": null, "warnings": null, "structure": {"@module": "pymatgen.core.structure", "@class": "Structure", "charge": 0, "lattice": {"matrix": [[4.12861155, 0.00055573, -0.00034144], [-2.06382503, 3.57577467, 0.00032485], [-0.00060686, 0.00031563, 7.47810601]], "pbc": [true, true, true], "a": 4.128611601520602, "b": 4.128624268517981, "c": 7.47810604128475, "alpha": 89.99107308933141, "beta": 90.00938773054732, "gamma": 119.98448270950391, "volume": 110.40773980176633}, "properties": {}, "sites": [{"species": [{"element": "Cu", "occu": 1}], "abc": [0.33333517, 0.66666154, 0.84792324], "properties": {"magmom": 0.0}, "label": "Cu", "xyz": [-0.0001759106045591954, 2.384284322561457, 6.3409626281034965]}, {"species": [{"element": "Cu", "occu": 1}], "abc": [1.26e-06, -3.23e-06, 0.66801835], "properties": {"magmom": -0.0}, "label": "Cu", "xyz": [-0.0003935254104811, 0.00019929757984620003, 4.995512036445804]}, {"species": [{"element": "I", "occu": 1}], "abc": [2.3520000000000002e-05, -1.7530000000000003e-05, 0.01271905], "properties": {"magmom": 0.0}, "label": "I", "xyz": [0.00012556511374889998, -5.865574544400002e-05, 0.09511439052120121]}, {"species": [{"element": "I", "occu": 1}], "abc": [0.33330605, 0.66669322, 0.50333936], "properties": {"magmom": 0.0}, "label": "I", "xyz": [-0.00015240357642854396, 2.3842888259101005, 3.7641278643603586]}]}, "task_ids": null, "uncorrected_energy_per_atom": null, "energy_per_atom": -3.155027610833333, "formation_energy_per_atom": -0.34341796833333205, "energy_above_hull": 0.0, "is_stable": true, "equilibrium_reaction_energy_per_atom": null, "decomposes_to": null, "xas": null, "grain_boundaries": null, "band_gap": 1.6471, "cbm": null, "vbm": null, "efermi": 4.03031253, "is_gap_direct": null, "is_metal": null, "es_source_calc_id": null, "bandstructure": null, "dos": null, "dos_energy_up": null, "dos_energy_down": null, "is_magnetic": null, "ordering": null, "total_magnetization": 0.0, "total_magnetization_normalized_vol": null, "total_magnetization_normalized_formula_units": null, "num_magnetic_sites": null, "num_unique_magnetic_sites": null, "types_of_magnetic_species": null, "bulk_modulus": null, "shear_modulus": null, "universal_anisotropy": null, "homogeneous_poisson": null, "e_total": null, "e_ionic": null, "e_electronic": null, "n": null, "e_ij_max": null, "weighted_surface_energy_EV_PER_ANG2": null, "weighted_surface_energy": null, "weighted_work_function": null, "surface_anisotropy": null, "shape_factor": null, "has_reconstructed": null, "possible_species": null, "has_props": null, "theoretical": null, "database_IDs": null, "fields_not_requested": ["builder_meta", "nsites", "elements", "nelements", "composition", "composition_reduced", "chemsys", "symmetry", "property_name", "deprecated", "deprecation_reasons", "last_updated", "origins", "warnings", "task_ids", "uncorrected_energy_per_atom", "equilibrium_reaction_energy_per_atom", "decomposes_to", "xas", "grain_boundaries", "cbm", "vbm", "is_gap_direct", "is_metal", "es_source_calc_id", "bandstructure", "dos", "dos_energy_up", "dos_energy_down", "is_magnetic", "ordering", "total_magnetization_normalized_vol", "total_magnetization_normalized_formula_units", "num_magnetic_sites", "num_unique_magnetic_sites", "types_of_magnetic_species", "bulk_modulus", "shear_modulus", "universal_anisotropy", "homogeneous_poisson", "e_total", "e_ionic", "e_electronic", "n", "e_ij_max", "weighted_surface_energy_EV_PER_ANG2", "weighted_surface_energy", "weighted_work_function", "surface_anisotropy", "shape_factor", "has_reconstructed", "possible_species", "has_props", "theoretical", "database_IDs"]}