{"builder_meta": null, "nsites": null, "elements": null, "nelements": null, "composition": null, "composition_reduced": null, "formula_pretty": "CuI4", "formula_anonymous": "AB4", "chemsys": null, "volume": 176.79192444894747, "density": 5.364724317171609, "density_atomic": 35.35838488978949, "symmetry": null, "property_name": null, "material_id": "mp-33218", "deprecated": null, "deprecation_reasons": null, "last_updated": null, "origins": null, "warnings": null, "structure": {"@module": "pymatgen.core.structure", "@class": "Structure", "charge": 0, "lattice": {"matrix": [[-2.803273, 2.803273, 5.624341], [2.803273, -2.803273, 5.624341], [2.803273, 2.803273, -5.624341]], "pbc": [true, true, true], "a": 6.881125686204184, "b": 6.881125686204184, "c": 6.881125686204184, "alpha": 131.9185574509355, "beta": 131.9185574509355, "gamma": 70.35768698696718, "volume": 176.79192444894747}, "properties": {}, "sites": [{"species": [{"element": "Cu", "occu": 1}], "abc": [0.0, 0.0, 0.0], "properties": {"magmom": 0.0}, "label": "Cu", "xyz": [0.0, 0.0, 0.0]}, {"species": [{"element": "I", "occu": 1}], "abc": [0.391777, 0.391777, 0.524284], "properties": {"magmom": 0.0}, "label": "I", "xyz": [1.4697111815319999, 1.4697111815319999, 1.4582228910700001]}, {"species": [{"element": "I", "occu": 1}], "abc": [0.867493, 0.867493, 0.47571599999999903], "properties": {"magmom": 0.0}, "label": "I", "xyz": [1.3335618184679972, 1.3335618184679972, 7.082563891070006]}, {"species": [{"element": "I", "occu": 1}], "abc": [0.13250699999999901, 0.608223, 0.0], "properties": {"magmom": 0.0}, "label": "I", "xyz": [1.3335618184680025, -1.3335618184680025, 4.166118108929994]}, {"species": [{"element": "I", "occu": 1}], "abc": [0.608223, 0.13250699999999901, 0.0], "properties": {"magmom": 0.0}, "label": "I", "xyz": [-1.3335618184680025, 1.3335618184680025, 4.166118108929994]}]}, "task_ids": null, "uncorrected_energy_per_atom": null, "energy_per_atom": -2.208460496, "formation_energy_per_atom": -0.16940907000000002, "energy_above_hull": 0.0, "is_stable": true, "equilibrium_reaction_energy_per_atom": null, "decomposes_to": null, "xas": null, "grain_boundaries": null, "band_gap": 0.0, "cbm": null, "vbm": null, "efermi": 2.94027493, "is_gap_direct": null, "is_metal": null, "es_source_calc_id": null, "bandstructure": null, "dos": null, "dos_energy_up": null, "dos_energy_down": null, "is_magnetic": null, "ordering": null, "total_magnetization": 0.0009155, "total_magnetization_normalized_vol": null, "total_magnetization_normalized_formula_units": null, "num_magnetic_sites": null, "num_unique_magnetic_sites": null, "types_of_magnetic_species": null, "bulk_modulus": null, "shear_modulus": null, "universal_anisotropy": null, "homogeneous_poisson": null, "e_total": null, "e_ionic": null, "e_electronic": null, "n": null, "e_ij_max": null, "weighted_surface_energy_EV_PER_ANG2": null, "weighted_surface_energy": null, "weighted_work_function": null, "surface_anisotropy": null, "shape_factor": null, "has_reconstructed": null, "possible_species": null, "has_props": null, "theoretical": null, "database_IDs": null, "fields_not_requested": ["builder_meta", "nsites", "elements", "nelements", "composition", "composition_reduced", "chemsys", "symmetry", "property_name", "deprecated", "deprecation_reasons", "last_updated", "origins", "warnings", "task_ids", "uncorrected_energy_per_atom", "equilibrium_reaction_energy_per_atom", "decomposes_to", "xas", "grain_boundaries", "cbm", "vbm", "is_gap_direct", "is_metal", "es_source_calc_id", "bandstructure", "dos", "dos_energy_up", "dos_energy_down", "is_magnetic", "ordering", "total_magnetization_normalized_vol", "total_magnetization_normalized_formula_units", "num_magnetic_sites", "num_unique_magnetic_sites", "types_of_magnetic_species", "bulk_modulus", "shear_modulus", "universal_anisotropy", "homogeneous_poisson", "e_total", "e_ionic", "e_electronic", "n", "e_ij_max", "weighted_surface_energy_EV_PER_ANG2", "weighted_surface_energy", "weighted_work_function", "surface_anisotropy", "shape_factor", "has_reconstructed", "possible_species", "has_props", "theoretical", "database_IDs"]}