{"builder_meta": null, "nsites": null, "elements": null, "nelements": null, "composition": null, "composition_reduced": null, "formula_pretty": "CuN", "formula_anonymous": "AB", "chemsys": null, "volume": 44.11108850993348, "density": 5.838862400383055, "density_atomic": 11.02777212748337, "symmetry": null, "property_name": null, "material_id": "mp-1080203", "deprecated": null, "deprecation_reasons": null, "last_updated": null, "origins": null, "warnings": null, "structure": {"@module": "pymatgen.core.structure", "@class": "Structure", "charge": 0, "lattice": {"matrix": [[1.415815, 2.626365, 0.0], [-1.415815, 2.626365, 0.0], [0.0, 1.452059, 5.931386]], "pbc": [true, true, true], "a": 2.983676461590633, "b": 2.983676461590633, "c": 6.106538726682817, "alpha": 77.91800917698455, "beta": 77.91800917698455, "gamma": 56.656240644456645, "volume": 44.11108850993348}, "properties": {}, "sites": [{"species": [{"element": "Cu", "occu": 1}], "abc": [0.383476, 0.383476, 0.339209], "properties": {"magmom": -0.0}, "label": "Cu", "xyz": [0.0, 2.5068473708109997, 2.011979513674]}, {"species": [{"element": "Cu", "occu": 1}], "abc": [0.616524, 0.616524, 0.660791], "properties": {"magmom": -0.0}, "label": "Cu", "xyz": [0.0, 4.197941629189, 3.919406486326]}, {"species": [{"element": "N", "occu": 1}], "abc": [0.973668, 0.973668, 0.099657], "properties": {"magmom": -0.0}, "label": "N", "xyz": [0.0, 5.259122957403, 0.591104134602]}, {"species": [{"element": "N", "occu": 1}], "abc": [0.026331999999999002, 0.026331999999999002, 0.900343], "properties": {"magmom": -0.0}, "label": "N", "xyz": [0.0, 1.4456660425969947, 5.3402818653979995]}]}, "task_ids": null, "uncorrected_energy_per_atom": null, "energy_per_atom": -9.782228330625, "formation_energy_per_atom": 0.20554500500000103, "energy_above_hull": 0.20554500500000103, "is_stable": false, "equilibrium_reaction_energy_per_atom": null, "decomposes_to": null, "xas": null, "grain_boundaries": null, "band_gap": 0.0, "cbm": null, "vbm": null, "efermi": 5.59428974, "is_gap_direct": null, "is_metal": null, "es_source_calc_id": null, "bandstructure": null, "dos": null, "dos_energy_up": null, "dos_energy_down": null, "is_magnetic": null, "ordering": null, "total_magnetization": 0.0009785, "total_magnetization_normalized_vol": null, "total_magnetization_normalized_formula_units": null, "num_magnetic_sites": null, "num_unique_magnetic_sites": null, "types_of_magnetic_species": null, "bulk_modulus": null, "shear_modulus": null, "universal_anisotropy": null, "homogeneous_poisson": null, "e_total": null, "e_ionic": null, "e_electronic": null, "n": null, "e_ij_max": null, "weighted_surface_energy_EV_PER_ANG2": null, "weighted_surface_energy": null, "weighted_work_function": null, "surface_anisotropy": null, "shape_factor": null, "has_reconstructed": null, "possible_species": null, "has_props": null, "theoretical": null, "database_IDs": null, "fields_not_requested": ["builder_meta", "nsites", "elements", "nelements", "composition", "composition_reduced", "chemsys", "symmetry", "property_name", "deprecated", "deprecation_reasons", "last_updated", "origins", "warnings", "task_ids", "uncorrected_energy_per_atom", "equilibrium_reaction_energy_per_atom", "decomposes_to", "xas", "grain_boundaries", "cbm", "vbm", "is_gap_direct", "is_metal", "es_source_calc_id", "bandstructure", "dos", "dos_energy_up", "dos_energy_down", "is_magnetic", "ordering", "total_magnetization_normalized_vol", "total_magnetization_normalized_formula_units", "num_magnetic_sites", "num_unique_magnetic_sites", "types_of_magnetic_species", "bulk_modulus", "shear_modulus", "universal_anisotropy", "homogeneous_poisson", "e_total", "e_ionic", "e_electronic", "n", "e_ij_max", "weighted_surface_energy_EV_PER_ANG2", "weighted_surface_energy", "weighted_work_function", "surface_anisotropy", "shape_factor", "has_reconstructed", "possible_species", "has_props", "theoretical", "database_IDs"]}