{"builder_meta": null, "nsites": null, "elements": null, "nelements": null, "composition": null, "composition_reduced": null, "formula_pretty": "CuN3", "formula_anonymous": "AB3", "chemsys": null, "volume": 251.79903663571773, "density": 2.784706971094685, "density_atomic": 15.737439789732358, "symmetry": null, "property_name": null, "material_id": "mp-27954", "deprecated": null, "deprecation_reasons": null, "last_updated": null, "origins": null, "warnings": null, "structure": {"@module": "pymatgen.core.structure", "@class": "Structure", "charge": 0, "lattice": {"matrix": [[-4.659021, 4.659021, 2.900045], [4.659021, -4.659021, 2.900045], [4.659021, 4.659021, -2.900045]], "pbc": [true, true, true], "a": 7.198834236104274, "b": 7.198834236104274, "c": 7.198834236104274, "alpha": 99.33969714952124, "beta": 99.33969714952124, "gamma": 132.48715929158269, "volume": 251.79903663571773}, "properties": {}, "sites": [{"species": [{"element": "Cu", "occu": 1}], "abc": [0.125, 0.875, 0.75], "properties": {"magmom": 0.0}, "label": "Cu", "xyz": [6.988531500000001, 4.440892098500626e-16, 0.7250112500000001]}, {"species": [{"element": "Cu", "occu": 1}], "abc": [0.125, 0.875, 0.25], "properties": {"magmom": 0.0}, "label": "Cu", "xyz": [4.659021, -2.3295104999999996, 2.17503375]}, {"species": [{"element": "Cu", "occu": 1}], "abc": [0.625, 0.875, 0.75], "properties": {"magmom": 0.0}, "label": "Cu", "xyz": [4.659021, 2.3295105000000005, 2.17503375]}, {"species": [{"element": "Cu", "occu": 1}], "abc": [0.125, 0.375, 0.25], "properties": {"magmom": 0.0}, "label": "Cu", "xyz": [2.3295105000000005, -2.220446049250313e-16, 0.72501125]}, {"species": [{"element": "N", "occu": 1}], "abc": [0.816255, 0.610213999999999, 0.793959], "properties": {"magmom": -0.0}, "label": "N", "xyz": [2.7391223082779956, 4.6590210000000045, 1.834307462949997]}, {"species": [{"element": "N", "occu": 1}], "abc": [0.860213999999999, 0.566255, 0.293958999999999], "properties": {"magmom": -0.0}, "label": "N", "xyz": [-2.220446049250313e-16, 2.7391223082779916, 3.28432996295]}, {"species": [{"element": "N", "occu": 1}], "abc": [0.272295, 0.566255, 0.706040999999999], "properties": {"magmom": -0.0}, "label": "N", "xyz": [4.659025659020996, 1.9198940327009955, 0.3842820629050028]}, {"species": [{"element": "N", "occu": 1}], "abc": [0.816255, 0.022295, 0.206041], "properties": {"magmom": -0.0}, "label": "N", "xyz": [-2.7391269672989997, 4.659025659021, 1.8343045629049999]}, {"species": [{"element": "N", "occu": 1}], "abc": [0.625, 0.875, 0.25], "properties": {"magmom": 0.0}, "label": "N", "xyz": [2.3295104999999996, 2.220446049250313e-16, 3.6250562499999996]}, {"species": [{"element": "N", "occu": 1}], "abc": [0.125, 0.375, 0.75], "properties": {"magmom": 0.0}, "label": "N", "xyz": [4.659021000000001, 2.3295105, -0.7250112499999999]}, {"species": [{"element": "N", "occu": 1}], "abc": [0.625, 0.375, 0.25], "properties": {"magmom": 0.0}, "label": "N", "xyz": [2.220446049250313e-16, 2.3295104999999996, 2.17503375]}, {"species": [{"element": "N", "occu": 1}], "abc": [0.625, 0.375, 0.75], "properties": {"magmom": 0.0}, "label": "N", "xyz": [2.3295105000000005, 4.659021, 0.7250112500000001]}, {"species": [{"element": "N", "occu": 1}], "abc": [0.433745, 0.727704999999999, 0.293958999999999], "properties": {"magmom": -0.0}, "label": "N", "xyz": [2.739126967298991, -4.659020999886465e-06, 2.515762937095]}, {"species": [{"element": "N", "occu": 1}], "abc": [0.977704999999999, 0.183745, 0.793959], "properties": {"magmom": -0.0}, "label": "N", "xyz": [-4.659020996111707e-06, 7.398147967298996, 1.065740437094997]}, {"species": [{"element": "N", "occu": 1}], "abc": [0.389785999999999, 0.183745, 0.206041], "properties": {"magmom": -0.0}, "label": "N", "xyz": [4.551914400963142e-15, 1.9198986917219956, 1.0657375370499973]}, {"species": [{"element": "N", "occu": 1}], "abc": [0.433745, 0.139786, 0.706040999999999], "properties": {"magmom": -0.0}, "label": "N", "xyz": [1.9198986917219951, 4.659020999999996, -0.38428496294999737]}]}, "task_ids": null, "uncorrected_energy_per_atom": null, "energy_per_atom": -9.2644665459375, "formation_energy_per_atom": 0.293795457499999, "energy_above_hull": 0.293795457499999, "is_stable": false, "equilibrium_reaction_energy_per_atom": null, "decomposes_to": null, "xas": null, "grain_boundaries": null, "band_gap": 1.6279, "cbm": null, "vbm": null, "efermi": 2.05601251, "is_gap_direct": null, "is_metal": null, "es_source_calc_id": null, "bandstructure": null, "dos": null, "dos_energy_up": null, "dos_energy_down": null, "is_magnetic": null, "ordering": null, "total_magnetization": 0.0002674, "total_magnetization_normalized_vol": null, "total_magnetization_normalized_formula_units": null, "num_magnetic_sites": null, "num_unique_magnetic_sites": null, "types_of_magnetic_species": null, "bulk_modulus": null, "shear_modulus": null, "universal_anisotropy": null, "homogeneous_poisson": null, "e_total": null, "e_ionic": null, "e_electronic": null, "n": null, "e_ij_max": null, "weighted_surface_energy_EV_PER_ANG2": null, "weighted_surface_energy": null, "weighted_work_function": null, "surface_anisotropy": null, "shape_factor": null, "has_reconstructed": null, "possible_species": null, "has_props": null, "theoretical": null, "database_IDs": null, "fields_not_requested": ["builder_meta", "nsites", "elements", "nelements", "composition", "composition_reduced", "chemsys", "symmetry", "property_name", "deprecated", "deprecation_reasons", "last_updated", "origins", "warnings", "task_ids", "uncorrected_energy_per_atom", "equilibrium_reaction_energy_per_atom", "decomposes_to", "xas", "grain_boundaries", "cbm", "vbm", "is_gap_direct", "is_metal", "es_source_calc_id", "bandstructure", "dos", "dos_energy_up", "dos_energy_down", "is_magnetic", "ordering", "total_magnetization_normalized_vol", "total_magnetization_normalized_formula_units", "num_magnetic_sites", "num_unique_magnetic_sites", "types_of_magnetic_species", "bulk_modulus", "shear_modulus", "universal_anisotropy", "homogeneous_poisson", "e_total", "e_ionic", "e_electronic", "n", "e_ij_max", "weighted_surface_energy_EV_PER_ANG2", "weighted_surface_energy", "weighted_work_function", "surface_anisotropy", "shape_factor", "has_reconstructed", "possible_species", "has_props", "theoretical", "database_IDs"]}