{"builder_meta": null, "nsites": null, "elements": null, "nelements": null, "composition": null, "composition_reduced": null, "formula_pretty": "CuN6", "formula_anonymous": "AB6", "chemsys": null, "volume": 389.6874363741296, "density": 2.515581750043924, "density_atomic": 13.917408441933201, "symmetry": null, "property_name": null, "material_id": "mp-608366", "deprecated": null, "deprecation_reasons": null, "last_updated": null, "origins": null, "warnings": null, "structure": {"@module": "pymatgen.core.structure", "@class": "Structure", "charge": 0, "lattice": {"matrix": [[3.117961, 0.0, 0.0], [0.0, 9.188912, 0.0], [0.0, 0.0, 13.601338]], "pbc": [true, true, true], "a": 3.117961, "b": 9.188912, "c": 13.601338, "alpha": 90.0, "beta": 90.0, "gamma": 90.0, "volume": 389.6874363741296}, "properties": {}, "sites": [{"species": [{"element": "Cu", "occu": 1}], "abc": [0.75, 0.08084000000000001, 0.104405], "properties": {"magmom": 0.156}, "label": "Cu", "xyz": [2.33847075, 0.7428316460800001, 1.42004769389]}, {"species": [{"element": "Cu", "occu": 1}], "abc": [0.25, 0.9191600000000001, 0.895594999999999], "properties": {"magmom": 0.156}, "label": "Cu", "xyz": [0.77949025, 8.446080353920001, 12.181290306109988]}, {"species": [{"element": "Cu", "occu": 1}], "abc": [0.75, 0.41916000000000003, 0.604405], "properties": {"magmom": 0.156}, "label": "Cu", "xyz": [2.33847075, 3.8516243539200006, 8.22071669389]}, {"species": [{"element": "Cu", "occu": 1}], "abc": [0.25, 0.58084, 0.395595], "properties": {"magmom": 0.156}, "label": "Cu", "xyz": [0.77949025, 5.33728764608, 5.38062130611]}, {"species": [{"element": "N", "occu": 1}], "abc": [0.25, 0.26047000000000003, 0.969375], "properties": {"magmom": -0.003}, "label": "N", "xyz": [0.77949025, 2.3934359086400003, 13.18479702375]}, {"species": [{"element": "N", "occu": 1}], "abc": [0.75, 0.329916999999999, 0.187758999999999], "properties": {"magmom": 0.022}, "label": "N", "xyz": [2.33847075, 3.0315782803039912, 2.5537736215419864]}, {"species": [{"element": "N", "occu": 1}], "abc": [0.25, 0.503436, 0.678696], "properties": {"magmom": 0.018000000000000002}, "label": "N", "xyz": [0.77949025, 4.626029101632, 9.231173695248]}, {"species": [{"element": "N", "occu": 1}], "abc": [0.25, 0.347697, 0.522235], "properties": {"magmom": 0.021}, "label": "N", "xyz": [0.77949025, 3.194957135664, 7.10309475043]}, {"species": [{"element": "N", "occu": 1}], "abc": [0.25, 0.140293, 0.416909], "properties": {"magmom": 0.026000000000000002}, "label": "N", "xyz": [0.77949025, 1.289140031216, 5.670520224242]}, {"species": [{"element": "N", "occu": 1}], "abc": [0.25, 0.996564, 0.178696], "properties": {"magmom": 0.018000000000000002}, "label": "N", "xyz": [0.77949025, 9.157338898368, 2.430504695248]}, {"species": [{"element": "N", "occu": 1}], "abc": [0.75, 0.7604700000000001, 0.530625], "properties": {"magmom": -0.003}, "label": "N", "xyz": [2.33847075, 6.987891908640001, 7.21720997625]}, {"species": [{"element": "N", "occu": 1}], "abc": [0.25, 0.589561, 0.746857999999999], "properties": {"magmom": -0.002}, "label": "N", "xyz": [0.77949025, 5.417424147632, 10.158268096003987]}, {"species": [{"element": "N", "occu": 1}], "abc": [0.25, 0.152303, 0.022234999999999002], "properties": {"magmom": 0.021}, "label": "N", "xyz": [0.77949025, 1.399498864336, 0.30242575042998643]}, {"species": [{"element": "N", "occu": 1}], "abc": [0.25, 0.670083, 0.812241], "properties": {"magmom": 0.022}, "label": "N", "xyz": [0.77949025, 6.157333719696, 11.047564378458]}, {"species": [{"element": "N", "occu": 1}], "abc": [0.75, 0.003436, 0.821303999999999], "properties": {"magmom": 0.018000000000000002}, "label": "N", "xyz": [2.33847075, 0.031573101632, 11.170833304751987]}, {"species": [{"element": "N", "occu": 1}], "abc": [0.75, 0.640293, 0.083091], "properties": {"magmom": 0.026000000000000002}, "label": "N", "xyz": [2.33847075, 5.883596031216, 1.130148775758]}, {"species": [{"element": "N", "occu": 1}], "abc": [0.75, 0.73953, 0.030625], "properties": {"magmom": -0.003}, "label": "N", "xyz": [2.33847075, 6.79547609136, 0.41654097625]}, {"species": [{"element": "N", "occu": 1}], "abc": [0.25, 0.910439, 0.246858], "properties": {"magmom": -0.002}, "label": "N", "xyz": [0.77949025, 8.365943852368, 3.357599096004]}, {"species": [{"element": "N", "occu": 1}], "abc": [0.75, 0.859707, 0.583091], "properties": {"magmom": 0.026000000000000002}, "label": "N", "xyz": [2.33847075, 7.899771968784, 7.930817775758]}, {"species": [{"element": "N", "occu": 1}], "abc": [0.25, 0.829917, 0.312241], "properties": {"magmom": 0.022}, "label": "N", "xyz": [0.77949025, 7.626034280304, 4.246895378458]}, {"species": [{"element": "N", "occu": 1}], "abc": [0.75, 0.847696999999999, 0.977765], "properties": {"magmom": 0.021}, "label": "N", "xyz": [2.33847075, 7.789413135663991, 13.29891224957]}, {"species": [{"element": "N", "occu": 1}], "abc": [0.75, 0.170082999999999, 0.687759], "properties": {"magmom": 0.022}, "label": "N", "xyz": [2.33847075, 1.5628777196959909, 9.354442621542]}, {"species": [{"element": "N", "occu": 1}], "abc": [0.75, 0.089561, 0.753142], "properties": {"magmom": -0.002}, "label": "N", "xyz": [2.33847075, 0.822968147632, 10.243738903996]}, {"species": [{"element": "N", "occu": 1}], "abc": [0.75, 0.410439, 0.253142], "properties": {"magmom": -0.002}, "label": "N", "xyz": [2.33847075, 3.771487852368, 3.4430699039959998]}, {"species": [{"element": "N", "occu": 1}], "abc": [0.25, 0.359707, 0.916909], "properties": {"magmom": 0.026000000000000002}, "label": "N", "xyz": [0.77949025, 3.305315968784, 12.471189224242]}, {"species": [{"element": "N", "occu": 1}], "abc": [0.75, 0.49656399999999906, 0.321304], "properties": {"magmom": 0.018000000000000002}, "label": "N", "xyz": [2.33847075, 4.562882898367992, 4.370164304752]}, {"species": [{"element": "N", "occu": 1}], "abc": [0.75, 0.652303, 0.477765], "properties": {"magmom": 0.021}, "label": "N", "xyz": [2.33847075, 5.993954864336, 6.49824324957]}, {"species": [{"element": "N", "occu": 1}], "abc": [0.25, 0.23953000000000002, 0.469375], "properties": {"magmom": -0.003}, "label": "N", "xyz": [0.77949025, 2.20102009136, 6.38412802375]}]}, "task_ids": null, "uncorrected_energy_per_atom": null, "energy_per_atom": -8.725551636071428, "formation_energy_per_atom": 0.648634082142858, "energy_above_hull": 0.648634082142857, "is_stable": false, "equilibrium_reaction_energy_per_atom": null, "decomposes_to": null, "xas": null, "grain_boundaries": null, "band_gap": 0.0, "cbm": null, "vbm": null, "efermi": 0.83355221, "is_gap_direct": null, "is_metal": null, "es_source_calc_id": null, "bandstructure": null, "dos": null, "dos_energy_up": null, "dos_energy_down": null, "is_magnetic": null, "ordering": null, "total_magnetization": 1.1058275, "total_magnetization_normalized_vol": null, "total_magnetization_normalized_formula_units": null, "num_magnetic_sites": null, "num_unique_magnetic_sites": null, "types_of_magnetic_species": null, "bulk_modulus": null, "shear_modulus": null, "universal_anisotropy": null, "homogeneous_poisson": null, "e_total": null, "e_ionic": null, "e_electronic": null, "n": null, "e_ij_max": null, "weighted_surface_energy_EV_PER_ANG2": null, "weighted_surface_energy": null, "weighted_work_function": null, "surface_anisotropy": null, "shape_factor": null, "has_reconstructed": null, "possible_species": null, "has_props": null, "theoretical": null, "database_IDs": null, "fields_not_requested": ["builder_meta", "nsites", "elements", "nelements", "composition", "composition_reduced", "chemsys", "symmetry", "property_name", "deprecated", "deprecation_reasons", "last_updated", "origins", "warnings", "task_ids", "uncorrected_energy_per_atom", "equilibrium_reaction_energy_per_atom", "decomposes_to", "xas", "grain_boundaries", "cbm", "vbm", "is_gap_direct", "is_metal", "es_source_calc_id", "bandstructure", "dos", "dos_energy_up", "dos_energy_down", "is_magnetic", "ordering", "total_magnetization_normalized_vol", "total_magnetization_normalized_formula_units", "num_magnetic_sites", "num_unique_magnetic_sites", "types_of_magnetic_species", "bulk_modulus", "shear_modulus", "universal_anisotropy", "homogeneous_poisson", "e_total", "e_ionic", "e_electronic", "n", "e_ij_max", "weighted_surface_energy_EV_PER_ANG2", "weighted_surface_energy", "weighted_work_function", "surface_anisotropy", "shape_factor", "has_reconstructed", "possible_species", "has_props", "theoretical", "database_IDs"]}