{"builder_meta": null, "nsites": null, "elements": null, "nelements": null, "composition": null, "composition_reduced": null, "formula_pretty": "CuN8", "formula_anonymous": "AB8", "chemsys": null, "volume": 635.3352608337613, "density": 1.835818119061579, "density_atomic": 17.648201689826703, "symmetry": null, "property_name": null, "material_id": "mp-1198545", "deprecated": null, "deprecation_reasons": null, "last_updated": null, "origins": null, "warnings": null, "structure": {"@module": "pymatgen.core.structure", "@class": "Structure", "charge": 0, "lattice": {"matrix": [[6.738139, 0.0, 0.0], [0.0, 7.628121, 0.0], [0.0, 0.0, 12.360767]], "pbc": [true, true, true], "a": 6.738139, "b": 7.628121, "c": 12.360767, "alpha": 90.0, "beta": 90.0, "gamma": 90.0, "volume": 635.3352608337613}, "properties": {}, "sites": [{"species": [{"element": "Cu", "occu": 1}], "abc": [0.729884, 0.25, 0.138858999999999], "properties": {"magmom": 0.046}, "label": "Cu", "xyz": [4.918059845876, 1.90703025, 1.7164037448529876]}, {"species": [{"element": "Cu", "occu": 1}], "abc": [0.229883999999999, 0.25, 0.361141], "properties": {"magmom": 0.046}, "label": "Cu", "xyz": [1.5489903458759933, 1.90703025, 4.463979755146999]}, {"species": [{"element": "Cu", "occu": 1}], "abc": [0.270115999999999, 0.75, 0.861140999999999], "properties": {"magmom": 0.046}, "label": "Cu", "xyz": [1.8200791541239936, 5.72109075, 10.644363255146988]}, {"species": [{"element": "Cu", "occu": 1}], "abc": [0.770115999999999, 0.75, 0.638859], "properties": {"magmom": 0.046}, "label": "Cu", "xyz": [5.1891486541239935, 5.72109075, 7.896787244852999]}, {"species": [{"element": "N", "occu": 1}], "abc": [0.8449500000000001, 0.25, 0.280524999999999], "properties": {"magmom": 0.081}, "label": "N", "xyz": [5.693390548050001, 1.90703025, 3.4675041626749876]}, {"species": [{"element": "N", "occu": 1}], "abc": [0.34495000000000003, 0.25, 0.219475], "properties": {"magmom": 0.081}, "label": "N", "xyz": [2.3243210480500003, 1.90703025, 2.712879337325]}, {"species": [{"element": "N", "occu": 1}], "abc": [0.15505000000000002, 0.75, 0.719475], "properties": {"magmom": 0.081}, "label": "N", "xyz": [1.04474845195, 5.72109075, 8.893262837324999]}, {"species": [{"element": "N", "occu": 1}], "abc": [0.65505, 0.75, 0.780524999999999], "properties": {"magmom": 0.081}, "label": "N", "xyz": [4.4138179519500005, 5.72109075, 9.647887662674988]}, {"species": [{"element": "N", "occu": 1}], "abc": [0.726851999999999, 0.25, 0.354943], "properties": {"magmom": -0.002}, "label": "N", "xyz": [4.897629808427994, 1.90703025, 4.387367721281]}, {"species": [{"element": "N", "occu": 1}], "abc": [0.226852, 0.25, 0.145057], "properties": {"magmom": -0.002}, "label": "N", "xyz": [1.5285603084280002, 1.90703025, 1.7930157787189998]}, {"species": [{"element": "N", "occu": 1}], "abc": [0.273148, 0.75, 0.645057], "properties": {"magmom": -0.002}, "label": "N", "xyz": [1.840509191572, 5.72109075, 7.973399278719]}, {"species": [{"element": "N", "occu": 1}], "abc": [0.773148, 0.75, 0.854943], "properties": {"magmom": -0.002}, "label": "N", "xyz": [5.209578691572, 5.72109075, 10.567751221281]}, {"species": [{"element": "N", "occu": 1}], "abc": [0.621136, 0.25, 0.429025999999999], "properties": {"magmom": 0.053}, "label": "N", "xyz": [4.185300705904, 1.90703025, 5.303090422941987]}, {"species": [{"element": "N", "occu": 1}], "abc": [0.121136, 0.25, 0.070974], "properties": {"magmom": 0.053}, "label": "N", "xyz": [0.816231205904, 1.90703025, 0.8772930770579999]}, {"species": [{"element": "N", "occu": 1}], "abc": [0.378864, 0.75, 0.570974], "properties": {"magmom": 0.053}, "label": "N", "xyz": [2.552838294096, 5.72109075, 7.0576765770579994]}, {"species": [{"element": "N", "occu": 1}], "abc": [0.878864, 0.75, 0.929025999999999], "properties": {"magmom": 0.053}, "label": "N", "xyz": [5.9219077940960005, 5.72109075, 11.483473922941988]}, {"species": [{"element": "N", "occu": 1}], "abc": [0.627078, 0.25, 0.997800999999999], "properties": {"magmom": 0.106}, "label": "N", "xyz": [4.225338727842001, 1.90703025, 12.333585673366988]}, {"species": [{"element": "N", "occu": 1}], "abc": [0.127078, 0.25, 0.502199], "properties": {"magmom": 0.106}, "label": "N", "xyz": [0.856269227842, 1.90703025, 6.207564826632999]}, {"species": [{"element": "N", "occu": 1}], "abc": [0.372922, 0.75, 0.002199], "properties": {"magmom": 0.106}, "label": "N", "xyz": [2.512800272158, 5.72109075, 0.027181326633]}, {"species": [{"element": "N", "occu": 1}], "abc": [0.872922, 0.75, 0.497801], "properties": {"magmom": 0.106}, "label": "N", "xyz": [5.881869772158, 5.72109075, 6.153202173366999]}, {"species": [{"element": "N", "occu": 1}], "abc": [0.742796, 0.25, 0.921867999999999], "properties": {"magmom": -0.006}, "label": "N", "xyz": [5.005062696644, 1.90703025, 11.394995552755987]}, {"species": [{"element": "N", "occu": 1}], "abc": [0.242795999999999, 0.25, 0.578132], "properties": {"magmom": -0.006}, "label": "N", "xyz": [1.6359931966439933, 1.90703025, 7.146154947243999]}, {"species": [{"element": "N", "occu": 1}], "abc": [0.257204, 0.75, 0.078132], "properties": {"magmom": -0.006}, "label": "N", "xyz": [1.733076303356, 5.72109075, 0.9657714472439999]}, {"species": [{"element": "N", "occu": 1}], "abc": [0.757204, 0.75, 0.421867999999999], "properties": {"magmom": -0.006}, "label": "N", "xyz": [5.1021458033560005, 5.72109075, 5.214612052755988]}, {"species": [{"element": "N", "occu": 1}], "abc": [0.839174, 0.25, 0.844078999999999], "properties": {"magmom": 0.07200000000000001}, "label": "N", "xyz": [5.654471057186, 1.90703025, 10.433463848592988]}, {"species": [{"element": "N", "occu": 1}], "abc": [0.339174, 0.25, 0.655921], "properties": {"magmom": 0.07200000000000001}, "label": "N", "xyz": [2.285401557186, 1.90703025, 8.107686651406999]}, {"species": [{"element": "N", "occu": 1}], "abc": [0.160826, 0.75, 0.155921], "properties": {"magmom": 0.07200000000000001}, "label": "N", "xyz": [1.0836679428140001, 5.72109075, 1.9273031514069998]}, {"species": [{"element": "N", "occu": 1}], "abc": [0.660826, 0.75, 0.344078999999999], "properties": {"magmom": 0.07200000000000001}, "label": "N", "xyz": [4.4527374428140005, 5.72109075, 4.253080348592988]}, {"species": [{"element": "N", "occu": 1}], "abc": [0.730425, 0.499233999999999, 0.138513], "properties": {"magmom": 1.544}, "label": "N", "xyz": [4.921705179075, 3.8082173593139927, 1.7121269194709998]}, {"species": [{"element": "N", "occu": 1}], "abc": [0.230425, 0.000766, 0.361487], "properties": {"magmom": 1.544}, "label": "N", "xyz": [1.552635679075, 0.005843140686, 4.468256580528999]}, {"species": [{"element": "N", "occu": 1}], "abc": [0.269575, 0.999234, 0.861487], "properties": {"magmom": 1.544}, "label": "N", "xyz": [1.8164338209250002, 7.622277859314, 10.648640080528999]}, {"species": [{"element": "N", "occu": 1}], "abc": [0.769575, 0.500765999999999, 0.638513], "properties": {"magmom": 1.544}, "label": "N", "xyz": [5.185503320925, 3.8199036406859928, 7.892510419471]}, {"species": [{"element": "N", "occu": 1}], "abc": [0.269575, 0.500765999999999, 0.861487], "properties": {"magmom": 1.544}, "label": "N", "xyz": [1.8164338209250002, 3.8199036406859928, 10.648640080528999]}, {"species": [{"element": "N", "occu": 1}], "abc": [0.769575, 0.999234, 0.638513], "properties": {"magmom": 1.544}, "label": "N", "xyz": [5.185503320925, 7.622277859314, 7.892510419471]}, {"species": [{"element": "N", "occu": 1}], "abc": [0.730425, 0.000766, 0.138513], "properties": {"magmom": 1.544}, "label": "N", "xyz": [4.921705179075, 0.005843140686, 1.7121269194709998]}, {"species": [{"element": "N", "occu": 1}], "abc": [0.230425, 0.499233999999999, 0.361487], "properties": {"magmom": 1.544}, "label": "N", "xyz": [1.552635679075, 3.8082173593139927, 4.468256580528999]}]}, "task_ids": null, "uncorrected_energy_per_atom": null, "energy_per_atom": -7.7541751747222225, "formation_energy_per_atom": 1.5654694219444432, "energy_above_hull": 1.565469421944444, "is_stable": false, "equilibrium_reaction_energy_per_atom": null, "decomposes_to": null, "xas": null, "grain_boundaries": null, "band_gap": 0.42550000000000004, "cbm": null, "vbm": null, "efermi": -1.22908737, "is_gap_direct": null, "is_metal": null, "es_source_calc_id": null, "bandstructure": null, "dos": null, "dos_energy_up": null, "dos_energy_down": null, "is_magnetic": null, "ordering": null, "total_magnetization": 20.0014327, "total_magnetization_normalized_vol": null, "total_magnetization_normalized_formula_units": null, "num_magnetic_sites": null, "num_unique_magnetic_sites": null, "types_of_magnetic_species": null, "bulk_modulus": null, "shear_modulus": null, "universal_anisotropy": null, "homogeneous_poisson": null, "e_total": null, "e_ionic": null, "e_electronic": null, "n": null, "e_ij_max": null, "weighted_surface_energy_EV_PER_ANG2": null, "weighted_surface_energy": null, "weighted_work_function": null, "surface_anisotropy": null, "shape_factor": null, "has_reconstructed": null, "possible_species": null, "has_props": null, "theoretical": null, "database_IDs": null, "fields_not_requested": ["builder_meta", "nsites", "elements", "nelements", "composition", "composition_reduced", "chemsys", "symmetry", "property_name", "deprecated", "deprecation_reasons", "last_updated", "origins", "warnings", "task_ids", "uncorrected_energy_per_atom", "equilibrium_reaction_energy_per_atom", "decomposes_to", "xas", "grain_boundaries", "cbm", "vbm", "is_gap_direct", "is_metal", "es_source_calc_id", "bandstructure", "dos", "dos_energy_up", "dos_energy_down", "is_magnetic", "ordering", "total_magnetization_normalized_vol", "total_magnetization_normalized_formula_units", "num_magnetic_sites", "num_unique_magnetic_sites", "types_of_magnetic_species", "bulk_modulus", "shear_modulus", "universal_anisotropy", "homogeneous_poisson", "e_total", "e_ionic", "e_electronic", "n", "e_ij_max", "weighted_surface_energy_EV_PER_ANG2", "weighted_surface_energy", "weighted_work_function", "surface_anisotropy", "shape_factor", "has_reconstructed", "possible_species", "has_props", "theoretical", "database_IDs"]}