{"builder_meta": null, "nsites": null, "elements": null, "nelements": null, "composition": null, "composition_reduced": null, "formula_pretty": "CuO", "formula_anonymous": "AB", "chemsys": null, "volume": 42.9164487435527, "density": 6.155599921960791, "density_atomic": 10.729112185888175, "symmetry": null, "property_name": null, "material_id": "mp-1692", "deprecated": null, "deprecation_reasons": null, "last_updated": null, "origins": null, "warnings": null, "structure": {"@module": "pymatgen.core.structure", "@class": "Structure", "charge": 0, "lattice": {"matrix": [[2.84374985, -0.41191797, 0.18691222], [0.43862425, 2.83979751, 0.1869114], [-0.35979084, -0.26613012, 5.15701622]], "pbc": [true, true, true], "a": 2.879500963946578, "b": 2.879544582384552, "c": 5.176397490790502, "alpha": 89.80651161801521, "beta": 89.80634916327074, "gamma": 89.22252537948611, "volume": 42.91644874355269}, "properties": {}, "sites": [{"species": [{"element": "Cu", "occu": 1}], "abc": [0.98662329, 0.48642685, 0.5079543400000001], "properties": {"magmom": -0.556}, "label": "Cu", "xyz": [2.836311126534873, 0.8397639451969013, 2.894859443368089]}, {"species": [{"element": "Cu", "occu": 1}], "abc": [0.486418199999999, 0.9866269, 0.00795369], "properties": {"magmom": 0.556}, "label": "Cu", "xyz": [1.8131485025233927, 2.5993394999298225, 0.3163466291059156]}, {"species": [{"element": "O", "occu": 1}], "abc": [0.48819932, 0.48475507, 0.25806724000000003], "properties": {"magmom": -0.0}, "label": "O", "xyz": [1.508091842976468, 1.1068287023468264, 1.5127136100251213]}, {"species": [{"element": "O", "occu": 1}], "abc": [0.4847592, 0.48819217000000004, 0.75802473], "properties": {"magmom": 0.0}, "label": "O", "xyz": [1.3199364723607694, 0.984952670806805, 4.0910019279722825]}]}, "task_ids": null, "uncorrected_energy_per_atom": null, "energy_per_atom": -5.466378779999999, "formation_energy_per_atom": -0.9427949424999991, "energy_above_hull": 0.0, "is_stable": true, "equilibrium_reaction_energy_per_atom": null, "decomposes_to": null, "xas": null, "grain_boundaries": null, "band_gap": 0.0, "cbm": null, "vbm": null, "efermi": 4.73658869, "is_gap_direct": null, "is_metal": null, "es_source_calc_id": null, "bandstructure": null, "dos": null, "dos_energy_up": null, "dos_energy_down": null, "is_magnetic": null, "ordering": null, "total_magnetization": 9.44e-05, "total_magnetization_normalized_vol": null, "total_magnetization_normalized_formula_units": null, "num_magnetic_sites": null, "num_unique_magnetic_sites": null, "types_of_magnetic_species": null, "bulk_modulus": null, "shear_modulus": null, "universal_anisotropy": null, "homogeneous_poisson": null, "e_total": null, "e_ionic": null, "e_electronic": null, "n": null, "e_ij_max": null, "weighted_surface_energy_EV_PER_ANG2": null, "weighted_surface_energy": null, "weighted_work_function": null, "surface_anisotropy": null, "shape_factor": null, "has_reconstructed": null, "possible_species": null, "has_props": null, "theoretical": null, "database_IDs": null, "fields_not_requested": ["builder_meta", "nsites", "elements", "nelements", "composition", "composition_reduced", "chemsys", "symmetry", "property_name", "deprecated", "deprecation_reasons", "last_updated", "origins", "warnings", "task_ids", "uncorrected_energy_per_atom", "equilibrium_reaction_energy_per_atom", "decomposes_to", "xas", "grain_boundaries", "cbm", "vbm", "is_gap_direct", "is_metal", "es_source_calc_id", "bandstructure", "dos", "dos_energy_up", "dos_energy_down", "is_magnetic", "ordering", "total_magnetization_normalized_vol", "total_magnetization_normalized_formula_units", "num_magnetic_sites", "num_unique_magnetic_sites", "types_of_magnetic_species", "bulk_modulus", "shear_modulus", "universal_anisotropy", "homogeneous_poisson", "e_total", "e_ionic", "e_electronic", "n", "e_ij_max", "weighted_surface_energy_EV_PER_ANG2", "weighted_surface_energy", "weighted_work_function", "surface_anisotropy", "shape_factor", "has_reconstructed", "possible_species", "has_props", "theoretical", "database_IDs"]}