{
  "builder_meta": null,
  "nsites": null,
  "elements": null,
  "nelements": null,
  "composition": null,
  "composition_reduced": null,
  "formula_pretty": "CuP2",
  "formula_anonymous": "AB2",
  "chemsys": null,
  "volume": 190.93693187864682,
  "density": 4.365565051390864,
  "density_atomic": 15.911410989887235,
  "symmetry": null,
  "property_name": null,
  "material_id": "mp-927",
  "deprecated": null,
  "deprecation_reasons": null,
  "last_updated": null,
  "origins": null,
  "warnings": null,
  "structure": {
    "@module": "pymatgen.core.structure",
    "@class": "Structure",
    "charge": 0,
    "lattice": {
      "matrix": [
        [4.78337532, 0.0, 0.0],
        [0.0, 5.3211515, -2.22225075],
        [0.0, 0.00866416, 7.49791174]
      ],
      "pbc": [true, true, true],
      "a": 4.78337532,
      "b": 5.766545905637777,
      "c": 7.49791674590338,
      "alpha": 112.60047172692335,
      "beta": 90.0,
      "gamma": 90.0,
      "volume": 190.93693187864682
    },
    "properties": {},
    "sites": [
      {
        "species": [{ "element": "Cu", "occu": 1 }],
        "abc": [0.04048855, 0.77427506, 0.91845882],
        "properties": { "magmom": -0.0 },
        "label": "Cu",
        "xyz": [0.193671930812586, 4.127992571101481, 5.1658898363932515]
      },
      {
        "species": [{ "element": "Cu", "occu": 1 }],
        "abc": [0.54048855, 0.72572494, 0.58154118],
        "properties": { "magmom": -0.0 },
        "label": "Cu",
        "xyz": [2.585359590812586, 3.8667309188985186, 2.7476016486067483]
      },
      {
        "species": [{ "element": "Cu", "occu": 1 }],
        "abc": [0.95951145, 0.22572494, 0.08154118],
        "properties": { "magmom": -0.0 },
        "label": "Cu",
        "xyz": [4.589703389187415, 1.201823088898519, 0.10977115360674816]
      },
      {
        "species": [{ "element": "Cu", "occu": 1 }],
        "abc": [0.45951145, 0.27427506, 0.41845882],
        "properties": { "magmom": -0.0 },
        "label": "Cu",
        "xyz": [2.198015729187414, 1.4630847411014813, 2.528059341393252]
      },
      {
        "species": [{ "element": "P", "occu": 1 }],
        "abc": [0.38393146, 0.67330889, 0.08040032],
        "properties": { "magmom": 0.0 },
        "label": "P",
        "xyz": [1.8364882703355674, 3.5834752112233663, -0.8934266825564109]
      },
      {
        "species": [{ "element": "P", "occu": 1 }],
        "abc": [0.88393146, 0.8266911100000001, 0.41959968000000003],
        "properties": { "magmom": 0.0 },
        "label": "P",
        "xyz": [4.228175930335567, 4.402584118776634, 1.3090064275564108]
      },
      {
        "species": [{ "element": "P", "occu": 1 }],
        "abc": [0.61606854, 0.32669111, 0.91959968],
        "properties": { "magmom": 0.0 },
        "label": "P",
        "xyz": [2.946887049664433, 1.7463404487766339, 6.169087672556411]
      },
      {
        "species": [{ "element": "P", "occu": 1 }],
        "abc": [0.11606854, 0.17330889, 0.58040032],
        "properties": { "magmom": 0.0 },
        "label": "P",
        "xyz": [0.5551993896644328, 0.9272315412233662, 3.966654562443589]
      },
      {
        "species": [{ "element": "P", "occu": 1 }],
        "abc": [0.78035616, 0.45381907, 0.69971911],
        "properties": { "magmom": -0.0 },
        "label": "P",
        "xyz": [3.732736396553971, 2.4209025033832026, 4.237932360899549]
      },
      {
        "species": [{ "element": "P", "occu": 1 }],
        "abc": [0.28035616, 0.04618093, 0.80028089],
        "properties": { "magmom": -0.0 },
        "label": "P",
        "xyz": [1.3410487365539714, 0.25266948661679745, 5.897809874100452]
      },
      {
        "species": [{ "element": "P", "occu": 1 }],
        "abc": [0.21964384, 0.54618093, 0.30028089],
        "properties": { "magmom": -0.0 },
        "label": "P",
        "xyz": [1.050638923446029, 2.9089131566167974, 1.037728629100451]
      },
      {
        "species": [{ "element": "P", "occu": 1 }],
        "abc": [0.71964384, 0.95381907, 0.19971911],
        "properties": { "magmom": -0.0 },
        "label": "P",
        "xyz": [3.4423265834460293, 5.077146173383203, -0.622148884100451]
      }
    ]
  },
  "task_ids": null,
  "uncorrected_energy_per_atom": null,
  "energy_per_atom": -9.773293335833333,
  "formation_energy_per_atom": -0.156310461150794,
  "energy_above_hull": 0.0,
  "is_stable": true,
  "equilibrium_reaction_energy_per_atom": null,
  "decomposes_to": null,
  "xas": null,
  "grain_boundaries": null,
  "band_gap": 0.8679000000000001,
  "cbm": null,
  "vbm": null,
  "efermi": 6.84813622,
  "is_gap_direct": null,
  "is_metal": null,
  "es_source_calc_id": null,
  "bandstructure": null,
  "dos": null,
  "dos_energy_up": null,
  "dos_energy_down": null,
  "is_magnetic": null,
  "ordering": null,
  "total_magnetization": 0.0,
  "total_magnetization_normalized_vol": null,
  "total_magnetization_normalized_formula_units": null,
  "num_magnetic_sites": null,
  "num_unique_magnetic_sites": null,
  "types_of_magnetic_species": null,
  "bulk_modulus": null,
  "shear_modulus": null,
  "universal_anisotropy": null,
  "homogeneous_poisson": null,
  "e_total": null,
  "e_ionic": null,
  "e_electronic": null,
  "n": null,
  "e_ij_max": null,
  "weighted_surface_energy_EV_PER_ANG2": null,
  "weighted_surface_energy": null,
  "weighted_work_function": null,
  "surface_anisotropy": null,
  "shape_factor": null,
  "has_reconstructed": null,
  "possible_species": null,
  "has_props": null,
  "theoretical": null,
  "database_IDs": null,
  "fields_not_requested": [
    "builder_meta",
    "nsites",
    "elements",
    "nelements",
    "composition",
    "composition_reduced",
    "chemsys",
    "symmetry",
    "property_name",
    "deprecated",
    "deprecation_reasons",
    "last_updated",
    "origins",
    "warnings",
    "task_ids",
    "uncorrected_energy_per_atom",
    "equilibrium_reaction_energy_per_atom",
    "decomposes_to",
    "xas",
    "grain_boundaries",
    "cbm",
    "vbm",
    "is_gap_direct",
    "is_metal",
    "es_source_calc_id",
    "bandstructure",
    "dos",
    "dos_energy_up",
    "dos_energy_down",
    "is_magnetic",
    "ordering",
    "total_magnetization_normalized_vol",
    "total_magnetization_normalized_formula_units",
    "num_magnetic_sites",
    "num_unique_magnetic_sites",
    "types_of_magnetic_species",
    "bulk_modulus",
    "shear_modulus",
    "universal_anisotropy",
    "homogeneous_poisson",
    "e_total",
    "e_ionic",
    "e_electronic",
    "n",
    "e_ij_max",
    "weighted_surface_energy_EV_PER_ANG2",
    "weighted_surface_energy",
    "weighted_work_function",
    "surface_anisotropy",
    "shape_factor",
    "has_reconstructed",
    "possible_species",
    "has_props",
    "theoretical",
    "database_IDs"
  ]
}
