{"builder_meta": null, "nsites": null, "elements": null, "nelements": null, "composition": null, "composition_reduced": null, "formula_pretty": "CuS2", "formula_anonymous": "AB2", "chemsys": null, "volume": 97.89872550147206, "density": 4.331230764879235, "density_atomic": 16.316454250245343, "symmetry": null, "property_name": null, "material_id": "mp-849086", "deprecated": null, "deprecation_reasons": null, "last_updated": null, "origins": null, "warnings": null, "structure": {"@module": "pymatgen.core.structure", "@class": "Structure", "charge": 0, "lattice": {"matrix": [[-6.699999999999999e-07, 0.0, 3.59231407], [4.69742684, -7.257e-05, -9.1e-07], [-1.513e-05, 5.80153229, 0.0]], "pbc": [true, true, true], "a": 3.5923140700000626, "b": 4.697426840560651, "c": 5.801532290019729, "alpha": 90.00103457930264, "beta": 89.99999999997212, "gamma": 90.00002178571094, "volume": 97.89872550147206}, "properties": {}, "sites": [{"species": [{"element": "Cu", "occu": 1}], "abc": [0.5, 0.5, 0.5], "properties": {"magmom": -0.0}, "label": "Cu", "xyz": [2.3487055199999998, 2.9007298599999998, 1.7961565800000001]}, {"species": [{"element": "Cu", "occu": 1}], "abc": [0.0, -0.0, -0.0], "properties": {"magmom": -0.0}, "label": "Cu", "xyz": [0.0, 0.0, 0.0]}, {"species": [{"element": "S", "occu": 1}], "abc": [0.49999997, 0.32834899, 0.89565642], "properties": {"magmom": -0.0}, "label": "S", "xyz": [1.5423814722312772, 5.1961558130895975, 1.796156628432997]}, {"species": [{"element": "S", "occu": 1}], "abc": [3.0000000000000004e-08, 0.17164901, 0.39565843], "properties": {"magmom": -0.0}, "label": "S", "xyz": [0.8063026803213624, 2.295412700887049, -4.843117699999996e-08]}, {"species": [{"element": "S", "occu": 1}], "abc": [-3.0000000000000004e-08, 0.82835099, 0.60434157], "properties": {"magmom": -0.0}, "label": "S", "xyz": [3.891109029678638, 3.506047019112951, -8.61568823e-07]}, {"species": [{"element": "S", "occu": 1}], "abc": [0.50000003, 0.67165101, 0.10434358], "properties": {"magmom": -0.0}, "label": "S", "xyz": [3.1550295677687235, 0.6053039069104026, 1.7961565315670032]}]}, "task_ids": null, "uncorrected_energy_per_atom": null, "energy_per_atom": -9.151914676666667, "formation_energy_per_atom": -0.17964995520833402, "energy_above_hull": 0.00521970517361, "is_stable": false, "equilibrium_reaction_energy_per_atom": null, "decomposes_to": null, "xas": null, "grain_boundaries": null, "band_gap": 0.0, "cbm": null, "vbm": null, "efermi": 6.01183346, "is_gap_direct": null, "is_metal": null, "es_source_calc_id": null, "bandstructure": null, "dos": null, "dos_energy_up": null, "dos_energy_down": null, "is_magnetic": null, "ordering": null, "total_magnetization": 0.0, "total_magnetization_normalized_vol": null, "total_magnetization_normalized_formula_units": null, "num_magnetic_sites": null, "num_unique_magnetic_sites": null, "types_of_magnetic_species": null, "bulk_modulus": null, "shear_modulus": null, "universal_anisotropy": null, "homogeneous_poisson": null, "e_total": null, "e_ionic": null, "e_electronic": null, "n": null, "e_ij_max": null, "weighted_surface_energy_EV_PER_ANG2": null, "weighted_surface_energy": null, "weighted_work_function": null, "surface_anisotropy": null, "shape_factor": null, "has_reconstructed": null, "possible_species": null, "has_props": null, "theoretical": null, "database_IDs": null, "fields_not_requested": ["builder_meta", "nsites", "elements", "nelements", "composition", "composition_reduced", "chemsys", "symmetry", "property_name", "deprecated", "deprecation_reasons", "last_updated", "origins", "warnings", "task_ids", "uncorrected_energy_per_atom", "equilibrium_reaction_energy_per_atom", "decomposes_to", "xas", "grain_boundaries", "cbm", "vbm", "is_gap_direct", "is_metal", "es_source_calc_id", "bandstructure", "dos", "dos_energy_up", "dos_energy_down", "is_magnetic", "ordering", "total_magnetization_normalized_vol", "total_magnetization_normalized_formula_units", "num_magnetic_sites", "num_unique_magnetic_sites", "types_of_magnetic_species", "bulk_modulus", "shear_modulus", "universal_anisotropy", "homogeneous_poisson", "e_total", "e_ionic", "e_electronic", "n", "e_ij_max", "weighted_surface_energy_EV_PER_ANG2", "weighted_surface_energy", "weighted_work_function", "surface_anisotropy", "shape_factor", "has_reconstructed", "possible_species", "has_props", "theoretical", "database_IDs"]}