{
  "builder_meta": null,
  "nsites": null,
  "elements": null,
  "nelements": null,
  "composition": null,
  "composition_reduced": null,
  "formula_pretty": "CuSe",
  "formula_anonymous": "AB",
  "chemsys": null,
  "volume": 234.94426390177057,
  "density": 6.043223434231278,
  "density_atomic": 19.578688658480882,
  "symmetry": null,
  "property_name": null,
  "material_id": "mp-571486",
  "deprecated": null,
  "deprecation_reasons": null,
  "last_updated": null,
  "origins": null,
  "warnings": null,
  "structure": {
    "@module": "pymatgen.core.structure",
    "@class": "Structure",
    "charge": 0,
    "lattice": {
      "matrix": [
        [3.91058117, 0.0, -0.0],
        [-1.9552900800000002, 3.51733796, -0.0],
        [-0.0, -0.0, 17.08084857]
      ],
      "pbc": [true, true, true],
      "a": 3.91058117,
      "b": 4.024279515864096,
      "c": 17.08084857,
      "alpha": 90.0,
      "beta": 90.0,
      "gamma": 119.06970631907649,
      "volume": 234.94426390177057
    },
    "properties": {},
    "sites": [
      {
        "species": [{ "element": "Cu", "occu": 1 }],
        "abc": [0.64690795, 0.293815899999999, 0.11252552],
        "properties": { "magmom": 0.0 },
        "label": "Cu",
        "xyz": [1.9552907333770313, 1.0334498183215606, 1.9220313673805065]
      },
      {
        "species": [{ "element": "Cu", "occu": 1 }],
        "abc": [0.35309205, 0.7061841, 0.8874744800000001],
        "properties": { "magmom": 0.0 },
        "label": "Cu",
        "xyz": [3.5662297048766334e-7, 2.483888141678436, 15.158817202619495]
      },
      {
        "species": [{ "element": "Cu", "occu": 1 }],
        "abc": [0.35309205, 0.7061841, 0.61252552],
        "properties": { "magmom": 0.0 },
        "label": "Cu",
        "xyz": [3.5662297048766334e-7, 2.483888141678436, 10.462455652380507]
      },
      {
        "species": [{ "element": "Cu", "occu": 1 }],
        "abc": [0.64690795, 0.293815899999999, 0.38747448],
        "properties": { "magmom": 0.0 },
        "label": "Cu",
        "xyz": [1.9552907333770313, 1.0334498183215606, 6.618392917619494]
      },
      {
        "species": [{ "element": "Cu", "occu": 1 }],
        "abc": [0.56979924, 0.13959847, 0.75],
        "properties": { "magmom": -0.0 },
        "label": "Cu",
        "xyz": [1.9552906750501333, 0.4910149976889212, 12.8106364275]
      },
      {
        "species": [{ "element": "Cu", "occu": 1 }],
        "abc": [0.43020076, 0.86040153, 0.25],
        "properties": { "magmom": -0.0 },
        "label": "Cu",
        "xyz": [4.1494986691148483e-7, 3.026322962311079, 4.2702121425]
      },
      {
        "species": [{ "element": "Se", "occu": 1 }],
        "abc": [0.24530456, 0.49060712, 0.75],
        "properties": { "magmom": -0.0 },
        "label": "Se",
        "xyz": [4.15833776556962e-6, 1.725631046622275, 12.8106364275]
      },
      {
        "species": [{ "element": "Se", "occu": 1 }],
        "abc": [0.75469544, 0.50939288, 0.25],
        "properties": { "magmom": -0.0 },
        "label": "Se",
        "xyz": [1.955286931662234, 1.7917069133777248, 4.2702121425]
      },
      {
        "species": [{ "element": "Se", "occu": 1 }],
        "abc": [0.019181, 0.038363, 0.5699313500000001],
        "properties": { "magmom": 0.0 },
        "label": "Se",
        "xyz": [-1.935917270004528e-6, 0.13493563615948, 9.73491108464567]
      },
      {
        "species": [{ "element": "Se", "occu": 1 }],
        "abc": [0.980819, 0.961637, 0.06993135],
        "properties": { "magmom": 0.0 },
        "label": "Se",
        "xyz": [1.9552930259172698, 3.3824023238405196, 1.1944867996456696]
      },
      {
        "species": [{ "element": "Se", "occu": 1 }],
        "abc": [0.019181, 0.038363, 0.93006865],
        "properties": { "magmom": 0.0 },
        "label": "Se",
        "xyz": [-1.935917270004528e-6, 0.13493563615948, 15.886361770354332]
      },
      {
        "species": [{ "element": "Se", "occu": 1 }],
        "abc": [0.980819, 0.961637, 0.43006865],
        "properties": { "magmom": 0.0 },
        "label": "Se",
        "xyz": [1.9552930259172698, 3.3824023238405196, 7.345937485354331]
      }
    ]
  },
  "task_ids": null,
  "uncorrected_energy_per_atom": null,
  "energy_per_atom": -12.7644041825,
  "formation_energy_per_atom": -0.18522606703124903,
  "energy_above_hull": 0.0,
  "is_stable": true,
  "equilibrium_reaction_energy_per_atom": null,
  "decomposes_to": null,
  "xas": null,
  "grain_boundaries": null,
  "band_gap": 0.0,
  "cbm": null,
  "vbm": null,
  "efermi": 4.00060765,
  "is_gap_direct": null,
  "is_metal": null,
  "es_source_calc_id": null,
  "bandstructure": null,
  "dos": null,
  "dos_energy_up": null,
  "dos_energy_down": null,
  "is_magnetic": null,
  "ordering": null,
  "total_magnetization": 0.0,
  "total_magnetization_normalized_vol": null,
  "total_magnetization_normalized_formula_units": null,
  "num_magnetic_sites": null,
  "num_unique_magnetic_sites": null,
  "types_of_magnetic_species": null,
  "bulk_modulus": null,
  "shear_modulus": null,
  "universal_anisotropy": null,
  "homogeneous_poisson": null,
  "e_total": null,
  "e_ionic": null,
  "e_electronic": null,
  "n": null,
  "e_ij_max": null,
  "weighted_surface_energy_EV_PER_ANG2": null,
  "weighted_surface_energy": null,
  "weighted_work_function": null,
  "surface_anisotropy": null,
  "shape_factor": null,
  "has_reconstructed": null,
  "possible_species": null,
  "has_props": null,
  "theoretical": null,
  "database_IDs": null,
  "fields_not_requested": [
    "builder_meta",
    "nsites",
    "elements",
    "nelements",
    "composition",
    "composition_reduced",
    "chemsys",
    "symmetry",
    "property_name",
    "deprecated",
    "deprecation_reasons",
    "last_updated",
    "origins",
    "warnings",
    "task_ids",
    "uncorrected_energy_per_atom",
    "equilibrium_reaction_energy_per_atom",
    "decomposes_to",
    "xas",
    "grain_boundaries",
    "cbm",
    "vbm",
    "is_gap_direct",
    "is_metal",
    "es_source_calc_id",
    "bandstructure",
    "dos",
    "dos_energy_up",
    "dos_energy_down",
    "is_magnetic",
    "ordering",
    "total_magnetization_normalized_vol",
    "total_magnetization_normalized_formula_units",
    "num_magnetic_sites",
    "num_unique_magnetic_sites",
    "types_of_magnetic_species",
    "bulk_modulus",
    "shear_modulus",
    "universal_anisotropy",
    "homogeneous_poisson",
    "e_total",
    "e_ionic",
    "e_electronic",
    "n",
    "e_ij_max",
    "weighted_surface_energy_EV_PER_ANG2",
    "weighted_surface_energy",
    "weighted_work_function",
    "surface_anisotropy",
    "shape_factor",
    "has_reconstructed",
    "possible_species",
    "has_props",
    "theoretical",
    "database_IDs"
  ]
}
