{"builder_meta": null, "nsites": null, "elements": null, "nelements": null, "composition": null, "composition_reduced": null, "formula_pretty": "CuTe", "formula_anonymous": "AB", "chemsys": null, "volume": 94.67133081146629, "density": 6.705417526165807, "density_atomic": 23.667832702866573, "symmetry": null, "property_name": null, "material_id": "mp-20826", "deprecated": null, "deprecation_reasons": null, "last_updated": null, "origins": null, "warnings": null, "structure": {"@module": "pymatgen.core.structure", "@class": "Structure", "charge": 0, "lattice": {"matrix": [[3.23888584, 0.0, 0.0], [-0.0, 3.99692133, 0.0], [0.0, 0.0, 7.31302808]], "pbc": [true, true, true], "a": 3.23888584, "b": 3.99692133, "c": 7.31302808, "alpha": 90.0, "beta": 90.0, "gamma": 90.0, "volume": 94.67133081146629}, "properties": {}, "sites": [{"species": [{"element": "Cu", "occu": 1}], "abc": [0.25, 0.75, 0.4645856], "properties": {"magmom": -0.0}, "label": "Cu", "xyz": [0.80972146, 2.9976909975000003, 3.3975275383636476]}, {"species": [{"element": "Cu", "occu": 1}], "abc": [0.75, 0.25, 0.5354144], "properties": {"magmom": -0.0}, "label": "Cu", "xyz": [2.42916438, 0.9992303325, 3.9155005416363515]}, {"species": [{"element": "Te", "occu": 1}], "abc": [0.25, 0.25, 0.23823067], "properties": {"magmom": 0.0}, "label": "Te", "xyz": [0.80972146, 0.9992303325, 1.7421875792272135]}, {"species": [{"element": "Te", "occu": 1}], "abc": [0.75, 0.75, 0.76176933], "properties": {"magmom": 0.0}, "label": "Te", "xyz": [2.42916438, 2.9976909975000003, 5.570840500772786]}]}, "task_ids": null, "uncorrected_energy_per_atom": null, "energy_per_atom": -18.2162147825, "formation_energy_per_atom": -0.0842046275, "energy_above_hull": 0.0, "is_stable": true, "equilibrium_reaction_energy_per_atom": null, "decomposes_to": null, "xas": null, "grain_boundaries": null, "band_gap": 0.0, "cbm": null, "vbm": null, "efermi": 6.94378475, "is_gap_direct": null, "is_metal": null, "es_source_calc_id": null, "bandstructure": null, "dos": null, "dos_energy_up": null, "dos_energy_down": null, "is_magnetic": null, "ordering": null, "total_magnetization": 0.0, "total_magnetization_normalized_vol": null, "total_magnetization_normalized_formula_units": null, "num_magnetic_sites": null, "num_unique_magnetic_sites": null, "types_of_magnetic_species": null, "bulk_modulus": null, "shear_modulus": null, "universal_anisotropy": null, "homogeneous_poisson": null, "e_total": null, "e_ionic": null, "e_electronic": null, "n": null, "e_ij_max": null, "weighted_surface_energy_EV_PER_ANG2": null, "weighted_surface_energy": null, "weighted_work_function": null, "surface_anisotropy": null, "shape_factor": null, "has_reconstructed": null, "possible_species": null, "has_props": null, "theoretical": null, "database_IDs": null, "fields_not_requested": ["builder_meta", "nsites", "elements", "nelements", "composition", "composition_reduced", "chemsys", "symmetry", "property_name", "deprecated", "deprecation_reasons", "last_updated", "origins", "warnings", "task_ids", "uncorrected_energy_per_atom", "equilibrium_reaction_energy_per_atom", "decomposes_to", "xas", "grain_boundaries", "cbm", "vbm", "is_gap_direct", "is_metal", "es_source_calc_id", "bandstructure", "dos", "dos_energy_up", "dos_energy_down", "is_magnetic", "ordering", "total_magnetization_normalized_vol", "total_magnetization_normalized_formula_units", "num_magnetic_sites", "num_unique_magnetic_sites", "types_of_magnetic_species", "bulk_modulus", "shear_modulus", "universal_anisotropy", "homogeneous_poisson", "e_total", "e_ionic", "e_electronic", "n", "e_ij_max", "weighted_surface_energy_EV_PER_ANG2", "weighted_surface_energy", "weighted_work_function", "surface_anisotropy", "shape_factor", "has_reconstructed", "possible_species", "has_props", "theoretical", "database_IDs"]}