{"builder_meta": null, "nsites": null, "elements": null, "nelements": null, "composition": null, "composition_reduced": null, "formula_pretty": "Dy2Al", "formula_anonymous": "AB2", "chemsys": null, "volume": 313.5925125216552, "density": 7.455268505837359, "density_atomic": 26.1327093768046, "symmetry": null, "property_name": null, "material_id": "mp-1102728", "deprecated": null, "deprecation_reasons": null, "last_updated": null, "origins": null, "warnings": null, "structure": {"@module": "pymatgen.core.structure", "@class": "Structure", "charge": 0, "lattice": {"matrix": [[0.0, -5.08435782, 0.0], [-6.54640354, 0.0, 0.0], [0.0, 0.0, -9.42164648]], "pbc": [true, true, true], "a": 5.08435782, "b": 6.54640354, "c": 9.42164648, "alpha": 90.0, "beta": 90.0, "gamma": 90.0, "volume": 313.5925125216552}, "properties": {}, "sites": [{"species": [{"element": "Dy", "occu": 1}], "abc": [0.75, 0.68986168, 0.57356347], "properties": {"magmom": 0.0}, "label": "Dy", "xyz": [-4.516112944062347, -3.813268365, -5.403912248182085]}, {"species": [{"element": "Dy", "occu": 1}], "abc": [0.75, 0.18986281, 0.92643601], "properties": {"magmom": 0.0}, "label": "Dy", "xyz": [-1.2429185714983473, -3.813268365, -8.728552572561744]}, {"species": [{"element": "Dy", "occu": 1}], "abc": [0.25, 0.31013719, 0.42643601000000003], "properties": {"magmom": 0.0}, "label": "Dy", "xyz": [-2.0302831985016527, -1.271089455, -4.017729332561745]}, {"species": [{"element": "Dy", "occu": 1}], "abc": [0.25, 0.81013832, 0.07356347], "properties": {"magmom": 0.0}, "label": "Dy", "xyz": [-5.303492365937653, -1.271089455, -0.6930890081820856]}, {"species": [{"element": "Dy", "occu": 1}], "abc": [0.75, 0.5266961, 0.20924339], "properties": {"magmom": 0.0}, "label": "Dy", "xyz": [-3.447965213544194, -3.813268365, -1.9714172488567672]}, {"species": [{"element": "Dy", "occu": 1}], "abc": [0.75, 0.02669619, 0.290756199999999], "properties": {"magmom": 0.0}, "label": "Dy", "xyz": [-0.1747640327205126, -3.813268365, -2.739402128268167]}, {"species": [{"element": "Dy", "occu": 1}], "abc": [0.25, 0.47330381, 0.790756199999999], "properties": {"magmom": 0.0}, "label": "Dy", "xyz": [-3.0984377372794873, -1.271089455, -7.450225368268167]}, {"species": [{"element": "Dy", "occu": 1}], "abc": [0.25, 0.9733039, 0.70924339], "properties": {"magmom": 0.0}, "label": "Dy", "xyz": [-6.371640096455806, -1.271089455, -6.682240488856768]}, {"species": [{"element": "Al", "occu": 1}], "abc": [0.75, 0.20988473, 0.60298035], "properties": {"magmom": -0.0}, "label": "Al", "xyz": [-1.3739901394639442, -3.813268365, -5.6810676920866685]}, {"species": [{"element": "Al", "occu": 1}], "abc": [0.75, 0.7098842, 0.89701959], "properties": {"magmom": -0.0}, "label": "Al", "xyz": [-4.647188439870067, -3.813268365, -8.451401462614543]}, {"species": [{"element": "Al", "occu": 1}], "abc": [0.25, 0.790115799999999, 0.39701959000000003], "properties": {"magmom": -0.0}, "label": "Al", "xyz": [-5.172416870129926, -1.271089455, -3.7405782226145434]}, {"species": [{"element": "Al", "occu": 1}], "abc": [0.25, 0.29011527, 0.10298035], "properties": {"magmom": -0.0}, "label": "Al", "xyz": [-1.8992116305360556, -1.271089455, -0.970244452086668]}]}, "task_ids": null, "uncorrected_energy_per_atom": null, "energy_per_atom": -23.90950891916667, "formation_energy_per_atom": -0.344273992500002, "energy_above_hull": 0.0, "is_stable": true, "equilibrium_reaction_energy_per_atom": null, "decomposes_to": null, "xas": null, "grain_boundaries": null, "band_gap": 0.0, "cbm": null, "vbm": null, "efermi": 4.13459816, "is_gap_direct": null, "is_metal": null, "es_source_calc_id": null, "bandstructure": null, "dos": null, "dos_energy_up": null, "dos_energy_down": null, "is_magnetic": null, "ordering": null, "total_magnetization": 4e-07, "total_magnetization_normalized_vol": null, "total_magnetization_normalized_formula_units": null, "num_magnetic_sites": null, "num_unique_magnetic_sites": null, "types_of_magnetic_species": null, "bulk_modulus": null, "shear_modulus": null, "universal_anisotropy": null, "homogeneous_poisson": null, "e_total": null, "e_ionic": null, "e_electronic": null, "n": null, "e_ij_max": null, "weighted_surface_energy_EV_PER_ANG2": null, "weighted_surface_energy": null, "weighted_work_function": null, "surface_anisotropy": null, "shape_factor": null, "has_reconstructed": null, "possible_species": null, "has_props": null, "theoretical": null, "database_IDs": null, "fields_not_requested": ["builder_meta", "nsites", "elements", "nelements", "composition", "composition_reduced", "chemsys", "symmetry", "property_name", "deprecated", "deprecation_reasons", "last_updated", "origins", "warnings", "task_ids", "uncorrected_energy_per_atom", "equilibrium_reaction_energy_per_atom", "decomposes_to", "xas", "grain_boundaries", "cbm", "vbm", "is_gap_direct", "is_metal", "es_source_calc_id", "bandstructure", "dos", "dos_energy_up", "dos_energy_down", "is_magnetic", "ordering", "total_magnetization_normalized_vol", "total_magnetization_normalized_formula_units", "num_magnetic_sites", "num_unique_magnetic_sites", "types_of_magnetic_species", "bulk_modulus", "shear_modulus", "universal_anisotropy", "homogeneous_poisson", "e_total", "e_ionic", "e_electronic", "n", "e_ij_max", "weighted_surface_energy_EV_PER_ANG2", "weighted_surface_energy", "weighted_work_function", "surface_anisotropy", "shape_factor", "has_reconstructed", "possible_species", "has_props", "theoretical", "database_IDs"]}