{"builder_meta": null, "nsites": null, "elements": null, "nelements": null, "composition": null, "composition_reduced": null, "formula_pretty": "Dy2Au", "formula_anonymous": "AB2", "chemsys": null, "volume": 310.88503514191416, "density": 11.15197943044133, "density_atomic": 25.90708626182618, "symmetry": null, "property_name": null, "material_id": "mp-1103411", "deprecated": null, "deprecation_reasons": null, "last_updated": null, "origins": null, "warnings": null, "structure": {"@module": "pymatgen.core.structure", "@class": "Structure", "charge": 0, "lattice": {"matrix": [[0.0, -4.95097601, 0.0], [-7.07703246, 0.0, 0.00013857], [0.00017212, 0.0, -8.87274107]], "pbc": [true, true, true], "a": 4.95097601, "b": 7.077032461356617, "c": 8.872741071669456, "alpha": 90.00223333111026, "beta": 90.0, "gamma": 90.0, "volume": 310.8850351419142}, "properties": {}, "sites": [{"species": [{"element": "Dy", "occu": 1}], "abc": [0.75, 0.64864827, 0.58404733], "properties": {"magmom": -0.0}, "label": "Dy", "xyz": [-4.590404335686404, -3.7132320075, -5.182010848524069]}, {"species": [{"element": "Dy", "occu": 1}], "abc": [0.75, 0.14865032, 0.91596418], "properties": {"magmom": 0.0}, "label": "Dy", "xyz": [-1.0518454840747256, -3.7132320075, -8.12709240006003]}, {"species": [{"element": "Dy", "occu": 1}], "abc": [0.25, 0.3513502, 0.41590536], "properties": {"magmom": -0.0}, "label": "Dy", "xyz": [-2.4864451845969286, -1.2377440025, -3.6901718823079213]}, {"species": [{"element": "Dy", "occu": 1}], "abc": [0.25, 0.85134942, 0.08408518], "properties": {"magmom": 0.0}, "label": "Dy", "xyz": [-6.025013007400991, -1.2377440025, -0.7459480584752132]}, {"species": [{"element": "Dy", "occu": 1}], "abc": [0.75, 0.010617099999999002, 0.32478386], "properties": {"magmom": 0.0}, "label": "Dy", "xyz": [-0.07508165953307573, -3.7132320075, -2.881721622283583]}, {"species": [{"element": "Dy", "occu": 1}], "abc": [0.75, 0.51062146, 0.17521416], "properties": {"magmom": 0.0}, "label": "Dy", "xyz": [-3.613654489331372, -3.7132320075, -1.554559116661839]}, {"species": [{"element": "Dy", "occu": 1}], "abc": [0.25, 0.98938154, 0.67517544], "properties": {"magmom": 0.0}, "label": "Dy", "xyz": [-7.001769062708055, -1.2377440025, -5.990519757343322]}, {"species": [{"element": "Dy", "occu": 1}], "abc": [0.25, 0.48937596, 0.824823499999999], "properties": {"magmom": 0.0}, "label": "Dy", "xyz": [-3.4631875854428413, -1.2377440025, -7.3183775311243595]}, {"species": [{"element": "Au", "occu": 1}], "abc": [0.75, 0.242412599999999, 0.59493178], "properties": {"magmom": 0.0}, "label": "Au", "xyz": [-1.7154594392550153, -3.7132320075, -5.278642047140223]}, {"species": [{"element": "Au", "occu": 1}], "abc": [0.75, 0.74241218, 0.90507755], "properties": {"magmom": 0.0}, "label": "Au", "xyz": [-5.253919314611457, -3.7132320075, -8.030415873364197]}, {"species": [{"element": "Au", "occu": 1}], "abc": [0.25, 0.75759757, 0.40505603], "properties": {"magmom": 0.0}, "label": "Au", "xyz": [-5.361472876263239, -1.2377440025, -3.593852292736877]}, {"species": [{"element": "Au", "occu": 1}], "abc": [0.25, 0.25758538000000003, 0.09493663000000001], "properties": {"magmom": 0.0}, "label": "Au", "xyz": [-1.8229237549886794, -1.2377440025, -0.8423124424422876]}]}, "task_ids": null, "uncorrected_energy_per_atom": null, "energy_per_atom": -4.795368390833332, "formation_energy_per_atom": -0.6251573719444391, "energy_above_hull": 0.0, "is_stable": true, "equilibrium_reaction_energy_per_atom": null, "decomposes_to": null, "xas": null, "grain_boundaries": null, "band_gap": 0.0, "cbm": null, "vbm": null, "efermi": 3.93261615, "is_gap_direct": null, "is_metal": null, "es_source_calc_id": null, "bandstructure": null, "dos": null, "dos_energy_up": null, "dos_energy_down": null, "is_magnetic": null, "ordering": null, "total_magnetization": 5e-07, "total_magnetization_normalized_vol": null, "total_magnetization_normalized_formula_units": null, "num_magnetic_sites": null, "num_unique_magnetic_sites": null, "types_of_magnetic_species": null, "bulk_modulus": null, "shear_modulus": null, "universal_anisotropy": null, "homogeneous_poisson": null, "e_total": null, "e_ionic": null, "e_electronic": null, "n": null, "e_ij_max": null, "weighted_surface_energy_EV_PER_ANG2": null, "weighted_surface_energy": null, "weighted_work_function": null, "surface_anisotropy": null, "shape_factor": null, "has_reconstructed": null, "possible_species": null, "has_props": null, "theoretical": null, "database_IDs": null, "fields_not_requested": ["builder_meta", "nsites", "elements", "nelements", "composition", "composition_reduced", "chemsys", "symmetry", "property_name", "deprecated", "deprecation_reasons", "last_updated", "origins", "warnings", "task_ids", "uncorrected_energy_per_atom", "equilibrium_reaction_energy_per_atom", "decomposes_to", "xas", "grain_boundaries", "cbm", "vbm", "is_gap_direct", "is_metal", "es_source_calc_id", "bandstructure", "dos", "dos_energy_up", "dos_energy_down", "is_magnetic", "ordering", "total_magnetization_normalized_vol", "total_magnetization_normalized_formula_units", "num_magnetic_sites", "num_unique_magnetic_sites", "types_of_magnetic_species", "bulk_modulus", "shear_modulus", "universal_anisotropy", "homogeneous_poisson", "e_total", "e_ionic", "e_electronic", "n", "e_ij_max", "weighted_surface_energy_EV_PER_ANG2", "weighted_surface_energy", "weighted_work_function", "surface_anisotropy", "shape_factor", "has_reconstructed", "possible_species", "has_props", "theoretical", "database_IDs"]}