{"builder_meta": null, "nsites": null, "elements": null, "nelements": null, "composition": null, "composition_reduced": null, "formula_pretty": "Dy2Co7", "formula_anonymous": "A2B7", "chemsys": null, "volume": 255.76723923020933, "density": 9.57668627655686, "density_atomic": 14.209291068344962, "symmetry": null, "property_name": null, "material_id": "mp-1188496", "deprecated": null, "deprecation_reasons": null, "last_updated": null, "origins": null, "warnings": null, "structure": {"@module": "pymatgen.core.structure", "@class": "Structure", "charge": 0, "lattice": {"matrix": [[-2.473926999999999, -4.284968, 0.0], [-4.9478539999999995, 0.0, 0.0], [-2.473926999999999, -1.428323, -12.063698]], "pbc": [true, true, true], "a": 4.947854642403412, "b": 4.9478539999999995, "c": 12.397307402370162, "alpha": 78.48914552408978, "beta": 78.48914365757305, "gamma": 60.00000429489849, "volume": 255.7672392302093}, "properties": {}, "sites": [{"species": [{"element": "Dy", "occu": 1}], "abc": [0.948216, 0.948216, 0.155351], "properties": {"magmom": -0.271}, "label": "Dy", "xyz": [-7.421778526072998, -4.284966623460999, -1.8741075479979998]}, {"species": [{"element": "Dy", "occu": 1}], "abc": [0.051784, 0.051784, 0.844649], "properties": {"magmom": -0.271}, "label": "Dy", "xyz": [-2.473929473926999, -1.428324376539, -10.189590452002001]}, {"species": [{"element": "Dy", "occu": 1}], "abc": [0.851538999999999, 0.851538999999999, 0.445383], "properties": {"magmom": -0.334}, "label": "Dy", "xyz": [-7.421780999999992, -4.284968148460996, -5.372966006334]}, {"species": [{"element": "Dy", "occu": 1}], "abc": [0.148460999999999, 0.148460999999999, 0.554617], "properties": {"magmom": -0.334}, "label": "Dy", "xyz": [-2.4739269999999918, -1.4283228515389959, -6.690731993666001]}, {"species": [{"element": "Co", "occu": 1}], "abc": [0.5, 0.5, 0.5], "properties": {"magmom": 0.422}, "label": "Co", "xyz": [-4.947853999999999, -2.8566455, -6.031849]}, {"species": [{"element": "Co", "occu": 1}], "abc": [0.721318999999999, 0.721318999999999, 0.836042], "properties": {"magmom": 1.28}, "label": "Co", "xyz": [-7.421778526072991, -4.284966850357996, -10.085758203316]}, {"species": [{"element": "Co", "occu": 1}], "abc": [0.278681, 0.278681, 0.163958], "properties": {"magmom": 1.28}, "label": "Co", "xyz": [-2.4739294739269995, -1.428324149642, -1.977939796684]}, {"species": [{"element": "Co", "occu": 1}], "abc": [0.6115900000000001, 0.6115900000000001, 0.165231], "properties": {"magmom": 1.486}, "label": "Co", "xyz": [-4.947856473926999, -2.8566468167330004, -1.9932968842379999]}, {"species": [{"element": "Co", "occu": 1}], "abc": [0.38841000000000003, 0.38841000000000003, 0.834769], "properties": {"magmom": 1.486}, "label": "Co", "xyz": [-4.9478515260729985, -2.856644183267, -10.070401115762]}, {"species": [{"element": "Co", "occu": 1}], "abc": [0.0, 0.5, 0.0], "properties": {"magmom": 0.886}, "label": "Co", "xyz": [-2.4739269999999998, 0.0, 0.0]}, {"species": [{"element": "Co", "occu": 1}], "abc": [0.5, 0.0, 0.0], "properties": {"magmom": 0.886}, "label": "Co", "xyz": [-1.2369634999999994, -2.142484, 0.0]}, {"species": [{"element": "Co", "occu": 1}], "abc": [0.5, 0.5, 0.0], "properties": {"magmom": 0.886}, "label": "Co", "xyz": [-3.710890499999999, -2.142484, 0.0]}, {"species": [{"element": "Co", "occu": 1}], "abc": [0.390967, 0.390967, 0.326926], "properties": {"magmom": 1.375}, "label": "Co", "xyz": [-3.710462510628999, -2.142237009154, -3.9439365323480002]}, {"species": [{"element": "Co", "occu": 1}], "abc": [0.891141, 0.390967, 0.326926], "properties": {"magmom": 1.375}, "label": "Co", "xyz": [-4.947856473926999, -4.2854665935859995, -3.9439365323480002]}, {"species": [{"element": "Co", "occu": 1}], "abc": [0.390967, 0.891141, 0.326926], "properties": {"magmom": 1.375}, "label": "Co", "xyz": [-6.185250437224999, -2.142237009154, -3.9439365323480002]}, {"species": [{"element": "Co", "occu": 1}], "abc": [0.609032999999999, 0.609032999999999, 0.673074], "properties": {"magmom": 1.375}, "label": "Co", "xyz": [-6.185245489370991, -3.571053990845996, -8.119761467652]}, {"species": [{"element": "Co", "occu": 1}], "abc": [0.108859, 0.609032999999999, 0.673074], "properties": {"magmom": 1.375}, "label": "Co", "xyz": [-4.947851526072994, -1.427824406414, -8.119761467652]}, {"species": [{"element": "Co", "occu": 1}], "abc": [0.609032999999999, 0.108859, 0.673074], "properties": {"magmom": 1.375}, "label": "Co", "xyz": [-3.7104575627749963, -3.571053990845996, -8.119761467652]}]}, "task_ids": null, "uncorrected_energy_per_atom": null, "energy_per_atom": -6.704790501111111, "formation_energy_per_atom": -0.13027182370370202, "energy_above_hull": 0.009120804242423002, "is_stable": false, "equilibrium_reaction_energy_per_atom": null, "decomposes_to": null, "xas": null, "grain_boundaries": null, "band_gap": 0.0, "cbm": null, "vbm": null, "efermi": 4.638433, "is_gap_direct": null, "is_metal": null, "es_source_calc_id": null, "bandstructure": null, "dos": null, "dos_energy_up": null, "dos_energy_down": null, "is_magnetic": null, "ordering": null, "total_magnetization": 12.4104206, "total_magnetization_normalized_vol": null, "total_magnetization_normalized_formula_units": null, "num_magnetic_sites": null, "num_unique_magnetic_sites": null, "types_of_magnetic_species": null, "bulk_modulus": null, "shear_modulus": null, "universal_anisotropy": null, "homogeneous_poisson": null, "e_total": null, "e_ionic": null, "e_electronic": null, "n": null, "e_ij_max": null, "weighted_surface_energy_EV_PER_ANG2": null, "weighted_surface_energy": null, "weighted_work_function": null, "surface_anisotropy": null, "shape_factor": null, "has_reconstructed": null, "possible_species": null, "has_props": null, "theoretical": null, "database_IDs": null, "fields_not_requested": ["builder_meta", "nsites", "elements", "nelements", "composition", "composition_reduced", "chemsys", "symmetry", "property_name", "deprecated", "deprecation_reasons", "last_updated", "origins", "warnings", "task_ids", "uncorrected_energy_per_atom", "equilibrium_reaction_energy_per_atom", "decomposes_to", "xas", "grain_boundaries", "cbm", "vbm", "is_gap_direct", "is_metal", "es_source_calc_id", "bandstructure", "dos", "dos_energy_up", "dos_energy_down", "is_magnetic", "ordering", "total_magnetization_normalized_vol", "total_magnetization_normalized_formula_units", "num_magnetic_sites", "num_unique_magnetic_sites", "types_of_magnetic_species", "bulk_modulus", "shear_modulus", "universal_anisotropy", "homogeneous_poisson", "e_total", "e_ionic", "e_electronic", "n", "e_ij_max", "weighted_surface_energy_EV_PER_ANG2", "weighted_surface_energy", "weighted_work_function", "surface_anisotropy", "shape_factor", "has_reconstructed", "possible_species", "has_props", "theoretical", "database_IDs"]}