{"builder_meta": null, "nsites": null, "elements": null, "nelements": null, "composition": null, "composition_reduced": null, "formula_pretty": "Dy2C3", "formula_anonymous": "A2B3", "chemsys": null, "volume": 276.69360930078733, "density": 8.666740194854684, "density_atomic": 13.834680465039366, "symmetry": null, "property_name": null, "material_id": "mp-2238", "deprecated": null, "deprecation_reasons": null, "last_updated": null, "origins": null, "warnings": null, "structure": {"@module": "pymatgen.core.structure", "@class": "Structure", "charge": 0, "lattice": {"matrix": [[6.70343506, 0.0, -2.37002136], [-3.35171702, 5.80534564, -2.37002136], [1e-08, 1e-08, 7.11006612]], "pbc": [true, true, true], "a": 7.110066304226245, "b": 7.1100665418040165, "c": 7.11006612, "alpha": 109.47121359112926, "beta": 109.47121421691786, "gamma": 109.47122218481586, "volume": 276.69360930078733}, "properties": {}, "sites": [{"species": [{"element": "Dy", "occu": 1}], "abc": [0.60036342, 0.60036342, 0.60036342], "properties": {"magmom": 0.0}, "label": "Dy", "xyz": [2.0122489113737307, 3.4853171687161226, 1.4228753539040278]}, {"species": [{"element": "Dy", "occu": 1}], "abc": [0.39963658, 0.5, 0.0], "properties": {"magmom": 0.0}, "label": "Dy", "xyz": [1.0030793516304948, 2.90267282, -2.132157910837349]}, {"species": [{"element": "Dy", "occu": 1}], "abc": [0.5, 0.0, 0.39963658], "properties": {"magmom": 0.0}, "label": "Dy", "xyz": [3.351717533996366, 3.996365800000001e-09, 1.6564318277706698]}, {"species": [{"element": "Dy", "occu": 1}], "abc": [0.0, 0.39963658, 0.5], "properties": {"magmom": 0.0}, "label": "Dy", "xyz": [-1.3394687220005919, 2.320028482287511, 2.607885829162651]}, {"species": [{"element": "Dy", "occu": 1}], "abc": [0.5, 0.0, 0.89963658], "properties": {"magmom": 0.0}, "label": "Dy", "xyz": [3.351717538996366, 8.9963658e-09, 5.211464887770669]}, {"species": [{"element": "Dy", "occu": 1}], "abc": [0.0, 0.89963658, 0.5], "properties": {"magmom": 0.0}, "label": "Dy", "xyz": [-3.0153272320005917, 5.222701302287511, 1.422875149162651]}, {"species": [{"element": "Dy", "occu": 1}], "abc": [0.89963658, 0.5, 0.0], "properties": {"magmom": 0.0}, "label": "Dy", "xyz": [4.354796881630495, 2.90267282, -3.317168590837349]}, {"species": [{"element": "Dy", "occu": 1}], "abc": [0.10036342000000001, 0.10036342000000001, 0.10036342000000001], "properties": {"magmom": 0.0}, "label": "Dy", "xyz": [0.336389886373731, 0.582644343716123, 0.23786365390402797]}, {"species": [{"element": "C", "occu": 1}], "abc": [0.75, 0.79377237, 0.04377237], "properties": {"magmom": -0.0}, "label": "C", "xyz": [2.3670759329029862, 4.60812296776969, -3.3475490469487186]}, {"species": [{"element": "C", "occu": 1}], "abc": [0.75, 0.95622763, 0.20622763], "properties": {"magmom": -0.0}, "label": "C", "xyz": [1.822571874597014, 5.55123190473031, -2.5775038430512813]}, {"species": [{"element": "C", "occu": 1}], "abc": [0.29377237, 0.25, 0.54377237], "properties": {"magmom": -0.0}, "label": "C", "xyz": [1.1313547551550158, 1.4513364154377235, 2.577505373051281]}, {"species": [{"element": "C", "occu": 1}], "abc": [0.54377237, 0.29377237, 0.25], "properties": {"magmom": -0.0}, "label": "C", "xyz": [2.6605009196825553, 1.7054501498319667, -0.20748239375564648]}, {"species": [{"element": "C", "occu": 1}], "abc": [0.20622763, 0.75, 0.95622763], "properties": {"magmom": -0.0}, "label": "C", "xyz": [-1.131354230155016, 4.354009239562276, 4.532561766948719]}, {"species": [{"element": "C", "occu": 1}], "abc": [0.95622763, 0.20622763, 0.75], "properties": {"magmom": -0.0}, "label": "C", "xyz": [5.718793170317445, 1.197222680168033, 2.5775057937556465]}, {"species": [{"element": "C", "occu": 1}], "abc": [0.25, 0.70622763, 0.45622763], "properties": {"magmom": -0.0}, "label": "C", "xyz": [-0.6912163979029864, 4.0998954972303085, 0.9775287069487191]}, {"species": [{"element": "C", "occu": 1}], "abc": [0.70622763, 0.45622763, 0.25], "properties": {"magmom": -0.0}, "label": "C", "xyz": [3.2050051453174455, 2.648559085168033, -0.9775272662443537]}, {"species": [{"element": "C", "occu": 1}], "abc": [0.25, 0.54377237, 0.29377237], "properties": {"magmom": -0.0}, "label": "C", "xyz": [-0.1467123395970137, 3.1567865602696905, 0.20748350305128138]}, {"species": [{"element": "C", "occu": 1}], "abc": [0.45622763, 0.25, 0.70622763], "properties": {"magmom": -0.0}, "label": "C", "xyz": [2.220363042344984, 1.4513364170622762, 3.347550576948719]}, {"species": [{"element": "C", "occu": 1}], "abc": [0.04377237, 0.75, 0.79377237], "properties": {"magmom": -0.0}, "label": "C", "xyz": [-2.220362517344984, 4.354009237937723, 3.7625165630512813]}, {"species": [{"element": "C", "occu": 1}], "abc": [0.79377237, 0.04377237, 0.75], "properties": {"magmom": -0.0}, "label": "C", "xyz": [5.174288944682555, 0.2541137448319668, 3.347550666244354]}]}, "task_ids": null, "uncorrected_energy_per_atom": null, "energy_per_atom": -7.6414534915, "formation_energy_per_atom": -0.25690398466666503, "energy_above_hull": 0.033915537866667005, "is_stable": false, "equilibrium_reaction_energy_per_atom": null, "decomposes_to": null, "xas": null, "grain_boundaries": null, "band_gap": 0.0, "cbm": null, "vbm": null, "efermi": 5.30749788, "is_gap_direct": null, "is_metal": null, "es_source_calc_id": null, "bandstructure": null, "dos": null, "dos_energy_up": null, "dos_energy_down": null, "is_magnetic": null, "ordering": null, "total_magnetization": 1e-07, "total_magnetization_normalized_vol": null, "total_magnetization_normalized_formula_units": null, "num_magnetic_sites": null, "num_unique_magnetic_sites": null, "types_of_magnetic_species": null, "bulk_modulus": null, "shear_modulus": null, "universal_anisotropy": null, "homogeneous_poisson": null, "e_total": null, "e_ionic": null, "e_electronic": null, "n": null, "e_ij_max": null, "weighted_surface_energy_EV_PER_ANG2": null, "weighted_surface_energy": null, "weighted_work_function": null, "surface_anisotropy": null, "shape_factor": null, "has_reconstructed": null, "possible_species": null, "has_props": null, "theoretical": null, "database_IDs": null, "fields_not_requested": ["builder_meta", "nsites", "elements", "nelements", "composition", "composition_reduced", "chemsys", "symmetry", "property_name", "deprecated", "deprecation_reasons", "last_updated", "origins", "warnings", "task_ids", "uncorrected_energy_per_atom", "equilibrium_reaction_energy_per_atom", "decomposes_to", "xas", "grain_boundaries", "cbm", "vbm", "is_gap_direct", "is_metal", "es_source_calc_id", "bandstructure", "dos", "dos_energy_up", "dos_energy_down", "is_magnetic", "ordering", "total_magnetization_normalized_vol", "total_magnetization_normalized_formula_units", "num_magnetic_sites", "num_unique_magnetic_sites", "types_of_magnetic_species", "bulk_modulus", "shear_modulus", "universal_anisotropy", "homogeneous_poisson", "e_total", "e_ionic", "e_electronic", "n", "e_ij_max", "weighted_surface_energy_EV_PER_ANG2", "weighted_surface_energy", "weighted_work_function", "surface_anisotropy", "shape_factor", "has_reconstructed", "possible_species", "has_props", "theoretical", "database_IDs"]}