{"builder_meta": null, "nsites": null, "elements": null, "nelements": null, "composition": null, "composition_reduced": null, "formula_pretty": "Dy2In", "formula_anonymous": "AB2", "chemsys": null, "volume": 167.3517228554058, "density": 8.728144039782586, "density_atomic": 27.891953809234302, "symmetry": null, "property_name": null, "material_id": "mp-21351", "deprecated": null, "deprecation_reasons": null, "last_updated": null, "origins": null, "warnings": null, "structure": {"@module": "pymatgen.core.structure", "@class": "Structure", "charge": 0, "lattice": {"matrix": [[5.36689049, -1e-08, 0.0], [-2.683445749999999, 4.64786387, -0.0], [0.0, -0.0, 6.70894227]], "pbc": [true, true, true], "a": 5.36689049, "b": 5.366891059751859, "c": 6.70894227, "alpha": 90.0, "beta": 90.0, "gamma": 120.00000282030119, "volume": 167.3517228554058}, "properties": {}, "sites": [{"species": [{"element": "Dy", "occu": 1}], "abc": [0.333333, 0.666667, 0.75000225], "properties": {"magmom": 0.28800000000000003}, "label": "Dy", "xyz": [-3.0201120790884772e-06, 3.0985774592879602, 5.031721797620107]}, {"species": [{"element": "Dy", "occu": 1}], "abc": [0.666667, 0.333333, 0.24999775000000002], "properties": {"magmom": 0.28800000000000003}, "label": "Dy", "xyz": [2.683447760112081, 1.54928640071204, 1.6772204723798925]}, {"species": [{"element": "Dy", "occu": 1}], "abc": [-0.0, -0.0, 0.5], "properties": {"magmom": 0.384}, "label": "Dy", "xyz": [0.0, 0.0, 3.354471135]}, {"species": [{"element": "Dy", "occu": 1}], "abc": [-0.0, -0.0, 0.0], "properties": {"magmom": 0.384}, "label": "Dy", "xyz": [0.0, 0.0, 0.0]}, {"species": [{"element": "In", "occu": 1}], "abc": [0.666667, 0.333333, 0.75000036], "properties": {"magmom": -0.045}, "label": "In", "xyz": [2.683447760112081, 1.54928640071204, 5.031709117719217]}, {"species": [{"element": "In", "occu": 1}], "abc": [0.333333, 0.666667, 0.24999964], "properties": {"magmom": -0.045}, "label": "In", "xyz": [-3.0201120790884772e-06, 3.0985774592879602, 1.6772331522807826]}]}, "task_ids": null, "uncorrected_energy_per_atom": null, "energy_per_atom": -29.329282798333335, "formation_energy_per_atom": -0.481883855000001, "energy_above_hull": 0.0, "is_stable": true, "equilibrium_reaction_energy_per_atom": null, "decomposes_to": null, "xas": null, "grain_boundaries": null, "band_gap": 0.0, "cbm": null, "vbm": null, "efermi": 4.76238288, "is_gap_direct": null, "is_metal": null, "es_source_calc_id": null, "bandstructure": null, "dos": null, "dos_energy_up": null, "dos_energy_down": null, "is_magnetic": null, "ordering": null, "total_magnetization": 1.6561061000000001, "total_magnetization_normalized_vol": null, "total_magnetization_normalized_formula_units": null, "num_magnetic_sites": null, "num_unique_magnetic_sites": null, "types_of_magnetic_species": null, "bulk_modulus": null, "shear_modulus": null, "universal_anisotropy": null, "homogeneous_poisson": null, "e_total": null, "e_ionic": null, "e_electronic": null, "n": null, "e_ij_max": null, "weighted_surface_energy_EV_PER_ANG2": null, "weighted_surface_energy": null, "weighted_work_function": null, "surface_anisotropy": null, "shape_factor": null, "has_reconstructed": null, "possible_species": null, "has_props": null, "theoretical": null, "database_IDs": null, "fields_not_requested": ["builder_meta", "nsites", "elements", "nelements", "composition", "composition_reduced", "chemsys", "symmetry", "property_name", "deprecated", "deprecation_reasons", "last_updated", "origins", "warnings", "task_ids", "uncorrected_energy_per_atom", "equilibrium_reaction_energy_per_atom", "decomposes_to", "xas", "grain_boundaries", "cbm", "vbm", "is_gap_direct", "is_metal", "es_source_calc_id", "bandstructure", "dos", "dos_energy_up", "dos_energy_down", "is_magnetic", "ordering", "total_magnetization_normalized_vol", "total_magnetization_normalized_formula_units", "num_magnetic_sites", "num_unique_magnetic_sites", "types_of_magnetic_species", "bulk_modulus", "shear_modulus", "universal_anisotropy", "homogeneous_poisson", "e_total", "e_ionic", "e_electronic", "n", "e_ij_max", "weighted_surface_energy_EV_PER_ANG2", "weighted_surface_energy", "weighted_work_function", "surface_anisotropy", "shape_factor", "has_reconstructed", "possible_species", "has_props", "theoretical", "database_IDs"]}