{
  "builder_meta": null,
  "nsites": null,
  "elements": null,
  "nelements": null,
  "composition": null,
  "composition_reduced": null,
  "formula_pretty": "Dy2Mg",
  "formula_anonymous": "AB2",
  "chemsys": null,
  "volume": 171.69569699832635,
  "density": 6.756542054334267,
  "density_atomic": 28.615949499721058,
  "symmetry": null,
  "property_name": null,
  "material_id": "mp-864888",
  "deprecated": null,
  "deprecation_reasons": null,
  "last_updated": null,
  "origins": null,
  "warnings": null,
  "structure": {
    "@module": "pymatgen.core.structure",
    "@class": "Structure",
    "charge": 0,
    "lattice": {
      "matrix": [
        [3.68889428, 0.0, 0.0],
        [1.84444714, 8.56546363, 0.0],
        [0.0, 0.0, 5.43390857]
      ],
      "pbc": [true, true, true],
      "a": 3.68889428,
      "b": 8.76180075378954,
      "c": 5.43390857,
      "alpha": 90.0,
      "beta": 90.0,
      "gamma": 77.84775568738583,
      "volume": 171.69569699832635
    },
    "properties": {},
    "sites": [
      {
        "species": [{ "element": "Dy", "occu": 1 }],
        "abc": [0.9801238, 0.03975439, -0.0],
        "properties": { "magmom": 0.0 },
        "label": "Dy",
        "xyz": [3.6888979504498085, 0.3405147816778357, 0.0]
      },
      {
        "species": [{ "element": "Dy", "occu": 1 }],
        "abc": [0.66160661, 0.67678877, -0.0],
        "properties": { "magmom": 0.0 },
        "label": "Dy",
        "xyz": [3.6888979504498085, 5.797009594627435, 0.0]
      },
      {
        "species": [{ "element": "Dy", "occu": 1 }],
        "abc": [0.797656199999999, 0.40469061, 0.499998999999999],
        "properties": { "magmom": 0.0 },
        "label": "Dy",
        "xyz": [3.6888998317858874, 3.4663627013575145, 2.716948851091425]
      },
      {
        "species": [{ "element": "Dy", "occu": 1 }],
        "abc": [0.11617239, 0.76765423, 0.499998999999999],
        "properties": { "magmom": 0.0 },
        "label": "Dy",
        "xyz": [1.8444453139973314, 6.575314387480655, 2.716948851091425]
      },
      {
        "species": [{ "element": "Mg", "occu": 1 }],
        "abc": [0.32241031000000003, 0.35517938, 0.0],
        "properties": { "magmom": 0.0 },
        "label": "Mg",
        "xyz": [1.8444471400000002, 3.0422760615159494, 0.0]
      },
      {
        "species": [{ "element": "Mg", "occu": 1 }],
        "abc": [0.45536869, 0.08926362, 0.499998999999999],
        "properties": { "magmom": 0.0 },
        "label": "Mg",
        "xyz": [1.84444898444714, 0.7645842905921406, 2.716948851091425]
      }
    ]
  },
  "task_ids": null,
  "uncorrected_energy_per_atom": null,
  "energy_per_atom": -3.651398774999999,
  "formation_energy_per_atom": -0.028991751111107,
  "energy_above_hull": 0.01025930777778,
  "is_stable": false,
  "equilibrium_reaction_energy_per_atom": null,
  "decomposes_to": null,
  "xas": null,
  "grain_boundaries": null,
  "band_gap": 0.0,
  "cbm": null,
  "vbm": null,
  "efermi": 3.12180665,
  "is_gap_direct": null,
  "is_metal": null,
  "es_source_calc_id": null,
  "bandstructure": null,
  "dos": null,
  "dos_energy_up": null,
  "dos_energy_down": null,
  "is_magnetic": null,
  "ordering": null,
  "total_magnetization": 0.0,
  "total_magnetization_normalized_vol": null,
  "total_magnetization_normalized_formula_units": null,
  "num_magnetic_sites": null,
  "num_unique_magnetic_sites": null,
  "types_of_magnetic_species": null,
  "bulk_modulus": null,
  "shear_modulus": null,
  "universal_anisotropy": null,
  "homogeneous_poisson": null,
  "e_total": null,
  "e_ionic": null,
  "e_electronic": null,
  "n": null,
  "e_ij_max": null,
  "weighted_surface_energy_EV_PER_ANG2": null,
  "weighted_surface_energy": null,
  "weighted_work_function": null,
  "surface_anisotropy": null,
  "shape_factor": null,
  "has_reconstructed": null,
  "possible_species": null,
  "has_props": null,
  "theoretical": null,
  "database_IDs": null,
  "fields_not_requested": [
    "builder_meta",
    "nsites",
    "elements",
    "nelements",
    "composition",
    "composition_reduced",
    "chemsys",
    "symmetry",
    "property_name",
    "deprecated",
    "deprecation_reasons",
    "last_updated",
    "origins",
    "warnings",
    "task_ids",
    "uncorrected_energy_per_atom",
    "equilibrium_reaction_energy_per_atom",
    "decomposes_to",
    "xas",
    "grain_boundaries",
    "cbm",
    "vbm",
    "is_gap_direct",
    "is_metal",
    "es_source_calc_id",
    "bandstructure",
    "dos",
    "dos_energy_up",
    "dos_energy_down",
    "is_magnetic",
    "ordering",
    "total_magnetization_normalized_vol",
    "total_magnetization_normalized_formula_units",
    "num_magnetic_sites",
    "num_unique_magnetic_sites",
    "types_of_magnetic_species",
    "bulk_modulus",
    "shear_modulus",
    "universal_anisotropy",
    "homogeneous_poisson",
    "e_total",
    "e_ionic",
    "e_electronic",
    "n",
    "e_ij_max",
    "weighted_surface_energy_EV_PER_ANG2",
    "weighted_surface_energy",
    "weighted_work_function",
    "surface_anisotropy",
    "shape_factor",
    "has_reconstructed",
    "possible_species",
    "has_props",
    "theoretical",
    "database_IDs"
  ]
}
