{
  "builder_meta": null,
  "nsites": null,
  "elements": null,
  "nelements": null,
  "composition": null,
  "composition_reduced": null,
  "formula_pretty": "Dy2N3",
  "formula_anonymous": "A2B3",
  "chemsys": null,
  "volume": 659.5620078504558,
  "density": 7.392193085998623,
  "density_atomic": 16.489050196261395,
  "symmetry": null,
  "property_name": null,
  "material_id": "mp-1205065",
  "deprecated": null,
  "deprecation_reasons": null,
  "last_updated": null,
  "origins": null,
  "warnings": null,
  "structure": {
    "@module": "pymatgen.core.structure",
    "@class": "Structure",
    "charge": 0,
    "lattice": {
      "matrix": [
        [-5.483593, 5.483593, 5.483593],
        [5.483593, -5.483593, 5.483593],
        [5.483593, 5.483593, -5.483593]
      ],
      "pbc": [true, true, true],
      "a": 9.497861684029042,
      "b": 9.497861684029042,
      "c": 9.497861684029042,
      "alpha": 109.47122063449069,
      "beta": 109.47122063449069,
      "gamma": 109.47122063449069,
      "volume": 659.5620078504558
    },
    "properties": {},
    "sites": [
      {
        "species": [{ "element": "Dy", "occu": 1 }],
        "abc": [0.5, 0.0, 0.5],
        "properties": { "magmom": 0.11900000000000001 },
        "label": "Dy",
        "xyz": [0.0, 5.483593, 0.0]
      },
      {
        "species": [{ "element": "Dy", "occu": 1 }],
        "abc": [0.5, 0.5, 0.0],
        "properties": { "magmom": 0.11900000000000001 },
        "label": "Dy",
        "xyz": [0.0, 0.0, 5.483593]
      },
      {
        "species": [{ "element": "Dy", "occu": 1 }],
        "abc": [0.0, 0.5, 0.5],
        "properties": { "magmom": 0.11900000000000001 },
        "label": "Dy",
        "xyz": [5.483593, 0.0, 0.0]
      },
      {
        "species": [{ "element": "Dy", "occu": 1 }],
        "abc": [0.0, 0.0, 0.0],
        "properties": { "magmom": 0.11900000000000001 },
        "label": "Dy",
        "xyz": [0.0, 0.0, 0.0]
      },
      {
        "species": [{ "element": "Dy", "occu": 1 }],
        "abc": [0.780283, 0.25, 0.030282999999999],
        "properties": { "magmom": 0.129 },
        "label": "Dy",
        "xyz": [-2.7417965000000057, 3.073915793637995, 5.483593000000005]
      },
      {
        "species": [{ "element": "Dy", "occu": 1 }],
        "abc": [0.719716999999999, 0.75, 0.469717],
        "properties": { "magmom": 0.129 },
        "label": "Dy",
        "xyz": [2.7417965000000053, 2.409677206361995, 5.483592999999994]
      },
      {
        "species": [{ "element": "Dy", "occu": 1 }],
        "abc": [0.25, 0.030282999999999, 0.780283],
        "properties": { "magmom": 0.129 },
        "label": "Dy",
        "xyz": [3.073915793637995, 5.483593000000005, -2.7417965000000057]
      },
      {
        "species": [{ "element": "Dy", "occu": 1 }],
        "abc": [0.75, 0.469717, 0.719716999999999],
        "properties": { "magmom": 0.129 },
        "label": "Dy",
        "xyz": [2.409677206361995, 5.4835929999999955, 2.741796500000005]
      },
      {
        "species": [{ "element": "Dy", "occu": 1 }],
        "abc": [0.030282999999999, 0.780283, 0.25],
        "properties": { "magmom": 0.129 },
        "label": "Dy",
        "xyz": [5.483593000000005, -2.7417965000000057, 3.073915793637995]
      },
      {
        "species": [{ "element": "Dy", "occu": 1 }],
        "abc": [0.469717, 0.719716999999999, 0.75],
        "properties": { "magmom": 0.129 },
        "label": "Dy",
        "xyz": [5.4835929999999955, 2.7417965000000053, 2.4096772063619953]
      },
      {
        "species": [{ "element": "Dy", "occu": 1 }],
        "abc": [0.219717, 0.75, 0.969716999999999],
        "properties": { "magmom": 0.129 },
        "label": "Dy",
        "xyz": [8.225389499999995, 2.4096772063619945, 5.329070518200751e-15]
      },
      {
        "species": [{ "element": "Dy", "occu": 1 }],
        "abc": [0.280283, 0.25, 0.530283],
        "properties": { "magmom": 0.129 },
        "label": "Dy",
        "xyz": [2.7417964999999995, 3.073915793638, 4.440892098500626e-16]
      },
      {
        "species": [{ "element": "Dy", "occu": 1 }],
        "abc": [0.75, 0.969716999999999, 0.219717],
        "properties": { "magmom": 0.129 },
        "label": "Dy",
        "xyz": [2.4096772063619945, 5.329070518200751e-15, 8.225389499999995]
      },
      {
        "species": [{ "element": "Dy", "occu": 1 }],
        "abc": [0.25, 0.530283, 0.280283],
        "properties": { "magmom": 0.129 },
        "label": "Dy",
        "xyz": [3.073915793638, 2.220446049250313e-16, 2.7417965]
      },
      {
        "species": [{ "element": "Dy", "occu": 1 }],
        "abc": [0.969716999999999, 0.219717, 0.75],
        "properties": { "magmom": 0.129 },
        "label": "Dy",
        "xyz": [5.329070518200751e-15, 8.225389499999995, 2.4096772063619945]
      },
      {
        "species": [{ "element": "Dy", "occu": 1 }],
        "abc": [0.530283, 0.280283, 0.25],
        "properties": { "magmom": 0.129 },
        "label": "Dy",
        "xyz": [2.220446049250313e-16, 2.7417964999999995, 3.073915793638]
      },
      {
        "species": [{ "element": "N", "occu": 1 }],
        "abc": [0.490033, 0.230149, 0.462665],
        "properties": { "magmom": 0.6880000000000001 },
        "label": "N",
        "xyz": [1.1119684721329999, 3.962164638557, 1.412118418581]
      },
      {
        "species": [{ "element": "N", "occu": 1 }],
        "abc": [0.232515, 0.269851, 0.759884],
        "properties": { "magmom": 0.6880000000000001 },
        "label": "N",
        "xyz": [4.37163001146, 3.9621591549639996, -1.4121239021739997]
      },
      {
        "species": [{ "element": "N", "occu": 1 }],
        "abc": [0.009967, 0.472630999999999, 0.740116],
        "properties": { "magmom": 0.6880000000000001 },
        "label": "N",
        "xyz": [6.595555988539994, 1.5214338450360052, -1.4121239021740055]
      },
      {
        "species": [{ "element": "N", "occu": 1 }],
        "abc": [0.267485, 0.027368999999999002, 0.037335],
        "properties": { "magmom": 0.6880000000000001 },
        "label": "N",
        "xyz": [-1.1119684721330054, 1.5214283614430053, 1.4121293857669943]
      },
      {
        "species": [{ "element": "N", "occu": 1 }],
        "abc": [0.230149, 0.462665, 0.490033],
        "properties": { "magmom": 0.6880000000000001 },
        "label": "N",
        "xyz": [3.962164638557, 1.412118418581, 1.1119684721329999]
      },
      {
        "species": [{ "element": "N", "occu": 1 }],
        "abc": [0.269851, 0.759884, 0.232515],
        "properties": { "magmom": 0.6890000000000001 },
        "label": "N",
        "xyz": [3.9621591549639996, -1.4121239021739997, 4.37163001146]
      },
      {
        "species": [{ "element": "N", "occu": 1 }],
        "abc": [0.472630999999999, 0.740116, 0.009967],
        "properties": { "magmom": 0.6890000000000001 },
        "label": "N",
        "xyz": [1.5214338450360054, -1.4121239021740053, 6.595555988539995]
      },
      {
        "species": [{ "element": "N", "occu": 1 }],
        "abc": [0.027368999999999002, 0.037335, 0.267485],
        "properties": { "magmom": 0.6880000000000001 },
        "label": "N",
        "xyz": [1.5214283614430053, 1.4121293857669943, -1.1119684721330052]
      },
      {
        "species": [{ "element": "N", "occu": 1 }],
        "abc": [0.462665, 0.490033, 0.230149],
        "properties": { "magmom": 0.6880000000000001 },
        "label": "N",
        "xyz": [1.412118418581, 1.1119684721329999, 3.962164638557]
      },
      {
        "species": [{ "element": "N", "occu": 1 }],
        "abc": [0.759884, 0.232515, 0.269851],
        "properties": { "magmom": 0.6890000000000001 },
        "label": "N",
        "xyz": [-1.4121239021739997, 4.37163001146, 3.9621591549639996]
      },
      {
        "species": [{ "element": "N", "occu": 1 }],
        "abc": [0.740116, 0.009967, 0.472630999999999],
        "properties": { "magmom": 0.6890000000000001 },
        "label": "N",
        "xyz": [-1.4121239021740055, 6.595555988539994, 1.5214338450360052]
      },
      {
        "species": [{ "element": "N", "occu": 1 }],
        "abc": [0.037335, 0.267485, 0.027368999999999002],
        "properties": { "magmom": 0.6880000000000001 },
        "label": "N",
        "xyz": [1.4121293857669943, -1.1119684721330054, 1.5214283614430053]
      },
      {
        "species": [{ "element": "N", "occu": 1 }],
        "abc": [0.509967, 0.769851, 0.537335],
        "properties": { "magmom": 0.6880000000000001 },
        "label": "N",
        "xyz": [4.371624527867, 1.5214283614430002, 4.071474581419]
      },
      {
        "species": [{ "element": "N", "occu": 1 }],
        "abc": [0.767485, 0.730148999999999, 0.240116],
        "properties": { "magmom": 0.6880000000000001 },
        "label": "N",
        "xyz": [1.1119629885399946, 1.5214338450360054, 6.895716902173994]
      },
      {
        "species": [{ "element": "N", "occu": 1 }],
        "abc": [0.990032999999999, 0.527369, 0.259884],
        "properties": { "magmom": 0.6880000000000001 },
        "label": "N",
        "xyz": [-1.111962988539995, 3.962159154963995, 6.8957169021739935]
      },
      {
        "species": [{ "element": "N", "occu": 1 }],
        "abc": [0.732514999999999, 0.972630999999999, 0.962665],
        "properties": { "magmom": 0.6880000000000001 },
        "label": "N",
        "xyz": [6.595561472132999, 3.9621646385570006, 4.0714636142329885]
      },
      {
        "species": [{ "element": "N", "occu": 1 }],
        "abc": [0.769851, 0.537335, 0.509967],
        "properties": { "magmom": 0.6880000000000001 },
        "label": "N",
        "xyz": [1.5214283614430002, 4.071474581418999, 4.371624527866999]
      },
      {
        "species": [{ "element": "N", "occu": 1 }],
        "abc": [0.730148999999999, 0.240116, 0.767485],
        "properties": { "magmom": 0.6890000000000001 },
        "label": "N",
        "xyz": [1.5214338450360056, 6.895716902173994, 1.1119629885399949]
      },
      {
        "species": [{ "element": "N", "occu": 1 }],
        "abc": [0.527369, 0.259884, 0.990032999999999],
        "properties": { "magmom": 0.6880000000000001 },
        "label": "N",
        "xyz": [3.962159154963995, 6.895716902173994, -1.1119629885399949]
      },
      {
        "species": [{ "element": "N", "occu": 1 }],
        "abc": [0.972630999999999, 0.962665, 0.732514999999999],
        "properties": { "magmom": 0.6880000000000001 },
        "label": "N",
        "xyz": [3.9621646385570006, 4.071463614232989, 6.5955614721329985]
      },
      {
        "species": [{ "element": "N", "occu": 1 }],
        "abc": [0.537335, 0.509967, 0.769851],
        "properties": { "magmom": 0.6880000000000001 },
        "label": "N",
        "xyz": [4.071474581418999, 4.371624527867, 1.5214283614430002]
      },
      {
        "species": [{ "element": "N", "occu": 1 }],
        "abc": [0.240116, 0.767485, 0.730148999999999],
        "properties": { "magmom": 0.6890000000000001 },
        "label": "N",
        "xyz": [6.895716902173994, 1.1119629885399949, 1.5214338450360056]
      },
      {
        "species": [{ "element": "N", "occu": 1 }],
        "abc": [0.259884, 0.990032999999999, 0.527369],
        "properties": { "magmom": 0.6890000000000001 },
        "label": "N",
        "xyz": [6.895716902173994, -1.1119629885399949, 3.962159154963995]
      },
      {
        "species": [{ "element": "N", "occu": 1 }],
        "abc": [0.962665, 0.732514999999999, 0.972630999999999],
        "properties": { "magmom": 0.6880000000000001 },
        "label": "N",
        "xyz": [4.071463614232989, 6.595561472132999, 3.9621646385570006]
      }
    ]
  },
  "task_ids": null,
  "uncorrected_energy_per_atom": null,
  "energy_per_atom": -19.0880894395,
  "formation_energy_per_atom": -0.818117746749999,
  "energy_above_hull": 0.798446554749999,
  "is_stable": false,
  "equilibrium_reaction_energy_per_atom": null,
  "decomposes_to": null,
  "xas": null,
  "grain_boundaries": null,
  "band_gap": 0.0,
  "cbm": null,
  "vbm": null,
  "efermi": 1.68069541,
  "is_gap_direct": null,
  "is_metal": null,
  "es_source_calc_id": null,
  "bandstructure": null,
  "dos": null,
  "dos_energy_up": null,
  "dos_energy_down": null,
  "is_magnetic": null,
  "ordering": null,
  "total_magnetization": 24.0000546,
  "total_magnetization_normalized_vol": null,
  "total_magnetization_normalized_formula_units": null,
  "num_magnetic_sites": null,
  "num_unique_magnetic_sites": null,
  "types_of_magnetic_species": null,
  "bulk_modulus": null,
  "shear_modulus": null,
  "universal_anisotropy": null,
  "homogeneous_poisson": null,
  "e_total": null,
  "e_ionic": null,
  "e_electronic": null,
  "n": null,
  "e_ij_max": null,
  "weighted_surface_energy_EV_PER_ANG2": null,
  "weighted_surface_energy": null,
  "weighted_work_function": null,
  "surface_anisotropy": null,
  "shape_factor": null,
  "has_reconstructed": null,
  "possible_species": null,
  "has_props": null,
  "theoretical": null,
  "database_IDs": null,
  "fields_not_requested": [
    "builder_meta",
    "nsites",
    "elements",
    "nelements",
    "composition",
    "composition_reduced",
    "chemsys",
    "symmetry",
    "property_name",
    "deprecated",
    "deprecation_reasons",
    "last_updated",
    "origins",
    "warnings",
    "task_ids",
    "uncorrected_energy_per_atom",
    "equilibrium_reaction_energy_per_atom",
    "decomposes_to",
    "xas",
    "grain_boundaries",
    "cbm",
    "vbm",
    "is_gap_direct",
    "is_metal",
    "es_source_calc_id",
    "bandstructure",
    "dos",
    "dos_energy_up",
    "dos_energy_down",
    "is_magnetic",
    "ordering",
    "total_magnetization_normalized_vol",
    "total_magnetization_normalized_formula_units",
    "num_magnetic_sites",
    "num_unique_magnetic_sites",
    "types_of_magnetic_species",
    "bulk_modulus",
    "shear_modulus",
    "universal_anisotropy",
    "homogeneous_poisson",
    "e_total",
    "e_ionic",
    "e_electronic",
    "n",
    "e_ij_max",
    "weighted_surface_energy_EV_PER_ANG2",
    "weighted_surface_energy",
    "weighted_work_function",
    "surface_anisotropy",
    "shape_factor",
    "has_reconstructed",
    "possible_species",
    "has_props",
    "theoretical",
    "database_IDs"
  ]
}
