{
  "builder_meta": null,
  "nsites": null,
  "elements": null,
  "nelements": null,
  "composition": null,
  "composition_reduced": null,
  "formula_pretty": "Dy2Ni7",
  "formula_anonymous": "A2B7",
  "chemsys": null,
  "volume": 241.69877087193345,
  "density": 10.111048374784714,
  "density_atomic": 13.427709492885192,
  "symmetry": null,
  "property_name": null,
  "material_id": "mp-865205",
  "deprecated": null,
  "deprecation_reasons": null,
  "last_updated": null,
  "origins": null,
  "warnings": null,
  "structure": {
    "@module": "pymatgen.core.structure",
    "@class": "Structure",
    "charge": 0,
    "lattice": {
      "matrix": [
        [2.42371234, -4.19965136, 0.0008074],
        [-4.84884959, -0.00081618, -0.00076537],
        [2.42192517, -1.39818482, -11.86755184]
      ],
      "pbc": [true, true, true],
      "a": 4.848861072923505,
      "b": 4.848849719096705,
      "c": 12.19259730307884,
      "alpha": 101.44727159932341,
      "beta": 78.55371450207868,
      "gamma": 119.98055821894908,
      "volume": 241.69877087193345
    },
    "properties": {},
    "sites": [
      {
        "species": [{ "element": "Dy", "occu": 1 }],
        "abc": [0.94831723, 0.051683230000000004, 0.15164908],
        "properties": { "magmom": -0.135 },
        "label": "Dy",
        "xyz": [2.4151266878495856, -4.19467736912256, -1.7989772038505505]
      },
      {
        "species": [{ "element": "Dy", "occu": 1 }],
        "abc": [0.85298313, 0.14701, 0.440956399999999],
        "properties": { "magmom": -0.129 },
        "label": "Dy",
        "xyz": [2.4225197637995097, -4.198890293345204, -5.232496754644303]
      },
      {
        "species": [{ "element": "Dy", "occu": 1 }],
        "abc": [0.1470204, 0.8529903600000001, 0.55905622],
        "properties": { "magmom": -0.129 },
        "label": "Dy",
        "xyz": [-2.425694468985159, -1.399794536810349, -6.635162821285318]
      },
      {
        "species": [{ "element": "Dy", "occu": 1 }],
        "abc": [0.05168658, 0.94831773, 0.8483707500000001],
        "properties": { "magmom": -0.135 },
        "label": "Dy",
        "xyz": [-2.4182861616250557, -1.4040187183376354, -10.068767937361]
      },
      {
        "species": [{ "element": "Ni", "occu": 1 }],
        "abc": [0.5000255100000001, -4.74e-6, -1.5e-7],
        "properties": { "magmom": 0.518 },
        "label": "Ni",
        "xyz": [1.2119406191600746, -2.0999325995097773, 0.0004055043574038]
      },
      {
        "species": [{ "element": "Ni", "occu": 1 }],
        "abc": [-7.32e-6, 0.49999724, 3.799999999999998e-7],
        "properties": { "magmom": 0.518 },
        "label": "Ni",
        "xyz": [
          -2.424428233417896, -0.00037787760961960007, -0.00038719846744600004
        ]
      },
      {
        "species": [{ "element": "Ni", "occu": 1 }],
        "abc": [0.50000795, 0.49998687, -2.05e-6],
        "properties": { "magmom": 0.516 },
        "label": "Ni",
        "xyz": [-1.2124906560383792, -2.1002642802329876, 4.535994941009992e-5]
      },
      {
        "species": [{ "element": "Ni", "occu": 1 }],
        "abc": [0.60988898, 0.39012673000000003, 0.1644388],
        "properties": { "magmom": 0.396 },
        "label": "Ni",
        "xyz": [-0.015211919307931865, -2.7915553319195205, -1.9512921504402803]
      },
      {
        "species": [{ "element": "Ni", "occu": 1 }],
        "abc": [0.27705293000000003, 0.72293275, 0.16501955000000001],
        "properties": { "magmom": 0.394 },
        "label": "Ni",
        "xyz": [-2.4342305614738424, -1.3948435873316112, -1.9587076827416579]
      },
      {
        "species": [{ "element": "Ni", "occu": 1 }],
        "abc": [0.39000352, 0.10848509, 0.32776671],
        "properties": { "magmom": 0.327 },
        "label": "Ni",
        "xyz": [1.2130549047369144, -2.0962457949568853, -3.889556564742532]
      },
      {
        "species": [{ "element": "Ni", "occu": 1 }],
        "abc": [0.38994632, 0.61004611, 0.32773883],
        "properties": { "magmom": 0.33 },
        "label": "Ni",
        "xyz": [-1.219145201069655, -2.0963759575796157, -3.88960962333839]
      },
      {
        "species": [{ "element": "Ni", "occu": 1 }],
        "abc": [0.89150743, 0.60999306, 0.32776959],
        "properties": { "magmom": 0.327 },
        "label": "Ni",
        "xyz": [-0.0031736196095790703, -4.202800720180939, -3.889569668189896]
      },
      {
        "species": [{ "element": "Ni", "occu": 1 }],
        "abc": [0.50000343, 0.499996799999999, 0.49995746],
        "properties": { "magmom": 0.183 },
        "label": "Ni",
        "xyz": [-0.0016852390447132937, -2.799281103410146, -5.9332500541261615]
      },
      {
        "species": [{ "element": "Ni", "occu": 1 }],
        "abc": [0.10848724, 0.3900055, 0.67223507],
        "properties": { "magmom": 0.327 },
        "label": "Ni",
        "xyz": [-3.311026249153137e-5, -1.3958357700432737, -7.977995447802988]
      },
      {
        "species": [{ "element": "Ni", "occu": 1 }],
        "abc": [0.61004528, 0.38995801, 0.67224807],
        "properties": { "magmom": 0.33 },
        "label": "Ni",
        "xyz": [1.215861057405961, -3.50222281249048, -7.977744731667991]
      },
      {
        "species": [{ "element": "Ni", "occu": 1 }],
        "abc": [0.61000321, 0.89151539, 0.67223917],
        "properties": { "magmom": 0.327 },
        "label": "Ni",
        "xyz": [-1.2162387596806705, -3.502443050415275, -7.978023021395863]
      },
      {
        "species": [{ "element": "Ni", "occu": 1 }],
        "abc": [0.7229359, 0.27709038, 0.83498138],
        "properties": { "magmom": 0.394 },
        "label": "Ni",
        "xyz": [2.4308815071063963, -4.203763181752824, -9.90881319080322]
      },
      {
        "species": [{ "element": "Ni", "occu": 1 }],
        "abc": [0.39010129, 0.60987048, 0.83557076],
        "properties": { "magmom": 0.396 },
        "label": "Ni",
        "xyz": [0.012012938481844149, -2.807069529842484, -9.91633111907593]
      }
    ]
  },
  "task_ids": null,
  "uncorrected_energy_per_atom": null,
  "energy_per_atom": -5.917220795,
  "formation_energy_per_atom": -0.395253259814812,
  "energy_above_hull": 0.0,
  "is_stable": true,
  "equilibrium_reaction_energy_per_atom": null,
  "decomposes_to": null,
  "xas": null,
  "grain_boundaries": null,
  "band_gap": 0.0,
  "cbm": null,
  "vbm": null,
  "efermi": 6.41992674,
  "is_gap_direct": null,
  "is_metal": null,
  "es_source_calc_id": null,
  "bandstructure": null,
  "dos": null,
  "dos_energy_up": null,
  "dos_energy_down": null,
  "is_magnetic": null,
  "ordering": null,
  "total_magnetization": 2.818982,
  "total_magnetization_normalized_vol": null,
  "total_magnetization_normalized_formula_units": null,
  "num_magnetic_sites": null,
  "num_unique_magnetic_sites": null,
  "types_of_magnetic_species": null,
  "bulk_modulus": null,
  "shear_modulus": null,
  "universal_anisotropy": null,
  "homogeneous_poisson": null,
  "e_total": null,
  "e_ionic": null,
  "e_electronic": null,
  "n": null,
  "e_ij_max": null,
  "weighted_surface_energy_EV_PER_ANG2": null,
  "weighted_surface_energy": null,
  "weighted_work_function": null,
  "surface_anisotropy": null,
  "shape_factor": null,
  "has_reconstructed": null,
  "possible_species": null,
  "has_props": null,
  "theoretical": null,
  "database_IDs": null,
  "fields_not_requested": [
    "builder_meta",
    "nsites",
    "elements",
    "nelements",
    "composition",
    "composition_reduced",
    "chemsys",
    "symmetry",
    "property_name",
    "deprecated",
    "deprecation_reasons",
    "last_updated",
    "origins",
    "warnings",
    "task_ids",
    "uncorrected_energy_per_atom",
    "equilibrium_reaction_energy_per_atom",
    "decomposes_to",
    "xas",
    "grain_boundaries",
    "cbm",
    "vbm",
    "is_gap_direct",
    "is_metal",
    "es_source_calc_id",
    "bandstructure",
    "dos",
    "dos_energy_up",
    "dos_energy_down",
    "is_magnetic",
    "ordering",
    "total_magnetization_normalized_vol",
    "total_magnetization_normalized_formula_units",
    "num_magnetic_sites",
    "num_unique_magnetic_sites",
    "types_of_magnetic_species",
    "bulk_modulus",
    "shear_modulus",
    "universal_anisotropy",
    "homogeneous_poisson",
    "e_total",
    "e_ionic",
    "e_electronic",
    "n",
    "e_ij_max",
    "weighted_surface_energy_EV_PER_ANG2",
    "weighted_surface_energy",
    "weighted_work_function",
    "surface_anisotropy",
    "shape_factor",
    "has_reconstructed",
    "possible_species",
    "has_props",
    "theoretical",
    "database_IDs"
  ]
}
