{"builder_meta": null, "nsites": null, "elements": null, "nelements": null, "composition": null, "composition_reduced": null, "formula_pretty": "Dy2O3", "formula_anonymous": "A2B3", "chemsys": null, "volume": 594.5583725490907, "density": 8.333958265069626, "density_atomic": 14.863959313727268, "symmetry": null, "property_name": null, "material_id": "mp-2345", "deprecated": null, "deprecation_reasons": null, "last_updated": null, "origins": null, "warnings": null, "structure": {"@module": "pymatgen.core.structure", "@class": "Structure", "charge": 0, "lattice": {"matrix": [[8.65026031, -0.0, -3.05832905], [-4.32513015, 7.49134602, -3.05832905], [0.0, 0.0, 9.17498716]], "pbc": [true, true, true], "a": 9.17498664897313, "b": 9.174987334262799, "c": 9.17498716, "alpha": 109.47122022766364, "beta": 109.47122174068959, "gamma": 109.47121798404214, "volume": 594.5583725490907}, "properties": {}, "sites": [{"species": [{"element": "Dy", "occu": 1}], "abc": [0.25, 0.71771606, 0.46771606], "properties": {"magmom": -0.0}, "label": "Dy", "xyz": [-0.9416502927452086, 5.3766593495710815, 1.3316947065762461]}, {"species": [{"element": "Dy", "occu": 1}], "abc": [0.032283940000000004, 0.75, 0.78228394], "properties": {"magmom": -0.0}, "label": "Dy", "xyz": [-2.9645831276675785, 5.6185095149999995, 4.7849634059237545]}, {"species": [{"element": "Dy", "occu": 1}], "abc": [0.78228394, 0.032283940000000004, 0.75], "properties": {"magmom": -0.0}, "label": "Dy", "xyz": [6.627327475077631, 0.24185016542891882, 4.390023759399086]}, {"species": [{"element": "Dy", "occu": 1}], "abc": [0.46771606, 0.25, 0.71771606], "properties": {"magmom": -0.0}, "label": "Dy", "xyz": [2.9645831326675784, 1.872836505, 4.3900237590762465]}, {"species": [{"element": "Dy", "occu": 1}], "abc": [0.71771606, 0.46771606, 0.25], "properties": {"magmom": -0.0}, "label": "Dy", "xyz": [4.18549791492237, 3.503822844571081, -1.331694699399086]}, {"species": [{"element": "Dy", "occu": 1}], "abc": [0.75, 0.78228394, 0.032283940000000004], "properties": {"magmom": -0.0}, "label": "Dy", "xyz": [3.1042153777452093, 5.860359680428918, -4.390023751576246]}, {"species": [{"element": "Dy", "occu": 1}], "abc": [0.75, 0.28228394, 0.53228394], "properties": {"magmom": -0.0}, "label": "Dy", "xyz": [5.266780452745209, 2.114686670428919, 1.726634353423754]}, {"species": [{"element": "Dy", "occu": 1}], "abc": [0.96771606, 0.25, 0.21771606000000002], "properties": {"magmom": -0.0}, "label": "Dy", "xyz": [7.289713287667579, 1.872836505, -1.726634345923753]}, {"species": [{"element": "Dy", "occu": 1}], "abc": [0.21771606000000002, 0.96771606, 0.25], "properties": {"magmom": -0.0}, "label": "Dy", "xyz": [-2.30219731507763, 7.249495854571081, -1.331694699399086]}, {"species": [{"element": "Dy", "occu": 1}], "abc": [0.53228394, 0.75, 0.28228394], "properties": {"magmom": -0.0}, "label": "Dy", "xyz": [1.360547027332422, 5.6185095149999995, -1.3316946990762464]}, {"species": [{"element": "Dy", "occu": 1}], "abc": [0.28228394, 0.53228394, 0.75], "properties": {"magmom": -0.0}, "label": "Dy", "xyz": [0.13963224507763083, 3.987523175428919, 4.390023759399086]}, {"species": [{"element": "Dy", "occu": 1}], "abc": [0.25, 0.21771606000000002, 0.96771606], "properties": {"magmom": -0.0}, "label": "Dy", "xyz": [1.220914782254791, 1.6309863395710813, 7.448352811576247]}, {"species": [{"element": "Dy", "occu": 1}], "abc": [-0.0, 0.5, 0.0], "properties": {"magmom": -0.0}, "label": "Dy", "xyz": [-2.162565075, 3.74567301, -1.529164525]}, {"species": [{"element": "Dy", "occu": 1}], "abc": [0.5, -0.0, 0.0], "properties": {"magmom": -0.0}, "label": "Dy", "xyz": [4.325130155, 0.0, -1.529164525]}, {"species": [{"element": "Dy", "occu": 1}], "abc": [-0.0, -0.0, 0.5], "properties": {"magmom": -0.0}, "label": "Dy", "xyz": [0.0, 0.0, 4.58749358]}, {"species": [{"element": "Dy", "occu": 1}], "abc": [0.5, 0.5, 0.5], "properties": {"magmom": -0.0}, "label": "Dy", "xyz": [2.1625650800000003, 3.74567301, 1.52916453]}, {"species": [{"element": "O", "occu": 1}], "abc": [0.03093747, 0.48823913, 0.76033541], "properties": {"magmom": 0.0}, "label": "O", "xyz": [-1.8440806127399538, 3.6575682633337627, 5.388254746183106]}, {"species": [{"element": "O", "occu": 1}], "abc": [0.22790373, 0.27060106, 0.7396645900000001], "properties": {"magmom": 0.0}, "label": "O", "xyz": [0.8010417868919975, 2.0271661738387814, 5.2618214351355155]}, {"species": [{"element": "O", "occu": 1}], "abc": [0.27209627000000003, 0.01176087, 0.04269733], "properties": {"magmom": 0.0}, "label": "O", "xyz": [2.3028362714528137, 0.0881047466662374, -0.4763810827956343]}, {"species": [{"element": "O", "occu": 1}], "abc": [0.22939894, 0.45730267, 0.46906253000000003], "properties": {"magmom": 0.0}, "label": "O", "xyz": [0.006466980145570789, 3.4258125368398735, 2.203483207442345]}, {"species": [{"element": "O", "occu": 1}], "abc": [0.45730267, 0.46906253000000003, 0.22939894], "properties": {"magmom": 0.0}, "label": "O", "xyz": [1.9270306452197485, 3.513909717246631, -0.7283972730514501]}, {"species": [{"element": "O", "occu": 1}], "abc": [0.76033541, 0.03093747, 0.48823913], "properties": {"magmom": 0.0}, "label": "O", "xyz": [6.443290635148857, 0.2317632927533694, 2.059614913378407]}, {"species": [{"element": "O", "occu": 1}], "abc": [0.27060106, 0.7396645900000001, 0.22790373], "properties": {"magmom": 0.0}, "label": "O", "xyz": [-0.8583760099344597, 5.541083382431432, -0.998710989146026]}, {"species": [{"element": "O", "occu": 1}], "abc": [0.04269733, 0.27209627000000003, 0.01176087], "properties": {"magmom": 0.0}, "label": "O", "xyz": [-0.8075087620375682, 2.0383673093213455, -0.854836580393651]}, {"species": [{"element": "O", "occu": 1}], "abc": [0.48823913, 0.76033541, 0.03093747], "properties": {"magmom": 0.0}, "label": "O", "xyz": [0.934845962124319, 5.695935647568568, -3.534700896759502]}, {"species": [{"element": "O", "occu": 1}], "abc": [0.7396645900000001, 0.22790373, 0.27060106], "properties": {"magmom": 0.0}, "label": "O", "xyz": [5.412577951668965, 1.7073057006786545, -0.47638104993330677]}, {"species": [{"element": "O", "occu": 1}], "abc": [0.01176087, 0.04269733, 0.27209627000000003], "properties": {"magmom": 0.0}, "label": "O", "xyz": [-0.08293692233542978, 0.3198604731601266, 2.3299286884631836]}, {"species": [{"element": "O", "occu": 1}], "abc": [0.46906253000000003, 0.22939894, 0.45730267], "properties": {"magmom": 0.0}, "label": "O", "xyz": [3.0653327143951437, 1.7185068361612188, 2.0596211214770137]}, {"species": [{"element": "O", "occu": 1}], "abc": [0.96906253, 0.51176087, 0.23966459], "properties": {"magmom": 0.0}, "label": "O", "xyz": [6.169210772739953, 3.8337777566662377, -2.3299256861831057]}, {"species": [{"element": "O", "occu": 1}], "abc": [0.77209627, 0.72939894, 0.26033541], "properties": {"magmom": 0.0}, "label": "O", "xyz": [3.5240883731080035, 5.464179846161219, -2.203492375135515]}, {"species": [{"element": "O", "occu": 1}], "abc": [0.72790373, 0.98823913, 0.95730267], "properties": {"magmom": 0.0}, "label": "O", "xyz": [2.0222938885471864, 7.403241273333762, 3.5347101427956353]}, {"species": [{"element": "O", "occu": 1}], "abc": [0.7706010600000001, 0.54269733, 0.53093747], "properties": {"magmom": 0.0}, "label": "O", "xyz": [4.318663179854429, 4.065533483160126, 0.8548458525576557]}, {"species": [{"element": "O", "occu": 1}], "abc": [0.53093747, 0.7706010600000001, 0.54269733], "properties": {"magmom": 0.0}, "label": "O", "xyz": [1.2597974456048568, 5.772839183838782, 0.998707938522986]}, {"species": [{"element": "O", "occu": 1}], "abc": [0.98823913, 0.95730267, 0.72790373], "properties": {"magmom": 0.0}, "label": "O", "xyz": [4.40806708233543, 7.1714855468398735, 0.728400371536817]}, {"species": [{"element": "O", "occu": 1}], "abc": [0.26033541, 0.77209627, 0.72939894], "properties": {"magmom": 0.0}, "label": "O", "xyz": [-1.0874477916689633, 5.784040319321345, 3.5347101099333065]}, {"species": [{"element": "O", "occu": 1}], "abc": [0.51176087, 0.23966459, 0.96906253], "properties": {"magmom": 0.0}, "label": "O", "xyz": [3.3902841978756815, 1.7954103724314319, 6.593029956759501]}, {"species": [{"element": "O", "occu": 1}], "abc": [0.95730267, 0.72790373, 0.98823913], "properties": {"magmom": 0.0}, "label": "O", "xyz": [5.132638922037569, 5.4529787106786545, 3.9131656403936503]}, {"species": [{"element": "O", "occu": 1}], "abc": [0.72939894, 0.26033541, 0.77209627], "properties": {"magmom": 0.0}, "label": "O", "xyz": [5.183506169934461, 1.950262637568568, 4.057040049146027]}, {"species": [{"element": "O", "occu": 1}], "abc": [0.23966459, 0.96906253, 0.51176087], "properties": {"magmom": 0.0}, "label": "O", "xyz": [-2.118160475148856, 7.25958272724663, 0.9987141466215941]}, {"species": [{"element": "O", "occu": 1}], "abc": [0.54269733, 0.53093747, 0.7706010600000001], "properties": {"magmom": 0.0}, "label": "O", "xyz": [2.398099514780252, 3.9774363027533695, 3.7867263330514502]}]}, "task_ids": null, "uncorrected_energy_per_atom": null, "energy_per_atom": -8.821172594, "formation_energy_per_atom": -4.005045779666665, "energy_above_hull": 0.0, "is_stable": true, "equilibrium_reaction_energy_per_atom": null, "decomposes_to": null, "xas": null, "grain_boundaries": null, "band_gap": 3.925499999999999, "cbm": null, "vbm": null, "efermi": 1.43195201, "is_gap_direct": null, "is_metal": null, "es_source_calc_id": null, "bandstructure": null, "dos": null, "dos_energy_up": null, "dos_energy_down": null, "is_magnetic": null, "ordering": null, "total_magnetization": 0.0, "total_magnetization_normalized_vol": null, "total_magnetization_normalized_formula_units": null, "num_magnetic_sites": null, "num_unique_magnetic_sites": null, "types_of_magnetic_species": null, "bulk_modulus": null, "shear_modulus": null, "universal_anisotropy": null, "homogeneous_poisson": null, "e_total": null, "e_ionic": null, "e_electronic": null, "n": null, "e_ij_max": null, "weighted_surface_energy_EV_PER_ANG2": null, "weighted_surface_energy": null, "weighted_work_function": null, "surface_anisotropy": null, "shape_factor": null, "has_reconstructed": null, "possible_species": null, "has_props": null, "theoretical": null, "database_IDs": null, "fields_not_requested": ["builder_meta", "nsites", "elements", "nelements", "composition", "composition_reduced", "chemsys", "symmetry", "property_name", "deprecated", "deprecation_reasons", "last_updated", "origins", "warnings", "task_ids", "uncorrected_energy_per_atom", "equilibrium_reaction_energy_per_atom", "decomposes_to", "xas", "grain_boundaries", "cbm", "vbm", "is_gap_direct", "is_metal", "es_source_calc_id", "bandstructure", "dos", "dos_energy_up", "dos_energy_down", "is_magnetic", "ordering", "total_magnetization_normalized_vol", "total_magnetization_normalized_formula_units", "num_magnetic_sites", "num_unique_magnetic_sites", "types_of_magnetic_species", "bulk_modulus", "shear_modulus", "universal_anisotropy", "homogeneous_poisson", "e_total", "e_ionic", "e_electronic", "n", "e_ij_max", "weighted_surface_energy_EV_PER_ANG2", "weighted_surface_energy", "weighted_work_function", "surface_anisotropy", "shape_factor", "has_reconstructed", "possible_species", "has_props", "theoretical", "database_IDs"]}