{
  "builder_meta": null,
  "nsites": null,
  "elements": null,
  "nelements": null,
  "composition": null,
  "composition_reduced": null,
  "formula_pretty": "Dy2Pt",
  "formula_anonymous": "AB2",
  "chemsys": null,
  "volume": 296.75443375550776,
  "density": 11.640868026593596,
  "density_atomic": 24.729536146292315,
  "symmetry": null,
  "property_name": null,
  "material_id": "mp-1103421",
  "deprecated": null,
  "deprecation_reasons": null,
  "last_updated": null,
  "origins": null,
  "warnings": null,
  "structure": {
    "@module": "pymatgen.core.structure",
    "@class": "Structure",
    "charge": 0,
    "lattice": {
      "matrix": [
        [0.0, -4.76087815, 0.0],
        [-7.11131204, 0.0, 0.0],
        [0.0, 0.0, -8.76517143]
      ],
      "pbc": [true, true, true],
      "a": 4.76087815,
      "b": 7.11131204,
      "c": 8.76517143,
      "alpha": 90.0,
      "beta": 90.0,
      "gamma": 90.0,
      "volume": 296.75443375550776
    },
    "properties": {},
    "sites": [
      {
        "species": [{ "element": "Dy", "occu": 1 }],
        "abc": [0.75, 0.357043899999999, 0.58195167],
        "properties": { "magmom": -0.0 },
        "label": "Dy",
        "xyz": [-2.5390505848785487, -3.5706586125, -5.100906151524788]
      },
      {
        "species": [{ "element": "Dy", "occu": 1 }],
        "abc": [0.75, 0.8570573300000001, 0.918050599999999],
        "properties": { "magmom": 0.0 },
        "label": "Dy",
        "xyz": [-6.094802109799254, -3.5706586125, -8.04687089041435]
      },
      {
        "species": [{ "element": "Dy", "occu": 1 }],
        "abc": [0.25, 0.64294267, 0.4180506],
        "properties": { "magmom": 0.0 },
        "label": "Dy",
        "xyz": [-4.572165950200747, -1.1902195375, -3.664285175414358]
      },
      {
        "species": [{ "element": "Dy", "occu": 1 }],
        "abc": [0.25, 0.1429561, 0.08195167],
        "properties": { "magmom": -0.0 },
        "label": "Dy",
        "xyz": [-1.016605435121444, -1.1902195375, -0.7183204365247882]
      },
      {
        "species": [{ "element": "Dy", "occu": 1 }],
        "abc": [0.75, 0.4916503, 0.16698552],
        "properties": { "magmom": 0.0 },
        "label": "Dy",
        "xyz": [-3.4962786978596117, -3.5706586125, -1.4636567091276937]
      },
      {
        "species": [{ "element": "Dy", "occu": 1 }],
        "abc": [0.75, 0.99167875, 0.333016],
        "properties": { "magmom": -0.0 },
        "label": "Dy",
        "xyz": [-7.05213703468715, -3.5706586125, -2.91894232893288]
      },
      {
        "species": [{ "element": "Dy", "occu": 1 }],
        "abc": [0.25, 0.5083212500000001, 0.833016],
        "properties": { "magmom": -0.0 },
        "label": "Dy",
        "xyz": [-3.61483102531285, -1.1902195375, -7.301528043932881]
      },
      {
        "species": [{ "element": "Dy", "occu": 1 }],
        "abc": [0.25, 0.0083497, 0.66698552],
        "properties": { "magmom": 0.0 },
        "label": "Dy",
        "xyz": [-0.059377322140387996, -1.1902195375, -5.846242424127694]
      },
      {
        "species": [{ "element": "Pt", "occu": 1 }],
        "abc": [0.75, 0.25926802, 0.9087129700000001],
        "properties": { "magmom": -0.0 },
        "label": "Pt",
        "xyz": [-1.8437357922129607, -3.5706586125, -7.965024962714448]
      },
      {
        "species": [{ "element": "Pt", "occu": 1 }],
        "abc": [0.75, 0.75927758, 0.59128424],
        "properties": { "magmom": -0.0 },
        "label": "Pt",
        "xyz": [-5.399459796356063, -3.5706586125, -5.182707727457264]
      },
      {
        "species": [{ "element": "Pt", "occu": 1 }],
        "abc": [0.25, 0.74072242, 0.09128424],
        "properties": { "magmom": -0.0 },
        "label": "Pt",
        "xyz": [-5.267508263643936, -1.1902195375, -0.8001220124572632]
      },
      {
        "species": [{ "element": "Pt", "occu": 1 }],
        "abc": [0.25, 0.24073198, 0.40871297],
        "properties": { "magmom": -0.0 },
        "label": "Pt",
        "xyz": [-1.7119202277870391, -1.1902195375, -3.5824392477144475]
      }
    ]
  },
  "task_ids": null,
  "uncorrected_energy_per_atom": null,
  "energy_per_atom": -39.539282398333334,
  "formation_energy_per_atom": -1.055507948333333,
  "energy_above_hull": 0.0,
  "is_stable": true,
  "equilibrium_reaction_energy_per_atom": null,
  "decomposes_to": null,
  "xas": null,
  "grain_boundaries": null,
  "band_gap": 0.0,
  "cbm": null,
  "vbm": null,
  "efermi": 4.30881618,
  "is_gap_direct": null,
  "is_metal": null,
  "es_source_calc_id": null,
  "bandstructure": null,
  "dos": null,
  "dos_energy_up": null,
  "dos_energy_down": null,
  "is_magnetic": null,
  "ordering": null,
  "total_magnetization": 1e-7,
  "total_magnetization_normalized_vol": null,
  "total_magnetization_normalized_formula_units": null,
  "num_magnetic_sites": null,
  "num_unique_magnetic_sites": null,
  "types_of_magnetic_species": null,
  "bulk_modulus": null,
  "shear_modulus": null,
  "universal_anisotropy": null,
  "homogeneous_poisson": null,
  "e_total": null,
  "e_ionic": null,
  "e_electronic": null,
  "n": null,
  "e_ij_max": null,
  "weighted_surface_energy_EV_PER_ANG2": null,
  "weighted_surface_energy": null,
  "weighted_work_function": null,
  "surface_anisotropy": null,
  "shape_factor": null,
  "has_reconstructed": null,
  "possible_species": null,
  "has_props": null,
  "theoretical": null,
  "database_IDs": null,
  "fields_not_requested": [
    "builder_meta",
    "nsites",
    "elements",
    "nelements",
    "composition",
    "composition_reduced",
    "chemsys",
    "symmetry",
    "property_name",
    "deprecated",
    "deprecation_reasons",
    "last_updated",
    "origins",
    "warnings",
    "task_ids",
    "uncorrected_energy_per_atom",
    "equilibrium_reaction_energy_per_atom",
    "decomposes_to",
    "xas",
    "grain_boundaries",
    "cbm",
    "vbm",
    "is_gap_direct",
    "is_metal",
    "es_source_calc_id",
    "bandstructure",
    "dos",
    "dos_energy_up",
    "dos_energy_down",
    "is_magnetic",
    "ordering",
    "total_magnetization_normalized_vol",
    "total_magnetization_normalized_formula_units",
    "num_magnetic_sites",
    "num_unique_magnetic_sites",
    "types_of_magnetic_species",
    "bulk_modulus",
    "shear_modulus",
    "universal_anisotropy",
    "homogeneous_poisson",
    "e_total",
    "e_ionic",
    "e_electronic",
    "n",
    "e_ij_max",
    "weighted_surface_energy_EV_PER_ANG2",
    "weighted_surface_energy",
    "weighted_work_function",
    "surface_anisotropy",
    "shape_factor",
    "has_reconstructed",
    "possible_species",
    "has_props",
    "theoretical",
    "database_IDs"
  ]
}
