{
  "builder_meta": null,
  "nsites": null,
  "elements": null,
  "nelements": null,
  "composition": null,
  "composition_reduced": null,
  "formula_pretty": "Dy2Sn5",
  "formula_anonymous": "A2B5",
  "chemsys": null,
  "volume": 367.88798676147906,
  "density": 8.292133554305776,
  "density_atomic": 26.277713340105645,
  "symmetry": null,
  "property_name": null,
  "material_id": "mp-568064",
  "deprecated": null,
  "deprecation_reasons": null,
  "last_updated": null,
  "origins": null,
  "warnings": null,
  "structure": {
    "@module": "pymatgen.core.structure",
    "@class": "Structure",
    "charge": 0,
    "lattice": {
      "matrix": [
        [4.33613296, -0.0, 0.0],
        [0.0, 4.41008694, 0.0],
        [0.0, 0.0, 19.23826331]
      ],
      "pbc": [true, true, true],
      "a": 4.33613296,
      "b": 4.41008694,
      "c": 19.23826331,
      "alpha": 90.0,
      "beta": 90.0,
      "gamma": 90.0,
      "volume": 367.88798676147906
    },
    "properties": {},
    "sites": [
      {
        "species": [{ "element": "Dy", "occu": 1 }],
        "abc": [0.25, 0.75, 0.87243704],
        "properties": { "magmom": -0.0 },
        "label": "Dy",
        "xyz": [1.08403324, 3.3075652050000004, 16.784173496917003]
      },
      {
        "species": [{ "element": "Dy", "occu": 1 }],
        "abc": [0.25, 0.25, 0.30086301],
        "properties": { "magmom": -0.0 },
        "label": "Dy",
        "xyz": [1.08403324, 1.102521735, 5.788081806619163]
      },
      {
        "species": [{ "element": "Dy", "occu": 1 }],
        "abc": [0.75, 0.75, 0.6991369900000001],
        "properties": { "magmom": -0.0 },
        "label": "Dy",
        "xyz": [3.2520997199999995, 3.3075652050000004, 13.450181503380838]
      },
      {
        "species": [{ "element": "Dy", "occu": 1 }],
        "abc": [0.75, 0.25, 0.12756296],
        "properties": { "magmom": -0.0 },
        "label": "Dy",
        "xyz": [3.2520997199999995, 1.102521735, 2.4540898130829976]
      },
      {
        "species": [{ "element": "Sn", "occu": 1 }],
        "abc": [0.25, 0.25, 0.7377194300000001],
        "properties": { "magmom": -0.0 },
        "label": "Sn",
        "xyz": [1.08403324, 1.102521735, 14.192440643243115]
      },
      {
        "species": [{ "element": "Sn", "occu": 1 }],
        "abc": [0.75, 0.25, 0.42534319],
        "properties": { "magmom": 0.0 },
        "label": "Sn",
        "xyz": [3.2520997199999995, 1.102521735, 8.18286428633536]
      },
      {
        "species": [{ "element": "Sn", "occu": 1 }],
        "abc": [0.75, 0.25, 0.8425712],
        "properties": { "magmom": 0.0 },
        "label": "Sn",
        "xyz": [3.2520997199999995, 1.102521735, 16.20960660302267]
      },
      {
        "species": [{ "element": "Sn", "occu": 1 }],
        "abc": [0.75, 0.25, 0.57590243],
        "properties": { "magmom": -0.0 },
        "label": "Sn",
        "xyz": [3.2520997199999995, 1.102521735, 11.079362589208843]
      },
      {
        "species": [{ "element": "Sn", "occu": 1 }],
        "abc": [0.75, 0.75, 0.26228057],
        "properties": { "magmom": -0.0 },
        "label": "Sn",
        "xyz": [3.2520997199999995, 3.3075652050000004, 5.045822666756886]
      },
      {
        "species": [{ "element": "Sn", "occu": 1 }],
        "abc": [0.25, 0.75, 0.42409757000000003],
        "properties": { "magmom": -0.0 },
        "label": "Sn",
        "xyz": [1.08403324, 3.3075652050000004, 8.158900720791157]
      },
      {
        "species": [{ "element": "Sn", "occu": 1 }],
        "abc": [0.25, 0.75, 0.57465681],
        "properties": { "magmom": 0.0 },
        "label": "Sn",
        "xyz": [1.08403324, 3.3075652050000004, 11.055399023664641]
      },
      {
        "species": [{ "element": "Sn", "occu": 1 }],
        "abc": [0.25, 0.75, 0.157428799999999],
        "properties": { "magmom": 0.0 },
        "label": "Sn",
        "xyz": [1.08403324, 3.3075652050000004, 3.028656706977309]
      },
      {
        "species": [{ "element": "Sn", "occu": 1 }],
        "abc": [0.25, 0.25, 0.9975652700000001],
        "properties": { "magmom": 0.0 },
        "label": "Sn",
        "xyz": [1.08403324, 1.102521735, 19.191423333171244]
      },
      {
        "species": [{ "element": "Sn", "occu": 1 }],
        "abc": [0.75, 0.75, 0.00243473],
        "properties": { "magmom": 0.0 },
        "label": "Sn",
        "xyz": [3.2520997199999995, 3.3075652050000004, 0.0468399768287563]
      }
    ]
  },
  "task_ids": null,
  "uncorrected_energy_per_atom": null,
  "energy_per_atom": -4.685598819285714,
  "formation_energy_per_atom": -0.502083057619044,
  "energy_above_hull": 0.017350435142857,
  "is_stable": false,
  "equilibrium_reaction_energy_per_atom": null,
  "decomposes_to": null,
  "xas": null,
  "grain_boundaries": null,
  "band_gap": 0.0,
  "cbm": null,
  "vbm": null,
  "efermi": 6.94997522,
  "is_gap_direct": null,
  "is_metal": null,
  "es_source_calc_id": null,
  "bandstructure": null,
  "dos": null,
  "dos_energy_up": null,
  "dos_energy_down": null,
  "is_magnetic": null,
  "ordering": null,
  "total_magnetization": 0.0,
  "total_magnetization_normalized_vol": null,
  "total_magnetization_normalized_formula_units": null,
  "num_magnetic_sites": null,
  "num_unique_magnetic_sites": null,
  "types_of_magnetic_species": null,
  "bulk_modulus": null,
  "shear_modulus": null,
  "universal_anisotropy": null,
  "homogeneous_poisson": null,
  "e_total": null,
  "e_ionic": null,
  "e_electronic": null,
  "n": null,
  "e_ij_max": null,
  "weighted_surface_energy_EV_PER_ANG2": null,
  "weighted_surface_energy": null,
  "weighted_work_function": null,
  "surface_anisotropy": null,
  "shape_factor": null,
  "has_reconstructed": null,
  "possible_species": null,
  "has_props": null,
  "theoretical": null,
  "database_IDs": null,
  "fields_not_requested": [
    "builder_meta",
    "nsites",
    "elements",
    "nelements",
    "composition",
    "composition_reduced",
    "chemsys",
    "symmetry",
    "property_name",
    "deprecated",
    "deprecation_reasons",
    "last_updated",
    "origins",
    "warnings",
    "task_ids",
    "uncorrected_energy_per_atom",
    "equilibrium_reaction_energy_per_atom",
    "decomposes_to",
    "xas",
    "grain_boundaries",
    "cbm",
    "vbm",
    "is_gap_direct",
    "is_metal",
    "es_source_calc_id",
    "bandstructure",
    "dos",
    "dos_energy_up",
    "dos_energy_down",
    "is_magnetic",
    "ordering",
    "total_magnetization_normalized_vol",
    "total_magnetization_normalized_formula_units",
    "num_magnetic_sites",
    "num_unique_magnetic_sites",
    "types_of_magnetic_species",
    "bulk_modulus",
    "shear_modulus",
    "universal_anisotropy",
    "homogeneous_poisson",
    "e_total",
    "e_ionic",
    "e_electronic",
    "n",
    "e_ij_max",
    "weighted_surface_energy_EV_PER_ANG2",
    "weighted_surface_energy",
    "weighted_work_function",
    "surface_anisotropy",
    "shape_factor",
    "has_reconstructed",
    "possible_species",
    "has_props",
    "theoretical",
    "database_IDs"
  ]
}
