{
  "builder_meta": null,
  "nsites": null,
  "elements": null,
  "nelements": null,
  "composition": null,
  "composition_reduced": null,
  "formula_pretty": "Dy2Si3",
  "formula_anonymous": "A2B3",
  "chemsys": null,
  "volume": 106.69719009197192,
  "density": 6.369299940553131,
  "density_atomic": 21.339438018394382,
  "symmetry": null,
  "property_name": null,
  "material_id": "mp-1225291",
  "deprecated": null,
  "deprecation_reasons": null,
  "last_updated": null,
  "origins": null,
  "warnings": null,
  "structure": {
    "@module": "pymatgen.core.structure",
    "@class": "Structure",
    "charge": 0,
    "lattice": {
      "matrix": [
        [-1.94547, 1.994955, 6.872826],
        [1.94547, -1.994955, 6.872826],
        [1.94547, 1.994955, -6.872826]
      ],
      "pbc": [true, true, true],
      "a": 7.416227895581486,
      "b": 7.416227895581486,
      "c": 7.416227895581486,
      "alpha": 149.58374311459536,
      "beta": 148.7906259092289,
      "gamma": 44.13923771031183,
      "volume": 106.69719009197192
    },
    "properties": {},
    "sites": [
      {
        "species": [{ "element": "Dy", "occu": 1 }],
        "abc": [0.126472, 0.126472, 0.0],
        "properties": { "magmom": 0.0 },
        "label": "Dy",
        "xyz": [0.0, 0.0, 1.738440099744]
      },
      {
        "species": [{ "element": "Dy", "occu": 1 }],
        "abc": [0.372907999999999, 0.872907999999999, 0.5],
        "properties": { "magmom": -0.0 },
        "label": "Dy",
        "xyz": [1.94547, -1.1102230246251565e-16, 5.125863596015986]
      },
      {
        "species": [{ "element": "Si", "occu": 1 }],
        "abc": [0.9679900000000001, 0.46799, 0.5],
        "properties": { "magmom": 0.0 },
        "label": "Si",
        "xyz": [-2.220446049250313e-16, 1.9949550000000003, 6.432827679480001]
      },
      {
        "species": [{ "element": "Si", "occu": 1 }],
        "abc": [0.698302, 0.698302, 0.0],
        "properties": { "magmom": 0.0 },
        "label": "Si",
        "xyz": [0.0, 0.0, 9.598616282903999]
      },
      {
        "species": [{ "element": "Si", "occu": 1 }],
        "abc": [0.798327999999999, 0.298328, 0.5],
        "properties": { "magmom": 0.0 },
        "label": "Si",
        "xyz": [1.7763568394002505e-15, 1.9949549999999983, 4.100712869855993]
      }
    ]
  },
  "task_ids": null,
  "uncorrected_energy_per_atom": null,
  "energy_per_atom": -18.727264888571433,
  "formation_energy_per_atom": -0.6702848415714321,
  "energy_above_hull": 0.09053059257142501,
  "is_stable": false,
  "equilibrium_reaction_energy_per_atom": null,
  "decomposes_to": null,
  "xas": null,
  "grain_boundaries": null,
  "band_gap": 0.0,
  "cbm": null,
  "vbm": null,
  "efermi": 5.51031934,
  "is_gap_direct": null,
  "is_metal": null,
  "es_source_calc_id": null,
  "bandstructure": null,
  "dos": null,
  "dos_energy_up": null,
  "dos_energy_down": null,
  "is_magnetic": null,
  "ordering": null,
  "total_magnetization": 0.007514,
  "total_magnetization_normalized_vol": null,
  "total_magnetization_normalized_formula_units": null,
  "num_magnetic_sites": null,
  "num_unique_magnetic_sites": null,
  "types_of_magnetic_species": null,
  "bulk_modulus": null,
  "shear_modulus": null,
  "universal_anisotropy": null,
  "homogeneous_poisson": null,
  "e_total": null,
  "e_ionic": null,
  "e_electronic": null,
  "n": null,
  "e_ij_max": null,
  "weighted_surface_energy_EV_PER_ANG2": null,
  "weighted_surface_energy": null,
  "weighted_work_function": null,
  "surface_anisotropy": null,
  "shape_factor": null,
  "has_reconstructed": null,
  "possible_species": null,
  "has_props": null,
  "theoretical": null,
  "database_IDs": null,
  "fields_not_requested": [
    "builder_meta",
    "nsites",
    "elements",
    "nelements",
    "composition",
    "composition_reduced",
    "chemsys",
    "symmetry",
    "property_name",
    "deprecated",
    "deprecation_reasons",
    "last_updated",
    "origins",
    "warnings",
    "task_ids",
    "uncorrected_energy_per_atom",
    "equilibrium_reaction_energy_per_atom",
    "decomposes_to",
    "xas",
    "grain_boundaries",
    "cbm",
    "vbm",
    "is_gap_direct",
    "is_metal",
    "es_source_calc_id",
    "bandstructure",
    "dos",
    "dos_energy_up",
    "dos_energy_down",
    "is_magnetic",
    "ordering",
    "total_magnetization_normalized_vol",
    "total_magnetization_normalized_formula_units",
    "num_magnetic_sites",
    "num_unique_magnetic_sites",
    "types_of_magnetic_species",
    "bulk_modulus",
    "shear_modulus",
    "universal_anisotropy",
    "homogeneous_poisson",
    "e_total",
    "e_ionic",
    "e_electronic",
    "n",
    "e_ij_max",
    "weighted_surface_energy_EV_PER_ANG2",
    "weighted_surface_energy",
    "weighted_work_function",
    "surface_anisotropy",
    "shape_factor",
    "has_reconstructed",
    "possible_species",
    "has_props",
    "theoretical",
    "database_IDs"
  ]
}
