{
  "builder_meta": null,
  "nsites": null,
  "elements": null,
  "nelements": null,
  "composition": null,
  "composition_reduced": null,
  "formula_pretty": "Dy2Sb5",
  "formula_anonymous": "A2B5",
  "chemsys": null,
  "volume": 801.8484638901513,
  "density": 7.735184141244448,
  "density_atomic": 28.637445138933973,
  "symmetry": null,
  "property_name": null,
  "material_id": "mp-13451",
  "deprecated": null,
  "deprecation_reasons": null,
  "last_updated": null,
  "origins": null,
  "warnings": null,
  "structure": {
    "@module": "pymatgen.core.structure",
    "@class": "Structure",
    "charge": 0,
    "lattice": {
      "matrix": [
        [4.21335032, 0.0, 0.0],
        [0.0, 12.88114927, -2.823552],
        [0.0, -0.02207107, 14.77924702]
      ],
      "pbc": [true, true, true],
      "a": 4.21335032,
      "b": 13.186980412995446,
      "c": 14.779263500266508,
      "alpha": 102.44927241732283,
      "beta": 90.0,
      "gamma": 90.0,
      "volume": 801.8484638901513
    },
    "properties": {},
    "sites": [
      {
        "species": [{ "element": "Dy", "occu": 1 }],
        "abc": [0.25, 0.60594067, 0.77111239],
        "properties": { "magmom": -0.0 },
        "label": "Dy",
        "xyz": [1.05333758, 7.788192943496253, 9.685555501332738]
      },
      {
        "species": [{ "element": "Dy", "occu": 1 }],
        "abc": [0.75, 0.39405933, 0.22888761],
        "properties": { "magmom": -0.0 },
        "label": "Dy",
        "xyz": [3.16001274, 5.070885256503747, 2.2701395186672624]
      },
      {
        "species": [{ "element": "Dy", "occu": 1 }],
        "abc": [0.25, 0.33736957, 0.85523271],
        "properties": { "magmom": -0.0 },
        "label": "Dy",
        "xyz": [1.05333758, 4.326831889317014, 11.687114956561384]
      },
      {
        "species": [{ "element": "Dy", "occu": 1 }],
        "abc": [0.75, 0.66263043, 0.14476729],
        "properties": { "magmom": -0.0 },
        "label": "Dy",
        "xyz": [3.16001274, 8.532246310682986, 0.26858006343861596]
      },
      {
        "species": [{ "element": "Dy", "occu": 1 }],
        "abc": [0.25, 0.33003096, 0.5779075],
        "properties": { "magmom": -0.0 },
        "label": "Dy",
        "xyz": [1.05333758, 4.238423022595374, 7.609178120040729]
      },
      {
        "species": [{ "element": "Dy", "occu": 1 }],
        "abc": [0.75, 0.66996904, 0.4220925],
        "properties": { "magmom": -0.0 },
        "label": "Dy",
        "xyz": [3.16001274, 8.620655177404625, 4.346516899959269]
      },
      {
        "species": [{ "element": "Dy", "occu": 1 }],
        "abc": [0.25, 0.047937810000000004, 0.36423722000000003],
        "properties": { "magmom": -0.0 },
        "label": "Dy",
        "xyz": [1.05333758, 0.6094549811076734, 5.247796948956965]
      },
      {
        "species": [{ "element": "Dy", "occu": 1 }],
        "abc": [0.75, 0.95206219, 0.63576278],
        "properties": { "magmom": -0.0 },
        "label": "Dy",
        "xyz": [3.16001274, 12.249623218892326, 6.707898071043036]
      },
      {
        "species": [{ "element": "Sb", "occu": 1 }],
        "abc": [0.25, 0.85927916, 0.7776833400000001],
        "properties": { "magmom": 0.0 },
        "label": "Sb",
        "xyz": [1.05333758, 11.05133882112524, 9.067354794422329]
      },
      {
        "species": [{ "element": "Sb", "occu": 1 }],
        "abc": [0.75, 0.14072084, 0.22231666],
        "properties": { "magmom": 0.0 },
        "label": "Sb",
        "xyz": [3.16001274, 1.8077393788747607, 2.8883402255776733]
      },
      {
        "species": [{ "element": "Sb", "occu": 1 }],
        "abc": [0.25, 0.85715599, 0.48073832],
        "properties": { "magmom": 0.0 },
        "label": "Sb",
        "xyz": [1.05333758, 11.030543845752225, 4.684725873383326]
      },
      {
        "species": [{ "element": "Sb", "occu": 1 }],
        "abc": [0.75, 0.14284401, 0.5192616800000001],
        "properties": { "magmom": 0.0 },
        "label": "Sb",
        "xyz": [3.16001274, 1.828534354247775, 7.2709691466166735]
      },
      {
        "species": [{ "element": "Sb", "occu": 1 }],
        "abc": [0.25, 0.847633899999999, 0.17623099],
        "properties": { "magmom": -0.0 },
        "label": "Sb",
        "xyz": [1.05333758, 10.914609185695781, 0.211222940176353]
      },
      {
        "species": [{ "element": "Sb", "occu": 1 }],
        "abc": [0.75, 0.1523661, 0.82376901],
        "properties": { "magmom": -0.0 },
        "label": "Sb",
        "xyz": [3.16001274, 1.9444690143042063, 11.74447207982365]
      },
      {
        "species": [{ "element": "Sb", "occu": 1 }],
        "abc": [0.25, 0.57985392, 0.97505365],
        "properties": { "magmom": -0.0 },
        "label": "Sb",
        "xyz": [1.05333758, 7.4476644209517335, 12.773311055578782]
      },
      {
        "species": [{ "element": "Sb", "occu": 1 }],
        "abc": [0.75, 0.42014608000000003, 0.02494635],
        "properties": { "magmom": -0.0 },
        "label": "Sb",
        "xyz": [3.16001274, 5.411413779048267, -0.8176160355787832]
      },
      {
        "species": [{ "element": "Sb", "occu": 1 }],
        "abc": [0.75, 0.9697734100000001, 0.8966910300000001],
        "properties": { "magmom": -0.0 },
        "label": "Sb",
        "xyz": [3.16001274, 12.472005121795409, 10.514212581635912]
      },
      {
        "species": [{ "element": "Sb", "occu": 1 }],
        "abc": [0.25, 0.03022659, 0.10330897],
        "properties": { "magmom": -0.0 },
        "label": "Sb",
        "xyz": [1.05333758, 0.38707307820459136, 1.4414824383640894]
      },
      {
        "species": [{ "element": "Sb", "occu": 1 }],
        "abc": [0.75, 0.861883699999999, 0.32346871],
        "properties": { "magmom": 0.0 },
        "label": "Sb",
        "xyz": [3.16001274, 11.094913292538667, 2.3470505234283467]
      },
      {
        "species": [{ "element": "Sb", "occu": 1 }],
        "abc": [0.25, 0.1381163, 0.67653129],
        "properties": { "magmom": 0.0 },
        "label": "Sb",
        "xyz": [1.05333758, 1.7641649074613206, 9.608644496571657]
      },
      {
        "species": [{ "element": "Sb", "occu": 1 }],
        "abc": [0.75, 0.71821611, 0.93990241],
        "properties": { "magmom": 0.0 },
        "label": "Sb",
        "xyz": [3.16001274, 9.23070426914446, 11.863129358260599]
      },
      {
        "species": [{ "element": "Sb", "occu": 1 }],
        "abc": [0.25, 0.28178389, 0.06009759],
        "properties": { "magmom": 0.0 },
        "label": "Sb",
        "xyz": [1.05333758, 3.6283739308555387, 0.09256566173940195]
      },
      {
        "species": [{ "element": "Sb", "occu": 1 }],
        "abc": [0.75, 0.71184013, 0.64955604],
        "properties": { "magmom": 0.0 },
        "label": "Sb",
        "xyz": [3.16001274, 9.154982574078442, 7.590031545751241]
      },
      {
        "species": [{ "element": "Sb", "occu": 1 }],
        "abc": [0.25, 0.28815987, 0.35044396],
        "properties": { "magmom": 0.0 },
        "label": "Sb",
        "xyz": [1.05333758, 3.7040956259215574, 4.365663474248759]
      },
      {
        "species": [{ "element": "Sb", "occu": 1 }],
        "abc": [0.75, 0.42373445, 0.73463141],
        "properties": { "magmom": 0.0 },
        "label": "Sb",
        "xyz": [3.16001274, 5.441972600017043, 9.660862823274497]
      },
      {
        "species": [{ "element": "Sb", "occu": 1 }],
        "abc": [0.25, 0.57626555, 0.26536859],
        "properties": { "magmom": 0.0 },
        "label": "Sb",
        "xyz": [1.05333758, 7.417105599982957, 2.294832196725502]
      },
      {
        "species": [{ "element": "Sb", "occu": 1 }],
        "abc": [0.75, 0.423609099999999, 0.44717881],
        "properties": { "magmom": 0.0 },
        "label": "Sb",
        "xyz": [3.16001274, 5.4467023344123175, 5.412883773576449]
      },
      {
        "species": [{ "element": "Sb", "occu": 1 }],
        "abc": [0.25, 0.576390899999999, 0.55282119],
        "properties": { "magmom": 0.0 },
        "label": "Sb",
        "xyz": [1.05333758, 7.412375865587657, 6.542811246423557]
      }
    ]
  },
  "task_ids": null,
  "uncorrected_energy_per_atom": null,
  "energy_per_atom": -5.040052824285714,
  "formation_energy_per_atom": -0.771230359047615,
  "energy_above_hull": 0.0,
  "is_stable": true,
  "equilibrium_reaction_energy_per_atom": null,
  "decomposes_to": null,
  "xas": null,
  "grain_boundaries": null,
  "band_gap": 0.0,
  "cbm": null,
  "vbm": null,
  "efermi": 6.32987591,
  "is_gap_direct": null,
  "is_metal": null,
  "es_source_calc_id": null,
  "bandstructure": null,
  "dos": null,
  "dos_energy_up": null,
  "dos_energy_down": null,
  "is_magnetic": null,
  "ordering": null,
  "total_magnetization": 3e-7,
  "total_magnetization_normalized_vol": null,
  "total_magnetization_normalized_formula_units": null,
  "num_magnetic_sites": null,
  "num_unique_magnetic_sites": null,
  "types_of_magnetic_species": null,
  "bulk_modulus": null,
  "shear_modulus": null,
  "universal_anisotropy": null,
  "homogeneous_poisson": null,
  "e_total": null,
  "e_ionic": null,
  "e_electronic": null,
  "n": null,
  "e_ij_max": null,
  "weighted_surface_energy_EV_PER_ANG2": null,
  "weighted_surface_energy": null,
  "weighted_work_function": null,
  "surface_anisotropy": null,
  "shape_factor": null,
  "has_reconstructed": null,
  "possible_species": null,
  "has_props": null,
  "theoretical": null,
  "database_IDs": null,
  "fields_not_requested": [
    "builder_meta",
    "nsites",
    "elements",
    "nelements",
    "composition",
    "composition_reduced",
    "chemsys",
    "symmetry",
    "property_name",
    "deprecated",
    "deprecation_reasons",
    "last_updated",
    "origins",
    "warnings",
    "task_ids",
    "uncorrected_energy_per_atom",
    "equilibrium_reaction_energy_per_atom",
    "decomposes_to",
    "xas",
    "grain_boundaries",
    "cbm",
    "vbm",
    "is_gap_direct",
    "is_metal",
    "es_source_calc_id",
    "bandstructure",
    "dos",
    "dos_energy_up",
    "dos_energy_down",
    "is_magnetic",
    "ordering",
    "total_magnetization_normalized_vol",
    "total_magnetization_normalized_formula_units",
    "num_magnetic_sites",
    "num_unique_magnetic_sites",
    "types_of_magnetic_species",
    "bulk_modulus",
    "shear_modulus",
    "universal_anisotropy",
    "homogeneous_poisson",
    "e_total",
    "e_ionic",
    "e_electronic",
    "n",
    "e_ij_max",
    "weighted_surface_energy_EV_PER_ANG2",
    "weighted_surface_energy",
    "weighted_work_function",
    "surface_anisotropy",
    "shape_factor",
    "has_reconstructed",
    "possible_species",
    "has_props",
    "theoretical",
    "database_IDs"
  ]
}
