{"builder_meta": null, "nsites": null, "elements": null, "nelements": null, "composition": null, "composition_reduced": null, "formula_pretty": "Dy2Se3", "formula_anonymous": "A2B3", "chemsys": null, "volume": 488.7204797931984, "density": 7.636460752665949, "density_atomic": 24.436023989659923, "symmetry": null, "property_name": null, "material_id": "mp-7368", "deprecated": null, "deprecation_reasons": null, "last_updated": null, "origins": null, "warnings": null, "structure": {"@module": "pymatgen.core.structure", "@class": "Structure", "charge": 0, "lattice": {"matrix": [[4.00803873, 0.0, 0.0], [-0.0, 10.990462860000001, 0.0], [0.0, 0.0, 11.09462547]], "pbc": [true, true, true], "a": 4.00803873, "b": 10.990462860000001, "c": 11.09462547, "alpha": 90.0, "beta": 90.0, "gamma": 90.0, "volume": 488.7204797931985}, "properties": {}, "sites": [{"species": [{"element": "Dy", "occu": 1}], "abc": [0.25, -0.00221793, 0.80661017], "properties": {"magmom": 0.0}, "label": "Dy", "xyz": [1.0020096825, -0.024376077291079802, 8.94903773644303]}, {"species": [{"element": "Dy", "occu": 1}], "abc": [0.75, 0.00221793, 0.19338983], "properties": {"magmom": 0.0}, "label": "Dy", "xyz": [3.0060290475, 0.024376077291079802, 2.14558773355697]}, {"species": [{"element": "Dy", "occu": 1}], "abc": [0.75, 0.49778207, 0.69338983], "properties": {"magmom": 0.0}, "label": "Dy", "xyz": [3.0060290475, 5.470855352708921, 7.69290046855697]}, {"species": [{"element": "Dy", "occu": 1}], "abc": [0.25, 0.50221793, 0.30661017], "properties": {"magmom": 0.0}, "label": "Dy", "xyz": [1.0020096825, 5.519607507291081, 3.40172500144303]}, {"species": [{"element": "Dy", "occu": 1}], "abc": [0.25, 0.18759816, 0.48748445], "properties": {"magmom": 0.0}, "label": "Dy", "xyz": [1.0020096825, 2.061790610084338, 5.408457395198941]}, {"species": [{"element": "Dy", "occu": 1}], "abc": [0.75, 0.81240184, 0.51251555], "properties": {"magmom": 0.0}, "label": "Dy", "xyz": [3.0060290475, 8.928672249915664, 5.686168074801059]}, {"species": [{"element": "Dy", "occu": 1}], "abc": [0.75, 0.6875981600000001, 0.01251555], "properties": {"magmom": 0.0}, "label": "Dy", "xyz": [3.0060290475, 7.557022040084339, 0.13885533980105852]}, {"species": [{"element": "Dy", "occu": 1}], "abc": [0.25, 0.31240184, 0.9874844500000001], "properties": {"magmom": 0.0}, "label": "Dy", "xyz": [1.0020096825, 3.4334408199156625, 10.955770130198943]}, {"species": [{"element": "Se", "occu": 1}], "abc": [0.25, 0.30538646, 0.72626651], "properties": {"magmom": -0.0}, "label": "Se", "xyz": [1.0020096825, 3.3563385465768762, 8.05765491985401]}, {"species": [{"element": "Se", "occu": 1}], "abc": [0.75, 0.69461354, 0.27373349], "properties": {"magmom": -0.0}, "label": "Se", "xyz": [3.0060290475, 7.634124313423125, 3.0369705501459907]}, {"species": [{"element": "Se", "occu": 1}], "abc": [0.75, 0.80538646, 0.77373349], "properties": {"magmom": -0.0}, "label": "Se", "xyz": [3.0060290475, 8.851569976576876, 8.584283285145991]}, {"species": [{"element": "Se", "occu": 1}], "abc": [0.25, 0.19461354, 0.22626651], "properties": {"magmom": -0.0}, "label": "Se", "xyz": [1.0020096825, 2.1388928834231247, 2.51034218485401]}, {"species": [{"element": "Se", "occu": 1}], "abc": [0.25, 0.944219599999999, 0.38169502], "properties": {"magmom": -0.0}, "label": "Se", "xyz": [1.0020096825, 10.377410445484047, 4.2347632906641595]}, {"species": [{"element": "Se", "occu": 1}], "abc": [0.75, 0.0557804, 0.61830498], "properties": {"magmom": -0.0}, "label": "Se", "xyz": [3.0060290475, 0.613052414515944, 6.859862179335841]}, {"species": [{"element": "Se", "occu": 1}], "abc": [0.75, 0.4442196, 0.11830498], "properties": {"magmom": -0.0}, "label": "Se", "xyz": [3.0060290475, 4.8821790154840565, 1.3125494443358408]}, {"species": [{"element": "Se", "occu": 1}], "abc": [0.25, 0.5557804, 0.88169502], "properties": {"magmom": -0.0}, "label": "Se", "xyz": [1.0020096825, 6.108283844515944, 9.78207602566416]}, {"species": [{"element": "Se", "occu": 1}], "abc": [0.25, 0.87411678, 0.04505236], "properties": {"magmom": 0.0}, "label": "Se", "xyz": [1.0020096825, 9.606948005892791, 0.4998390607396092]}, {"species": [{"element": "Se", "occu": 1}], "abc": [0.75, 0.12588322, 0.95494764], "properties": {"magmom": 0.0}, "label": "Se", "xyz": [3.0060290475, 1.3835148541072093, 10.594786409260392]}, {"species": [{"element": "Se", "occu": 1}], "abc": [0.75, 0.37411678, 0.45494764], "properties": {"magmom": 0.0}, "label": "Se", "xyz": [3.0060290475, 4.111716575892791, 5.047473674260391]}, {"species": [{"element": "Se", "occu": 1}], "abc": [0.25, 0.62588322, 0.54505236], "properties": {"magmom": 0.0}, "label": "Se", "xyz": [1.0020096825, 6.878746284107209, 6.04715179573961]}]}, "task_ids": null, "uncorrected_energy_per_atom": null, "energy_per_atom": -23.5422564655, "formation_energy_per_atom": -2.162599036937499, "energy_above_hull": 0.0, "is_stable": true, "equilibrium_reaction_energy_per_atom": null, "decomposes_to": null, "xas": null, "grain_boundaries": null, "band_gap": 0.3663, "cbm": null, "vbm": null, "efermi": 3.77396666, "is_gap_direct": null, "is_metal": null, "es_source_calc_id": null, "bandstructure": null, "dos": null, "dos_energy_up": null, "dos_energy_down": null, "is_magnetic": null, "ordering": null, "total_magnetization": 0.0, "total_magnetization_normalized_vol": null, "total_magnetization_normalized_formula_units": null, "num_magnetic_sites": null, "num_unique_magnetic_sites": null, "types_of_magnetic_species": null, "bulk_modulus": null, "shear_modulus": null, "universal_anisotropy": null, "homogeneous_poisson": null, "e_total": null, "e_ionic": null, "e_electronic": null, "n": null, "e_ij_max": null, "weighted_surface_energy_EV_PER_ANG2": null, "weighted_surface_energy": null, "weighted_work_function": null, "surface_anisotropy": null, "shape_factor": null, "has_reconstructed": null, "possible_species": null, "has_props": null, "theoretical": null, "database_IDs": null, "fields_not_requested": ["builder_meta", "nsites", "elements", "nelements", "composition", "composition_reduced", "chemsys", "symmetry", "property_name", "deprecated", "deprecation_reasons", "last_updated", "origins", "warnings", "task_ids", "uncorrected_energy_per_atom", "equilibrium_reaction_energy_per_atom", "decomposes_to", "xas", "grain_boundaries", "cbm", "vbm", "is_gap_direct", "is_metal", "es_source_calc_id", "bandstructure", "dos", "dos_energy_up", "dos_energy_down", "is_magnetic", "ordering", "total_magnetization_normalized_vol", "total_magnetization_normalized_formula_units", "num_magnetic_sites", "num_unique_magnetic_sites", "types_of_magnetic_species", "bulk_modulus", "shear_modulus", "universal_anisotropy", "homogeneous_poisson", "e_total", "e_ionic", "e_electronic", "n", "e_ij_max", "weighted_surface_energy_EV_PER_ANG2", "weighted_surface_energy", "weighted_work_function", "surface_anisotropy", "shape_factor", "has_reconstructed", "possible_species", "has_props", "theoretical", "database_IDs"]}