{"builder_meta": null, "nsites": null, "elements": null, "nelements": null, "composition": null, "composition_reduced": null, "formula_pretty": "Dy2S3", "formula_anonymous": "A2B3", "chemsys": null, "volume": 428.8936415691947, "density": 6.522929550530526, "density_atomic": 21.444682078459735, "symmetry": null, "property_name": null, "material_id": "mp-1270", "deprecated": null, "deprecation_reasons": null, "last_updated": null, "origins": null, "warnings": null, "structure": {"@module": "pymatgen.core.structure", "@class": "Structure", "charge": 0, "lattice": {"matrix": [[3.85878794, 0.0, 0.0], [-0.0, 10.47605883, 0.0], [0.0, 0.0, 10.6096429]], "pbc": [true, true, true], "a": 3.85878794, "b": 10.47605883, "c": 10.6096429, "alpha": 90.0, "beta": 90.0, "gamma": 90.0, "volume": 428.8936415691947}, "properties": {}, "sites": [{"species": [{"element": "Dy", "occu": 1}], "abc": [0.25, 0.99583583, 0.8079665500000001], "properties": {"magmom": -0.0}, "label": "Dy", "xyz": [0.964696985, 10.432434740101877, 8.572236570644996]}, {"species": [{"element": "Dy", "occu": 1}], "abc": [0.75, 0.00416417, 0.19203345], "properties": {"magmom": -0.0}, "label": "Dy", "xyz": [2.8940909550000002, 0.043624089898121096, 2.037406329355005]}, {"species": [{"element": "Dy", "occu": 1}], "abc": [0.75, 0.49583583000000003, 0.69203345], "properties": {"magmom": -0.0}, "label": "Dy", "xyz": [2.8940909550000002, 5.194405325101879, 7.342227779355006]}, {"species": [{"element": "Dy", "occu": 1}], "abc": [0.25, 0.50416417, 0.30796655], "properties": {"magmom": -0.0}, "label": "Dy", "xyz": [0.964696985, 5.281653504898121, 3.2674151206449955]}, {"species": [{"element": "Dy", "occu": 1}], "abc": [0.25, 0.18685011, 0.48998068], "properties": {"magmom": -0.0}, "label": "Dy", "xyz": [0.964696985, 1.9574527447519714, 5.1985200426991724]}, {"species": [{"element": "Dy", "occu": 1}], "abc": [0.75, 0.81314989, 0.51001932], "properties": {"magmom": -0.0}, "label": "Dy", "xyz": [2.8940909550000002, 8.51860608524803, 5.411122857300829]}, {"species": [{"element": "Dy", "occu": 1}], "abc": [0.75, 0.6868501100000001, 0.01001932], "properties": {"magmom": -0.0}, "label": "Dy", "xyz": [2.8940909550000002, 7.195482159751972, 0.106301407300828]}, {"species": [{"element": "Dy", "occu": 1}], "abc": [0.25, 0.31314989, 0.9899806800000001], "properties": {"magmom": -0.0}, "label": "Dy", "xyz": [0.964696985, 3.2805766702480286, 10.503341492699173]}, {"species": [{"element": "S", "occu": 1}], "abc": [0.25, 0.30460551, 0.72734215], "properties": {"magmom": -0.0}, "label": "S", "xyz": [0.964696985, 3.1910652427021535, 7.716840477618236]}, {"species": [{"element": "S", "occu": 1}], "abc": [0.75, 0.69539449, 0.27265785], "properties": {"magmom": -0.0}, "label": "S", "xyz": [2.8940909550000002, 7.284993587297846, 2.8928024223817648]}, {"species": [{"element": "S", "occu": 1}], "abc": [0.75, 0.80460551, 0.77265785], "properties": {"magmom": -0.0}, "label": "S", "xyz": [2.8940909550000002, 8.429094657702153, 8.197623872381765]}, {"species": [{"element": "S", "occu": 1}], "abc": [0.25, 0.19539449, 0.22734215], "properties": {"magmom": -0.0}, "label": "S", "xyz": [0.964696985, 2.0469641722978467, 2.412019027618235]}, {"species": [{"element": "S", "occu": 1}], "abc": [0.25, 0.94453626, 0.38103249], "properties": {"magmom": 0.0}, "label": "S", "xyz": [0.964696985, 9.895017426828176, 4.042618652197821]}, {"species": [{"element": "S", "occu": 1}], "abc": [0.75, 0.055463740000000004, 0.61896751], "properties": {"magmom": 0.0}, "label": "S", "xyz": [2.8940909550000002, 0.5810414031718242, 6.56702424780218]}, {"species": [{"element": "S", "occu": 1}], "abc": [0.75, 0.44453626, 0.11896751], "properties": {"magmom": 0.0}, "label": "S", "xyz": [2.8940909550000002, 4.656988011828176, 1.262202797802179]}, {"species": [{"element": "S", "occu": 1}], "abc": [0.25, 0.55546374, 0.8810324900000001], "properties": {"magmom": 0.0}, "label": "S", "xyz": [0.964696985, 5.819070818171824, 9.347440102197822]}, {"species": [{"element": "S", "occu": 1}], "abc": [0.25, 0.87324433, 0.04599856], "properties": {"magmom": 0.0}, "label": "S", "xyz": [0.964696985, 9.148158974043934, 0.48802829551422405]}, {"species": [{"element": "S", "occu": 1}], "abc": [0.75, 0.12675567000000001, 0.95400144], "properties": {"magmom": 0.0}, "label": "S", "xyz": [2.8940909550000002, 1.3278998559560662, 10.121614604485776]}, {"species": [{"element": "S", "occu": 1}], "abc": [0.75, 0.37324433, 0.45400144000000003], "properties": {"magmom": 0.0}, "label": "S", "xyz": [2.8940909550000002, 3.9101295590439338, 4.816793154485777]}, {"species": [{"element": "S", "occu": 1}], "abc": [0.25, 0.62675567, 0.54599856], "properties": {"magmom": 0.0}, "label": "S", "xyz": [0.964696985, 6.565929270956065, 5.792849745514225]}]}, "task_ids": null, "uncorrected_energy_per_atom": null, "energy_per_atom": -19.9928767695, "formation_energy_per_atom": -2.379156030187499, "energy_above_hull": 0.0, "is_stable": true, "equilibrium_reaction_energy_per_atom": null, "decomposes_to": null, "xas": null, "grain_boundaries": null, "band_gap": 0.593799999999999, "cbm": null, "vbm": null, "efermi": 4.20957208, "is_gap_direct": null, "is_metal": null, "es_source_calc_id": null, "bandstructure": null, "dos": null, "dos_energy_up": null, "dos_energy_down": null, "is_magnetic": null, "ordering": null, "total_magnetization": 0.0, "total_magnetization_normalized_vol": null, "total_magnetization_normalized_formula_units": null, "num_magnetic_sites": null, "num_unique_magnetic_sites": null, "types_of_magnetic_species": null, "bulk_modulus": null, "shear_modulus": null, "universal_anisotropy": null, "homogeneous_poisson": null, "e_total": null, "e_ionic": null, "e_electronic": null, "n": null, "e_ij_max": null, "weighted_surface_energy_EV_PER_ANG2": null, "weighted_surface_energy": null, "weighted_work_function": null, "surface_anisotropy": null, "shape_factor": null, "has_reconstructed": null, "possible_species": null, "has_props": null, "theoretical": null, "database_IDs": null, "fields_not_requested": ["builder_meta", "nsites", "elements", "nelements", "composition", "composition_reduced", "chemsys", "symmetry", "property_name", "deprecated", "deprecation_reasons", "last_updated", "origins", "warnings", "task_ids", "uncorrected_energy_per_atom", "equilibrium_reaction_energy_per_atom", "decomposes_to", "xas", "grain_boundaries", "cbm", "vbm", "is_gap_direct", "is_metal", "es_source_calc_id", "bandstructure", "dos", "dos_energy_up", "dos_energy_down", "is_magnetic", "ordering", "total_magnetization_normalized_vol", "total_magnetization_normalized_formula_units", "num_magnetic_sites", "num_unique_magnetic_sites", "types_of_magnetic_species", "bulk_modulus", "shear_modulus", "universal_anisotropy", "homogeneous_poisson", "e_total", "e_ionic", "e_electronic", "n", "e_ij_max", "weighted_surface_energy_EV_PER_ANG2", "weighted_surface_energy", "weighted_work_function", "surface_anisotropy", "shape_factor", "has_reconstructed", "possible_species", "has_props", "theoretical", "database_IDs"]}