{"builder_meta": null, "nsites": null, "elements": null, "nelements": null, "composition": null, "composition_reduced": null, "formula_pretty": "Dy2Te3", "formula_anonymous": "A2B3", "chemsys": null, "volume": 703.1352165530799, "density": 6.686222073194957, "density_atomic": 35.156760827654, "symmetry": null, "property_name": null, "material_id": "mp-1188427", "deprecated": null, "deprecation_reasons": null, "last_updated": null, "origins": null, "warnings": null, "structure": {"@module": "pymatgen.core.structure", "@class": "Structure", "charge": 0, "lattice": {"matrix": [[6.15887085, 4.36831426, -0.0], [-6.15887085, 4.36831426, -0.0], [0.0, -4.36831426, 13.06754135]], "pbc": [true, true, true], "a": 7.550752255311988, "b": 7.550752255311988, "c": 13.778345561353845, "alpha": 100.56887541990798, "beta": 100.56887541990798, "gamma": 109.30598364965522, "volume": 703.1352165530799}, "properties": {}, "sites": [{"species": [{"element": "Dy", "occu": 1}], "abc": [0.70813758, 0.95813758, 0.9162761500000001], "properties": {"magmom": 0.0}, "label": "Dy", "xyz": [-1.5397177125, 3.2762313703688832, 11.973476478143803]}, {"species": [{"element": "Dy", "occu": 1}], "abc": [0.5418624200000001, 0.7918624200000001, 0.58372385], "properties": {"magmom": 0.0}, "label": "Dy", "xyz": [-1.5397177125000003, 3.276240019631118, 7.627835546856199]}, {"species": [{"element": "Dy", "occu": 1}], "abc": [0.29186242, 0.04186242, 0.08372385], "properties": {"magmom": 0.0}, "label": "Dy", "xyz": [1.5397177125000001, 1.0920828896311172, 1.0940648718561976]}, {"species": [{"element": "Dy", "occu": 1}], "abc": [0.45813758, 0.20813758000000002, 0.41627615], "properties": {"magmom": 0.0}, "label": "Dy", "xyz": [1.5397177125, 1.0920742403688826, 5.439705803143803]}, {"species": [{"element": "Dy", "occu": 1}], "abc": [0.37414962, 0.62414962, 0.24830124], "properties": {"magmom": -0.0}, "label": "Dy", "xyz": [-1.5397177124999994, 3.2762269583714803, 3.2446867209562744]}, {"species": [{"element": "Dy", "occu": 1}], "abc": [0.87585038, 0.12585038, 0.25169876], "properties": {"magmom": -0.0}, "label": "Dy", "xyz": [4.619153137500001, 3.27624443162852, 3.2890839540437264]}, {"species": [{"element": "Dy", "occu": 1}], "abc": [0.62585038, 0.37585038, 0.75169876], "properties": {"magmom": -0.0}, "label": "Dy", "xyz": [1.5397177125000003, 1.0920873016285193, 9.822854629043727]}, {"species": [{"element": "Dy", "occu": 1}], "abc": [0.12414962, 0.8741496200000001, 0.74830124], "properties": {"magmom": -0.0}, "label": "Dy", "xyz": [-4.6191531375, 1.0920698283714807, 9.778457395956274]}, {"species": [{"element": "Te", "occu": 1}], "abc": [0.87441662, 0.12441662, 0.75], "properties": {"magmom": -0.0}, "label": "Te", "xyz": [4.6191531375, 1.086981790654003, 9.800656012500001]}, {"species": [{"element": "Te", "occu": 1}], "abc": [0.37558338, 0.62558338, 0.75], "properties": {"magmom": -0.0}, "label": "Te", "xyz": [-1.5397177125, 1.097175339345998, 9.800656012500001]}, {"species": [{"element": "Te", "occu": 1}], "abc": [0.12558338, 0.87558338, 0.25], "properties": {"magmom": -0.0}, "label": "Te", "xyz": [-4.6191531375, 3.281332469345997, 3.2668853375]}, {"species": [{"element": "Te", "occu": 1}], "abc": [0.62441662, 0.37441662000000003, 0.25], "properties": {"magmom": -0.0}, "label": "Te", "xyz": [1.5397177125, 3.271138920654003, 3.2668853375]}, {"species": [{"element": "Te", "occu": 1}], "abc": [0.54435872, 0.79586168, 0.08493962000000001], "properties": {"magmom": -0.0}, "label": "Te", "xyz": [-1.548974249032716, 5.483460931577923, 1.1099519966032871]}, {"species": [{"element": "Te", "occu": 1}], "abc": [0.70413832, 0.95564128, 0.41506038], "properties": {"magmom": -0.0}, "label": "Te", "xyz": [-1.5489742490327165, 5.437324718422078, 5.423818678396714]}, {"species": [{"element": "Te", "occu": 1}], "abc": [0.21092206, 0.4594181, 0.41506038], "properties": {"magmom": -0.0}, "label": "Te", "xyz": [-1.530455017096434, 1.1151423032636627, 5.423818678396714]}, {"species": [{"element": "Te", "occu": 1}], "abc": [0.0405819, 0.28907794000000003, 0.08493962000000001], "properties": {"magmom": -0.0}, "label": "Te", "xyz": [-1.5304550170964342, 1.0690148267363373, 1.1099519966032871]}, {"species": [{"element": "Te", "occu": 1}], "abc": [0.45564128, 0.20413832, 0.91506038], "properties": {"magmom": -0.0}, "label": "Te", "xyz": [1.5489742490327156, -1.1151466715779228, 11.957589353396713]}, {"species": [{"element": "Te", "occu": 1}], "abc": [0.29586168, 0.044358720000000004, 0.58493962], "properties": {"magmom": -0.0}, "label": "Te", "xyz": [1.548974249032716, -1.0690104584220772, 7.643722671603287]}, {"species": [{"element": "Te", "occu": 1}], "abc": [0.78907794, 0.5405819, 0.58493962], "properties": {"magmom": -0.0}, "label": "Te", "xyz": [1.530455017096434, 3.253171956736337, 7.643722671603287]}, {"species": [{"element": "Te", "occu": 1}], "abc": [0.959418099999999, 0.71092206, 0.91506038], "properties": {"magmom": -0.0}, "label": "Te", "xyz": [1.5304550170964273, 3.2992994332636587, 11.957589353396713]}]}, "task_ids": null, "uncorrected_energy_per_atom": null, "energy_per_atom": -29.724184564, "formation_energy_per_atom": -1.6811286880000011, "energy_above_hull": 0.0, "is_stable": true, "equilibrium_reaction_energy_per_atom": null, "decomposes_to": null, "xas": null, "grain_boundaries": null, "band_gap": 0.5488000000000001, "cbm": null, "vbm": null, "efermi": 3.69029917, "is_gap_direct": null, "is_metal": null, "es_source_calc_id": null, "bandstructure": null, "dos": null, "dos_energy_up": null, "dos_energy_down": null, "is_magnetic": null, "ordering": null, "total_magnetization": 0.0, "total_magnetization_normalized_vol": null, "total_magnetization_normalized_formula_units": null, "num_magnetic_sites": null, "num_unique_magnetic_sites": null, "types_of_magnetic_species": null, "bulk_modulus": null, "shear_modulus": null, "universal_anisotropy": null, "homogeneous_poisson": null, "e_total": null, "e_ionic": null, "e_electronic": null, "n": null, "e_ij_max": null, "weighted_surface_energy_EV_PER_ANG2": null, "weighted_surface_energy": null, "weighted_work_function": null, "surface_anisotropy": null, "shape_factor": null, "has_reconstructed": null, "possible_species": null, "has_props": null, "theoretical": null, "database_IDs": null, "fields_not_requested": ["builder_meta", "nsites", "elements", "nelements", "composition", "composition_reduced", "chemsys", "symmetry", "property_name", "deprecated", "deprecation_reasons", "last_updated", "origins", "warnings", "task_ids", "uncorrected_energy_per_atom", "equilibrium_reaction_energy_per_atom", "decomposes_to", "xas", "grain_boundaries", "cbm", "vbm", "is_gap_direct", "is_metal", "es_source_calc_id", "bandstructure", "dos", "dos_energy_up", "dos_energy_down", "is_magnetic", "ordering", "total_magnetization_normalized_vol", "total_magnetization_normalized_formula_units", "num_magnetic_sites", "num_unique_magnetic_sites", "types_of_magnetic_species", "bulk_modulus", "shear_modulus", "universal_anisotropy", "homogeneous_poisson", "e_total", "e_ionic", "e_electronic", "n", "e_ij_max", "weighted_surface_energy_EV_PER_ANG2", "weighted_surface_energy", "weighted_work_function", "surface_anisotropy", "shape_factor", "has_reconstructed", "possible_species", "has_props", "theoretical", "database_IDs"]}