{"builder_meta": null, "nsites": null, "elements": null, "nelements": null, "composition": null, "composition_reduced": null, "formula_pretty": "Dy2Te5", "formula_anonymous": "A2B5", "chemsys": null, "volume": 419.94430639957324, "density": 7.615767599498164, "density_atomic": 29.996021885683803, "symmetry": null, "property_name": null, "material_id": "mp-1103932", "deprecated": null, "deprecation_reasons": null, "last_updated": null, "origins": null, "warnings": null, "structure": {"@module": "pymatgen.core.structure", "@class": "Structure", "charge": 0, "lattice": {"matrix": [[2.185586, -21.965683, 0.0], [2.185586, 21.965683, 0.0], [0.0, 0.0, 4.373701]], "pbc": [true, true, true], "a": 22.074148133504156, "b": 22.074148133504156, "c": 4.373701, "alpha": 90.0, "beta": 90.0, "gamma": 168.6355422261853, "volume": 419.94430639957324}, "properties": {}, "sites": [{"species": [{"element": "Dy", "occu": 1}], "abc": [0.098028999999999, 0.901971, 0.75], "properties": {"magmom": -0.0}, "label": "Dy", "xyz": [2.1855859999999976, 17.65913512238602, 3.2802757499999995]}, {"species": [{"element": "Dy", "occu": 1}], "abc": [0.901971, 0.098028999999999, 0.25], "properties": {"magmom": -0.0}, "label": "Dy", "xyz": [2.1855859999999976, -17.65913512238602, 1.09342525]}, {"species": [{"element": "Dy", "occu": 1}], "abc": [0.307315, 0.692685, 0.75], "properties": {"magmom": 0.0}, "label": "Dy", "xyz": [2.185586, 8.46491525771, 3.2802757499999995]}, {"species": [{"element": "Dy", "occu": 1}], "abc": [0.692685, 0.307315, 0.25], "properties": {"magmom": 0.0}, "label": "Dy", "xyz": [2.185586, -8.46491525771, 1.09342525]}, {"species": [{"element": "Te", "occu": 1}], "abc": [0.9584300000000001, 0.04157, 0.75], "properties": {"magmom": -0.001}, "label": "Te", "xyz": [2.1855860000000003, -20.139456115380003, 3.2802757499999995]}, {"species": [{"element": "Te", "occu": 1}], "abc": [0.04157, 0.9584300000000001, 0.25], "properties": {"magmom": -0.001}, "label": "Te", "xyz": [2.1855860000000003, 20.139456115380003, 1.09342525]}, {"species": [{"element": "Te", "occu": 1}], "abc": [0.541774, 0.458225999999999, 0.75], "properties": {"magmom": -0.001}, "label": "Te", "xyz": [2.1855859999999976, -1.8351888832840206, 3.2802757499999995]}, {"species": [{"element": "Te", "occu": 1}], "abc": [0.458225999999999, 0.541774, 0.25], "properties": {"magmom": -0.001}, "label": "Te", "xyz": [2.1855859999999976, 1.8351888832840206, 1.09342525]}, {"species": [{"element": "Te", "occu": 1}], "abc": [0.749996999999999, 0.250003, 0.75], "properties": {"magmom": 0.002}, "label": "Te", "xyz": [2.1855859999999976, -10.982709705901977, 3.2802757499999995]}, {"species": [{"element": "Te", "occu": 1}], "abc": [0.250003, 0.749996999999999, 0.25], "properties": {"magmom": 0.002}, "label": "Te", "xyz": [2.1855859999999976, 10.982709705901977, 1.09342525]}, {"species": [{"element": "Te", "occu": 1}], "abc": [0.172467999999999, 0.827531999999999, 0.75], "properties": {"magmom": 0.0}, "label": "Te", "xyz": [2.1855859999999954, 14.388928168711999, 3.2802757499999995]}, {"species": [{"element": "Te", "occu": 1}], "abc": [0.827531999999999, 0.172467999999999, 0.25], "properties": {"magmom": 0.0}, "label": "Te", "xyz": [2.1855859999999954, -14.388928168711999, 1.09342525]}, {"species": [{"element": "Te", "occu": 1}], "abc": [0.379895999999999, 0.620104, 0.75], "properties": {"magmom": 0.0}, "label": "Te", "xyz": [2.1855859999999976, 5.276332782064021, 3.2802757499999995]}, {"species": [{"element": "Te", "occu": 1}], "abc": [0.620104, 0.379895999999999, 0.25], "properties": {"magmom": 0.0}, "label": "Te", "xyz": [2.1855859999999976, -5.276332782064021, 1.09342525]}]}, "task_ids": null, "uncorrected_energy_per_atom": null, "energy_per_atom": -28.432616555714286, "formation_energy_per_atom": -1.139798270000004, "energy_above_hull": 0.061007935714286005, "is_stable": false, "equilibrium_reaction_energy_per_atom": null, "decomposes_to": null, "xas": null, "grain_boundaries": null, "band_gap": 0.0, "cbm": null, "vbm": null, "efermi": 6.03297013, "is_gap_direct": null, "is_metal": null, "es_source_calc_id": null, "bandstructure": null, "dos": null, "dos_energy_up": null, "dos_energy_down": null, "is_magnetic": null, "ordering": null, "total_magnetization": 0.0051245, "total_magnetization_normalized_vol": null, "total_magnetization_normalized_formula_units": null, "num_magnetic_sites": null, "num_unique_magnetic_sites": null, "types_of_magnetic_species": null, "bulk_modulus": null, "shear_modulus": null, "universal_anisotropy": null, "homogeneous_poisson": null, "e_total": null, "e_ionic": null, "e_electronic": null, "n": null, "e_ij_max": null, "weighted_surface_energy_EV_PER_ANG2": null, "weighted_surface_energy": null, "weighted_work_function": null, "surface_anisotropy": null, "shape_factor": null, "has_reconstructed": null, "possible_species": null, "has_props": null, "theoretical": null, "database_IDs": null, "fields_not_requested": ["builder_meta", "nsites", "elements", "nelements", "composition", "composition_reduced", "chemsys", "symmetry", "property_name", "deprecated", "deprecation_reasons", "last_updated", "origins", "warnings", "task_ids", "uncorrected_energy_per_atom", "equilibrium_reaction_energy_per_atom", "decomposes_to", "xas", "grain_boundaries", "cbm", "vbm", "is_gap_direct", "is_metal", "es_source_calc_id", "bandstructure", "dos", "dos_energy_up", "dos_energy_down", "is_magnetic", "ordering", "total_magnetization_normalized_vol", "total_magnetization_normalized_formula_units", "num_magnetic_sites", "num_unique_magnetic_sites", "types_of_magnetic_species", "bulk_modulus", "shear_modulus", "universal_anisotropy", "homogeneous_poisson", "e_total", "e_ionic", "e_electronic", "n", "e_ij_max", "weighted_surface_energy_EV_PER_ANG2", "weighted_surface_energy", "weighted_work_function", "surface_anisotropy", "shape_factor", "has_reconstructed", "possible_species", "has_props", "theoretical", "database_IDs"]}