{
  "builder_meta": null,
  "nsites": null,
  "elements": null,
  "nelements": null,
  "composition": null,
  "composition_reduced": null,
  "formula_pretty": "Dy2Te",
  "formula_anonymous": "AB2",
  "chemsys": null,
  "volume": 1034.788500844273,
  "density": 8.715519906879175,
  "density_atomic": 28.744125023452025,
  "symmetry": null,
  "property_name": null,
  "material_id": "mp-505682",
  "deprecated": null,
  "deprecation_reasons": null,
  "last_updated": null,
  "origins": null,
  "warnings": null,
  "structure": {
    "@module": "pymatgen.core.structure",
    "@class": "Structure",
    "charge": 0,
    "lattice": {
      "matrix": [
        [4.07344325, -0.0, 0.0],
        [-0.0, 11.505446, 0.0],
        [0.0, 0.0, 22.07935922]
      ],
      "pbc": [true, true, true],
      "a": 4.07344325,
      "b": 11.505446,
      "c": 22.07935922,
      "alpha": 90.0,
      "beta": 90.0,
      "gamma": 90.0,
      "volume": 1034.788500844273
    },
    "properties": {},
    "sites": [
      {
        "species": [{ "element": "Dy", "occu": 1 }],
        "abc": [0.25, 0.14880439, 0.39124668],
        "properties": { "magmom": 0.132 },
        "label": "Dy",
        "xyz": [1.0183608125, 1.71206087370794, 8.63847599135239]
      },
      {
        "species": [{ "element": "Dy", "occu": 1 }],
        "abc": [0.75, 0.85119561, 0.60875332],
        "properties": { "magmom": 0.132 },
        "label": "Dy",
        "xyz": [3.0550824375000003, 9.793385126292058, 13.440883228647612]
      },
      {
        "species": [{ "element": "Dy", "occu": 1 }],
        "abc": [0.75, 0.64880439, 0.10875332],
        "properties": { "magmom": 0.132 },
        "label": "Dy",
        "xyz": [3.0550824375000003, 7.4647838737079395, 2.4012036186476107]
      },
      {
        "species": [{ "element": "Dy", "occu": 1 }],
        "abc": [0.25, 0.35119561, 0.8912466800000001],
        "properties": { "magmom": 0.132 },
        "label": "Dy",
        "xyz": [1.0183608125, 4.04066212629206, 19.67815560135239]
      },
      {
        "species": [{ "element": "Dy", "occu": 1 }],
        "abc": [0.25, 0.45272995, 0.33999012],
        "properties": { "magmom": 0.155 },
        "label": "Dy",
        "xyz": [1.0183608125, 5.2088599923076995, 7.5067639907309065]
      },
      {
        "species": [{ "element": "Dy", "occu": 1 }],
        "abc": [0.75, 0.5472700500000001, 0.66000988],
        "properties": { "magmom": 0.155 },
        "label": "Dy",
        "xyz": [3.0550824375000003, 6.296586007692301, 14.572595229269096]
      },
      {
        "species": [{ "element": "Dy", "occu": 1 }],
        "abc": [0.75, 0.95272995, 0.16000988],
        "properties": { "magmom": 0.155 },
        "label": "Dy",
        "xyz": [3.0550824375000003, 10.961582992307699, 3.5329156192690934]
      },
      {
        "species": [{ "element": "Dy", "occu": 1 }],
        "abc": [0.25, 0.04727005, 0.8399901200000001],
        "properties": { "magmom": 0.155 },
        "label": "Dy",
        "xyz": [1.0183608125, 0.5438630076923, 18.546443600730907]
      },
      {
        "species": [{ "element": "Dy", "occu": 1 }],
        "abc": [0.25, 0.72921237, 0.23301959],
        "properties": { "magmom": 0.129 },
        "label": "Dy",
        "xyz": [1.0183608125, 8.38991354556702, 5.14492323290712]
      },
      {
        "species": [{ "element": "Dy", "occu": 1 }],
        "abc": [0.75, 0.27078763, 0.7669804100000001],
        "properties": { "magmom": 0.129 },
        "label": "Dy",
        "xyz": [3.0550824375000003, 3.1155324544329797, 16.934435987092883]
      },
      {
        "species": [{ "element": "Dy", "occu": 1 }],
        "abc": [0.75, 0.22921237, 0.26698041],
        "properties": { "magmom": 0.129 },
        "label": "Dy",
        "xyz": [3.0550824375000003, 2.63719054556702, 5.894756377092881]
      },
      {
        "species": [{ "element": "Dy", "occu": 1 }],
        "abc": [0.25, 0.7707876300000001, 0.73301959],
        "properties": { "magmom": 0.129 },
        "label": "Dy",
        "xyz": [1.0183608125, 8.86825545443298, 16.184602842907122]
      },
      {
        "species": [{ "element": "Dy", "occu": 1 }],
        "abc": [0.25, 0.11433421, 0.03389548],
        "properties": { "magmom": 0.10300000000000001 },
        "label": "Dy",
        "xyz": [1.0183608125, 1.31546607910766, 0.7483904788543256]
      },
      {
        "species": [{ "element": "Dy", "occu": 1 }],
        "abc": [0.75, 0.88566579, 0.96610452],
        "properties": { "magmom": 0.10300000000000001 },
        "label": "Dy",
        "xyz": [3.0550824375000003, 10.18997992089234, 21.330968741145675]
      },
      {
        "species": [{ "element": "Dy", "occu": 1 }],
        "abc": [0.75, 0.61433421, 0.46610452],
        "properties": { "magmom": 0.10300000000000001 },
        "label": "Dy",
        "xyz": [3.0550824375000003, 7.068189079107659, 10.291289131145675]
      },
      {
        "species": [{ "element": "Dy", "occu": 1 }],
        "abc": [0.25, 0.38566579, 0.53389548],
        "properties": { "magmom": 0.10300000000000001 },
        "label": "Dy",
        "xyz": [1.0183608125, 4.43725692089234, 11.788070088854326]
      },
      {
        "species": [{ "element": "Dy", "occu": 1 }],
        "abc": [0.25, 0.41271274, 0.14578299],
        "properties": { "magmom": 0.048 },
        "label": "Dy",
        "xyz": [1.0183608125, 4.74844414358204, 3.218795004375668]
      },
      {
        "species": [{ "element": "Dy", "occu": 1 }],
        "abc": [0.75, 0.58728726, 0.85421701],
        "properties": { "magmom": 0.048 },
        "label": "Dy",
        "xyz": [3.0550824375000003, 6.7570018564179595, 18.860564215624333]
      },
      {
        "species": [{ "element": "Dy", "occu": 1 }],
        "abc": [0.75, 0.91271274, 0.35421701],
        "properties": { "magmom": 0.048 },
        "label": "Dy",
        "xyz": [3.0550824375000003, 10.50116714358204, 7.820884605624332]
      },
      {
        "species": [{ "element": "Dy", "occu": 1 }],
        "abc": [0.25, 0.08728726, 0.6457829900000001],
        "properties": { "magmom": 0.048 },
        "label": "Dy",
        "xyz": [1.0183608125, 1.0042788564179599, 14.25847461437567]
      },
      {
        "species": [{ "element": "Dy", "occu": 1 }],
        "abc": [0.25, 0.61265578, 0.98313724],
        "properties": { "magmom": 0.28600000000000003 },
        "label": "Dy",
        "xyz": [1.0183608125, 7.04887799337788, 21.707040284519355]
      },
      {
        "species": [{ "element": "Dy", "occu": 1 }],
        "abc": [0.75, 0.38734422, 0.01686276],
        "properties": { "magmom": 0.28600000000000003 },
        "label": "Dy",
        "xyz": [3.0550824375000003, 4.45656800662212, 0.3723189354806472]
      },
      {
        "species": [{ "element": "Dy", "occu": 1 }],
        "abc": [0.75, 0.11265578, 0.51686276],
        "properties": { "magmom": 0.28600000000000003 },
        "label": "Dy",
        "xyz": [3.0550824375000003, 1.29615499337788, 11.411998545480648]
      },
      {
        "species": [{ "element": "Dy", "occu": 1 }],
        "abc": [0.25, 0.88734422, 0.48313724],
        "properties": { "magmom": 0.28600000000000003 },
        "label": "Dy",
        "xyz": [1.0183608125, 10.20929100662212, 10.667360674519353]
      },
      {
        "species": [{ "element": "Te", "occu": 1 }],
        "abc": [0.25, 0.8493574700000001, 0.06912253],
        "properties": { "magmom": -0.007 },
        "label": "Te",
        "xyz": [1.0183608125, 9.77223650578162, 1.5261811700652266]
      },
      {
        "species": [{ "element": "Te", "occu": 1 }],
        "abc": [0.75, 0.15064253, 0.93087747],
        "properties": { "magmom": -0.007 },
        "label": "Te",
        "xyz": [3.0550824375000003, 1.7332094942183798, 20.553178049934775]
      },
      {
        "species": [{ "element": "Te", "occu": 1 }],
        "abc": [0.75, 0.34935747, 0.43087747],
        "properties": { "magmom": -0.007 },
        "label": "Te",
        "xyz": [3.0550824375000003, 4.01951350578162, 9.513498439934773]
      },
      {
        "species": [{ "element": "Te", "occu": 1 }],
        "abc": [0.25, 0.65064253, 0.56912253],
        "properties": { "magmom": -0.007 },
        "label": "Te",
        "xyz": [1.0183608125, 7.48593249421838, 12.565860780065227]
      },
      {
        "species": [{ "element": "Te", "occu": 1 }],
        "abc": [0.25, 0.70933574, 0.37287283],
        "properties": { "magmom": -0.007 },
        "label": "Te",
        "xyz": [1.0183608125, 8.161224052440039, 8.232793156947993]
      },
      {
        "species": [{ "element": "Te", "occu": 1 }],
        "abc": [0.75, 0.29066426, 0.6271271700000001],
        "properties": { "magmom": -0.007 },
        "label": "Te",
        "xyz": [3.0550824375000003, 3.34422194755996, 13.846566063052009]
      },
      {
        "species": [{ "element": "Te", "occu": 1 }],
        "abc": [0.75, 0.20933574, 0.12712717],
        "properties": { "magmom": -0.007 },
        "label": "Te",
        "xyz": [3.0550824375000003, 2.4085010524400396, 2.806886453052008]
      },
      {
        "species": [{ "element": "Te", "occu": 1 }],
        "abc": [0.25, 0.79066426, 0.87287283],
        "properties": { "magmom": -0.007 },
        "label": "Te",
        "xyz": [1.0183608125, 9.09694494755996, 19.272472766947995]
      },
      {
        "species": [{ "element": "Te", "occu": 1 }],
        "abc": [0.25, 0.01529266, 0.26116714],
        "properties": { "magmom": -0.002 },
        "label": "Te",
        "xyz": [1.0183608125, 0.17594887382635999, 5.766403100520032]
      },
      {
        "species": [{ "element": "Te", "occu": 1 }],
        "abc": [0.75, 0.98470734, 0.73883286],
        "properties": { "magmom": -0.002 },
        "label": "Te",
        "xyz": [3.0550824375000003, 11.32949712617364, 16.31295611947997]
      },
      {
        "species": [{ "element": "Te", "occu": 1 }],
        "abc": [0.75, 0.51529266, 0.23883286],
        "properties": { "magmom": -0.002 },
        "label": "Te",
        "xyz": [3.0550824375000003, 5.928671873826359, 5.273276509479969]
      },
      {
        "species": [{ "element": "Te", "occu": 1 }],
        "abc": [0.25, 0.48470734, 0.76116714],
        "properties": { "magmom": -0.002 },
        "label": "Te",
        "xyz": [1.0183608125, 5.57677412617364, 16.80608271052003]
      }
    ]
  },
  "task_ids": null,
  "uncorrected_energy_per_atom": null,
  "energy_per_atom": -30.82177989638889,
  "formation_energy_per_atom": -1.028169643055554,
  "energy_above_hull": 0.0,
  "is_stable": true,
  "equilibrium_reaction_energy_per_atom": null,
  "decomposes_to": null,
  "xas": null,
  "grain_boundaries": null,
  "band_gap": 0.0,
  "cbm": null,
  "vbm": null,
  "efermi": 5.34890666,
  "is_gap_direct": null,
  "is_metal": null,
  "es_source_calc_id": null,
  "bandstructure": null,
  "dos": null,
  "dos_energy_up": null,
  "dos_energy_down": null,
  "is_magnetic": null,
  "ordering": null,
  "total_magnetization": 5.0492479,
  "total_magnetization_normalized_vol": null,
  "total_magnetization_normalized_formula_units": null,
  "num_magnetic_sites": null,
  "num_unique_magnetic_sites": null,
  "types_of_magnetic_species": null,
  "bulk_modulus": null,
  "shear_modulus": null,
  "universal_anisotropy": null,
  "homogeneous_poisson": null,
  "e_total": null,
  "e_ionic": null,
  "e_electronic": null,
  "n": null,
  "e_ij_max": null,
  "weighted_surface_energy_EV_PER_ANG2": null,
  "weighted_surface_energy": null,
  "weighted_work_function": null,
  "surface_anisotropy": null,
  "shape_factor": null,
  "has_reconstructed": null,
  "possible_species": null,
  "has_props": null,
  "theoretical": null,
  "database_IDs": null,
  "fields_not_requested": [
    "builder_meta",
    "nsites",
    "elements",
    "nelements",
    "composition",
    "composition_reduced",
    "chemsys",
    "symmetry",
    "property_name",
    "deprecated",
    "deprecation_reasons",
    "last_updated",
    "origins",
    "warnings",
    "task_ids",
    "uncorrected_energy_per_atom",
    "equilibrium_reaction_energy_per_atom",
    "decomposes_to",
    "xas",
    "grain_boundaries",
    "cbm",
    "vbm",
    "is_gap_direct",
    "is_metal",
    "es_source_calc_id",
    "bandstructure",
    "dos",
    "dos_energy_up",
    "dos_energy_down",
    "is_magnetic",
    "ordering",
    "total_magnetization_normalized_vol",
    "total_magnetization_normalized_formula_units",
    "num_magnetic_sites",
    "num_unique_magnetic_sites",
    "types_of_magnetic_species",
    "bulk_modulus",
    "shear_modulus",
    "universal_anisotropy",
    "homogeneous_poisson",
    "e_total",
    "e_ionic",
    "e_electronic",
    "n",
    "e_ij_max",
    "weighted_surface_energy_EV_PER_ANG2",
    "weighted_surface_energy",
    "weighted_work_function",
    "surface_anisotropy",
    "shape_factor",
    "has_reconstructed",
    "possible_species",
    "has_props",
    "theoretical",
    "database_IDs"
  ]
}
