{
  "builder_meta": null,
  "nsites": null,
  "elements": null,
  "nelements": null,
  "composition": null,
  "composition_reduced": null,
  "formula_pretty": "Dy3Al2",
  "formula_anonymous": "A2B3",
  "chemsys": null,
  "volume": 511.54457373750495,
  "density": 7.030633410831005,
  "density_atomic": 25.577228686875248,
  "symmetry": null,
  "property_name": null,
  "material_id": "mp-571624",
  "deprecated": null,
  "deprecation_reasons": null,
  "last_updated": null,
  "origins": null,
  "warnings": null,
  "structure": {
    "@module": "pymatgen.core.structure",
    "@class": "Structure",
    "charge": 0,
    "lattice": {
      "matrix": [
        [7.62235088, 0.0, 0.0],
        [0.0, 8.19213825, -0.00018817],
        [0.0, -0.00018817, 8.19213825]
      ],
      "pbc": [true, true, true],
      "a": 7.62235088,
      "b": 8.192138252161092,
      "c": 8.192138252161092,
      "alpha": 90.00263212033295,
      "beta": 90.0,
      "gamma": 90.0,
      "volume": 511.54457373750495
    },
    "properties": {},
    "sites": [
      {
        "species": [{ "element": "Dy", "occu": 1 }],
        "abc": [0.5062021800000001, 0.0, 0.5],
        "properties": { "magmom": -0.0 },
        "label": "Dy",
        "xyz": [3.8584506321809187, -9.4085e-5, 4.096069125]
      },
      {
        "species": [{ "element": "Dy", "occu": 1 }],
        "abc": [0.75618621, 0.34922171, 0.65077829],
        "properties": { "magmom": 0.0 },
        "label": "Dy",
        "xyz": [5.763916623237365, 2.8607500712705782, 5.331200008729421]
      },
      {
        "species": [{ "element": "Dy", "occu": 1 }],
        "abc": [0.5062021800000001, 0.5, -0.0],
        "properties": { "magmom": -0.0 },
        "label": "Dy",
        "xyz": [3.8584506321809187, 4.096069125, -9.4085e-5]
      },
      {
        "species": [{ "element": "Dy", "occu": 1 }],
        "abc": [0.25620654, 0.70171547, 0.29828453],
        "properties": { "magmom": 0.0 },
        "label": "Dy",
        "xyz": [1.952896145630755, 5.748494014203716, 2.4434560657962825]
      },
      {
        "species": [{ "element": "Dy", "occu": 1 }],
        "abc": [0.75620615, 0.20173402000000001, 0.20173402000000001],
        "properties": { "magmom": 0.0 },
        "label": "Dy",
        "xyz": [5.7640686129139125, 1.6525950212777216, 1.6525950212777216]
      },
      {
        "species": [{ "element": "Dy", "occu": 1 }],
        "abc": [0.00618283, 0.0, 0.5],
        "properties": { "magmom": -0.0 },
        "label": "Dy",
        "xyz": [0.0471276996913904, -9.4085e-5, 4.096069125]
      },
      {
        "species": [{ "element": "Dy", "occu": 1 }],
        "abc": [0.25618914, 0.15079524, 0.15079524],
        "properties": { "magmom": 0.0 },
        "label": "Dy",
        "xyz": [1.9527635167254431, 1.2353070783816191, 1.2353070783816191]
      },
      {
        "species": [{ "element": "Dy", "occu": 1 }],
        "abc": [0.25620654, 0.29828453, 0.70171547],
        "properties": { "magmom": 0.0 },
        "label": "Dy",
        "xyz": [1.952896145630755, 2.4434560657962825, 5.748494014203716]
      },
      {
        "species": [{ "element": "Dy", "occu": 1 }],
        "abc": [0.00618283, 0.5, -0.0],
        "properties": { "magmom": -0.0 },
        "label": "Dy",
        "xyz": [0.0471276996913904, 4.096069125, -9.4085e-5]
      },
      {
        "species": [{ "element": "Dy", "occu": 1 }],
        "abc": [0.25618914, 0.84920476, 0.84920476],
        "properties": { "magmom": 0.0 },
        "label": "Dy",
        "xyz": [1.9527635167254431, 6.95664300161838, 6.95664300161838]
      },
      {
        "species": [{ "element": "Dy", "occu": 1 }],
        "abc": [0.75620615, 0.79826598, 0.79826598],
        "properties": { "magmom": 0.0 },
        "label": "Dy",
        "xyz": [5.7640686129139125, 6.539355058722278, 6.539355058722278]
      },
      {
        "species": [{ "element": "Dy", "occu": 1 }],
        "abc": [0.75618621, 0.65077829, 0.34922171],
        "properties": { "magmom": 0.0 },
        "label": "Dy",
        "xyz": [5.763916623237365, 5.331200008729421, 2.8607500712705782]
      },
      {
        "species": [{ "element": "Al", "occu": 1 }],
        "abc": [0.060997340000000004, 0.61831775, 0.61831775],
        "properties": { "magmom": -0.0 },
        "label": "Al",
        "xyz": [0.46494312822665923, 5.0652281415779195, 5.0652281415779195]
      },
      {
        "species": [{ "element": "Al", "occu": 1 }],
        "abc": [0.45141616, 0.61831534, 0.61831534],
        "properties": { "magmom": -0.0 },
        "label": "Al",
        "xyz": [3.440852364422221, 5.065208398978227, 5.065208398978227]
      },
      {
        "species": [{ "element": "Al", "occu": 1 }],
        "abc": [0.56101201, 0.88167397, 0.11832603],
        "properties": { "magmom": -0.0 },
        "label": "Al",
        "xyz": [4.276230388114069, 7.222772788257287, 0.9691772917427125]
      },
      {
        "species": [{ "element": "Al", "occu": 1 }],
        "abc": [0.95139944, 0.8816761, 0.1183239],
        "properties": { "magmom": -0.0 },
        "label": "Al",
        "xyz": [7.251900358715507, 7.2227902379125615, 0.9691598420874379]
      },
      {
        "species": [{ "element": "Al", "occu": 1 }],
        "abc": [0.060997340000000004, 0.38168225, 0.38168225],
        "properties": { "magmom": -0.0 },
        "label": "Al",
        "xyz": [0.46494312822665923, 3.12672193842208, 3.12672193842208]
      },
      {
        "species": [{ "element": "Al", "occu": 1 }],
        "abc": [0.95139944, 0.1183239, 0.8816761],
        "properties": { "magmom": -0.0 },
        "label": "Al",
        "xyz": [7.251900358715507, 0.9691598420874379, 7.2227902379125615]
      },
      {
        "species": [{ "element": "Al", "occu": 1 }],
        "abc": [0.56101201, 0.11832603, 0.88167397],
        "properties": { "magmom": -0.0 },
        "label": "Al",
        "xyz": [4.276230388114069, 0.9691772917427125, 7.222772788257287]
      },
      {
        "species": [{ "element": "Al", "occu": 1 }],
        "abc": [0.45141616, 0.38168466, 0.38168466],
        "properties": { "magmom": -0.0 },
        "label": "Al",
        "xyz": [3.440852364422221, 3.1267416810217727, 3.1267416810217727]
      }
    ]
  },
  "task_ids": null,
  "uncorrected_energy_per_atom": null,
  "energy_per_atom": -22.2596596925,
  "formation_energy_per_atom": -0.37773842549999803,
  "energy_above_hull": 0.021736456499997003,
  "is_stable": false,
  "equilibrium_reaction_energy_per_atom": null,
  "decomposes_to": null,
  "xas": null,
  "grain_boundaries": null,
  "band_gap": 0.0,
  "cbm": null,
  "vbm": null,
  "efermi": 4.03666411,
  "is_gap_direct": null,
  "is_metal": null,
  "es_source_calc_id": null,
  "bandstructure": null,
  "dos": null,
  "dos_energy_up": null,
  "dos_energy_down": null,
  "is_magnetic": null,
  "ordering": null,
  "total_magnetization": 5.6300000000000006e-5,
  "total_magnetization_normalized_vol": null,
  "total_magnetization_normalized_formula_units": null,
  "num_magnetic_sites": null,
  "num_unique_magnetic_sites": null,
  "types_of_magnetic_species": null,
  "bulk_modulus": null,
  "shear_modulus": null,
  "universal_anisotropy": null,
  "homogeneous_poisson": null,
  "e_total": null,
  "e_ionic": null,
  "e_electronic": null,
  "n": null,
  "e_ij_max": null,
  "weighted_surface_energy_EV_PER_ANG2": null,
  "weighted_surface_energy": null,
  "weighted_work_function": null,
  "surface_anisotropy": null,
  "shape_factor": null,
  "has_reconstructed": null,
  "possible_species": null,
  "has_props": null,
  "theoretical": null,
  "database_IDs": null,
  "fields_not_requested": [
    "builder_meta",
    "nsites",
    "elements",
    "nelements",
    "composition",
    "composition_reduced",
    "chemsys",
    "symmetry",
    "property_name",
    "deprecated",
    "deprecation_reasons",
    "last_updated",
    "origins",
    "warnings",
    "task_ids",
    "uncorrected_energy_per_atom",
    "equilibrium_reaction_energy_per_atom",
    "decomposes_to",
    "xas",
    "grain_boundaries",
    "cbm",
    "vbm",
    "is_gap_direct",
    "is_metal",
    "es_source_calc_id",
    "bandstructure",
    "dos",
    "dos_energy_up",
    "dos_energy_down",
    "is_magnetic",
    "ordering",
    "total_magnetization_normalized_vol",
    "total_magnetization_normalized_formula_units",
    "num_magnetic_sites",
    "num_unique_magnetic_sites",
    "types_of_magnetic_species",
    "bulk_modulus",
    "shear_modulus",
    "universal_anisotropy",
    "homogeneous_poisson",
    "e_total",
    "e_ionic",
    "e_electronic",
    "n",
    "e_ij_max",
    "weighted_surface_energy_EV_PER_ANG2",
    "weighted_surface_energy",
    "weighted_work_function",
    "surface_anisotropy",
    "shape_factor",
    "has_reconstructed",
    "possible_species",
    "has_props",
    "theoretical",
    "database_IDs"
  ]
}
