{"builder_meta": null, "nsites": null, "elements": null, "nelements": null, "composition": null, "composition_reduced": null, "formula_pretty": "Dy3Al", "formula_anonymous": "AB3", "chemsys": null, "volume": 211.61365100734477, "density": 8.074306074518073, "density_atomic": 26.451706375918096, "symmetry": null, "property_name": null, "material_id": "mp-1184122", "deprecated": null, "deprecation_reasons": null, "last_updated": null, "origins": null, "warnings": null, "structure": {"@module": "pymatgen.core.structure", "@class": "Structure", "charge": 0, "lattice": {"matrix": [[3.4061135, -5.89956248, 0.0], [3.4061135, 5.89956248, 0.0], [-0.0, -0.0, 5.26544116]], "pbc": [true, true, true], "a": 6.812227728893538, "b": 6.812227728893538, "c": 5.26544116, "alpha": 90.0, "beta": 90.0, "gamma": 120.00000707891887, "volume": 211.61365100734477}, "properties": {}, "sites": [{"species": [{"element": "Dy", "occu": 1}], "abc": [0.82443048, 0.17556952, 0.75], "properties": {"magmom": -0.0}, "label": "Dy", "xyz": [3.4061135, -3.8279957743527806, 3.94908087]}, {"species": [{"element": "Dy", "occu": 1}], "abc": [0.35114003, 0.17556952, 0.75], "properties": {"magmom": -0.0}, "label": "Dy", "xyz": [1.7940325088339248, -1.035789193390465, 3.94908087]}, {"species": [{"element": "Dy", "occu": 1}], "abc": [0.82443048, 0.6488599700000001, 0.75], "properties": {"magmom": -0.0}, "label": "Dy", "xyz": [5.018194491166075, -1.0357891933904644, 3.94908087]}, {"species": [{"element": "Dy", "occu": 1}], "abc": [0.17556952, 0.82443048, 0.25], "properties": {"magmom": -0.0}, "label": "Dy", "xyz": [3.4061135, 3.8279957743527806, 1.31636029]}, {"species": [{"element": "Dy", "occu": 1}], "abc": [0.17556952, 0.35114003, 0.25], "properties": {"magmom": -0.0}, "label": "Dy", "xyz": [1.7940325088339248, 1.035789193390465, 1.31636029]}, {"species": [{"element": "Dy", "occu": 1}], "abc": [0.6488599700000001, 0.82443048, 0.25], "properties": {"magmom": -0.0}, "label": "Dy", "xyz": [5.018194491166075, 1.0357891933904644, 1.31636029]}, {"species": [{"element": "Al", "occu": 1}], "abc": [0.666667, 0.333333, 0.25], "properties": {"magmom": 0.0}, "label": "Al", "xyz": [3.4061135, -1.96652475970832, 1.31636029]}, {"species": [{"element": "Al", "occu": 1}], "abc": [0.333333, 0.666667, 0.75], "properties": {"magmom": 0.0}, "label": "Al", "xyz": [3.4061135, 1.96652475970832, 3.94908087]}]}, "task_ids": null, "uncorrected_energy_per_atom": null, "energy_per_atom": -25.90839193, "formation_energy_per_atom": -0.23901492874999802, "energy_above_hull": 0.019190565625002, "is_stable": false, "equilibrium_reaction_energy_per_atom": null, "decomposes_to": null, "xas": null, "grain_boundaries": null, "band_gap": 0.0, "cbm": null, "vbm": null, "efermi": 3.97120777, "is_gap_direct": null, "is_metal": null, "es_source_calc_id": null, "bandstructure": null, "dos": null, "dos_energy_up": null, "dos_energy_down": null, "is_magnetic": null, "ordering": null, "total_magnetization": 9e-07, "total_magnetization_normalized_vol": null, "total_magnetization_normalized_formula_units": null, "num_magnetic_sites": null, "num_unique_magnetic_sites": null, "types_of_magnetic_species": null, "bulk_modulus": null, "shear_modulus": null, "universal_anisotropy": null, "homogeneous_poisson": null, "e_total": null, "e_ionic": null, "e_electronic": null, "n": null, "e_ij_max": null, "weighted_surface_energy_EV_PER_ANG2": null, "weighted_surface_energy": null, "weighted_work_function": null, "surface_anisotropy": null, "shape_factor": null, "has_reconstructed": null, "possible_species": null, "has_props": null, "theoretical": null, "database_IDs": null, "fields_not_requested": ["builder_meta", "nsites", "elements", "nelements", "composition", "composition_reduced", "chemsys", "symmetry", "property_name", "deprecated", "deprecation_reasons", "last_updated", "origins", "warnings", "task_ids", "uncorrected_energy_per_atom", "equilibrium_reaction_energy_per_atom", "decomposes_to", "xas", "grain_boundaries", "cbm", "vbm", "is_gap_direct", "is_metal", "es_source_calc_id", "bandstructure", "dos", "dos_energy_up", "dos_energy_down", "is_magnetic", "ordering", "total_magnetization_normalized_vol", "total_magnetization_normalized_formula_units", "num_magnetic_sites", "num_unique_magnetic_sites", "types_of_magnetic_species", "bulk_modulus", "shear_modulus", "universal_anisotropy", "homogeneous_poisson", "e_total", "e_ionic", "e_electronic", "n", "e_ij_max", "weighted_surface_energy_EV_PER_ANG2", "weighted_surface_energy", "weighted_work_function", "surface_anisotropy", "shape_factor", "has_reconstructed", "possible_species", "has_props", "theoretical", "database_IDs"]}