{"builder_meta": null, "nsites": null, "elements": null, "nelements": null, "composition": null, "composition_reduced": null, "formula_pretty": "Dy3C4", "formula_anonymous": "A3B4", "chemsys": null, "volume": 1043.6446375831497, "density": 8.521001394648556, "density_atomic": 14.90920910833071, "symmetry": null, "property_name": null, "material_id": "mp-1213387", "deprecated": null, "deprecation_reasons": null, "last_updated": null, "origins": null, "warnings": null, "structure": {"@module": "pymatgen.core.structure", "@class": "Structure", "charge": 0, "lattice": {"matrix": [[8.09202345, -0.0, 0.0], [0.0, 8.09202345, -0.0], [0.0, 0.0, 15.93816728]], "pbc": [true, true, true], "a": 8.09202345, "b": 8.09202345, "c": 15.93816728, "alpha": 90.0, "beta": 90.0, "gamma": 90.0, "volume": 1043.6446375831497}, "properties": {}, "sites": [{"species": [{"element": "Dy", "occu": 1}], "abc": [0.0997759, 0.28836147, 0.14666552], "properties": {"magmom": -0.0}, "label": "Dy", "xyz": [0.807388922544855, 2.3334277773164716, 2.3375795919681854]}, {"species": [{"element": "Dy", "occu": 1}], "abc": [0.9002241, 0.71163853, 0.85333448], "properties": {"magmom": -0.0}, "label": "Dy", "xyz": [7.284634527455144, 5.758595672683528, 13.600587688031814]}, {"species": [{"element": "Dy", "occu": 1}], "abc": [0.9002241, 0.71163853, 0.14666552], "properties": {"magmom": -0.0}, "label": "Dy", "xyz": [7.284634527455144, 5.758595672683528, 2.3375795919681854]}, {"species": [{"element": "Dy", "occu": 1}], "abc": [0.71163853, 0.0997759, 0.14666552], "properties": {"magmom": -0.0}, "label": "Dy", "xyz": [5.758595672683528, 0.807388922544855, 2.3375795919681854]}, {"species": [{"element": "Dy", "occu": 1}], "abc": [0.40022409999999903, 0.78836147, 0.35333448], "properties": {"magmom": -0.0}, "label": "Dy", "xyz": [3.238622802455137, 6.379439502316471, 5.631504048031815]}, {"species": [{"element": "Dy", "occu": 1}], "abc": [0.0997759, 0.28836147, 0.85333448], "properties": {"magmom": -0.0}, "label": "Dy", "xyz": [0.807388922544855, 2.3334277773164716, 13.600587688031814]}, {"species": [{"element": "Dy", "occu": 1}], "abc": [0.28836147, 0.9002241, 0.85333448], "properties": {"magmom": -0.0}, "label": "Dy", "xyz": [2.3334277773164716, 7.284634527455144, 13.600587688031814]}, {"species": [{"element": "Dy", "occu": 1}], "abc": [0.599775899999999, 0.21163853, 0.64666552], "properties": {"magmom": -0.0}, "label": "Dy", "xyz": [4.853400647544847, 1.7125839476835283, 10.306663231968185]}, {"species": [{"element": "Dy", "occu": 1}], "abc": [0.28836147, 0.9002241, 0.14666552], "properties": {"magmom": -0.0}, "label": "Dy", "xyz": [2.3334277773164716, 7.284634527455144, 2.3375795919681854]}, {"species": [{"element": "Dy", "occu": 1}], "abc": [0.599775899999999, 0.21163853, 0.35333448], "properties": {"magmom": -0.0}, "label": "Dy", "xyz": [4.853400647544847, 1.7125839476835283, 5.631504048031815]}, {"species": [{"element": "Dy", "occu": 1}], "abc": [0.71163853, 0.0997759, 0.85333448], "properties": {"magmom": -0.0}, "label": "Dy", "xyz": [5.758595672683528, 0.807388922544855, 13.600587688031814]}, {"species": [{"element": "Dy", "occu": 1}], "abc": [0.40022409999999903, 0.78836147, 0.64666552], "properties": {"magmom": -0.0}, "label": "Dy", "xyz": [3.238622802455137, 6.379439502316471, 10.306663231968185]}, {"species": [{"element": "Dy", "occu": 1}], "abc": [0.78836147, 0.599775899999999, 0.35333448], "properties": {"magmom": -0.0}, "label": "Dy", "xyz": [6.379439502316471, 4.853400647544847, 5.631504048031815]}, {"species": [{"element": "Dy", "occu": 1}], "abc": [0.21163853, 0.40022409999999903, 0.64666552], "properties": {"magmom": -0.0}, "label": "Dy", "xyz": [1.7125839476835283, 3.238622802455137, 10.306663231968185]}, {"species": [{"element": "Dy", "occu": 1}], "abc": [0.21163853, 0.40022409999999903, 0.35333448], "properties": {"magmom": -0.0}, "label": "Dy", "xyz": [1.7125839476835283, 3.238622802455137, 5.631504048031815]}, {"species": [{"element": "Dy", "occu": 1}], "abc": [0.78836147, 0.599775899999999, 0.64666552], "properties": {"magmom": -0.0}, "label": "Dy", "xyz": [6.379439502316471, 4.853400647544847, 10.306663231968185]}, {"species": [{"element": "Dy", "occu": 1}], "abc": [0.4046375, 0.20298876000000002, 0.0], "properties": {"magmom": 0.0}, "label": "Dy", "xyz": [3.2743361387493746, 1.642589806006422, 0.0]}, {"species": [{"element": "Dy", "occu": 1}], "abc": [0.5953625, 0.79701124, 0.0], "properties": {"magmom": 0.0}, "label": "Dy", "xyz": [4.817687311250625, 6.4494336439935775, 0.0]}, {"species": [{"element": "Dy", "occu": 1}], "abc": [0.79701124, 0.4046375, 0.0], "properties": {"magmom": 0.0}, "label": "Dy", "xyz": [6.4494336439935775, 3.2743361387493746, 0.0]}, {"species": [{"element": "Dy", "occu": 1}], "abc": [0.095362499999999, 0.70298876, 0.5], "properties": {"magmom": 0.0}, "label": "Dy", "xyz": [0.7716755862506168, 5.688601531006421, 7.96908364]}, {"species": [{"element": "Dy", "occu": 1}], "abc": [0.20298876000000002, 0.5953625, 0.0], "properties": {"magmom": 0.0}, "label": "Dy", "xyz": [1.642589806006422, 4.817687311250625, 0.0]}, {"species": [{"element": "Dy", "occu": 1}], "abc": [0.9046375, 0.29701124, 0.5], "properties": {"magmom": 0.0}, "label": "Dy", "xyz": [7.320347863749374, 2.403421918993578, 7.96908364]}, {"species": [{"element": "Dy", "occu": 1}], "abc": [0.70298876, 0.9046375, 0.5], "properties": {"magmom": 0.0}, "label": "Dy", "xyz": [5.688601531006421, 7.320347863749374, 7.96908364]}, {"species": [{"element": "Dy", "occu": 1}], "abc": [0.29701124, 0.095362499999999, 0.5], "properties": {"magmom": 0.0}, "label": "Dy", "xyz": [2.403421918993578, 0.7716755862506168, 7.96908364]}, {"species": [{"element": "Dy", "occu": 1}], "abc": [-0.0, -0.0, 0.0], "properties": {"magmom": 0.0}, "label": "Dy", "xyz": [0.0, 0.0, 0.0]}, {"species": [{"element": "Dy", "occu": 1}], "abc": [0.5, 0.5, 0.5], "properties": {"magmom": 0.0}, "label": "Dy", "xyz": [4.046011725, 4.046011725, 7.96908364]}, {"species": [{"element": "Dy", "occu": 1}], "abc": [-0.0, -0.0, 0.31271919], "properties": {"magmom": -0.0}, "label": "Dy", "xyz": [0.0, 0.0, 4.984170761886103]}, {"species": [{"element": "Dy", "occu": 1}], "abc": [-0.0, -0.0, 0.68728081], "properties": {"magmom": -0.0}, "label": "Dy", "xyz": [0.0, 0.0, 10.953996518113897]}, {"species": [{"element": "Dy", "occu": 1}], "abc": [0.5, 0.5, 0.18728081], "properties": {"magmom": -0.0}, "label": "Dy", "xyz": [4.046011725, 4.046011725, 2.9849128781138967]}, {"species": [{"element": "Dy", "occu": 1}], "abc": [0.5, 0.5, 0.81271919], "properties": {"magmom": -0.0}, "label": "Dy", "xyz": [4.046011725, 4.046011725, 12.953254401886104]}, {"species": [{"element": "C", "occu": 1}], "abc": [0.30620213, 0.09883547000000001, 0.32698571], "properties": {"magmom": 0.0}, "label": "C", "xyz": [2.4777948163999484, 0.7997789409317715, 5.2115529441495685]}, {"species": [{"element": "C", "occu": 1}], "abc": [0.69379787, 0.90116453, 0.67301429], "properties": {"magmom": 0.0}, "label": "C", "xyz": [5.614228633600051, 7.292244509068228, 10.726614335850432]}, {"species": [{"element": "C", "occu": 1}], "abc": [0.69379787, 0.90116453, 0.32698571], "properties": {"magmom": 0.0}, "label": "C", "xyz": [5.614228633600051, 7.292244509068228, 5.2115529441495685]}, {"species": [{"element": "C", "occu": 1}], "abc": [0.90116453, 0.30620213, 0.32698571], "properties": {"magmom": 0.0}, "label": "C", "xyz": [7.292244509068228, 2.4777948163999484, 5.2115529441495685]}, {"species": [{"element": "C", "occu": 1}], "abc": [0.19379787, 0.59883547, 0.17301429000000002], "properties": {"magmom": 0.0}, "label": "C", "xyz": [1.5682169086000515, 4.845790665931771, 2.7575306958504315]}, {"species": [{"element": "C", "occu": 1}], "abc": [0.30620213, 0.09883547000000001, 0.67301429], "properties": {"magmom": 0.0}, "label": "C", "xyz": [2.4777948163999484, 0.7997789409317715, 10.726614335850432]}, {"species": [{"element": "C", "occu": 1}], "abc": [0.09883547000000001, 0.69379787, 0.67301429], "properties": {"magmom": 0.0}, "label": "C", "xyz": [0.7997789409317715, 5.614228633600051, 10.726614335850432]}, {"species": [{"element": "C", "occu": 1}], "abc": [0.8062021300000001, 0.40116453, 0.82698571], "properties": {"magmom": 0.0}, "label": "C", "xyz": [6.523806541399948, 3.246232784068228, 13.18063658414957]}, {"species": [{"element": "C", "occu": 1}], "abc": [0.09883547000000001, 0.69379787, 0.32698571], "properties": {"magmom": 0.0}, "label": "C", "xyz": [0.7997789409317715, 5.614228633600051, 5.2115529441495685]}, {"species": [{"element": "C", "occu": 1}], "abc": [0.8062021300000001, 0.40116453, 0.17301429000000002], "properties": {"magmom": 0.0}, "label": "C", "xyz": [6.523806541399948, 3.246232784068228, 2.7575306958504315]}, {"species": [{"element": "C", "occu": 1}], "abc": [0.90116453, 0.30620213, 0.67301429], "properties": {"magmom": 0.0}, "label": "C", "xyz": [7.292244509068228, 2.4777948163999484, 10.726614335850432]}, {"species": [{"element": "C", "occu": 1}], "abc": [0.19379787, 0.59883547, 0.82698571], "properties": {"magmom": 0.0}, "label": "C", "xyz": [1.5682169086000515, 4.845790665931771, 13.18063658414957]}, {"species": [{"element": "C", "occu": 1}], "abc": [0.59883547, 0.8062021300000001, 0.17301429000000002], "properties": {"magmom": 0.0}, "label": "C", "xyz": [4.845790665931771, 6.523806541399948, 2.7575306958504315]}, {"species": [{"element": "C", "occu": 1}], "abc": [0.40116453, 0.19379787, 0.82698571], "properties": {"magmom": 0.0}, "label": "C", "xyz": [3.246232784068228, 1.5682169086000515, 13.18063658414957]}, {"species": [{"element": "C", "occu": 1}], "abc": [0.40116453, 0.19379787, 0.17301429000000002], "properties": {"magmom": 0.0}, "label": "C", "xyz": [3.246232784068228, 1.5682169086000515, 2.7575306958504315]}, {"species": [{"element": "C", "occu": 1}], "abc": [0.59883547, 0.8062021300000001, 0.82698571], "properties": {"magmom": 0.0}, "label": "C", "xyz": [4.845790665931771, 6.523806541399948, 13.18063658414957]}, {"species": [{"element": "C", "occu": 1}], "abc": [0.10555223, 0.30425769, 0.0], "properties": {"magmom": 0.0}, "label": "C", "xyz": [0.8541311203597934, 2.4620603623228305, 0.0]}, {"species": [{"element": "C", "occu": 1}], "abc": [0.89444777, 0.69574231, 0.0], "properties": {"magmom": 0.0}, "label": "C", "xyz": [7.237892329640205, 5.629963087677169, 0.0]}, {"species": [{"element": "C", "occu": 1}], "abc": [0.69574231, 0.10555223, 0.0], "properties": {"magmom": 0.0}, "label": "C", "xyz": [5.629963087677169, 0.8541311203597934, 0.0]}, {"species": [{"element": "C", "occu": 1}], "abc": [0.39444777000000003, 0.80425769, 0.5], "properties": {"magmom": 0.0}, "label": "C", "xyz": [3.1918806046402066, 6.50807208732283, 7.96908364]}, {"species": [{"element": "C", "occu": 1}], "abc": [0.30425769, 0.89444777, 0.0], "properties": {"magmom": 0.0}, "label": "C", "xyz": [2.4620603623228305, 7.237892329640205, 0.0]}, {"species": [{"element": "C", "occu": 1}], "abc": [0.60555223, 0.19574231, 0.5], "properties": {"magmom": 0.0}, "label": "C", "xyz": [4.9001428453597935, 1.5839513626771693, 7.96908364]}, {"species": [{"element": "C", "occu": 1}], "abc": [0.80425769, 0.60555223, 0.5], "properties": {"magmom": 0.0}, "label": "C", "xyz": [6.50807208732283, 4.9001428453597935, 7.96908364]}, {"species": [{"element": "C", "occu": 1}], "abc": [0.19574231, 0.39444777000000003, 0.5], "properties": {"magmom": 0.0}, "label": "C", "xyz": [1.5839513626771693, 3.1918806046402066, 7.96908364]}, {"species": [{"element": "C", "occu": 1}], "abc": [-0.0, -0.0, 0.45914591], "properties": {"magmom": 0.0}, "label": "C", "xyz": [0.0, 0.0, 7.317944319507824]}, {"species": [{"element": "C", "occu": 1}], "abc": [-0.0, -0.0, 0.5408540900000001], "properties": {"magmom": 0.0}, "label": "C", "xyz": [0.0, 0.0, 8.620222960492177]}, {"species": [{"element": "C", "occu": 1}], "abc": [0.5, 0.5, 0.04085409], "properties": {"magmom": 0.0}, "label": "C", "xyz": [4.046011725, 4.046011725, 0.6511393204921753]}, {"species": [{"element": "C", "occu": 1}], "abc": [0.5, 0.5, 0.95914591], "properties": {"magmom": 0.0}, "label": "C", "xyz": [4.046011725, 4.046011725, 15.287027959507826]}, {"species": [{"element": "C", "occu": 1}], "abc": [0.15016441, 0.65016441, 0.25], "properties": {"magmom": 0.0}, "label": "C", "xyz": [1.2151339270754145, 5.261145652075414, 3.98454182]}, {"species": [{"element": "C", "occu": 1}], "abc": [0.84983559, 0.34983559000000003, 0.75], "properties": {"magmom": 0.0}, "label": "C", "xyz": [6.876889522924585, 2.8308777979245856, 11.95362546]}, {"species": [{"element": "C", "occu": 1}], "abc": [0.84983559, 0.34983559000000003, 0.25], "properties": {"magmom": 0.0}, "label": "C", "xyz": [6.876889522924585, 2.8308777979245856, 3.98454182]}, {"species": [{"element": "C", "occu": 1}], "abc": [0.34983559000000003, 0.15016441, 0.25], "properties": {"magmom": 0.0}, "label": "C", "xyz": [2.8308777979245856, 1.2151339270754145, 3.98454182]}, {"species": [{"element": "C", "occu": 1}], "abc": [0.15016441, 0.65016441, 0.75], "properties": {"magmom": 0.0}, "label": "C", "xyz": [1.2151339270754145, 5.261145652075414, 11.95362546]}, {"species": [{"element": "C", "occu": 1}], "abc": [0.65016441, 0.84983559, 0.75], "properties": {"magmom": 0.0}, "label": "C", "xyz": [5.261145652075414, 6.876889522924585, 11.95362546]}, {"species": [{"element": "C", "occu": 1}], "abc": [0.65016441, 0.84983559, 0.25], "properties": {"magmom": 0.0}, "label": "C", "xyz": [5.261145652075414, 6.876889522924585, 3.98454182]}, {"species": [{"element": "C", "occu": 1}], "abc": [0.34983559000000003, 0.15016441, 0.75], "properties": {"magmom": 0.0}, "label": "C", "xyz": [2.8308777979245856, 1.2151339270754145, 11.95362546]}, {"species": [{"element": "C", "occu": 1}], "abc": [-0.0, -0.0, 0.15680282], "properties": {"magmom": -0.0}, "label": "C", "xyz": [0.0, 0.0, 2.4991495751357298]}, {"species": [{"element": "C", "occu": 1}], "abc": [-0.0, -0.0, 0.84319718], "properties": {"magmom": -0.0}, "label": "C", "xyz": [0.0, 0.0, 13.43901770486427]}, {"species": [{"element": "C", "occu": 1}], "abc": [0.5, 0.5, 0.34319718], "properties": {"magmom": -0.0}, "label": "C", "xyz": [4.046011725, 4.046011725, 5.469934064864271]}, {"species": [{"element": "C", "occu": 1}], "abc": [0.5, 0.5, 0.65680282], "properties": {"magmom": -0.0}, "label": "C", "xyz": [4.046011725, 4.046011725, 10.46823321513573]}]}, "task_ids": null, "uncorrected_energy_per_atom": null, "energy_per_atom": -7.564419282000001, "formation_energy_per_atom": -0.311592345571427, "energy_above_hull": 0.0, "is_stable": true, "equilibrium_reaction_energy_per_atom": null, "decomposes_to": null, "xas": null, "grain_boundaries": null, "band_gap": 0.0, "cbm": null, "vbm": null, "efermi": 4.43242733, "is_gap_direct": null, "is_metal": null, "es_source_calc_id": null, "bandstructure": null, "dos": null, "dos_energy_up": null, "dos_energy_down": null, "is_magnetic": null, "ordering": null, "total_magnetization": 4e-07, "total_magnetization_normalized_vol": null, "total_magnetization_normalized_formula_units": null, "num_magnetic_sites": null, "num_unique_magnetic_sites": null, "types_of_magnetic_species": null, "bulk_modulus": null, "shear_modulus": null, "universal_anisotropy": null, "homogeneous_poisson": null, "e_total": null, "e_ionic": null, "e_electronic": null, "n": null, "e_ij_max": null, "weighted_surface_energy_EV_PER_ANG2": null, "weighted_surface_energy": null, "weighted_work_function": null, "surface_anisotropy": null, "shape_factor": null, "has_reconstructed": null, "possible_species": null, "has_props": null, "theoretical": null, "database_IDs": null, "fields_not_requested": ["builder_meta", "nsites", "elements", "nelements", "composition", "composition_reduced", "chemsys", "symmetry", "property_name", "deprecated", "deprecation_reasons", "last_updated", "origins", "warnings", "task_ids", "uncorrected_energy_per_atom", "equilibrium_reaction_energy_per_atom", "decomposes_to", "xas", "grain_boundaries", "cbm", "vbm", "is_gap_direct", "is_metal", "es_source_calc_id", "bandstructure", "dos", "dos_energy_up", "dos_energy_down", "is_magnetic", "ordering", "total_magnetization_normalized_vol", "total_magnetization_normalized_formula_units", "num_magnetic_sites", "num_unique_magnetic_sites", "types_of_magnetic_species", "bulk_modulus", "shear_modulus", "universal_anisotropy", "homogeneous_poisson", "e_total", "e_ionic", "e_electronic", "n", "e_ij_max", "weighted_surface_energy_EV_PER_ANG2", "weighted_surface_energy", "weighted_work_function", "surface_anisotropy", "shape_factor", "has_reconstructed", "possible_species", "has_props", "theoretical", "database_IDs"]}