{"builder_meta": null, "nsites": null, "elements": null, "nelements": null, "composition": null, "composition_reduced": null, "formula_pretty": "Dy3Co", "formula_anonymous": "AB3", "chemsys": null, "volume": 402.56869473303817, "density": 9.015839328353904, "density_atomic": 25.160543420814886, "symmetry": null, "property_name": null, "material_id": "mp-646392", "deprecated": null, "deprecation_reasons": null, "last_updated": null, "origins": null, "warnings": null, "structure": {"@module": "pymatgen.core.structure", "@class": "Structure", "charge": 0, "lattice": {"matrix": [[6.21691021, 0.0, 0.0], [0.0, 6.85723736, 0.0], [0.0, 0.0, 9.44313551]], "pbc": [true, true, true], "a": 6.21691021, "b": 6.85723736, "c": 9.44313551, "alpha": 90.0, "beta": 90.0, "gamma": 90.0, "volume": 402.56869473303817}, "properties": {}, "sites": [{"species": [{"element": "Dy", "occu": 1}], "abc": [0.14154852, 0.45364727, 0.75], "properties": {"magmom": 0.0}, "label": "Dy", "xyz": [0.8799944391983893, 3.110767008106007, 7.0823516325]}, {"species": [{"element": "Dy", "occu": 1}], "abc": [0.67957059, 0.32794671000000003, 0.93094468], "properties": {"magmom": 0.0}, "label": "Dy", "xyz": [4.224829339386724, 2.248808431901086, 8.791036765553587]}, {"species": [{"element": "Dy", "occu": 1}], "abc": [0.35845148, 0.95364727, 0.75], "properties": {"magmom": 0.0}, "label": "Dy", "xyz": [2.228460665801611, 6.539385688106008, 7.0823516325]}, {"species": [{"element": "Dy", "occu": 1}], "abc": [0.85845148, 0.5463527300000001, 0.25], "properties": {"magmom": 0.0}, "label": "Dy", "xyz": [5.336915770801611, 3.7464703518939935, 2.3607838775]}, {"species": [{"element": "Dy", "occu": 1}], "abc": [0.6415485200000001, 0.04635273, 0.25], "properties": {"magmom": 0.0}, "label": "Dy", "xyz": [3.9884495441983896, 0.3178516718939928, 2.3607838775]}, {"species": [{"element": "Dy", "occu": 1}], "abc": [0.17957059, 0.17205329, 0.43094468], "properties": {"magmom": 0.0}, "label": "Dy", "xyz": [1.116374234386724, 1.1798102480989143, 4.069469010553587]}, {"species": [{"element": "Dy", "occu": 1}], "abc": [0.82042941, 0.82794671, 0.56905532], "properties": {"magmom": 0.0}, "label": "Dy", "xyz": [5.100535975613276, 5.6774271119010855, 5.373666499446413]}, {"species": [{"element": "Dy", "occu": 1}], "abc": [0.17957059, 0.17205329, 0.06905532], "properties": {"magmom": 0.0}, "label": "Dy", "xyz": [1.116374234386724, 1.1798102480989143, 0.6520987444464131]}, {"species": [{"element": "Dy", "occu": 1}], "abc": [0.82042941, 0.82794671, 0.93094468], "properties": {"magmom": 0.0}, "label": "Dy", "xyz": [5.100535975613276, 5.6774271119010855, 8.791036765553587]}, {"species": [{"element": "Dy", "occu": 1}], "abc": [0.67957059, 0.32794671000000003, 0.56905532], "properties": {"magmom": 0.0}, "label": "Dy", "xyz": [4.224829339386724, 2.248808431901086, 5.373666499446413]}, {"species": [{"element": "Dy", "occu": 1}], "abc": [0.32042941, 0.67205329, 0.06905532], "properties": {"magmom": 0.0}, "label": "Dy", "xyz": [1.9920808706132762, 4.608428928098915, 0.6520987444464131]}, {"species": [{"element": "Dy", "occu": 1}], "abc": [0.32042941, 0.67205329, 0.43094468], "properties": {"magmom": 0.0}, "label": "Dy", "xyz": [1.9920808706132762, 4.608428928098915, 4.069469010553587]}, {"species": [{"element": "Co", "occu": 1}], "abc": [0.54145968, 0.61101262, 0.75], "properties": {"magmom": 0.0}, "label": "Co", "xyz": [3.366206212895333, 4.189858565295483, 7.0823516325]}, {"species": [{"element": "Co", "occu": 1}], "abc": [0.95854032, 0.11101262, 0.75], "properties": {"magmom": 0.0}, "label": "Co", "xyz": [5.9591591021046675, 0.7612398852954833, 7.0823516325]}, {"species": [{"element": "Co", "occu": 1}], "abc": [0.04145968, 0.88898738, 0.25], "properties": {"magmom": 0.0}, "label": "Co", "xyz": [0.2577511078953328, 6.095997474704517, 2.3607838775]}, {"species": [{"element": "Co", "occu": 1}], "abc": [0.45854032, 0.38898738, 0.25], "properties": {"magmom": 0.0}, "label": "Co", "xyz": [2.850703997104667, 2.6673787947045167, 2.3607838775]}]}, "task_ids": null, "uncorrected_energy_per_atom": null, "energy_per_atom": -5.389613530000002, "formation_energy_per_atom": -0.14247770374999802, "energy_above_hull": 0.0, "is_stable": true, "equilibrium_reaction_energy_per_atom": null, "decomposes_to": null, "xas": null, "grain_boundaries": null, "band_gap": 0.0, "cbm": null, "vbm": null, "efermi": 3.57745457, "is_gap_direct": null, "is_metal": null, "es_source_calc_id": null, "bandstructure": null, "dos": null, "dos_energy_up": null, "dos_energy_down": null, "is_magnetic": null, "ordering": null, "total_magnetization": 4.4800000000000005e-05, "total_magnetization_normalized_vol": null, "total_magnetization_normalized_formula_units": null, "num_magnetic_sites": null, "num_unique_magnetic_sites": null, "types_of_magnetic_species": null, "bulk_modulus": null, "shear_modulus": null, "universal_anisotropy": null, "homogeneous_poisson": null, "e_total": null, "e_ionic": null, "e_electronic": null, "n": null, "e_ij_max": null, "weighted_surface_energy_EV_PER_ANG2": null, "weighted_surface_energy": null, "weighted_work_function": null, "surface_anisotropy": null, "shape_factor": null, "has_reconstructed": null, "possible_species": null, "has_props": null, "theoretical": null, "database_IDs": null, "fields_not_requested": ["builder_meta", "nsites", "elements", "nelements", "composition", "composition_reduced", "chemsys", "symmetry", "property_name", "deprecated", "deprecation_reasons", "last_updated", "origins", "warnings", "task_ids", "uncorrected_energy_per_atom", "equilibrium_reaction_energy_per_atom", "decomposes_to", "xas", "grain_boundaries", "cbm", "vbm", "is_gap_direct", "is_metal", "es_source_calc_id", "bandstructure", "dos", "dos_energy_up", "dos_energy_down", "is_magnetic", "ordering", "total_magnetization_normalized_vol", "total_magnetization_normalized_formula_units", "num_magnetic_sites", "num_unique_magnetic_sites", "types_of_magnetic_species", "bulk_modulus", "shear_modulus", "universal_anisotropy", "homogeneous_poisson", "e_total", "e_ionic", "e_electronic", "n", "e_ij_max", "weighted_surface_energy_EV_PER_ANG2", "weighted_surface_energy", "weighted_work_function", "surface_anisotropy", "shape_factor", "has_reconstructed", "possible_species", "has_props", "theoretical", "database_IDs"]}