{"builder_meta": null, "nsites": null, "elements": null, "nelements": null, "composition": null, "composition_reduced": null, "formula_pretty": "Dy3Ga5", "formula_anonymous": "A3B5", "chemsys": null, "volume": 666.5700572090933, "density": 8.331617099534597, "density_atomic": 20.830314287784166, "symmetry": null, "property_name": null, "material_id": "mp-1196980", "deprecated": null, "deprecation_reasons": null, "last_updated": null, "origins": null, "warnings": null, "structure": {"@module": "pymatgen.core.structure", "@class": "Structure", "charge": 0, "lattice": {"matrix": [[-5.9190000000000035e-05, -5e-08, -6.10228865], [-2.24e-06, -9.61058364, -4.099999999999998e-07], [-11.36588589, -3.28e-06, -0.00010862]], "pbc": [true, true, true], "a": 6.102288650287061, "b": 9.61058364000027, "c": 11.365885890519495, "alpha": 89.99997011110338, "beta": 89.99889669484122, "gamma": 89.99999708609658, "volume": 666.5700572090933}, "properties": {}, "sites": [{"species": [{"element": "Dy", "occu": 1}], "abc": [0.65104722, 0.7499997700000001, 0.42227803], "properties": {"magmom": -0.0}, "label": "Dy", "xyz": [-4.799604118318434, -7.207936937190062, -3.972924236559577]}, {"species": [{"element": "Dy", "occu": 1}], "abc": [0.8490498400000001, 0.75000002, 0.9223216200000001], "properties": {"magmom": 0.0}, "label": "Dy", "xyz": [-10.483054222060018, -7.207940989879078, -5.18124769199069]}, {"species": [{"element": "Dy", "occu": 1}], "abc": [0.3488967, 0.24999989, 0.5777247], "properties": {"magmom": 0.0}, "label": "Dy", "xyz": [-6.566374227229909, -2.402646765217651, -2.129131227389324]}, {"species": [{"element": "Dy", "occu": 1}], "abc": [0.15102112, 0.2500001, 0.07767515], "properties": {"magmom": 0.0}, "label": "Dy", "xyz": [-0.8828563903289502, -2.402647133383912, -0.9215830060611221]}, {"species": [{"element": "Dy", "occu": 1}], "abc": [0.61068222, 0.98859239, 0.14852457], "properties": {"magmom": 0.0}, "label": "Dy", "xyz": [-1.6881516752088725, -9.500950367657198, -3.7265757179244763]}, {"species": [{"element": "Dy", "occu": 1}], "abc": [0.88932354, 0.5114579, 0.64862223], "properties": {"magmom": -0.0}, "label": "Dy", "xyz": [-7.372220036623363, -4.915411098235848, -5.426979607364183]}, {"species": [{"element": "Dy", "occu": 1}], "abc": [0.38934411, 0.48859137, 0.85147573], "properties": {"magmom": -0.0}, "label": "Dy", "xyz": [-9.677800125006987, -4.695651039474787, -2.375982831013606]}, {"species": [{"element": "Dy", "occu": 1}], "abc": [0.11066262, 0.01145928, 0.35138517], "properties": {"magmom": -0.0}, "label": "Dy", "xyz": [-3.9938103214475165, -0.11013152697066779, -0.6753334221607332]}, {"species": [{"element": "Dy", "occu": 1}], "abc": [0.38934414, 0.01140851, 0.85147583], "properties": {"magmom": 0.0}, "label": "Dy", "xyz": [-9.677800192707748, -0.1096452518707058, -2.3759828184481546]}, {"species": [{"element": "Dy", "occu": 1}], "abc": [0.11066249, 0.48854066, 0.35138516000000003], "properties": {"magmom": -0.0}, "label": "Dy", "xyz": [-3.993811276443254, -4.695162032547251, -0.6753328244654884]}, {"species": [{"element": "Dy", "occu": 1}], "abc": [0.6106824200000001, 0.51140755, 0.14852472], "properties": {"magmom": 0.0}, "label": "Dy", "xyz": [-1.6881523112095524, -4.914925551097684, -3.726576742752716]}, {"species": [{"element": "Dy", "occu": 1}], "abc": [0.88932344, 0.98854215, 0.64862202], "properties": {"magmom": -0.0}, "label": "Dy", "xyz": [-7.372218718450127, -9.500469186186823, -5.42697919271705]}, {"species": [{"element": "Ga", "occu": 1}], "abc": [0.62838796, 0.44608289, 0.41051968], "properties": {"magmom": -0.0}, "label": "Ga", "xyz": [-4.665958031988341, -4.2871183026418676, -3.83464948964628]}, {"species": [{"element": "Ga", "occu": 1}], "abc": [0.87166325, 0.05394355, 0.91047848], "properties": {"magmom": -0.0}, "label": "Ga", "xyz": [-10.348446223561966, -0.518432029066099, -5.319239675386466]}, {"species": [{"element": "Ga", "occu": 1}], "abc": [0.37160591, 0.94607032, 0.5894647], "properties": {"magmom": -0.0}, "label": "Ga", "xyz": [-6.699812630934412, -9.092289891706075, -2.2677109424104667]}, {"species": [{"element": "Ga", "occu": 1}], "abc": [0.12833825000000001, 0.55393641, 0.0895174], "properties": {"magmom": 0.0}, "label": "Ga", "xyz": [-1.0174533907280616, -5.323652499580317, -0.7831669968297786]}, {"species": [{"element": "Ga", "occu": 1}], "abc": [0.37160603000000003, 0.55392961, 0.5894646], "properties": {"magmom": -0.0}, "label": "Ga", "xyz": [-6.699810615957736, -5.32358879960177, -2.267711513896552]}, {"species": [{"element": "Ga", "occu": 1}], "abc": [0.12833815, 0.94606331, 0.08951722000000001], "properties": {"magmom": -0.0}, "label": "Ga", "xyz": [-1.0174522232269387, -9.092220869523638, -0.7831665473533911]}, {"species": [{"element": "Ga", "occu": 1}], "abc": [0.62838795, 0.05391729, 0.41051972000000003], "properties": {"magmom": -0.0}, "label": "Ga", "xyz": [-4.665957608172241, -0.5181780031112148, -3.834649267839843]}, {"species": [{"element": "Ga", "occu": 1}], "abc": [0.87166309, 0.44605631, 0.91047862], "properties": {"magmom": -0.0}, "label": "Ga", "xyz": [-10.348448693109104, -4.286864505357796, -5.31923885980172]}, {"species": [{"element": "Ga", "occu": 1}], "abc": [0.31993052, 0.74999973, 0.24804883], "properties": {"magmom": -0.0}, "label": "Ga", "xyz": [-2.8193153136148825, -7.207935964739105, -1.952335631548402]}, {"species": [{"element": "Ga", "occu": 1}], "abc": [0.18001642, 0.74999994, 0.7479337500000001], "properties": {"magmom": -0.0}, "label": "Ga", "xyz": [-8.500941990951553, -7.2079396155885025, -1.0985937046435337]}, {"species": [{"element": "Ga", "occu": 1}], "abc": [0.68006138, 0.25, 0.75193641], "properties": {"magmom": 0.0}, "label": "Ga", "xyz": [-8.546464245429338, -2.4026484103544936, -4.150012618310192]}, {"species": [{"element": "Ga", "occu": 1}], "abc": [0.81997927, 0.25000018, 0.25206218], "properties": {"magmom": -0.0}, "label": "Ga", "xyz": [-2.864959069638035, -2.4026485076679687, -5.003777674050352]}, {"species": [{"element": "Ga", "occu": 1}], "abc": [0.13012908, 0.75000001, 0.49440928], "properties": {"magmom": 0.0}, "label": "Ga", "xyz": [-5.619408841777326, -7.207939454274729, -0.7941392181549398]}, {"species": [{"element": "Ga", "occu": 1}], "abc": [0.36990917, 0.74999995, 0.9944683], "properties": {"magmom": -0.0}, "label": "Ga", "xyz": [-11.303036793945946, -7.2079405298223005, -2.2574008562686463]}, {"species": [{"element": "Ga", "occu": 1}], "abc": [0.8698886100000001, 0.25000003, 0.50559686], "properties": {"magmom": 0.0}, "label": "Ga", "xyz": [-5.746608265809199, -2.40264790016964, -5.308366411998223]}, {"species": [{"element": "Ga", "occu": 1}], "abc": [0.63007563, 0.25000001, 0.00556877], "properties": {"magmom": -0.0}, "label": "Ga", "xyz": [-0.0633318585442174, -2.402646055875183, -3.844904072970401]}, {"species": [{"element": "Ga", "occu": 1}], "abc": [0.9051225900000001, 0.74999985, 0.19639474], "properties": {"magmom": 0.0}, "label": "Ga", "xyz": [-2.2322554584419847, -7.207936977843331, -5.523340947712201]}, {"species": [{"element": "Ga", "occu": 1}], "abc": [0.59493083, 0.7499998800000001, 0.69631778], "properties": {"magmom": -0.0}, "label": "Ga", "xyz": [-7.914305324613683, -7.2079388903988235, -3.630515592981294]}, {"species": [{"element": "Ga", "occu": 1}], "abc": [0.09489669, 0.24999996, 0.80358712], "properties": {"magmom": 0.0}, "label": "Ga", "xyz": [-9.133485685528727, -2.4026481660872423, -0.5791743824425266]}, {"species": [{"element": "Ga", "occu": 1}], "abc": [0.40503234, 0.25000017, 0.30369464], "properties": {"magmom": 0.0}, "label": "Ga", "xyz": [-3.451783157509215, -2.402648560169255, -2.4716573410768077]}]}, "task_ids": null, "uncorrected_energy_per_atom": null, "energy_per_atom": -19.88670448375, "formation_energy_per_atom": -0.741793305625002, "energy_above_hull": 0.020637629999995, "is_stable": false, "equilibrium_reaction_energy_per_atom": null, "decomposes_to": null, "xas": null, "grain_boundaries": null, "band_gap": 0.0, "cbm": null, "vbm": null, "efermi": 3.61114949, "is_gap_direct": null, "is_metal": null, "es_source_calc_id": null, "bandstructure": null, "dos": null, "dos_energy_up": null, "dos_energy_down": null, "is_magnetic": null, "ordering": null, "total_magnetization": 2e-07, "total_magnetization_normalized_vol": null, "total_magnetization_normalized_formula_units": null, "num_magnetic_sites": null, "num_unique_magnetic_sites": null, "types_of_magnetic_species": null, "bulk_modulus": null, "shear_modulus": null, "universal_anisotropy": null, "homogeneous_poisson": null, "e_total": null, "e_ionic": null, "e_electronic": null, "n": null, "e_ij_max": null, "weighted_surface_energy_EV_PER_ANG2": null, "weighted_surface_energy": null, "weighted_work_function": null, "surface_anisotropy": null, "shape_factor": null, "has_reconstructed": null, "possible_species": null, "has_props": null, "theoretical": null, "database_IDs": null, "fields_not_requested": ["builder_meta", "nsites", "elements", "nelements", "composition", "composition_reduced", "chemsys", "symmetry", "property_name", "deprecated", "deprecation_reasons", "last_updated", "origins", "warnings", "task_ids", "uncorrected_energy_per_atom", "equilibrium_reaction_energy_per_atom", "decomposes_to", "xas", "grain_boundaries", "cbm", "vbm", "is_gap_direct", "is_metal", "es_source_calc_id", "bandstructure", "dos", "dos_energy_up", "dos_energy_down", "is_magnetic", "ordering", "total_magnetization_normalized_vol", "total_magnetization_normalized_formula_units", "num_magnetic_sites", "num_unique_magnetic_sites", "types_of_magnetic_species", "bulk_modulus", "shear_modulus", "universal_anisotropy", "homogeneous_poisson", "e_total", "e_ionic", "e_electronic", "n", "e_ij_max", "weighted_surface_energy_EV_PER_ANG2", "weighted_surface_energy", "weighted_work_function", "surface_anisotropy", "shape_factor", "has_reconstructed", "possible_species", "has_props", "theoretical", "database_IDs"]}