{"builder_meta": null, "nsites": null, "elements": null, "nelements": null, "composition": null, "composition_reduced": null, "formula_pretty": "Dy3Ga2", "formula_anonymous": "A2B3", "chemsys": null, "volume": 992.2843882107703, "density": 8.393306096658822, "density_atomic": 24.80710970526926, "symmetry": null, "property_name": null, "material_id": "mp-1205197", "deprecated": null, "deprecation_reasons": null, "last_updated": null, "origins": null, "warnings": null, "structure": {"@module": "pymatgen.core.structure", "@class": "Structure", "charge": 0, "lattice": {"matrix": [[-5.79046112, -5.79046112, 7.39860544], [-5.79046112, 5.79046112, -7.39860544], [5.79046112, -5.79046112, -7.39860544]], "pbc": [true, true, true], "a": 11.036224101623748, "b": 11.036224101623748, "c": 11.036224101623748, "alpha": 95.80521924791205, "beta": 116.70689719193273, "gamma": 116.70689719193273, "volume": 992.2843882107703}, "properties": {}, "sites": [{"species": [{"element": "Dy", "occu": 1}], "abc": [0.5, 0.85319761, 0.35319761], "properties": {"magmom": -0.0}, "label": "Dy", "xyz": [-5.79046112, 0.0, -5.226339517481996]}, {"species": [{"element": "Dy", "occu": 1}], "abc": [0.5, 0.35319761, 0.85319761], "properties": {"magmom": -0.0}, "label": "Dy", "xyz": [0.0, -5.79046112, -5.226339517481996]}, {"species": [{"element": "Dy", "occu": 1}], "abc": [0.5, 0.14680239, 0.6468023900000001], "properties": {"magmom": -0.0}, "label": "Dy", "xyz": [4.440892098500626e-16, -5.79046112, -2.1722659225180037]}, {"species": [{"element": "Dy", "occu": 1}], "abc": [0.5, 0.6468023900000001, 0.14680239], "properties": {"magmom": -0.0}, "label": "Dy", "xyz": [-5.79046112, 2.220446049250313e-16, -2.1722659225180037]}, {"species": [{"element": "Dy", "occu": 1}], "abc": [0.16400923, 0.33200462000000003, 0.83200462], "properties": {"magmom": -0.001}, "label": "Dy", "xyz": [1.945541490363862, -3.8449196296361374, -7.3986055139860545]}, {"species": [{"element": "Dy", "occu": 1}], "abc": [0.83599077, 0.66799538, 0.16799538], "properties": {"magmom": -0.001}, "label": "Dy", "xyz": [-7.736002610363862, -1.945541490363862, 7.398605372799238e-08]}, {"species": [{"element": "Dy", "occu": 1}], "abc": [0.5, 0.16799538, 0.33200462000000003], "properties": {"magmom": -0.001}, "label": "Dy", "xyz": [-1.9455414324592508, -3.8449196875407488, 0.0]}, {"species": [{"element": "Dy", "occu": 1}], "abc": [0.5, 0.83200462, 0.66799538], "properties": {"magmom": -0.001}, "label": "Dy", "xyz": [-3.8449196875407488, -1.945541432459251, -7.398605440000001]}, {"species": [{"element": "Dy", "occu": 1}], "abc": [0.73009017, 0.56825853, 0.43358287], "properties": {"magmom": -0.0}, "label": "Dy", "xyz": [-5.00739291651953, -3.4477245704388513, -2.0105801286046914]}, {"species": [{"element": "Dy", "occu": 1}], "abc": [0.26990983, 0.7034927, 0.83816735], "properties": {"magmom": -0.0}, "label": "Dy", "xyz": [-0.783074051846202, -2.342730701195417, -9.409178096013196]}, {"species": [{"element": "Dy", "occu": 1}], "abc": [0.86532534, 0.2034927, 0.9335828700000001], "properties": {"magmom": -0.0}, "label": "Dy", "xyz": [-0.7830739939415903, -9.238191480899971, -2.010572729999252]}, {"species": [{"element": "Dy", "occu": 1}], "abc": [0.13467466, 0.06825853, 0.33816735000000003], "properties": {"magmom": -0.0}, "label": "Dy", "xyz": [0.7830681455758595, -2.342724910734298, -2.0105800546186368]}, {"species": [{"element": "Dy", "occu": 1}], "abc": [0.86532534, 0.43358287, 0.7034927], "properties": {"magmom": -0.0}, "label": "Dy", "xyz": [-3.447730360899971, -6.57353511394159, -2.010572729999251]}, {"species": [{"element": "Dy", "occu": 1}], "abc": [0.13467466, 0.83816735, 0.56825853], "properties": {"magmom": -0.0}, "label": "Dy", "xyz": [-2.342724910734297, 0.7830681455758586, -9.409185494618637]}, {"species": [{"element": "Dy", "occu": 1}], "abc": [0.73009017, 0.9335828700000001, 0.06825853], "properties": {"magmom": -0.0}, "label": "Dy", "xyz": [-9.23818569043885, 0.7830682034804706, -2.0105801286046914]}, {"species": [{"element": "Dy", "occu": 1}], "abc": [0.26990983, 0.33816735000000003, 0.2034927], "properties": {"magmom": -0.0}, "label": "Dy", "xyz": [-2.3427307011954177, -0.7830740518462014, -2.0105726560131965]}, {"species": [{"element": "Dy", "occu": 1}], "abc": [0.26990983, 0.43174147, 0.56641713], "properties": {"magmom": -0.0}, "label": "Dy", "xyz": [-0.7830682034804703, -2.342736549561149, -5.3880253113953085]}, {"species": [{"element": "Dy", "occu": 1}], "abc": [0.73009017, 0.2965073, 0.16183265], "properties": {"magmom": -0.0}, "label": "Dy", "xyz": [-5.007387068153799, -3.4477304188045825, 2.0105726560131973]}, {"species": [{"element": "Dy", "occu": 1}], "abc": [0.13467466, 0.796507299999999, 0.06641713], "properties": {"magmom": -0.0}, "label": "Dy", "xyz": [-5.007387126058404, 3.4477303608999654, -5.388032710000742]}, {"species": [{"element": "Dy", "occu": 1}], "abc": [0.86532534, 0.9317414700000001, 0.66183265], "properties": {"magmom": -0.0}, "label": "Dy", "xyz": [-6.573529265575861, -3.447736209265702, -5.388025385381363]}, {"species": [{"element": "Dy", "occu": 1}], "abc": [0.13467466, 0.56641713, 0.2965073], "properties": {"magmom": -0.0}, "label": "Dy", "xyz": [-2.3427307591000295, 0.7830739939415907, -5.388032710000749]}, {"species": [{"element": "Dy", "occu": 1}], "abc": [0.86532534, 0.16183265, 0.43174147], "properties": {"magmom": -0.0}, "label": "Dy", "xyz": [-3.4477362092657025, -6.573529265575859, 2.0105800546186363]}, {"species": [{"element": "Dy", "occu": 1}], "abc": [0.26990983, 0.06641713, 0.9317414700000001], "properties": {"magmom": -0.0}, "label": "Dy", "xyz": [3.4477245704388513, -6.573529323480471, -5.3880253113953085]}, {"species": [{"element": "Dy", "occu": 1}], "abc": [0.73009017, 0.66183265, 0.796507299999999], "properties": {"magmom": -0.0}, "label": "Dy", "xyz": [-3.4477304188045883, -5.007387068153793, -5.388032783986795]}, {"species": [{"element": "Ga", "occu": 1}], "abc": [0.0, 0.75, 0.75], "properties": {"magmom": 0.0}, "label": "Ga", "xyz": [0.0, 0.0, -11.09790816]}, {"species": [{"element": "Ga", "occu": 1}], "abc": [0.0, 0.25, 0.25], "properties": {"magmom": 0.0}, "label": "Ga", "xyz": [0.0, 0.0, -3.69930272]}, {"species": [{"element": "Ga", "occu": 1}], "abc": [0.0, 0.5, 0.5], "properties": {"magmom": 0.0}, "label": "Ga", "xyz": [0.0, 0.0, -7.39860544]}, {"species": [{"element": "Ga", "occu": 1}], "abc": [0.0, 0.0, -0.0], "properties": {"magmom": 0.0}, "label": "Ga", "xyz": [0.0, 0.0, 0.0]}, {"species": [{"element": "Ga", "occu": 1}], "abc": [0.26526659, 0.88263379, 0.38263379000000003], "properties": {"magmom": -0.0}, "label": "Ga", "xyz": [-4.431246435829981, 1.359214684170019, -7.3986127646193856]}, {"species": [{"element": "Ga", "occu": 1}], "abc": [0.73473341, 0.11736621, 0.61736621], "properties": {"magmom": -0.0}, "label": "Ga", "xyz": [-1.359214684170019, -7.149675804170019, 7.3246193856846276e-06]}, {"species": [{"element": "Ga", "occu": 1}], "abc": [0.5, 0.61736621, 0.88263379], "properties": {"magmom": -0.0}, "label": "Ga", "xyz": [-1.3592089516135104, -4.431252168386489, -7.398605439999999]}, {"species": [{"element": "Ga", "occu": 1}], "abc": [0.5, 0.38263379000000003, 0.11736621], "properties": {"magmom": -0.0}, "label": "Ga", "xyz": [-4.431252168386489, -1.3592089516135104, -1.1102230246251565e-16]}, {"species": [{"element": "Ga", "occu": 1}], "abc": [0.14371151000000001, 0.12084189000000001, 0.62084189], "properties": {"magmom": 0.0}, "label": "Ga", "xyz": [2.0630746488485086, -3.7273864711514912, -4.424160889791149]}, {"species": [{"element": "Ga", "occu": 1}], "abc": [0.8562884900000001, 0.47713237000000003, 0.97713237], "properties": {"magmom": 0.0}, "label": "Ga", "xyz": [-2.0630746488485094, -7.853535768848509, -4.4241903362408]}, {"species": [{"element": "Ga", "occu": 1}], "abc": [0.5, 0.97713237, 0.12084189000000001], "properties": {"magmom": 0.0}, "label": "Ga", "xyz": [-7.853547291866137, 2.0630861718661375, -4.424175613015974]}, {"species": [{"element": "Ga", "occu": 1}], "abc": [0.5, 0.62084189, 0.47713237000000003], "properties": {"magmom": 0.0}, "label": "Ga", "xyz": [-3.7273749481338623, -2.0630861718661375, -4.424175613015975]}, {"species": [{"element": "Ga", "occu": 1}], "abc": [0.8562884900000001, 0.87915811, 0.37915811], "properties": {"magmom": 0.0}, "label": "Ga", "xyz": [-7.853535768848509, -2.0630746488485094, -2.974444550208851]}, {"species": [{"element": "Ga", "occu": 1}], "abc": [0.14371151000000001, 0.52286763, 0.02286763], "properties": {"magmom": 0.0}, "label": "Ga", "xyz": [-3.7273864711514912, 2.0630746488485086, -2.9744151037592004]}, {"species": [{"element": "Ga", "occu": 1}], "abc": [0.5, 0.02286763, 0.87915811], "properties": {"magmom": 0.0}, "label": "Ga", "xyz": [2.0630861718661375, -7.853547291866137, -2.974429826984026]}, {"species": [{"element": "Ga", "occu": 1}], "abc": [0.5, 0.37915811, 0.52286763], "properties": {"magmom": 0.0}, "label": "Ga", "xyz": [-2.0630861718661375, -3.7273749481338623, -2.9744298269840255]}]}, "task_ids": null, "uncorrected_energy_per_atom": null, "energy_per_atom": -24.41023177025, "formation_energy_per_atom": -0.6440394552499981, "energy_above_hull": 0.0, "is_stable": true, "equilibrium_reaction_energy_per_atom": null, "decomposes_to": null, "xas": null, "grain_boundaries": null, "band_gap": 0.005699999999999, "cbm": null, "vbm": null, "efermi": 3.18312436, "is_gap_direct": null, "is_metal": null, "es_source_calc_id": null, "bandstructure": null, "dos": null, "dos_energy_up": null, "dos_energy_down": null, "is_magnetic": null, "ordering": null, "total_magnetization": 0.017419499999999002, "total_magnetization_normalized_vol": null, "total_magnetization_normalized_formula_units": null, "num_magnetic_sites": null, "num_unique_magnetic_sites": null, "types_of_magnetic_species": null, "bulk_modulus": null, "shear_modulus": null, "universal_anisotropy": null, "homogeneous_poisson": null, "e_total": null, "e_ionic": null, "e_electronic": null, "n": null, "e_ij_max": null, "weighted_surface_energy_EV_PER_ANG2": null, "weighted_surface_energy": null, "weighted_work_function": null, "surface_anisotropy": null, "shape_factor": null, "has_reconstructed": null, "possible_species": null, "has_props": null, "theoretical": null, "database_IDs": null, "fields_not_requested": ["builder_meta", "nsites", "elements", "nelements", "composition", "composition_reduced", "chemsys", "symmetry", "property_name", "deprecated", "deprecation_reasons", "last_updated", "origins", "warnings", "task_ids", "uncorrected_energy_per_atom", "equilibrium_reaction_energy_per_atom", "decomposes_to", "xas", "grain_boundaries", "cbm", "vbm", "is_gap_direct", "is_metal", "es_source_calc_id", "bandstructure", "dos", "dos_energy_up", "dos_energy_down", "is_magnetic", "ordering", "total_magnetization_normalized_vol", "total_magnetization_normalized_formula_units", "num_magnetic_sites", "num_unique_magnetic_sites", "types_of_magnetic_species", "bulk_modulus", "shear_modulus", "universal_anisotropy", "homogeneous_poisson", "e_total", "e_ionic", "e_electronic", "n", "e_ij_max", "weighted_surface_energy_EV_PER_ANG2", "weighted_surface_energy", "weighted_work_function", "surface_anisotropy", "shape_factor", "has_reconstructed", "possible_species", "has_props", "theoretical", "database_IDs"]}