{"builder_meta": null, "nsites": null, "elements": null, "nelements": null, "composition": null, "composition_reduced": null, "formula_pretty": "Dy3Ge4", "formula_anonymous": "A3B4", "chemsys": null, "volume": 306.15055434273114, "density": 8.4402853944365, "density_atomic": 21.86789673876651, "symmetry": null, "property_name": null, "material_id": "mp-655448", "deprecated": null, "deprecation_reasons": null, "last_updated": null, "origins": null, "warnings": null, "structure": {"@module": "pymatgen.core.structure", "@class": "Structure", "charge": 0, "lattice": {"matrix": [[4.05667737, 1.859e-05, -1.186e-05], [-2.02821839, 5.31499867, 8.774000000000001e-05], [-2.3670000000000002e-05, 0.00016096, 14.19909488]], "pbc": [true, true, true], "a": 4.056677370059932, "b": 5.688838256387174, "c": 14.199094880932046, "alpha": 89.99847544448446, "beta": 90.00026301802814, "gamma": 110.88673199315846, "volume": 306.15055434273114}, "properties": {}, "sites": [{"species": [{"element": "Dy", "occu": 1}], "abc": [0.66742475, 0.33984479, 0.09671556], "properties": {"magmom": 0.0}, "label": "Dy", "xyz": [2.018245137421914, 1.8063025816190694, 1.3732953151366725]}, {"species": [{"element": "Dy", "occu": 1}], "abc": [0.32814406, 0.660847499999999, 0.9035899], "properties": {"magmom": 0.0}, "label": "Dy", "xyz": [-0.009189858156533785, 3.5125551256011995, 12.83021281368081]}, {"species": [{"element": "Dy", "occu": 1}], "abc": [0.6675495100000001, 0.34027554, 0.40352682], "properties": {"magmom": -0.0}, "label": "Dy", "xyz": [2.017870331196579, 1.8086414039558696, 5.729737542443373]}, {"species": [{"element": "Dy", "occu": 1}], "abc": [0.32823211, 0.66122417, 0.59663866], "properties": {"magmom": -0.0}, "label": "Dy", "xyz": [-0.009589371199217869, 3.5145077209154922, 8.47178306539191]}, {"species": [{"element": "Dy", "occu": 1}], "abc": [0.95307138, 0.91071732, 0.25008985], "properties": {"magmom": -0.0}, "label": "Dy", "xyz": [2.019163563098406, 4.8405193166051745, 3.5511181115860584]}, {"species": [{"element": "Dy", "occu": 1}], "abc": [0.0425005, 0.0903363, 0.75012271], "properties": {"magmom": -0.0}, "label": "Dy", "xyz": [-0.010828683785417726, 0.4802588441884175, 10.651070952983757]}, {"species": [{"element": "Ge", "occu": 1}], "abc": [0.22501057, 0.45505033, 0.25013937], "properties": {"magmom": -0.0}, "label": "Ge", "xyz": [-0.010152081150655863, 2.4186363441125525, 3.55178990534402]}, {"species": [{"element": "Ge", "occu": 1}], "abc": [0.7706884700000001, 0.54599198, 0.750146499999999], "properties": {"magmom": 0.0}, "label": "Ge", "xyz": [2.019025744972757, 2.902081718209964, 10.651440092370978]}, {"species": [{"element": "Ge", "occu": 1}], "abc": [0.3779744, 0.76101008, 0.10915631], "properties": {"magmom": 0.0}, "label": "Ge", "xyz": [-0.010177028041900986, 4.044792159400347, 1.5499830906887282]}, {"species": [{"element": "Ge", "occu": 1}], "abc": [0.9977903100000001, 0.00021349999999900003, 0.00016781], "properties": {"magmom": 0.0}, "label": "Ge", "xyz": [4.047280341983959, 0.001153328148600185, 0.0023709350512262]}, {"species": [{"element": "Ge", "occu": 1}], "abc": [0.37810832, 0.76144356, 0.39105569], "properties": {"magmom": 0.0}, "label": "Ge", "xyz": [-0.01051962247453245, 4.047141482037596, 5.552699170367147]}, {"species": [{"element": "Ge", "occu": 1}], "abc": [0.61759491, 0.23963164, 0.8910704700000001], "properties": {"magmom": -0.0}, "label": "Ge", "xyz": [2.019336904512302, 1.273796755682147, 12.652407848900655]}, {"species": [{"element": "Ge", "occu": 1}], "abc": [0.99804114, 0.00094633, 0.50020553], "properties": {"magmom": -0.0}, "label": "Ge", "xyz": [4.0467997031930985, 0.005128809358282499, 7.102454026233761]}, {"species": [{"element": "Ge", "occu": 1}], "abc": [0.6176885400000001, 0.23999795000000002, 0.60917681], "properties": {"magmom": -0.0}, "label": "Ge", "xyz": [2.0189804469589467, 1.2756983209820227, 8.649773055519782]}]}, "task_ids": null, "uncorrected_energy_per_atom": null, "energy_per_atom": -22.504713818571428, "formation_energy_per_atom": -0.871382390714286, "energy_above_hull": 0.0, "is_stable": true, "equilibrium_reaction_energy_per_atom": null, "decomposes_to": null, "xas": null, "grain_boundaries": null, "band_gap": 0.0, "cbm": null, "vbm": null, "efermi": 5.05085583, "is_gap_direct": null, "is_metal": null, "es_source_calc_id": null, "bandstructure": null, "dos": null, "dos_energy_up": null, "dos_energy_down": null, "is_magnetic": null, "ordering": null, "total_magnetization": 1e-07, "total_magnetization_normalized_vol": null, "total_magnetization_normalized_formula_units": null, "num_magnetic_sites": null, "num_unique_magnetic_sites": null, "types_of_magnetic_species": null, "bulk_modulus": null, "shear_modulus": null, "universal_anisotropy": null, "homogeneous_poisson": null, "e_total": null, "e_ionic": null, "e_electronic": null, "n": null, "e_ij_max": null, "weighted_surface_energy_EV_PER_ANG2": null, "weighted_surface_energy": null, "weighted_work_function": null, "surface_anisotropy": null, "shape_factor": null, "has_reconstructed": null, "possible_species": null, "has_props": null, "theoretical": null, "database_IDs": null, "fields_not_requested": ["builder_meta", "nsites", "elements", "nelements", "composition", "composition_reduced", "chemsys", "symmetry", "property_name", "deprecated", "deprecation_reasons", "last_updated", "origins", "warnings", "task_ids", "uncorrected_energy_per_atom", "equilibrium_reaction_energy_per_atom", "decomposes_to", "xas", "grain_boundaries", "cbm", "vbm", "is_gap_direct", "is_metal", "es_source_calc_id", "bandstructure", "dos", "dos_energy_up", "dos_energy_down", "is_magnetic", "ordering", "total_magnetization_normalized_vol", "total_magnetization_normalized_formula_units", "num_magnetic_sites", "num_unique_magnetic_sites", "types_of_magnetic_species", "bulk_modulus", "shear_modulus", "universal_anisotropy", "homogeneous_poisson", "e_total", "e_ionic", "e_electronic", "n", "e_ij_max", "weighted_surface_energy_EV_PER_ANG2", "weighted_surface_energy", "weighted_work_function", "surface_anisotropy", "shape_factor", "has_reconstructed", "possible_species", "has_props", "theoretical", "database_IDs"]}