{
  "builder_meta": null,
  "nsites": null,
  "elements": null,
  "nelements": null,
  "composition": null,
  "composition_reduced": null,
  "formula_pretty": "Dy3Ge5",
  "formula_anonymous": "A3B5",
  "chemsys": null,
  "volume": 340.2531124267701,
  "density": 8.303351430830169,
  "density_atomic": 21.26581952667313,
  "symmetry": null,
  "property_name": null,
  "material_id": "mp-505577",
  "deprecated": null,
  "deprecation_reasons": null,
  "last_updated": null,
  "origins": null,
  "warnings": null,
  "structure": {
    "@module": "pymatgen.core.structure",
    "@class": "Structure",
    "charge": 0,
    "lattice": {
      "matrix": [
        [5.45221838, 0.0007851, 1.80414049],
        [2.7269867100000003, 6.85535071, 0.90238343],
        [-0.024177, 0.0004119, 9.09582824]
      ],
      "pbc": [true, true, true],
      "a": 5.742961673844714,
      "b": 7.432804701346101,
      "c": 9.095860380886027,
      "alpha": 83.08067605089158,
      "beta": 71.84290033522242,
      "gamma": 67.25833864726958,
      "volume": 340.2531124267701
    },
    "properties": {},
    "sites": [
      {
        "species": [{ "element": "Dy", "occu": 1 }],
        "abc": [0.99568388, 0.00841454, 4.6580000000000005e-5],
        "properties": { "magmom": 0.0 },
        "label": "Dy",
        "xyz": [5.451631163791817, 0.058466353363813395, 1.8043704282947925]
      },
      {
        "species": [{ "element": "Dy", "occu": 1 }],
        "abc": [0.24582422, 0.50817129, 0.50001425],
        "properties": { "magmom": 0.0 },
        "label": "Dy",
        "xyz": [2.71397484024447, 3.4840913661678132, 5.450110515974812]
      },
      {
        "species": [{ "element": "Dy", "occu": 1 }],
        "abc": [0.57336188, 0.49294675, 0.83447542],
        "properties": { "magmom": -0.0 },
        "label": "Dy",
        "xyz": [4.450178304285707, 3.3801167194421784, 9.069497453024734]
      },
      {
        "species": [{ "element": "Dy", "occu": 1 }],
        "abc": [0.93359223, 0.49286415, 0.1654201],
        "properties": { "magmom": -0.0 },
        "label": "Dy",
        "xyz": [6.430183340958934, 3.3795577004350092, 3.6337168025370508]
      },
      {
        "species": [{ "element": "Dy", "occu": 1 }],
        "abc": [0.34910839, 0.99318828, 0.33479762],
        "properties": { "magmom": 0.0 },
        "label": "Dy",
        "xyz": [4.603732018599228, 6.809065968598346, 4.5713388752207]
      },
      {
        "species": [{ "element": "Dy", "occu": 1 }],
        "abc": [0.6574559, 0.99319573, 0.66531874],
        "properties": { "magmom": 0.0 },
        "label": "Dy",
        "xyz": [6.276939286981211, 6.809495266240565, 8.134011162971362]
      },
      {
        "species": [{ "element": "Ge", "occu": 1 }],
        "abc": [0.44027097, 0.1191458, 0.00010623],
        "properties": { "magmom": 0.0 },
        "label": "Ge",
        "xyz": [2.7253599196440366, 0.817131945118202, 0.9027921290566044]
      },
      {
        "species": [{ "element": "Ge", "occu": 1 }],
        "abc": [0.68928772, 0.62115762, 0.49988644],
        "properties": { "magmom": 0.0 },
        "label": "Ge",
        "xyz": [5.439949996187644, 4.259000394302518, 6.350975426363085]
      },
      {
        "species": [{ "element": "Ge", "occu": 1 }],
        "abc": [0.90579916, 0.69797899, 0.87072072],
        "properties": { "magmom": -0.0 },
        "label": "Ge",
        "xyz": [6.820942843482344, 4.785960557446667, 10.183959729557255]
      },
      {
        "species": [{ "element": "Ge", "occu": 1 }],
        "abc": [0.39643652, 0.69849677, 0.12887862],
        "properties": { "magmom": 0.0 },
        "label": "Ge",
        "xyz": [4.063133991219424, 4.7888046555676365, 2.5177968799314447]
      },
      {
        "species": [{ "element": "Ge", "occu": 1 }],
        "abc": [0.77500934, 0.19703026, 0.3700209],
        "properties": { "magmom": 0.0 },
        "label": "Ge",
        "xyz": [4.753873073408214, 1.3514724042240285, 4.941669123864984]
      },
      {
        "species": [{ "element": "Ge", "occu": 1 }],
        "abc": [0.02793129, 0.19669056000000001, 0.63035776],
        "properties": { "magmom": -0.0 },
        "label": "Ge",
        "xyz": [0.673419876254048, 1.3486643433634207, 5.961508188119495]
      },
      {
        "species": [{ "element": "Ge", "occu": 1 }],
        "abc": [0.17073727, 0.33577874, 0.82524613],
        "properties": { "magmom": 0.0 },
        "label": "Ge",
        "xyz": [1.826609067440558, 2.30235498837353, 8.11733224728605]
      },
      {
        "species": [{ "element": "Ge", "occu": 1 }],
        "abc": [0.49364538, 0.33605868, 0.17456851],
        "properties": { "magmom": -0.0 },
        "label": "Ge",
        "xyz": [3.603669425311957, 2.3042595762967695, 2.7817045851718314]
      },
      {
        "species": [{ "element": "Ge", "occu": 1 }],
        "abc": [0.92012708, 0.83454262, 0.32505084],
        "properties": { "magmom": -0.0 },
        "label": "Ge",
        "xyz": [7.284661657021631, 5.721938622753765, 5.369722562797977]
      },
      {
        "species": [{ "element": "Ge", "occu": 1 }],
        "abc": [0.24572977000000001, 0.8343392, 0.67509114],
        "properties": { "magmom": -0.0 },
        "label": "Ge",
        "xyz": [3.598682600047425, 5.720158819583824, 7.336737952520636]
      }
    ]
  },
  "task_ids": null,
  "uncorrected_energy_per_atom": null,
  "energy_per_atom": -21.44261989375,
  "formation_energy_per_atom": -0.7794576968749991,
  "energy_above_hull": 0.0,
  "is_stable": true,
  "equilibrium_reaction_energy_per_atom": null,
  "decomposes_to": null,
  "xas": null,
  "grain_boundaries": null,
  "band_gap": 0.0,
  "cbm": null,
  "vbm": null,
  "efermi": 5.41363985,
  "is_gap_direct": null,
  "is_metal": null,
  "es_source_calc_id": null,
  "bandstructure": null,
  "dos": null,
  "dos_energy_up": null,
  "dos_energy_down": null,
  "is_magnetic": null,
  "ordering": null,
  "total_magnetization": 4e-7,
  "total_magnetization_normalized_vol": null,
  "total_magnetization_normalized_formula_units": null,
  "num_magnetic_sites": null,
  "num_unique_magnetic_sites": null,
  "types_of_magnetic_species": null,
  "bulk_modulus": null,
  "shear_modulus": null,
  "universal_anisotropy": null,
  "homogeneous_poisson": null,
  "e_total": null,
  "e_ionic": null,
  "e_electronic": null,
  "n": null,
  "e_ij_max": null,
  "weighted_surface_energy_EV_PER_ANG2": null,
  "weighted_surface_energy": null,
  "weighted_work_function": null,
  "surface_anisotropy": null,
  "shape_factor": null,
  "has_reconstructed": null,
  "possible_species": null,
  "has_props": null,
  "theoretical": null,
  "database_IDs": null,
  "fields_not_requested": [
    "builder_meta",
    "nsites",
    "elements",
    "nelements",
    "composition",
    "composition_reduced",
    "chemsys",
    "symmetry",
    "property_name",
    "deprecated",
    "deprecation_reasons",
    "last_updated",
    "origins",
    "warnings",
    "task_ids",
    "uncorrected_energy_per_atom",
    "equilibrium_reaction_energy_per_atom",
    "decomposes_to",
    "xas",
    "grain_boundaries",
    "cbm",
    "vbm",
    "is_gap_direct",
    "is_metal",
    "es_source_calc_id",
    "bandstructure",
    "dos",
    "dos_energy_up",
    "dos_energy_down",
    "is_magnetic",
    "ordering",
    "total_magnetization_normalized_vol",
    "total_magnetization_normalized_formula_units",
    "num_magnetic_sites",
    "num_unique_magnetic_sites",
    "types_of_magnetic_species",
    "bulk_modulus",
    "shear_modulus",
    "universal_anisotropy",
    "homogeneous_poisson",
    "e_total",
    "e_ionic",
    "e_electronic",
    "n",
    "e_ij_max",
    "weighted_surface_energy_EV_PER_ANG2",
    "weighted_surface_energy",
    "weighted_work_function",
    "surface_anisotropy",
    "shape_factor",
    "has_reconstructed",
    "possible_species",
    "has_props",
    "theoretical",
    "database_IDs"
  ]
}
