{
  "builder_meta": null,
  "nsites": null,
  "elements": null,
  "nelements": null,
  "composition": null,
  "composition_reduced": null,
  "formula_pretty": "Dy3Ir",
  "formula_anonymous": "AB3",
  "chemsys": null,
  "volume": 424.9840477236151,
  "density": 10.623425879422097,
  "density_atomic": 26.561502982725944,
  "symmetry": null,
  "property_name": null,
  "material_id": "mp-1105615",
  "deprecated": null,
  "deprecation_reasons": null,
  "last_updated": null,
  "origins": null,
  "warnings": null,
  "structure": {
    "@module": "pymatgen.core.structure",
    "@class": "Structure",
    "charge": 0,
    "lattice": {
      "matrix": [
        [1.05e-6, 0.0, 6.41238026],
        [7.19511857, 0.0, 1.06e-6],
        [0.0, 9.21118288, 0.0]
      ],
      "pbc": [true, true, true],
      "a": 6.412380260000086,
      "b": 7.195118570000078,
      "c": 9.21118288,
      "alpha": 90.0,
      "beta": 90.0,
      "gamma": 89.999982177125,
      "volume": 424.9840477236151
    },
    "properties": {},
    "sites": [
      {
        "species": [{ "element": "Dy", "occu": 1 }],
        "abc": [0.32230551, 0.67488826, 0.0637195],
        "properties": { "magmom": 0.0 },
        "label": "Dy",
        "xyz": [4.855901390621774, 0.58693196752216, 2.0667462053947885]
      },
      {
        "species": [{ "element": "Dy", "occu": 1 }],
        "abc": [0.17769649, 0.17489126, 0.4362795],
        "properties": { "magmom": 0.0 },
        "label": "Dy",
        "xyz": [1.2583635391380126, 4.01865026129496, 1.139457650132023]
      },
      {
        "species": [{ "element": "Dy", "occu": 1 }],
        "abc": [0.67769449, 0.32511174, 0.563719499999999],
        "properties": { "magmom": 0.0 },
        "label": "Dy",
        "xyz": [2.3392182293782264, 5.192523407522152, 4.345635114605211]
      },
      {
        "species": [{ "element": "Dy", "occu": 1 }],
        "abc": [0.82230351, 0.82510874, 0.936279499999999],
        "properties": { "magmom": 0.0 },
        "label": "Dy",
        "xyz": [5.936756080861988, 8.624241701294952, 5.272923669867978]
      },
      {
        "species": [{ "element": "Dy", "occu": 1 }],
        "abc": [0.67769449, 0.32511174, 0.9362805],
        "properties": { "magmom": 0.0 },
        "label": "Dy",
        "xyz": [2.3392182293782264, 8.62425091247784, 4.345635114605211]
      },
      {
        "species": [{ "element": "Dy", "occu": 1 }],
        "abc": [0.82230351, 0.82510874, 0.5637205],
        "properties": { "magmom": 0.0 },
        "label": "Dy",
        "xyz": [5.936756080861988, 5.19253261870504, 5.272923669867978]
      },
      {
        "species": [{ "element": "Dy", "occu": 1 }],
        "abc": [0.32230551, 0.67488826, 0.436280499999999],
        "properties": { "magmom": 0.0 },
        "label": "Dy",
        "xyz": [4.855901390621774, 4.0186594724778315, 2.0667462053947885]
      },
      {
        "species": [{ "element": "Dy", "occu": 1 }],
        "abc": [0.17769649, 0.17489126, 0.0637205],
        "properties": { "magmom": 0.0 },
        "label": "Dy",
        "xyz": [1.2583635391380126, 0.58694117870504, 1.139457650132023]
      },
      {
        "species": [{ "element": "Dy", "occu": 1 }],
        "abc": [0.86952333, 0.53710982, 0.25],
        "properties": { "magmom": 0.0 },
        "label": "Dy",
        "xyz": [3.8645697530108536, 2.30279572, 5.575714806237875]
      },
      {
        "species": [{ "element": "Dy", "occu": 1 }],
        "abc": [0.63047567, 0.03711082, 0.25],
        "properties": { "magmom": 0.0 },
        "label": "Dy",
        "xyz": [0.2670174121293809, 2.30279572, 4.042849780055744]
      },
      {
        "species": [{ "element": "Dy", "occu": 1 }],
        "abc": [0.13047667, 0.46289018, 0.75],
        "properties": { "magmom": 0.0 },
        "label": "Dy",
        "xyz": [3.330549866989146, 6.90838716, 0.8366665137621249]
      },
      {
        "species": [{ "element": "Dy", "occu": 1 }],
        "abc": [0.36952433, 0.96288918, 0.75],
        "properties": { "magmom": 0.0 },
        "label": "Dy",
        "xyz": [6.928102207870619, 6.90838716, 2.3695315399442567]
      },
      {
        "species": [{ "element": "Ir", "occu": 1 }],
        "abc": [0.04046991, 0.8853230400000001, 0.25],
        "properties": { "magmom": -0.0 },
        "label": "Ir",
        "xyz": [6.370004288046259, 2.30279572, 0.25950939045039895]
      },
      {
        "species": [{ "element": "Ir", "occu": 1 }],
        "abc": [0.45952909000000003, 0.38532404000000003, 0.25],
        "properties": { "magmom": -0.0 },
        "label": "Ir",
        "xyz": [2.7724526381769676, 2.30279572, 2.946675674055246]
      },
      {
        "species": [{ "element": "Ir", "occu": 1 }],
        "abc": [0.95953009, 0.11467696000000001, 0.75],
        "properties": { "magmom": -0.0 },
        "label": "Ir",
        "xyz": [0.8251153319537418, 6.90838716, 6.152871929549601]
      },
      {
        "species": [{ "element": "Ir", "occu": 1 }],
        "abc": [0.54047091, 0.61467596, 0.75],
        "properties": { "magmom": -0.0 },
        "label": "Ir",
        "xyz": [4.422666981823033, 6.90838716, 3.4657056459447544]
      }
    ]
  },
  "task_ids": null,
  "uncorrected_energy_per_atom": null,
  "energy_per_atom": -6.248036535625001,
  "formation_energy_per_atom": -0.5746463443749971,
  "energy_above_hull": 0.0,
  "is_stable": true,
  "equilibrium_reaction_energy_per_atom": null,
  "decomposes_to": null,
  "xas": null,
  "grain_boundaries": null,
  "band_gap": 0.0,
  "cbm": null,
  "vbm": null,
  "efermi": 4.1104985,
  "is_gap_direct": null,
  "is_metal": null,
  "es_source_calc_id": null,
  "bandstructure": null,
  "dos": null,
  "dos_energy_up": null,
  "dos_energy_down": null,
  "is_magnetic": null,
  "ordering": null,
  "total_magnetization": 0.0005204,
  "total_magnetization_normalized_vol": null,
  "total_magnetization_normalized_formula_units": null,
  "num_magnetic_sites": null,
  "num_unique_magnetic_sites": null,
  "types_of_magnetic_species": null,
  "bulk_modulus": null,
  "shear_modulus": null,
  "universal_anisotropy": null,
  "homogeneous_poisson": null,
  "e_total": null,
  "e_ionic": null,
  "e_electronic": null,
  "n": null,
  "e_ij_max": null,
  "weighted_surface_energy_EV_PER_ANG2": null,
  "weighted_surface_energy": null,
  "weighted_work_function": null,
  "surface_anisotropy": null,
  "shape_factor": null,
  "has_reconstructed": null,
  "possible_species": null,
  "has_props": null,
  "theoretical": null,
  "database_IDs": null,
  "fields_not_requested": [
    "builder_meta",
    "nsites",
    "elements",
    "nelements",
    "composition",
    "composition_reduced",
    "chemsys",
    "symmetry",
    "property_name",
    "deprecated",
    "deprecation_reasons",
    "last_updated",
    "origins",
    "warnings",
    "task_ids",
    "uncorrected_energy_per_atom",
    "equilibrium_reaction_energy_per_atom",
    "decomposes_to",
    "xas",
    "grain_boundaries",
    "cbm",
    "vbm",
    "is_gap_direct",
    "is_metal",
    "es_source_calc_id",
    "bandstructure",
    "dos",
    "dos_energy_up",
    "dos_energy_down",
    "is_magnetic",
    "ordering",
    "total_magnetization_normalized_vol",
    "total_magnetization_normalized_formula_units",
    "num_magnetic_sites",
    "num_unique_magnetic_sites",
    "types_of_magnetic_species",
    "bulk_modulus",
    "shear_modulus",
    "universal_anisotropy",
    "homogeneous_poisson",
    "e_total",
    "e_ionic",
    "e_electronic",
    "n",
    "e_ij_max",
    "weighted_surface_energy_EV_PER_ANG2",
    "weighted_surface_energy",
    "weighted_work_function",
    "surface_anisotropy",
    "shape_factor",
    "has_reconstructed",
    "possible_species",
    "has_props",
    "theoretical",
    "database_IDs"
  ]
}
