{"builder_meta": null, "nsites": null, "elements": null, "nelements": null, "composition": null, "composition_reduced": null, "formula_pretty": "Dy3Lu", "formula_anonymous": "AB3", "chemsys": null, "volume": 249.69049750335324, "density": 8.811327181712462, "density_atomic": 31.211312187919155, "symmetry": null, "property_name": null, "material_id": "mp-1184174", "deprecated": null, "deprecation_reasons": null, "last_updated": null, "origins": null, "warnings": null, "structure": {"@module": "pymatgen.core.structure", "@class": "Structure", "charge": 0, "lattice": {"matrix": [[3.6037912, -6.24194981, 0.0], [3.6037912, 6.24194981, -0.0], [-0.0, 0.0, 5.54998905]], "pbc": [true, true, true], "a": 7.207582704607453, "b": 7.207582704607453, "c": 5.54998905, "alpha": 90.0, "beta": 90.0, "gamma": 120.00000279603684, "volume": 249.69049750335324}, "properties": {}, "sites": [{"species": [{"element": "Dy", "occu": 1}], "abc": [0.832274899999999, 0.1677251, 0.75], "properties": {"magmom": 0.001}, "label": "Dy", "xyz": [3.6037911999999963, -4.148086497845533, 4.1624917875]}, {"species": [{"element": "Dy", "occu": 1}], "abc": [0.3354492, 0.1677251, 0.75], "properties": {"magmom": 0.001}, "label": "Dy", "xyz": [1.8133351144061598, -1.0469254141274211, 4.1624917875]}, {"species": [{"element": "Dy", "occu": 1}], "abc": [0.832274899999999, 0.6645508, 0.75], "properties": {"magmom": 0.001}, "label": "Dy", "xyz": [5.394247285593837, -1.046925414127415, 4.1624917875]}, {"species": [{"element": "Dy", "occu": 1}], "abc": [0.1677251, 0.832274899999999, 0.25], "properties": {"magmom": 0.001}, "label": "Dy", "xyz": [3.6037911999999963, 4.148086497845533, 1.3874972625]}, {"species": [{"element": "Dy", "occu": 1}], "abc": [0.6645508, 0.832274899999999, 0.25], "properties": {"magmom": 0.001}, "label": "Dy", "xyz": [5.394247285593837, 1.046925414127415, 1.3874972625]}, {"species": [{"element": "Dy", "occu": 1}], "abc": [0.1677251, 0.3354492, 0.25], "properties": {"magmom": 0.001}, "label": "Dy", "xyz": [1.8133351144061598, 1.0469254141274211, 1.3874972625]}, {"species": [{"element": "Lu", "occu": 1}], "abc": [0.666667, 0.333333, 0.25], "properties": {"magmom": 0.0}, "label": "Lu", "xyz": [3.6037912, -2.08065409796654, 1.3874972625]}, {"species": [{"element": "Lu", "occu": 1}], "abc": [0.333333, 0.666667, 0.75], "properties": {"magmom": 0.0}, "label": "Lu", "xyz": [3.6037912, 2.08065409796654, 4.1624917875]}]}, "task_ids": null, "uncorrected_energy_per_atom": null, "energy_per_atom": -33.5044509275, "formation_energy_per_atom": 0.0018715370833310002, "energy_above_hull": 0.0018715370833310002, "is_stable": false, "equilibrium_reaction_energy_per_atom": null, "decomposes_to": null, "xas": null, "grain_boundaries": null, "band_gap": 0.0, "cbm": null, "vbm": null, "efermi": 2.98041068, "is_gap_direct": null, "is_metal": null, "es_source_calc_id": null, "bandstructure": null, "dos": null, "dos_energy_up": null, "dos_energy_down": null, "is_magnetic": null, "ordering": null, "total_magnetization": 0.0054984, "total_magnetization_normalized_vol": null, "total_magnetization_normalized_formula_units": null, "num_magnetic_sites": null, "num_unique_magnetic_sites": null, "types_of_magnetic_species": null, "bulk_modulus": null, "shear_modulus": null, "universal_anisotropy": null, "homogeneous_poisson": null, "e_total": null, "e_ionic": null, "e_electronic": null, "n": null, "e_ij_max": null, "weighted_surface_energy_EV_PER_ANG2": null, "weighted_surface_energy": null, "weighted_work_function": null, "surface_anisotropy": null, "shape_factor": null, "has_reconstructed": null, "possible_species": null, "has_props": null, "theoretical": null, "database_IDs": null, "fields_not_requested": ["builder_meta", "nsites", "elements", "nelements", "composition", "composition_reduced", "chemsys", "symmetry", "property_name", "deprecated", "deprecation_reasons", "last_updated", "origins", "warnings", "task_ids", "uncorrected_energy_per_atom", "equilibrium_reaction_energy_per_atom", "decomposes_to", "xas", "grain_boundaries", "cbm", "vbm", "is_gap_direct", "is_metal", "es_source_calc_id", "bandstructure", "dos", "dos_energy_up", "dos_energy_down", "is_magnetic", "ordering", "total_magnetization_normalized_vol", "total_magnetization_normalized_formula_units", "num_magnetic_sites", "num_unique_magnetic_sites", "types_of_magnetic_species", "bulk_modulus", "shear_modulus", "universal_anisotropy", "homogeneous_poisson", "e_total", "e_ionic", "e_electronic", "n", "e_ij_max", "weighted_surface_energy_EV_PER_ANG2", "weighted_surface_energy", "weighted_work_function", "surface_anisotropy", "shape_factor", "has_reconstructed", "possible_species", "has_props", "theoretical", "database_IDs"]}