{
  "builder_meta": null,
  "nsites": null,
  "elements": null,
  "nelements": null,
  "composition": null,
  "composition_reduced": null,
  "formula_pretty": "Dy3Ni2",
  "formula_anonymous": "A2B3",
  "chemsys": null,
  "volume": 221.11713758900004,
  "density": 9.08512269309178,
  "density_atomic": 22.111713758900002,
  "symmetry": null,
  "property_name": null,
  "material_id": "mp-7281",
  "deprecated": null,
  "deprecation_reasons": null,
  "last_updated": null,
  "origins": null,
  "warnings": null,
  "structure": {
    "@module": "pymatgen.core.structure",
    "@class": "Structure",
    "charge": 0,
    "lattice": {
      "matrix": [
        [3.63900163, -0.0, -0.0],
        [-1.81950082, 6.35967709, -1.76038709],
        [-0.0, 0.08003083, 9.53228383]
      ],
      "pbc": [true, true, true],
      "a": 3.63900163,
      "b": 6.845074041213156,
      "c": 9.532619784163742,
      "alpha": 104.44003164806428,
      "beta": 90.0,
      "gamma": 105.41519017041699,
      "volume": 221.11713758900004
    },
    "properties": {},
    "sites": [
      {
        "species": [{ "element": "Dy", "occu": 1 }],
        "abc": [0.14470307, 0.28940714, 0.36379803],
        "properties": { "magmom": 0.116 },
        "label": "Dy",
        "xyz": [-1.8209478507280608e-6, 1.8696510162336875, 2.9583574857450325]
      },
      {
        "species": [{ "element": "Dy", "occu": 1 }],
        "abc": [0.8552969300000001, 0.71059286, 0.63620197],
        "properties": { "magmom": 0.116 },
        "label": "Dy",
        "xyz": [1.8195026309478513, 4.570056903766312, 4.813539254254969]
      },
      {
        "species": [{ "element": "Dy", "occu": 1 }],
        "abc": [0.59716439, 0.19432977, 0.67402172],
        "properties": { "magmom": 0.083 },
        "label": "Dy",
        "xyz": [1.8194990127225443, 1.2898171038635968, 6.08287072431412]
      },
      {
        "species": [{ "element": "Dy", "occu": 1 }],
        "abc": [0.40283561, 0.80567023, 0.32597828],
        "properties": { "magmom": 0.083 },
        "label": "Dy",
        "xyz": [1.7972774557506455e-6, 5.149890816136404, 1.6890260156858818]
      },
      {
        "species": [{ "element": "Dy", "occu": 1 }],
        "abc": [0.8687806, 0.7375622, 0.0018686500000000001],
        "properties": { "magmom": -0.03 },
        "label": "Dy",
        "xyz": [1.8194989918113742, 4.690806975400477, -1.2805824727730684]
      },
      {
        "species": [{ "element": "Dy", "occu": 1 }],
        "abc": [0.13121939999999901, 0.2624378, 0.99813135],
        "properties": { "magmom": -0.03 },
        "label": "Dy",
        "xyz": [1.8181886224377664e-6, 1.7489009445995225, 9.052479212773068]
      },
      {
        "species": [{ "element": "Ni", "occu": 1 }],
        "abc": [0.25667602, 0.51335303, 0.77499282],
        "properties": { "magmom": 0.002 },
        "label": "Ni",
        "xyz": [-1.8038725719815574e-6, 3.3267828226017233, 6.483751479827719]
      },
      {
        "species": [{ "element": "Ni", "occu": 1 }],
        "abc": [0.74332398, 0.48664697, 0.22500718],
        "properties": { "magmom": 0.002 },
        "label": "Ni",
        "xyz": [1.8195026138725718, 3.1129250973982767, 1.2881452601722825]
      },
      {
        "species": [{ "element": "Ni", "occu": 1 }],
        "abc": [0.46537921, 0.93075943, 0.85666039],
        "properties": { "magmom": 0.032 },
        "label": "Ni",
        "xyz": [-1.8423496204178491e-6, 5.9878886653122825, 6.527433098930737]
      },
      {
        "species": [{ "element": "Ni", "occu": 1 }],
        "abc": [0.53462079, 0.06924057, 0.14333961],
        "properties": { "magmom": 0.032 },
        "label": "Ni",
        "xyz": [1.81950265234962, 0.45181925468771755, 1.244463641069265]
      }
    ]
  },
  "task_ids": null,
  "uncorrected_energy_per_atom": null,
  "energy_per_atom": -5.441920138,
  "formation_energy_per_atom": -0.358840148999996,
  "energy_above_hull": 0.0,
  "is_stable": true,
  "equilibrium_reaction_energy_per_atom": null,
  "decomposes_to": null,
  "xas": null,
  "grain_boundaries": null,
  "band_gap": 0.0,
  "cbm": null,
  "vbm": null,
  "efermi": 4.36557112,
  "is_gap_direct": null,
  "is_metal": null,
  "es_source_calc_id": null,
  "bandstructure": null,
  "dos": null,
  "dos_energy_up": null,
  "dos_energy_down": null,
  "is_magnetic": null,
  "ordering": null,
  "total_magnetization": 0.5513563,
  "total_magnetization_normalized_vol": null,
  "total_magnetization_normalized_formula_units": null,
  "num_magnetic_sites": null,
  "num_unique_magnetic_sites": null,
  "types_of_magnetic_species": null,
  "bulk_modulus": null,
  "shear_modulus": null,
  "universal_anisotropy": null,
  "homogeneous_poisson": null,
  "e_total": null,
  "e_ionic": null,
  "e_electronic": null,
  "n": null,
  "e_ij_max": null,
  "weighted_surface_energy_EV_PER_ANG2": null,
  "weighted_surface_energy": null,
  "weighted_work_function": null,
  "surface_anisotropy": null,
  "shape_factor": null,
  "has_reconstructed": null,
  "possible_species": null,
  "has_props": null,
  "theoretical": null,
  "database_IDs": null,
  "fields_not_requested": [
    "builder_meta",
    "nsites",
    "elements",
    "nelements",
    "composition",
    "composition_reduced",
    "chemsys",
    "symmetry",
    "property_name",
    "deprecated",
    "deprecation_reasons",
    "last_updated",
    "origins",
    "warnings",
    "task_ids",
    "uncorrected_energy_per_atom",
    "equilibrium_reaction_energy_per_atom",
    "decomposes_to",
    "xas",
    "grain_boundaries",
    "cbm",
    "vbm",
    "is_gap_direct",
    "is_metal",
    "es_source_calc_id",
    "bandstructure",
    "dos",
    "dos_energy_up",
    "dos_energy_down",
    "is_magnetic",
    "ordering",
    "total_magnetization_normalized_vol",
    "total_magnetization_normalized_formula_units",
    "num_magnetic_sites",
    "num_unique_magnetic_sites",
    "types_of_magnetic_species",
    "bulk_modulus",
    "shear_modulus",
    "universal_anisotropy",
    "homogeneous_poisson",
    "e_total",
    "e_ionic",
    "e_electronic",
    "n",
    "e_ij_max",
    "weighted_surface_energy_EV_PER_ANG2",
    "weighted_surface_energy",
    "weighted_work_function",
    "surface_anisotropy",
    "shape_factor",
    "has_reconstructed",
    "possible_species",
    "has_props",
    "theoretical",
    "database_IDs"
  ]
}
