{
  "builder_meta": null,
  "nsites": null,
  "elements": null,
  "nelements": null,
  "composition": null,
  "composition_reduced": null,
  "formula_pretty": "Dy3Os",
  "formula_anonymous": "AB3",
  "chemsys": null,
  "volume": 420.5450049235981,
  "density": 10.704177944629471,
  "density_atomic": 26.284062807724883,
  "symmetry": null,
  "property_name": null,
  "material_id": "mp-1189887",
  "deprecated": null,
  "deprecation_reasons": null,
  "last_updated": null,
  "origins": null,
  "warnings": null,
  "structure": {
    "@module": "pymatgen.core.structure",
    "@class": "Structure",
    "charge": 0,
    "lattice": {
      "matrix": [
        [-0.0, 0.0, 6.33116012],
        [7.36204162, 0.0, 0.0],
        [0.0, 9.02258357, 0.0]
      ],
      "pbc": [true, true, true],
      "a": 6.33116012,
      "b": 7.36204162,
      "c": 9.02258357,
      "alpha": 90.0,
      "beta": 90.0,
      "gamma": 90.0,
      "volume": 420.5450049235981
    },
    "properties": {},
    "sites": [
      {
        "species": [{ "element": "Dy", "occu": 1 }],
        "abc": [0.33043541, 0.67325903, 0.06350932000000001],
        "properties": { "magmom": 0.0 },
        "label": "Dy",
        "xyz": [4.956560999900828, 0.5730181471738724, 2.092039490027849]
      },
      {
        "species": [{ "element": "Dy", "occu": 1 }],
        "abc": [0.16956459000000002, 0.17325903, 0.43649068],
        "properties": { "magmom": 0.0 },
        "label": "Dy",
        "xyz": [1.2755401899008287, 3.9382736378261276, 1.073540569972151]
      },
      {
        "species": [{ "element": "Dy", "occu": 1 }],
        "abc": [0.66956459, 0.32674097, 0.56350932],
        "properties": { "magmom": 0.0 },
        "label": "Dy",
        "xyz": [2.405480620099172, 5.0843099321738725, 4.239120629972151]
      },
      {
        "species": [{ "element": "Dy", "occu": 1 }],
        "abc": [0.83043541, 0.82674097, 0.93649068],
        "properties": { "magmom": 0.0 },
        "label": "Dy",
        "xyz": [6.0865014300991716, 8.449565422826128, 5.257619550027849]
      },
      {
        "species": [{ "element": "Dy", "occu": 1 }],
        "abc": [0.66956459, 0.32674097, 0.93649068],
        "properties": { "magmom": 0.0 },
        "label": "Dy",
        "xyz": [2.405480620099172, 8.449565422826128, 4.239120629972151]
      },
      {
        "species": [{ "element": "Dy", "occu": 1 }],
        "abc": [0.83043541, 0.82674097, 0.56350932],
        "properties": { "magmom": 0.0 },
        "label": "Dy",
        "xyz": [6.0865014300991716, 5.0843099321738725, 5.257619550027849]
      },
      {
        "species": [{ "element": "Dy", "occu": 1 }],
        "abc": [0.33043541, 0.67325903, 0.43649068],
        "properties": { "magmom": 0.0 },
        "label": "Dy",
        "xyz": [4.956560999900828, 3.9382736378261276, 2.092039490027849]
      },
      {
        "species": [{ "element": "Dy", "occu": 1 }],
        "abc": [0.16956459000000002, 0.17325903, 0.06350932000000001],
        "properties": { "magmom": 0.0 },
        "label": "Dy",
        "xyz": [1.2755401899008287, 0.5730181471738724, 1.073540569972151]
      },
      {
        "species": [{ "element": "Dy", "occu": 1 }],
        "abc": [0.87194754, 0.5417493800000001, 0.25],
        "properties": { "magmom": -0.0 },
        "label": "Dy",
        "xyz": [3.988381483169196, 2.2556458925, 5.520439491980104]
      },
      {
        "species": [{ "element": "Dy", "occu": 1 }],
        "abc": [0.62805246, 0.04174938, 0.25],
        "properties": { "magmom": -0.0 },
        "label": "Dy",
        "xyz": [0.30736067316919563, 2.2556458925, 3.9763006880198954]
      },
      {
        "species": [{ "element": "Dy", "occu": 1 }],
        "abc": [0.12805246, 0.45825062, 0.75],
        "properties": { "magmom": -0.0 },
        "label": "Dy",
        "xyz": [3.3736601368308046, 6.7669376775, 0.8107206280198952]
      },
      {
        "species": [{ "element": "Dy", "occu": 1 }],
        "abc": [0.37194754, 0.95825062, 0.75],
        "properties": { "magmom": -0.0 },
        "label": "Dy",
        "xyz": [7.054680946830805, 6.7669376775, 2.354859431980105]
      },
      {
        "species": [{ "element": "Os", "occu": 1 }],
        "abc": [0.03545286, 0.8841611300000001, 0.25],
        "properties": { "magmom": -0.0 },
        "label": "Os",
        "xyz": [6.509231037846232, 2.2556458925, 0.22445773337194322]
      },
      {
        "species": [{ "element": "Os", "occu": 1 }],
        "abc": [0.46454714, 0.38416113, 0.25],
        "properties": { "magmom": -0.0 },
        "label": "Os",
        "xyz": [2.8282102278462307, 2.2556458925, 2.941122326628057]
      },
      {
        "species": [{ "element": "Os", "occu": 1 }],
        "abc": [0.96454714, 0.11583887, 0.75],
        "properties": { "magmom": -0.0 },
        "label": "Os",
        "xyz": [0.8528105821537694, 6.7669376775, 6.106702386628056]
      },
      {
        "species": [{ "element": "Os", "occu": 1 }],
        "abc": [0.53545286, 0.61583887, 0.75],
        "properties": { "magmom": -0.0 },
        "label": "Os",
        "xyz": [4.53383139215377, 6.7669376775, 3.390037793371943]
      }
    ]
  },
  "task_ids": null,
  "uncorrected_energy_per_atom": null,
  "energy_per_atom": -37.549979646875,
  "formation_energy_per_atom": -0.317320015625,
  "energy_above_hull": 0.0,
  "is_stable": true,
  "equilibrium_reaction_energy_per_atom": null,
  "decomposes_to": null,
  "xas": null,
  "grain_boundaries": null,
  "band_gap": 0.0,
  "cbm": null,
  "vbm": null,
  "efermi": 3.87065929,
  "is_gap_direct": null,
  "is_metal": null,
  "es_source_calc_id": null,
  "bandstructure": null,
  "dos": null,
  "dos_energy_up": null,
  "dos_energy_down": null,
  "is_magnetic": null,
  "ordering": null,
  "total_magnetization": 1e-7,
  "total_magnetization_normalized_vol": null,
  "total_magnetization_normalized_formula_units": null,
  "num_magnetic_sites": null,
  "num_unique_magnetic_sites": null,
  "types_of_magnetic_species": null,
  "bulk_modulus": null,
  "shear_modulus": null,
  "universal_anisotropy": null,
  "homogeneous_poisson": null,
  "e_total": null,
  "e_ionic": null,
  "e_electronic": null,
  "n": null,
  "e_ij_max": null,
  "weighted_surface_energy_EV_PER_ANG2": null,
  "weighted_surface_energy": null,
  "weighted_work_function": null,
  "surface_anisotropy": null,
  "shape_factor": null,
  "has_reconstructed": null,
  "possible_species": null,
  "has_props": null,
  "theoretical": null,
  "database_IDs": null,
  "fields_not_requested": [
    "builder_meta",
    "nsites",
    "elements",
    "nelements",
    "composition",
    "composition_reduced",
    "chemsys",
    "symmetry",
    "property_name",
    "deprecated",
    "deprecation_reasons",
    "last_updated",
    "origins",
    "warnings",
    "task_ids",
    "uncorrected_energy_per_atom",
    "equilibrium_reaction_energy_per_atom",
    "decomposes_to",
    "xas",
    "grain_boundaries",
    "cbm",
    "vbm",
    "is_gap_direct",
    "is_metal",
    "es_source_calc_id",
    "bandstructure",
    "dos",
    "dos_energy_up",
    "dos_energy_down",
    "is_magnetic",
    "ordering",
    "total_magnetization_normalized_vol",
    "total_magnetization_normalized_formula_units",
    "num_magnetic_sites",
    "num_unique_magnetic_sites",
    "types_of_magnetic_species",
    "bulk_modulus",
    "shear_modulus",
    "universal_anisotropy",
    "homogeneous_poisson",
    "e_total",
    "e_ionic",
    "e_electronic",
    "n",
    "e_ij_max",
    "weighted_surface_energy_EV_PER_ANG2",
    "weighted_surface_energy",
    "weighted_work_function",
    "surface_anisotropy",
    "shape_factor",
    "has_reconstructed",
    "possible_species",
    "has_props",
    "theoretical",
    "database_IDs"
  ]
}
