{"builder_meta": null, "nsites": null, "elements": null, "nelements": null, "composition": null, "composition_reduced": null, "formula_pretty": "Dy3Pd2", "formula_anonymous": "A2B3", "chemsys": null, "volume": 236.56473081264184, "density": 9.831913032071451, "density_atomic": 23.656473081264185, "symmetry": null, "property_name": null, "material_id": "mp-12543", "deprecated": null, "deprecation_reasons": null, "last_updated": null, "origins": null, "warnings": null, "structure": {"@module": "pymatgen.core.structure", "@class": "Structure", "charge": 0, "lattice": {"matrix": [[3.96733816, 0.0, 0.0], [0.0, 7.72192161, -0.0], [-0.0, -0.0, 7.72192161]], "pbc": [true, true, true], "a": 3.96733816, "b": 7.72192161, "c": 7.72192161, "alpha": 90.0, "beta": 90.0, "gamma": 90.0, "volume": 236.56473081264184}, "properties": {}, "sites": [{"species": [{"element": "Dy", "occu": 1}], "abc": [0.5, 0.66493377, 0.83506623], "properties": {"magmom": 0.0}, "label": "Dy", "xyz": [1.98366908, 5.134566447781769, 6.44831596721823]}, {"species": [{"element": "Dy", "occu": 1}], "abc": [0.5, 0.83506623, 0.33506623], "properties": {"magmom": 0.0}, "label": "Dy", "xyz": [1.98366908, 6.44831596721823, 2.5873551622182305]}, {"species": [{"element": "Dy", "occu": 1}], "abc": [0.5, 0.33506623, 0.16493377], "properties": {"magmom": 0.0}, "label": "Dy", "xyz": [1.98366908, 2.5873551622182305, 1.2736056427817697]}, {"species": [{"element": "Dy", "occu": 1}], "abc": [0.5, 0.16493377, 0.66493377], "properties": {"magmom": 0.0}, "label": "Dy", "xyz": [1.98366908, 1.2736056427817697, 5.134566447781769]}, {"species": [{"element": "Dy", "occu": 1}], "abc": [-0.0, 0.5, 0.5], "properties": {"magmom": -0.0}, "label": "Dy", "xyz": [0.0, 3.860960805, 3.860960805]}, {"species": [{"element": "Dy", "occu": 1}], "abc": [-0.0, 0.0, 0.0], "properties": {"magmom": -0.0}, "label": "Dy", "xyz": [0.0, 0.0, 0.0]}, {"species": [{"element": "Pd", "occu": 1}], "abc": [-0.0, 0.63290485, 0.13290485], "properties": {"magmom": 0.0}, "label": "Pd", "xyz": [0.0, 4.887241638288808, 1.0262808332888085]}, {"species": [{"element": "Pd", "occu": 1}], "abc": [0.0, 0.86709515, 0.63290485], "properties": {"magmom": 0.0}, "label": "Pd", "xyz": [0.0, 6.695640776711191, 4.887241638288808]}, {"species": [{"element": "Pd", "occu": 1}], "abc": [-0.0, 0.13290485, 0.36709515], "properties": {"magmom": 0.0}, "label": "Pd", "xyz": [0.0, 1.0262808332888085, 2.8346799717111915]}, {"species": [{"element": "Pd", "occu": 1}], "abc": [0.0, 0.36709515, 0.86709515], "properties": {"magmom": 0.0}, "label": "Pd", "xyz": [0.0, 2.8346799717111915, 6.695640776711191]}]}, "task_ids": null, "uncorrected_energy_per_atom": null, "energy_per_atom": -29.134903751000003, "formation_energy_per_atom": -0.761640371999999, "energy_above_hull": 0.0, "is_stable": true, "equilibrium_reaction_energy_per_atom": null, "decomposes_to": null, "xas": null, "grain_boundaries": null, "band_gap": 0.0, "cbm": null, "vbm": null, "efermi": 4.20175885, "is_gap_direct": null, "is_metal": null, "es_source_calc_id": null, "bandstructure": null, "dos": null, "dos_energy_up": null, "dos_energy_down": null, "is_magnetic": null, "ordering": null, "total_magnetization": 0.0, "total_magnetization_normalized_vol": null, "total_magnetization_normalized_formula_units": null, "num_magnetic_sites": null, "num_unique_magnetic_sites": null, "types_of_magnetic_species": null, "bulk_modulus": null, "shear_modulus": null, "universal_anisotropy": null, "homogeneous_poisson": null, "e_total": null, "e_ionic": null, "e_electronic": null, "n": null, "e_ij_max": null, "weighted_surface_energy_EV_PER_ANG2": null, "weighted_surface_energy": null, "weighted_work_function": null, "surface_anisotropy": null, "shape_factor": null, "has_reconstructed": null, "possible_species": null, "has_props": null, "theoretical": null, "database_IDs": null, "fields_not_requested": ["builder_meta", "nsites", "elements", "nelements", "composition", "composition_reduced", "chemsys", "symmetry", "property_name", "deprecated", "deprecation_reasons", "last_updated", "origins", "warnings", "task_ids", "uncorrected_energy_per_atom", "equilibrium_reaction_energy_per_atom", "decomposes_to", "xas", "grain_boundaries", "cbm", "vbm", "is_gap_direct", "is_metal", "es_source_calc_id", "bandstructure", "dos", "dos_energy_up", "dos_energy_down", "is_magnetic", "ordering", "total_magnetization_normalized_vol", "total_magnetization_normalized_formula_units", "num_magnetic_sites", "num_unique_magnetic_sites", "types_of_magnetic_species", "bulk_modulus", "shear_modulus", "universal_anisotropy", "homogeneous_poisson", "e_total", "e_ionic", "e_electronic", "n", "e_ij_max", "weighted_surface_energy_EV_PER_ANG2", "weighted_surface_energy", "weighted_work_function", "surface_anisotropy", "shape_factor", "has_reconstructed", "possible_species", "has_props", "theoretical", "database_IDs"]}