{"builder_meta": null, "nsites": null, "elements": null, "nelements": null, "composition": null, "composition_reduced": null, "formula_pretty": "Dy3Pd4", "formula_anonymous": "A3B4", "chemsys": null, "volume": 285.2771933073871, "density": 10.630860793725581, "density_atomic": 20.37694237909908, "symmetry": null, "property_name": null, "material_id": "mp-1104399", "deprecated": null, "deprecation_reasons": null, "last_updated": null, "origins": null, "warnings": null, "structure": {"@module": "pymatgen.core.structure", "@class": "Structure", "charge": 0, "lattice": {"matrix": [[1e-08, 1e-08, -5.70986274], [0.00013584, -7.59548258, 1.90328826], [-6.57794893, 3.79762407, 1.90328826]], "pbc": [true, true, true], "a": 5.70986274, "b": 7.830316841749751, "c": 7.83031716492923, "alpha": 114.29142796107122, "beta": 104.0676022354528, "gamma": 104.06760289163027, "volume": 285.2771933073871}, "properties": {}, "sites": [{"species": [{"element": "Dy", "occu": 1}], "abc": [0.40536802, 0.12809748, 0.37933552], "properties": {"magmom": 0.0}, "label": "Dy", "xyz": [-2.4952322730796297, 0.467611527529748, -1.3488044817489948]}, {"species": [{"element": "Dy", "occu": 1}], "abc": [0.02603351, 0.62066448, 0.7487639700000001], "properties": {"magmom": 0.0}, "label": "Dy", "xyz": [-4.925246843960754, -1.8707221703836652, 2.4577693230545794]}, {"species": [{"element": "Dy", "occu": 1}], "abc": [0.27726954, 0.25123603, 0.87190252], "properties": {"magmom": 0.0}, "label": "Dy", "xyz": [-5.735296117823292, 1.4028991100849943, 0.5544854011854836]}, {"species": [{"element": "Dy", "occu": 1}], "abc": [0.5946319800000001, 0.87190252, 0.62066448], "properties": {"magmom": 0.0}, "label": "Dy", "xyz": [-4.08258080692037, -4.265470027529748, -0.5544817382510057]}, {"species": [{"element": "Dy", "occu": 1}], "abc": [0.97396649, 0.37933552, 0.25123603], "properties": {"magmom": 0.0}, "label": "Dy", "xyz": [-1.6525662360392461, -1.927136329616334, -4.361055543054579]}, {"species": [{"element": "Dy", "occu": 1}], "abc": [0.72273046, 0.7487639700000001, 0.12809748], "properties": {"magmom": 0.0}, "label": "Dy", "xyz": [-0.8425169621767071, -5.2007576100849935, -2.457771621185483]}, {"species": [{"element": "Pd", "occu": 1}], "abc": [-0.0, -0.0, -0.0], "properties": {"magmom": 0.0}, "label": "Pd", "xyz": [0.0, 0.0, 0.0]}, {"species": [{"element": "Pd", "occu": 1}], "abc": [0.5, -0.0, -0.0], "properties": {"magmom": -0.0}, "label": "Pd", "xyz": [5e-09, 5e-09, -2.85493137]}, {"species": [{"element": "Pd", "occu": 1}], "abc": [0.22687692, 0.676530899999999, 0.16507735], "properties": {"magmom": -0.0}, "label": "Pd", "xyz": [-1.0857784755735105, -4.511676945741131, 0.30638702967018244]}, {"species": [{"element": "Pd", "occu": 1}], "abc": [0.06179856, 0.83492265, 0.5114545500000001], "properties": {"magmom": -0.0}, "label": "Pd", "xyz": [-3.36420849340537, -4.3993283333134325, 2.209682623162018]}, {"species": [{"element": "Pd", "occu": 1}], "abc": [0.55034502, 0.48854545, 0.3234691], "properties": {"magmom": -0.0}, "label": "Pd", "xyz": [-2.127696850715685, -2.482324409448574, -1.5968967638783718]}, {"species": [{"element": "Pd", "occu": 1}], "abc": [0.77312308, 0.3234691, 0.83492265], "properties": {"magmom": -0.0}, "label": "Pd", "xyz": [-5.49203460442649, 0.7138184457411381, -2.2096732496701845]}, {"species": [{"element": "Pd", "occu": 1}], "abc": [0.93820144, 0.16507735, 0.48854545], "properties": {"magmom": -0.0}, "label": "Pd", "xyz": [-3.21360458659463, 0.6014698333134327, -4.112968843162019]}, {"species": [{"element": "Pd", "occu": 1}], "abc": [0.44965498, 0.5114545500000001, 0.676530899999999], "properties": {"magmom": -0.0}, "label": "Pd", "xyz": [-4.450116229284309, -1.31553409055143, -0.3063894561216296]}]}, "task_ids": null, "uncorrected_energy_per_atom": null, "energy_per_atom": -27.79931511142857, "formation_energy_per_atom": -0.9725688092857101, "energy_above_hull": 0.0, "is_stable": true, "equilibrium_reaction_energy_per_atom": null, "decomposes_to": null, "xas": null, "grain_boundaries": null, "band_gap": 0.0, "cbm": null, "vbm": null, "efermi": 4.589964829999999, "is_gap_direct": null, "is_metal": null, "es_source_calc_id": null, "bandstructure": null, "dos": null, "dos_energy_up": null, "dos_energy_down": null, "is_magnetic": null, "ordering": null, "total_magnetization": 1e-07, "total_magnetization_normalized_vol": null, "total_magnetization_normalized_formula_units": null, "num_magnetic_sites": null, "num_unique_magnetic_sites": null, "types_of_magnetic_species": null, "bulk_modulus": null, "shear_modulus": null, "universal_anisotropy": null, "homogeneous_poisson": null, "e_total": null, "e_ionic": null, "e_electronic": null, "n": null, "e_ij_max": null, "weighted_surface_energy_EV_PER_ANG2": null, "weighted_surface_energy": null, "weighted_work_function": null, "surface_anisotropy": null, "shape_factor": null, "has_reconstructed": null, "possible_species": null, "has_props": null, "theoretical": null, "database_IDs": null, "fields_not_requested": ["builder_meta", "nsites", "elements", "nelements", "composition", "composition_reduced", "chemsys", "symmetry", "property_name", "deprecated", "deprecation_reasons", "last_updated", "origins", "warnings", "task_ids", "uncorrected_energy_per_atom", "equilibrium_reaction_energy_per_atom", "decomposes_to", "xas", "grain_boundaries", "cbm", "vbm", "is_gap_direct", "is_metal", "es_source_calc_id", "bandstructure", "dos", "dos_energy_up", "dos_energy_down", "is_magnetic", "ordering", "total_magnetization_normalized_vol", "total_magnetization_normalized_formula_units", "num_magnetic_sites", "num_unique_magnetic_sites", "types_of_magnetic_species", "bulk_modulus", "shear_modulus", "universal_anisotropy", "homogeneous_poisson", "e_total", "e_ionic", "e_electronic", "n", "e_ij_max", "weighted_surface_energy_EV_PER_ANG2", "weighted_surface_energy", "weighted_work_function", "surface_anisotropy", "shape_factor", "has_reconstructed", "possible_species", "has_props", "theoretical", "database_IDs"]}