{
  "builder_meta": null,
  "nsites": null,
  "elements": null,
  "nelements": null,
  "composition": null,
  "composition_reduced": null,
  "formula_pretty": "Dy3Pt",
  "formula_anonymous": "AB3",
  "chemsys": null,
  "volume": 435.01594771520286,
  "density": 10.422214672259775,
  "density_atomic": 27.18849673220018,
  "symmetry": null,
  "property_name": null,
  "material_id": "mp-1105479",
  "deprecated": null,
  "deprecation_reasons": null,
  "last_updated": null,
  "origins": null,
  "warnings": null,
  "structure": {
    "@module": "pymatgen.core.structure",
    "@class": "Structure",
    "charge": 0,
    "lattice": {
      "matrix": [
        [-0.0, 0.0, 6.48713607],
        [6.99110747, 0.0, 0.0],
        [0.0, 9.59193424, 0.0]
      ],
      "pbc": [true, true, true],
      "a": 6.48713607,
      "b": 6.99110747,
      "c": 9.59193424,
      "alpha": 90.0,
      "beta": 90.0,
      "gamma": 90.0,
      "volume": 435.01594771520286
    },
    "properties": {},
    "sites": [
      {
        "species": [{ "element": "Dy", "occu": 1 }],
        "abc": [0.3174666, 0.67816421, 0.06257456],
        "properties": { "magmom": 0.001 },
        "label": "Dy",
        "xyz": [4.74111887441765, 0.6002110646169344, 2.059449031880262]
      },
      {
        "species": [{ "element": "Dy", "occu": 1 }],
        "abc": [0.182533399999999, 0.17816421000000002, 0.43742544],
        "properties": { "magmom": 0.001 },
        "label": "Dy",
        "xyz": [1.2455651394176488, 4.1957560553830655, 1.1841190031197315]
      },
      {
        "species": [{ "element": "Dy", "occu": 1 }],
        "abc": [0.6825334, 0.32183579, 0.5625745600000001],
        "properties": { "magmom": 0.001 },
        "label": "Dy",
        "xyz": [2.2499885955823515, 5.396178184616935, 4.427687038119738]
      },
      {
        "species": [{ "element": "Dy", "occu": 1 }],
        "abc": [0.817466599999999, 0.8218357900000001, 0.93742544],
        "properties": { "magmom": 0.001 },
        "label": "Dy",
        "xyz": [5.745542330582352, 8.991723175383067, 5.303017066880256]
      },
      {
        "species": [{ "element": "Dy", "occu": 1 }],
        "abc": [0.6825334, 0.32183579, 0.93742544],
        "properties": { "magmom": 0.001 },
        "label": "Dy",
        "xyz": [2.2499885955823515, 8.991723175383067, 4.427687038119738]
      },
      {
        "species": [{ "element": "Dy", "occu": 1 }],
        "abc": [0.817466599999999, 0.8218357900000001, 0.5625745600000001],
        "properties": { "magmom": 0.001 },
        "label": "Dy",
        "xyz": [5.745542330582352, 5.396178184616935, 5.303017066880256]
      },
      {
        "species": [{ "element": "Dy", "occu": 1 }],
        "abc": [0.3174666, 0.67816421, 0.43742544],
        "properties": { "magmom": 0.001 },
        "label": "Dy",
        "xyz": [4.74111887441765, 4.1957560553830655, 2.059449031880262]
      },
      {
        "species": [{ "element": "Dy", "occu": 1 }],
        "abc": [0.182533399999999, 0.17816421000000002, 0.06257456],
        "properties": { "magmom": 0.001 },
        "label": "Dy",
        "xyz": [1.2455651394176488, 0.6002110646169344, 1.1841190031197315]
      },
      {
        "species": [{ "element": "Dy", "occu": 1 }],
        "abc": [0.868186199999999, 0.52779365, 0.25],
        "properties": { "magmom": 0.001 },
        "label": "Dy",
        "xyz": [3.689862129133566, 2.39798356, 5.6320420134962275]
      },
      {
        "species": [{ "element": "Dy", "occu": 1 }],
        "abc": [0.6318138, 0.02779365, 0.25],
        "properties": { "magmom": 0.001 },
        "label": "Dy",
        "xyz": [0.19430839413356552, 2.39798356, 4.0986620915037655]
      },
      {
        "species": [{ "element": "Dy", "occu": 1 }],
        "abc": [0.131813799999999, 0.47220635, 0.75],
        "properties": { "magmom": 0.001 },
        "label": "Dy",
        "xyz": [3.3012453408664344, 7.19395068, 0.8550940565037596]
      },
      {
        "species": [{ "element": "Dy", "occu": 1 }],
        "abc": [0.368186199999999, 0.97220635, 0.75],
        "properties": { "magmom": 0.001 },
        "label": "Dy",
        "xyz": [6.796799075866435, 7.19395068, 2.3884739784962274]
      },
      {
        "species": [{ "element": "Pt", "occu": 1 }],
        "abc": [0.04759393, 0.88942896, 0.25],
        "properties": { "magmom": 0.0 },
        "label": "Pt",
        "xyz": [6.2180934462903314, 2.39798356, 0.3087483000160551]
      },
      {
        "species": [{ "element": "Pt", "occu": 1 }],
        "abc": [0.45240607, 0.38942896, 0.25],
        "properties": { "magmom": 0.0 },
        "label": "Pt",
        "xyz": [2.7225397112903313, 2.39798356, 2.934819734983945]
      },
      {
        "species": [{ "element": "Pt", "occu": 1 }],
        "abc": [0.95240607, 0.11057104, 0.75],
        "properties": { "magmom": 0.0 },
        "label": "Pt",
        "xyz": [0.7730140237096688, 7.19395068, 6.178387769983945]
      },
      {
        "species": [{ "element": "Pt", "occu": 1 }],
        "abc": [0.54759393, 0.6105710400000001, 0.75],
        "properties": { "magmom": 0.0 },
        "label": "Pt",
        "xyz": [4.268567758709669, 7.19395068, 3.552316335016055]
      }
    ]
  },
  "task_ids": null,
  "uncorrected_energy_per_atom": null,
  "energy_per_atom": -37.650288646875,
  "formation_energy_per_atom": -0.7920070031249931,
  "energy_above_hull": 0.0,
  "is_stable": true,
  "equilibrium_reaction_energy_per_atom": null,
  "decomposes_to": null,
  "xas": null,
  "grain_boundaries": null,
  "band_gap": 0.0,
  "cbm": null,
  "vbm": null,
  "efermi": 3.92725223,
  "is_gap_direct": null,
  "is_metal": null,
  "es_source_calc_id": null,
  "bandstructure": null,
  "dos": null,
  "dos_energy_up": null,
  "dos_energy_down": null,
  "is_magnetic": null,
  "ordering": null,
  "total_magnetization": 0.0195507,
  "total_magnetization_normalized_vol": null,
  "total_magnetization_normalized_formula_units": null,
  "num_magnetic_sites": null,
  "num_unique_magnetic_sites": null,
  "types_of_magnetic_species": null,
  "bulk_modulus": null,
  "shear_modulus": null,
  "universal_anisotropy": null,
  "homogeneous_poisson": null,
  "e_total": null,
  "e_ionic": null,
  "e_electronic": null,
  "n": null,
  "e_ij_max": null,
  "weighted_surface_energy_EV_PER_ANG2": null,
  "weighted_surface_energy": null,
  "weighted_work_function": null,
  "surface_anisotropy": null,
  "shape_factor": null,
  "has_reconstructed": null,
  "possible_species": null,
  "has_props": null,
  "theoretical": null,
  "database_IDs": null,
  "fields_not_requested": [
    "builder_meta",
    "nsites",
    "elements",
    "nelements",
    "composition",
    "composition_reduced",
    "chemsys",
    "symmetry",
    "property_name",
    "deprecated",
    "deprecation_reasons",
    "last_updated",
    "origins",
    "warnings",
    "task_ids",
    "uncorrected_energy_per_atom",
    "equilibrium_reaction_energy_per_atom",
    "decomposes_to",
    "xas",
    "grain_boundaries",
    "cbm",
    "vbm",
    "is_gap_direct",
    "is_metal",
    "es_source_calc_id",
    "bandstructure",
    "dos",
    "dos_energy_up",
    "dos_energy_down",
    "is_magnetic",
    "ordering",
    "total_magnetization_normalized_vol",
    "total_magnetization_normalized_formula_units",
    "num_magnetic_sites",
    "num_unique_magnetic_sites",
    "types_of_magnetic_species",
    "bulk_modulus",
    "shear_modulus",
    "universal_anisotropy",
    "homogeneous_poisson",
    "e_total",
    "e_ionic",
    "e_electronic",
    "n",
    "e_ij_max",
    "weighted_surface_energy_EV_PER_ANG2",
    "weighted_surface_energy",
    "weighted_work_function",
    "surface_anisotropy",
    "shape_factor",
    "has_reconstructed",
    "possible_species",
    "has_props",
    "theoretical",
    "database_IDs"
  ]
}
