{
  "builder_meta": null,
  "nsites": null,
  "elements": null,
  "nelements": null,
  "composition": null,
  "composition_reduced": null,
  "formula_pretty": "Dy3Pt4",
  "formula_anonymous": "A3B4",
  "chemsys": null,
  "volume": 284.67004810168066,
  "density": 14.791097427221379,
  "density_atomic": 20.33357486440576,
  "symmetry": null,
  "property_name": null,
  "material_id": "mp-1104664",
  "deprecated": null,
  "deprecation_reasons": null,
  "last_updated": null,
  "origins": null,
  "warnings": null,
  "structure": {
    "@module": "pymatgen.core.structure",
    "@class": "Structure",
    "charge": 0,
    "lattice": {
      "matrix": [
        [-0.0, 0.0, -5.69877058],
        [0.00073791, -7.59477569, 1.89959019],
        [-6.57763858, 3.79674821, 1.89959019]
      ],
      "pbc": [true, true, true],
      "a": 5.69877058,
      "b": 7.828733053046985,
      "c": 7.82873355972643,
      "alpha": 114.31080280861444,
      "beta": 104.04260609812098,
      "gamma": 104.04260702561129,
      "volume": 284.67004810168066
    },
    "properties": {},
    "sites": [
      {
        "species": [{ "element": "Dy", "occu": 1 }],
        "abc": [0.40546019, 0.12548077, 0.37709058],
        "properties": { "magmom": 0.0 },
        "label": "Dy",
        "xyz": [-2.4802729536475856, 0.4787196830643806, -1.3559449958981538]
      },
      {
        "species": [{ "element": "Dy", "occu": 1 }],
        "abc": [0.02837061, 0.62290942, 0.7483901900000001],
        "properties": { "magmom": 0.0 },
        "label": "Dy",
        "xyz": [-4.922180535547419, -1.8894082058239396, 2.4432296891021723]
      },
      {
        "species": [{ "element": "Dy", "occu": 1 }],
        "abc": [0.27997942, 0.25160981, 0.87451923],
        "properties": { "magmom": 0.0 },
        "label": "Dy",
        "xyz": [-5.752085760804996, 1.4094092527595596, 0.5436451953566543]
      },
      {
        "species": [{ "element": "Dy", "occu": 1 }],
        "abc": [0.59453981, 0.87451923, 0.62290942],
        "properties": { "magmom": 0.0 },
        "label": "Dy",
        "xyz": [-4.0966277163524145, -4.27674716306438, -0.5436452041018458]
      },
      {
        "species": [{ "element": "Dy", "occu": 1 }],
        "abc": [0.97162939, 0.37709058, 0.25160981],
        "properties": { "magmom": 0.0 },
        "label": "Dy",
        "xyz": [-1.6547201344525821, -1.90861927417606, -4.342819889102172]
      },
      {
        "species": [{ "element": "Dy", "occu": 1 }],
        "abc": [0.72002058, 0.7483901900000001, 0.12548077],
        "properties": { "magmom": 0.0 },
        "label": "Dy",
        "xyz": [-0.8248149091950037, -5.207436732759559, -2.443235395356654]
      },
      {
        "species": [{ "element": "Pt", "occu": 1 }],
        "abc": [0.0, -0.0, 0.0],
        "properties": { "magmom": -0.0 },
        "label": "Pt",
        "xyz": [0.0, 0.0, 0.0]
      },
      {
        "species": [{ "element": "Pt", "occu": 1 }],
        "abc": [0.5, -0.0, 0.0],
        "properties": { "magmom": -0.0 },
        "label": "Pt",
        "xyz": [0.0, 0.0, -2.84938529]
      },
      {
        "species": [{ "element": "Pt", "occu": 1 }],
        "abc": [0.22666207, 0.673426899999999, 0.16570457],
        "properties": { "magmom": -0.0 },
        "label": "Pt",
        "xyz": [-1.0894478440705315, -4.4853877195757335, 0.302310772414377]
      },
      {
        "species": [{ "element": "Pt", "occu": 1 }],
        "abc": [0.0609575, 0.8342954300000001, 0.50772233],
        "properties": { "magmom": -0.0 },
        "label": "Pt",
        "xyz": [-3.33899835079474, -4.408592802437568, 2.2019009640714247]
      },
      {
        "species": [{ "element": "Pt", "occu": 1 }],
        "abc": [0.55323418, 0.49227767, 0.3265731],
        "properties": { "magmom": -0.0 },
        "label": "Pt",
        "xyz": [-2.1477165651347283, -2.4988226479866906, -1.5972737790684777]
      },
      {
        "species": [{ "element": "Pt", "occu": 1 }],
        "abc": [0.7733379300000001, 0.3265731, 0.8342954300000001],
        "properties": { "magmom": -0.0 },
        "label": "Pt",
        "xyz": [-5.487452825929469, 0.6873602395757419, -2.201900972414379]
      },
      {
        "species": [{ "element": "Pt", "occu": 1 }],
        "abc": [0.9390425, 0.16570457, 0.49227767],
        "properties": { "magmom": -0.0 },
        "label": "Pt",
        "xyz": [-3.23790231920526, 0.6105653224375676, -4.101491164071424]
      },
      {
        "species": [{ "element": "Pt", "occu": 1 }],
        "abc": [0.44676582000000004, 0.50772233, 0.673426899999999],
        "properties": { "magmom": -0.0 },
        "label": "Pt",
        "xyz": [-4.429184104865266, -1.299204832013312, -0.30231642093152367]
      }
    ]
  },
  "task_ids": null,
  "uncorrected_energy_per_atom": null,
  "energy_per_atom": -44.480265865,
  "formation_energy_per_atom": -1.352226254285718,
  "energy_above_hull": 0.0,
  "is_stable": true,
  "equilibrium_reaction_energy_per_atom": null,
  "decomposes_to": null,
  "xas": null,
  "grain_boundaries": null,
  "band_gap": 0.0,
  "cbm": null,
  "vbm": null,
  "efermi": 5.25047242,
  "is_gap_direct": null,
  "is_metal": null,
  "es_source_calc_id": null,
  "bandstructure": null,
  "dos": null,
  "dos_energy_up": null,
  "dos_energy_down": null,
  "is_magnetic": null,
  "ordering": null,
  "total_magnetization": 0.0,
  "total_magnetization_normalized_vol": null,
  "total_magnetization_normalized_formula_units": null,
  "num_magnetic_sites": null,
  "num_unique_magnetic_sites": null,
  "types_of_magnetic_species": null,
  "bulk_modulus": null,
  "shear_modulus": null,
  "universal_anisotropy": null,
  "homogeneous_poisson": null,
  "e_total": null,
  "e_ionic": null,
  "e_electronic": null,
  "n": null,
  "e_ij_max": null,
  "weighted_surface_energy_EV_PER_ANG2": null,
  "weighted_surface_energy": null,
  "weighted_work_function": null,
  "surface_anisotropy": null,
  "shape_factor": null,
  "has_reconstructed": null,
  "possible_species": null,
  "has_props": null,
  "theoretical": null,
  "database_IDs": null,
  "fields_not_requested": [
    "builder_meta",
    "nsites",
    "elements",
    "nelements",
    "composition",
    "composition_reduced",
    "chemsys",
    "symmetry",
    "property_name",
    "deprecated",
    "deprecation_reasons",
    "last_updated",
    "origins",
    "warnings",
    "task_ids",
    "uncorrected_energy_per_atom",
    "equilibrium_reaction_energy_per_atom",
    "decomposes_to",
    "xas",
    "grain_boundaries",
    "cbm",
    "vbm",
    "is_gap_direct",
    "is_metal",
    "es_source_calc_id",
    "bandstructure",
    "dos",
    "dos_energy_up",
    "dos_energy_down",
    "is_magnetic",
    "ordering",
    "total_magnetization_normalized_vol",
    "total_magnetization_normalized_formula_units",
    "num_magnetic_sites",
    "num_unique_magnetic_sites",
    "types_of_magnetic_species",
    "bulk_modulus",
    "shear_modulus",
    "universal_anisotropy",
    "homogeneous_poisson",
    "e_total",
    "e_ionic",
    "e_electronic",
    "n",
    "e_ij_max",
    "weighted_surface_energy_EV_PER_ANG2",
    "weighted_surface_energy",
    "weighted_work_function",
    "surface_anisotropy",
    "shape_factor",
    "has_reconstructed",
    "possible_species",
    "has_props",
    "theoretical",
    "database_IDs"
  ]
}
