{"builder_meta": null, "nsites": null, "elements": null, "nelements": null, "composition": null, "composition_reduced": null, "formula_pretty": "Dy3Rh2", "formula_anonymous": "A2B3", "chemsys": null, "volume": 1528.2426737303501, "density": 10.546610357311005, "density_atomic": 21.83203819614786, "symmetry": null, "property_name": null, "material_id": "mp-1205201", "deprecated": null, "deprecation_reasons": null, "last_updated": null, "origins": null, "warnings": null, "structure": {"@module": "pymatgen.core.structure", "@class": "Structure", "charge": 0, "lattice": {"matrix": [[11.08612588, -0.0, 1e-08], [-0.0, 11.08612588, 1e-08], [-5.54306391, -5.54306391, 12.43462553]], "pbc": [true, true, true], "a": 11.08612588, "b": 11.08612588, "c": 14.699354648827844, "alpha": 112.15390122076735, "beta": 112.15390122076735, "gamma": 90.0, "volume": 1528.2426737303501}, "properties": {}, "sites": [{"species": [{"element": "Dy", "occu": 1}], "abc": [0.50374926, 0.6323911600000001, 0.85681459], "properties": {"magmom": -0.0}, "label": "Dy", "xyz": [0.8352496769264022, 2.2613899737687753, 10.654168586651888]}, {"species": [{"element": "Dy", "occu": 1}], "abc": [0.35306633, 0.22442342, 0.85681459], "properties": {"magmom": -0.0}, "label": "Dy", "xyz": [-0.8352402530208263, -2.261391746850337, 10.654168581065381]}, {"species": [{"element": "Dy", "occu": 1}], "abc": [0.85306633, 0.13239116, 0.85681459], "properties": {"magmom": -0.0}, "label": "Dy", "xyz": [4.707822686979175, -3.281672966231226, 10.654168585145058]}, {"species": [{"element": "Dy", "occu": 1}], "abc": [0.00374926, 0.72442342, 0.85681459], "properties": {"magmom": -0.0}, "label": "Dy", "xyz": [-4.707813263073598, 3.2816711931496636, 10.654168582572211]}, {"species": [{"element": "Dy", "occu": 1}], "abc": [0.6323911600000001, 0.35306633, 0.85681459], "properties": {"magmom": -0.0}, "label": "Dy", "xyz": [2.2613899737687753, -0.8352402530208263, 10.654168585145058]}, {"species": [{"element": "Dy", "occu": 1}], "abc": [0.22442342, 0.50374926, 0.85681459], "properties": {"magmom": -0.0}, "label": "Dy", "xyz": [-2.261391746850337, 0.8352496769264022, 10.654168582572211]}, {"species": [{"element": "Dy", "occu": 1}], "abc": [0.13239116, 0.00374926, 0.85681459], "properties": {"magmom": -0.0}, "label": "Dy", "xyz": [-3.281672966231226, -4.707813263073598, 10.654168576651887]}, {"species": [{"element": "Dy", "occu": 1}], "abc": [0.72442342, 0.85306633, 0.85681459], "properties": {"magmom": -0.0}, "label": "Dy", "xyz": [3.2816711931496636, 4.707822686979175, 10.654168591065382]}, {"species": [{"element": "Dy", "occu": 1}], "abc": [0.49625074, 0.36760884, 0.14318541], "properties": {"magmom": -0.0}, "label": "Dy", "xyz": [4.707812293073599, 3.2816719962312266, 1.7804569633481133]}, {"species": [{"element": "Dy", "occu": 1}], "abc": [0.64693367, 0.7755765800000001, 0.14318541], "properties": {"magmom": -0.0}, "label": "Dy", "xyz": [6.378302223020827, 7.80445371685034, 1.78045696893462]}, {"species": [{"element": "Dy", "occu": 1}], "abc": [0.14693367000000002, 0.86760884, 0.14318541], "properties": {"magmom": -0.0}, "label": "Dy", "xyz": [0.8352392830208267, 8.824734936231227, 1.7804569648549426]}, {"species": [{"element": "Dy", "occu": 1}], "abc": [0.99625074, 0.27557658, 0.14318541], "properties": {"magmom": -0.0}, "label": "Dy", "xyz": [10.250875233073598, 2.261390776850338, 1.7804569674277906]}, {"species": [{"element": "Dy", "occu": 1}], "abc": [0.36760884, 0.64693367, 0.14318541], "properties": {"magmom": -0.0}, "label": "Dy", "xyz": [3.2816719962312266, 6.378302223020827, 1.7804569648549426]}, {"species": [{"element": "Dy", "occu": 1}], "abc": [0.7755765800000001, 0.49625074, 0.14318541], "properties": {"magmom": -0.0}, "label": "Dy", "xyz": [7.80445371685034, 4.707812293073599, 1.7804569674277906]}, {"species": [{"element": "Dy", "occu": 1}], "abc": [0.86760884, 0.99625074, 0.14318541], "properties": {"magmom": -0.0}, "label": "Dy", "xyz": [8.824734936231227, 10.250875233073598, 1.7804569733481133]}, {"species": [{"element": "Dy", "occu": 1}], "abc": [0.27557658, 0.14693367000000002, 0.14318541], "properties": {"magmom": -0.0}, "label": "Dy", "xyz": [2.261390776850338, 0.8352392830208267, 1.78045695893462]}, {"species": [{"element": "Dy", "occu": 1}], "abc": [0.51666579, 0.38651471, 0.61284501], "properties": {"magmom": -0.0}, "label": "Dy", "xyz": [2.330782928475057, 0.8879116721771059, 7.62049821631091]}, {"species": [{"element": "Dy", "occu": 1}], "abc": [0.09617921, 0.226330299999999, 0.61284501], "properties": {"magmom": -0.0}, "label": "Dy", "xyz": [-2.3307842282556344, -0.8879128610964355, 7.6204982105042]}, {"species": [{"element": "Dy", "occu": 1}], "abc": [0.59617921, 0.88651471, 0.61284501], "properties": {"magmom": -0.0}, "label": "Dy", "xyz": [3.212278711744366, 6.430974612177107, 7.620498222106044]}, {"species": [{"element": "Dy", "occu": 1}], "abc": [0.01666579, 0.7263303, 0.61284501], "properties": {"magmom": -0.0}, "label": "Dy", "xyz": [-3.212280011524944, 4.655150078903575, 7.620498214709066]}, {"species": [{"element": "Dy", "occu": 1}], "abc": [0.38651471, 0.09617921, 0.61284501], "properties": {"magmom": -0.0}, "label": "Dy", "xyz": [0.8879116721771059, -2.3307842282556344, 7.620498212106044]}, {"species": [{"element": "Dy", "occu": 1}], "abc": [0.226330299999999, 0.51666579, 0.61284501], "properties": {"magmom": -0.0}, "label": "Dy", "xyz": [-0.8879128610964355, 2.330782928475057, 7.620498214709066]}, {"species": [{"element": "Dy", "occu": 1}], "abc": [0.88651471, 0.01666579, 0.61284501], "properties": {"magmom": -0.0}, "label": "Dy", "xyz": [6.430974612177107, -3.212280011524944, 7.62049821631091]}, {"species": [{"element": "Dy", "occu": 1}], "abc": [0.7263303, 0.59617921, 0.61284501], "properties": {"magmom": -0.0}, "label": "Dy", "xyz": [4.655150078903575, 3.212278711744366, 7.6204982205042]}, {"species": [{"element": "Dy", "occu": 1}], "abc": [0.48333421, 0.61348529, 0.38715499000000003], "properties": {"magmom": -0.0}, "label": "Dy", "xyz": [3.212279041524944, 4.655150297822894, 4.814127333689091]}, {"species": [{"element": "Dy", "occu": 1}], "abc": [0.90382079, 0.7736697, 0.38715499000000003], "properties": {"magmom": -0.0}, "label": "Dy", "xyz": [7.873846198255636, 6.430974831096426, 4.8141273394958]}, {"species": [{"element": "Dy", "occu": 1}], "abc": [0.40382079, 0.11348529, 0.38715499000000003], "properties": {"magmom": -0.0}, "label": "Dy", "xyz": [2.330783258255635, -0.8879126421771055, 4.8141273278939565]}, {"species": [{"element": "Dy", "occu": 1}], "abc": [0.98333421, 0.273669699999999, 0.38715499000000003], "properties": {"magmom": -0.0}, "label": "Dy", "xyz": [8.755341981524944, 0.8879118910964143, 4.814127335290935]}, {"species": [{"element": "Dy", "occu": 1}], "abc": [0.61348529, 0.90382079, 0.38715499000000003], "properties": {"magmom": -0.0}, "label": "Dy", "xyz": [4.655150297822894, 7.873846198255636, 4.814127337893956]}, {"species": [{"element": "Dy", "occu": 1}], "abc": [0.7736697, 0.48333421, 0.38715499000000003], "properties": {"magmom": -0.0}, "label": "Dy", "xyz": [6.430974831096426, 3.212279041524944, 4.814127335290935]}, {"species": [{"element": "Dy", "occu": 1}], "abc": [0.11348529, 0.98333421, 0.38715499000000003], "properties": {"magmom": -0.0}, "label": "Dy", "xyz": [-0.8879126421771055, 8.755341981524944, 4.814127333689091]}, {"species": [{"element": "Dy", "occu": 1}], "abc": [0.273669699999999, 0.40382079, 0.38715499000000003], "properties": {"magmom": -0.0}, "label": "Dy", "xyz": [0.8879118910964143, 2.330783258255635, 4.8141273294958005]}, {"species": [{"element": "Dy", "occu": 1}], "abc": [0.3509733, 0.850973299999999, 0.0], "properties": {"magmom": 0.0}, "label": "Dy", "xyz": [3.890934184319004, 9.433997124318994, 1.201946599999999e-08]}, {"species": [{"element": "Dy", "occu": 1}], "abc": [0.6490267, 0.149026699999999, -0.0], "properties": {"magmom": 0.0}, "label": "Dy", "xyz": [7.195191695680996, 1.6521287556809852, 7.98053399999999e-09]}, {"species": [{"element": "Dy", "occu": 1}], "abc": [0.149026699999999, 0.3509733, 0.0], "properties": {"magmom": 0.0}, "label": "Dy", "xyz": [1.6521287556809852, 3.890934184319004, 4.99999999999999e-09]}, {"species": [{"element": "Dy", "occu": 1}], "abc": [0.850973299999999, 0.6490267, 0.0], "properties": {"magmom": 0.0}, "label": "Dy", "xyz": [9.433997124318994, 7.195191695680996, 1.499999999999999e-08]}, {"species": [{"element": "Dy", "occu": 1}], "abc": [0.88737263, 0.38737263, 0.77474726], "properties": {"magmom": -0.0}, "label": "Dy", "xyz": [5.543051102369278, -1.1837630721878156e-05, 9.633692071241]}, {"species": [{"element": "Dy", "occu": 1}], "abc": [0.38737263, 0.88737263, 0.77474726], "properties": {"magmom": -0.0}, "label": "Dy", "xyz": [-1.1837630721878156e-05, 5.543051102369278, 9.633692071241]}, {"species": [{"element": "Dy", "occu": 1}], "abc": [0.11262737, 0.61262737, 0.22525274], "properties": {"magmom": -0.0}, "label": "Dy", "xyz": [1.0867630722444233e-05, 5.543073807630723, 2.8009334787589997]}, {"species": [{"element": "Dy", "occu": 1}], "abc": [0.61262737, 0.11262737, 0.22525274], "properties": {"magmom": -0.0}, "label": "Dy", "xyz": [5.543073807630723, 1.0867630722444233e-05, 2.8009334787589997]}, {"species": [{"element": "Dy", "occu": 1}], "abc": [0.75, 0.25, 0.5], "properties": {"magmom": 0.0}, "label": "Dy", "xyz": [5.543062455000001, -4.849999997169618e-07, 6.217312775]}, {"species": [{"element": "Dy", "occu": 1}], "abc": [0.25, 0.75, 0.5], "properties": {"magmom": 0.0}, "label": "Dy", "xyz": [-4.849999997169618e-07, 5.543062455000001, 6.217312775]}, {"species": [{"element": "Rh", "occu": 1}], "abc": [0.21453946000000002, 0.71453946, 0.7866892600000001], "properties": {"magmom": -0.0}, "label": "Rh", "xyz": [-1.9822573857033818, 3.5608055542966186, 9.782186365863597]}, {"species": [{"element": "Rh", "occu": 1}], "abc": [0.5721488100000001, 0.07214881000000001, 0.7866892600000001], "properties": {"magmom": -0.0}, "label": "Rh", "xyz": [1.982244884261597, -3.560818055738404, 9.782186363015784]}, {"species": [{"element": "Rh", "occu": 1}], "abc": [0.07214881000000001, 0.21453946000000002, 0.7866892600000001], "properties": {"magmom": -0.0}, "label": "Rh", "xyz": [-3.560818055738404, -1.9822573857033818, 9.78218635943969]}, {"species": [{"element": "Rh", "occu": 1}], "abc": [0.71453946, 0.5721488100000001, 0.7866892600000001], "properties": {"magmom": -0.0}, "label": "Rh", "xyz": [3.5608055542966186, 1.982244884261597, 9.78218636943969]}, {"species": [{"element": "Rh", "occu": 1}], "abc": [0.78546054, 0.28546054, 0.21331074], "properties": {"magmom": -0.0}, "label": "Rh", "xyz": [7.525319355703383, 1.982256415703382, 2.6524391841364032]}, {"species": [{"element": "Rh", "occu": 1}], "abc": [0.42785119, 0.92785119, 0.21331074], "properties": {"magmom": -0.0}, "label": "Rh", "xyz": [3.5608170857384036, 9.103880025738405, 2.6524391869842163]}, {"species": [{"element": "Rh", "occu": 1}], "abc": [0.92785119, 0.78546054, 0.21331074], "properties": {"magmom": -0.0}, "label": "Rh", "xyz": [9.103880025738405, 7.525319355703383, 2.6524391905603095]}, {"species": [{"element": "Rh", "occu": 1}], "abc": [0.28546054, 0.42785119, 0.21331074], "properties": {"magmom": -0.0}, "label": "Rh", "xyz": [1.982256415703382, 3.5608170857384036, 2.6524391805603096]}, {"species": [{"element": "Rh", "occu": 1}], "abc": [0.96472239, 0.46472239, 0.62327445], "properties": {"magmom": -0.0}, "label": "Rh", "xyz": [7.240183744974354, 1.6971208049743534, 7.750184402461156]}, {"species": [{"element": "Rh", "occu": 1}], "abc": [0.65855205, 0.15855205, 0.62327445], "properties": {"magmom": -0.0}, "label": "Rh", "xyz": [3.845940815011956, -1.6971221249880455, 7.750184396337749]}, {"species": [{"element": "Rh", "occu": 1}], "abc": [0.15855205, 0.96472239, 0.62327445], "properties": {"magmom": -0.0}, "label": "Rh", "xyz": [-1.6971221249880455, 7.240183744974354, 7.750184399399453]}, {"species": [{"element": "Rh", "occu": 1}], "abc": [0.46472239, 0.65855205, 0.62327445], "properties": {"magmom": -0.0}, "label": "Rh", "xyz": [1.6971208049743534, 3.845940815011956, 7.750184399399453]}, {"species": [{"element": "Rh", "occu": 1}], "abc": [0.03527761, 0.53527761, 0.37672555], "properties": {"magmom": -0.0}, "label": "Rh", "xyz": [-1.6971217749743537, 3.8459411650256463, 4.684441147538844]}, {"species": [{"element": "Rh", "occu": 1}], "abc": [0.34144795, 0.8414479500000001, 0.37672555], "properties": {"magmom": -0.0}, "label": "Rh", "xyz": [1.6971211549880456, 7.240184094988047, 4.684441153662251]}, {"species": [{"element": "Rh", "occu": 1}], "abc": [0.8414479500000001, 0.03527761, 0.37672555], "properties": {"magmom": -0.0}, "label": "Rh", "xyz": [7.240184094988047, -1.6971217749743537, 4.684441150600547]}, {"species": [{"element": "Rh", "occu": 1}], "abc": [0.53527761, 0.34144795, 0.37672555], "properties": {"magmom": -0.0}, "label": "Rh", "xyz": [3.8459411650256463, 1.6971211549880456, 4.684441150600547]}, {"species": [{"element": "Rh", "occu": 1}], "abc": [0.09803299, 0.59803299, 0.0], "properties": {"magmom": -0.0}, "label": "Rh", "xyz": [1.0868060675327813, 6.629869007532782, 6.960659799999999e-09]}, {"species": [{"element": "Rh", "occu": 1}], "abc": [0.90196701, 0.40196701, -0.0], "properties": {"magmom": -0.0}, "label": "Rh", "xyz": [9.99931981246722, 4.456256872467219, 1.3039340200000001e-08]}, {"species": [{"element": "Rh", "occu": 1}], "abc": [0.40196701, 0.09803299, 0.0], "properties": {"magmom": -0.0}, "label": "Rh", "xyz": [4.456256872467219, 1.0868060675327813, 5e-09]}, {"species": [{"element": "Rh", "occu": 1}], "abc": [0.59803299, 0.90196701, 0.0], "properties": {"magmom": -0.0}, "label": "Rh", "xyz": [6.629869007532782, 9.99931981246722, 1.5e-08]}, {"species": [{"element": "Rh", "occu": 1}], "abc": [0.36737707000000003, 0.36737707000000003, 0.73475314], "properties": {"magmom": 0.0}, "label": "Rh", "xyz": [4.830352394513682e-06, 4.830352394513682e-06, 9.136380160239206]}, {"species": [{"element": "Rh", "occu": 1}], "abc": [0.86737707, 0.86737707, 0.73475314], "properties": {"magmom": 0.0}, "label": "Rh", "xyz": [5.543067770352394, 5.543067770352394, 9.136380170239207]}, {"species": [{"element": "Rh", "occu": 1}], "abc": [0.63262293, 0.63262293, 0.26524686000000003], "properties": {"magmom": 0.0}, "label": "Rh", "xyz": [5.5430571396476065, 5.5430571396476065, 3.298245389760795]}, {"species": [{"element": "Rh", "occu": 1}], "abc": [0.13262293, 0.13262293, 0.26524686000000003], "properties": {"magmom": 0.0}, "label": "Rh", "xyz": [-5.80035239416965e-06, -5.80035239416965e-06, 3.298245379760795]}, {"species": [{"element": "Rh", "occu": 1}], "abc": [0.5, 0.5, 0.0], "properties": {"magmom": 0.0}, "label": "Rh", "xyz": [5.54306294, 5.54306294, 1e-08]}, {"species": [{"element": "Rh", "occu": 1}], "abc": [0.0, 0.0, 0.0], "properties": {"magmom": 0.0}, "label": "Rh", "xyz": [0.0, 0.0, 0.0]}, {"species": [{"element": "Rh", "occu": 1}], "abc": [0.25, 0.25, 0.5], "properties": {"magmom": 0.0}, "label": "Rh", "xyz": [-4.849999997169618e-07, -4.849999997169618e-07, 6.21731277]}, {"species": [{"element": "Rh", "occu": 1}], "abc": [0.75, 0.75, 0.5], "properties": {"magmom": 0.0}, "label": "Rh", "xyz": [5.543062455000001, 5.543062455000001, 6.21731278]}]}, "task_ids": null, "uncorrected_energy_per_atom": null, "energy_per_atom": -6.476430294142857, "formation_energy_per_atom": -0.7596818291428541, "energy_above_hull": 0.0, "is_stable": true, "equilibrium_reaction_energy_per_atom": null, "decomposes_to": null, "xas": null, "grain_boundaries": null, "band_gap": 0.0, "cbm": null, "vbm": null, "efermi": 4.52353584, "is_gap_direct": null, "is_metal": null, "es_source_calc_id": null, "bandstructure": null, "dos": null, "dos_energy_up": null, "dos_energy_down": null, "is_magnetic": null, "ordering": null, "total_magnetization": 1e-07, "total_magnetization_normalized_vol": null, "total_magnetization_normalized_formula_units": null, "num_magnetic_sites": null, "num_unique_magnetic_sites": null, "types_of_magnetic_species": null, "bulk_modulus": null, "shear_modulus": null, "universal_anisotropy": null, "homogeneous_poisson": null, "e_total": null, "e_ionic": null, "e_electronic": null, "n": null, "e_ij_max": null, "weighted_surface_energy_EV_PER_ANG2": null, "weighted_surface_energy": null, "weighted_work_function": null, "surface_anisotropy": null, "shape_factor": null, "has_reconstructed": null, "possible_species": null, "has_props": null, "theoretical": null, "database_IDs": null, "fields_not_requested": ["builder_meta", "nsites", "elements", "nelements", "composition", "composition_reduced", "chemsys", "symmetry", "property_name", "deprecated", "deprecation_reasons", "last_updated", "origins", "warnings", "task_ids", "uncorrected_energy_per_atom", "equilibrium_reaction_energy_per_atom", "decomposes_to", "xas", "grain_boundaries", "cbm", "vbm", "is_gap_direct", "is_metal", "es_source_calc_id", "bandstructure", "dos", "dos_energy_up", "dos_energy_down", "is_magnetic", "ordering", "total_magnetization_normalized_vol", "total_magnetization_normalized_formula_units", "num_magnetic_sites", "num_unique_magnetic_sites", "types_of_magnetic_species", "bulk_modulus", "shear_modulus", "universal_anisotropy", "homogeneous_poisson", "e_total", "e_ionic", "e_electronic", "n", "e_ij_max", "weighted_surface_energy_EV_PER_ANG2", "weighted_surface_energy", "weighted_work_function", "surface_anisotropy", "shape_factor", "has_reconstructed", "possible_species", "has_props", "theoretical", "database_IDs"]}