{"builder_meta": null, "nsites": null, "elements": null, "nelements": null, "composition": null, "composition_reduced": null, "formula_pretty": "Dy3Rh", "formula_anonymous": "AB3", "chemsys": null, "volume": 425.8166273194516, "density": 9.209517289704213, "density_atomic": 26.613539207465724, "symmetry": null, "property_name": null, "material_id": "mp-1105501", "deprecated": null, "deprecation_reasons": null, "last_updated": null, "origins": null, "warnings": null, "structure": {"@module": "pymatgen.core.structure", "@class": "Structure", "charge": 0, "lattice": {"matrix": [[0.0, 0.0, 6.255324], [7.14085, 0.0, 0.0], [0.0, 9.532853, 0.0]], "pbc": [true, true, true], "a": 6.255324, "b": 7.14085, "c": 9.532853, "alpha": 90.0, "beta": 90.0, "gamma": 90.0, "volume": 425.8166273194516}, "properties": {}, "sites": [{"species": [{"element": "Dy", "occu": 1}], "abc": [0.330511, 0.677793, 0.062849], "properties": {"magmom": 0.001}, "label": "Dy", "xyz": [4.84001814405, 0.5991302781969999, 2.067453390564]}, {"species": [{"element": "Dy", "occu": 1}], "abc": [0.169489, 0.177792999999999, 0.437150999999999], "properties": {"magmom": 0.001}, "label": "Dy", "xyz": [1.269593144049993, 4.1672962218029905, 1.060208609436]}, {"species": [{"element": "Dy", "occu": 1}], "abc": [0.669489, 0.322206999999999, 0.562848999999999], "properties": {"magmom": 0.001}, "label": "Dy", "xyz": [2.300831855949993, 5.36555677819699, 4.187870609436]}, {"species": [{"element": "Dy", "occu": 1}], "abc": [0.830511, 0.822206999999999, 0.937151], "properties": {"magmom": 0.001}, "label": "Dy", "xyz": [5.871256855949993, 8.933722721802999, 5.195115390564]}, {"species": [{"element": "Dy", "occu": 1}], "abc": [0.669489, 0.322206999999999, 0.937151], "properties": {"magmom": 0.001}, "label": "Dy", "xyz": [2.300831855949993, 8.933722721802999, 4.187870609436]}, {"species": [{"element": "Dy", "occu": 1}], "abc": [0.830511, 0.822206999999999, 0.562848999999999], "properties": {"magmom": 0.001}, "label": "Dy", "xyz": [5.871256855949993, 5.36555677819699, 5.195115390564]}, {"species": [{"element": "Dy", "occu": 1}], "abc": [0.330511, 0.677793, 0.437150999999999], "properties": {"magmom": 0.001}, "label": "Dy", "xyz": [4.84001814405, 4.1672962218029905, 2.067453390564]}, {"species": [{"element": "Dy", "occu": 1}], "abc": [0.169489, 0.177792999999999, 0.062849], "properties": {"magmom": 0.001}, "label": "Dy", "xyz": [1.269593144049993, 0.5991302781969999, 1.060208609436]}, {"species": [{"element": "Dy", "occu": 1}], "abc": [0.866459, 0.531229, 0.25], "properties": {"magmom": 0.002}, "label": "Dy", "xyz": [3.79342660465, 2.38321325, 5.419981777716]}, {"species": [{"element": "Dy", "occu": 1}], "abc": [0.633541, 0.031229, 0.25], "properties": {"magmom": 0.002}, "label": "Dy", "xyz": [0.22300160465000002, 2.38321325, 3.963004222284]}, {"species": [{"element": "Dy", "occu": 1}], "abc": [0.133541, 0.468771, 0.75], "properties": {"magmom": 0.002}, "label": "Dy", "xyz": [3.3474233953500003, 7.1496397499999995, 0.8353422222839999]}, {"species": [{"element": "Dy", "occu": 1}], "abc": [0.366459, 0.968770999999999, 0.75], "properties": {"magmom": 0.002}, "label": "Dy", "xyz": [6.917848395349994, 7.1496397499999995, 2.292319777716]}, {"species": [{"element": "Rh", "occu": 1}], "abc": [0.061012, 0.882411, 0.25], "properties": {"magmom": -0.001}, "label": "Rh", "xyz": [6.30116458935, 2.38321325, 0.38164982788799995]}, {"species": [{"element": "Rh", "occu": 1}], "abc": [0.438988, 0.382411, 0.25], "properties": {"magmom": -0.001}, "label": "Rh", "xyz": [2.73073958935, 2.38321325, 2.7460121721119997]}, {"species": [{"element": "Rh", "occu": 1}], "abc": [0.938987999999999, 0.117589, 0.75], "properties": {"magmom": -0.001}, "label": "Rh", "xyz": [0.83968541065, 7.1496397499999995, 5.873674172111994]}, {"species": [{"element": "Rh", "occu": 1}], "abc": [0.561012, 0.617588999999999, 0.75], "properties": {"magmom": -0.001}, "label": "Rh", "xyz": [4.4101104106499935, 7.1496397499999995, 3.509311827888]}]}, "task_ids": null, "uncorrected_energy_per_atom": null, "energy_per_atom": -5.817065601875, "formation_energy_per_atom": -0.512206988124996, "energy_above_hull": 0.0, "is_stable": true, "equilibrium_reaction_energy_per_atom": null, "decomposes_to": null, "xas": null, "grain_boundaries": null, "band_gap": 0.0, "cbm": null, "vbm": null, "efermi": 3.82135211, "is_gap_direct": null, "is_metal": null, "es_source_calc_id": null, "bandstructure": null, "dos": null, "dos_energy_up": null, "dos_energy_down": null, "is_magnetic": null, "ordering": null, "total_magnetization": 0.0256901, "total_magnetization_normalized_vol": null, "total_magnetization_normalized_formula_units": null, "num_magnetic_sites": null, "num_unique_magnetic_sites": null, "types_of_magnetic_species": null, "bulk_modulus": null, "shear_modulus": null, "universal_anisotropy": null, "homogeneous_poisson": null, "e_total": null, "e_ionic": null, "e_electronic": null, "n": null, "e_ij_max": null, "weighted_surface_energy_EV_PER_ANG2": null, "weighted_surface_energy": null, "weighted_work_function": null, "surface_anisotropy": null, "shape_factor": null, "has_reconstructed": null, "possible_species": null, "has_props": null, "theoretical": null, "database_IDs": null, "fields_not_requested": ["builder_meta", "nsites", "elements", "nelements", "composition", "composition_reduced", "chemsys", "symmetry", "property_name", "deprecated", "deprecation_reasons", "last_updated", "origins", "warnings", "task_ids", "uncorrected_energy_per_atom", "equilibrium_reaction_energy_per_atom", "decomposes_to", "xas", "grain_boundaries", "cbm", "vbm", "is_gap_direct", "is_metal", "es_source_calc_id", "bandstructure", "dos", "dos_energy_up", "dos_energy_down", "is_magnetic", "ordering", "total_magnetization_normalized_vol", "total_magnetization_normalized_formula_units", "num_magnetic_sites", "num_unique_magnetic_sites", "types_of_magnetic_species", "bulk_modulus", "shear_modulus", "universal_anisotropy", "homogeneous_poisson", "e_total", "e_ionic", "e_electronic", "n", "e_ij_max", "weighted_surface_energy_EV_PER_ANG2", "weighted_surface_energy", "weighted_work_function", "surface_anisotropy", "shape_factor", "has_reconstructed", "possible_species", "has_props", "theoretical", "database_IDs"]}