{"builder_meta": null, "nsites": null, "elements": null, "nelements": null, "composition": null, "composition_reduced": null, "formula_pretty": "Dy3Ru", "formula_anonymous": "AB3", "chemsys": null, "volume": 419.51722335972806, "density": 9.318744728539626, "density_atomic": 26.219826459983004, "symmetry": null, "property_name": null, "material_id": "mp-1105841", "deprecated": null, "deprecation_reasons": null, "last_updated": null, "origins": null, "warnings": null, "structure": {"@module": "pymatgen.core.structure", "@class": "Structure", "charge": 0, "lattice": {"matrix": [[0.0, 0.0, 6.32036092], [7.26894297, 0.0, 0.0], [0.0, 9.13138502, 0.0]], "pbc": [true, true, true], "a": 6.32036092, "b": 7.26894297, "c": 9.13138502, "alpha": 90.0, "beta": 90.0, "gamma": 90.0, "volume": 419.51722335972806}, "properties": {}, "sites": [{"species": [{"element": "Dy", "occu": 1}], "abc": [0.32920839, 0.67546354, 0.06508773], "properties": {"magmom": -0.0}, "label": "Dy", "xyz": [4.909905950574314, 0.5943411227078046, 2.080715842692119]}, {"species": [{"element": "Dy", "occu": 1}], "abc": [0.17079161, 0.17546354, 0.43491227], "properties": {"magmom": -0.0}, "label": "Dy", "xyz": [1.275434465574314, 3.971351387292195, 1.0794646173078812]}, {"species": [{"element": "Dy", "occu": 1}], "abc": [0.67079161, 0.32453646, 0.56508773], "properties": {"magmom": -0.0}, "label": "Dy", "xyz": [2.3590370194256867, 5.160033632707805, 4.239645077307881]}, {"species": [{"element": "Dy", "occu": 1}], "abc": [0.82920839, 0.82453646, 0.93491227], "properties": {"magmom": -0.0}, "label": "Dy", "xyz": [5.993508504425686, 8.537043897292195, 5.240896302692119]}, {"species": [{"element": "Dy", "occu": 1}], "abc": [0.67079161, 0.32453646, 0.93491227], "properties": {"magmom": -0.0}, "label": "Dy", "xyz": [2.3590370194256867, 8.537043897292195, 4.239645077307881]}, {"species": [{"element": "Dy", "occu": 1}], "abc": [0.82920839, 0.82453646, 0.56508773], "properties": {"magmom": -0.0}, "label": "Dy", "xyz": [5.993508504425686, 5.160033632707805, 5.240896302692119]}, {"species": [{"element": "Dy", "occu": 1}], "abc": [0.32920839, 0.67546354, 0.43491227], "properties": {"magmom": -0.0}, "label": "Dy", "xyz": [4.909905950574314, 3.971351387292195, 2.080715842692119]}, {"species": [{"element": "Dy", "occu": 1}], "abc": [0.17079161, 0.17546354, 0.06508773], "properties": {"magmom": -0.0}, "label": "Dy", "xyz": [1.275434465574314, 0.5943411227078046, 1.0794646173078812]}, {"species": [{"element": "Dy", "occu": 1}], "abc": [0.86806204, 0.54394239, 0.25], "properties": {"magmom": 0.0}, "label": "Dy", "xyz": [3.9538862118754983, 2.282846255, 5.486465393751477]}, {"species": [{"element": "Dy", "occu": 1}], "abc": [0.63193796, 0.04394239, 0.25], "properties": {"magmom": 0.0}, "label": "Dy", "xyz": [0.3194147268754983, 2.282846255, 3.9940759862485233]}, {"species": [{"element": "Dy", "occu": 1}], "abc": [0.13193796, 0.45605761, 0.75], "properties": {"magmom": 0.0}, "label": "Dy", "xyz": [3.315056758124502, 6.848538765, 0.8338955262485231]}, {"species": [{"element": "Dy", "occu": 1}], "abc": [0.36806204000000003, 0.95605761, 0.75], "properties": {"magmom": 0.0}, "label": "Dy", "xyz": [6.949528243124502, 6.848538765, 2.326284933751477]}, {"species": [{"element": "Ru", "occu": 1}], "abc": [0.03360857, 0.8861819200000001, 0.25], "properties": {"magmom": 0.0}, "label": "Ru", "xyz": [6.4416058375251035, 2.282846255, 0.21241829240508436]}, {"species": [{"element": "Ru", "occu": 1}], "abc": [0.46639143, 0.38618192, 0.25], "properties": {"magmom": 0.0}, "label": "Ru", "xyz": [2.8071343525251025, 2.282846255, 2.9477621675949153]}, {"species": [{"element": "Ru", "occu": 1}], "abc": [0.96639143, 0.11381808, 0.75], "properties": {"magmom": 0.0}, "label": "Ru", "xyz": [0.8273371324748977, 6.848538765, 6.107942627594916]}, {"species": [{"element": "Ru", "occu": 1}], "abc": [0.5336085700000001, 0.61381808, 0.75], "properties": {"magmom": 0.0}, "label": "Ru", "xyz": [4.461808617474898, 6.848538765, 3.3725987524050844]}]}, "task_ids": null, "uncorrected_energy_per_atom": null, "energy_per_atom": -6.097544482499998, "formation_energy_per_atom": -0.315162201249994, "energy_above_hull": 0.0, "is_stable": true, "equilibrium_reaction_energy_per_atom": null, "decomposes_to": null, "xas": null, "grain_boundaries": null, "band_gap": 0.0, "cbm": null, "vbm": null, "efermi": 3.90708746, "is_gap_direct": null, "is_metal": null, "es_source_calc_id": null, "bandstructure": null, "dos": null, "dos_energy_up": null, "dos_energy_down": null, "is_magnetic": null, "ordering": null, "total_magnetization": 1e-07, "total_magnetization_normalized_vol": null, "total_magnetization_normalized_formula_units": null, "num_magnetic_sites": null, "num_unique_magnetic_sites": null, "types_of_magnetic_species": null, "bulk_modulus": null, "shear_modulus": null, "universal_anisotropy": null, "homogeneous_poisson": null, "e_total": null, "e_ionic": null, "e_electronic": null, "n": null, "e_ij_max": null, "weighted_surface_energy_EV_PER_ANG2": null, "weighted_surface_energy": null, "weighted_work_function": null, "surface_anisotropy": null, "shape_factor": null, "has_reconstructed": null, "possible_species": null, "has_props": null, "theoretical": null, "database_IDs": null, "fields_not_requested": ["builder_meta", "nsites", "elements", "nelements", "composition", "composition_reduced", "chemsys", "symmetry", "property_name", "deprecated", "deprecation_reasons", "last_updated", "origins", "warnings", "task_ids", "uncorrected_energy_per_atom", "equilibrium_reaction_energy_per_atom", "decomposes_to", "xas", "grain_boundaries", "cbm", "vbm", "is_gap_direct", "is_metal", "es_source_calc_id", "bandstructure", "dos", "dos_energy_up", "dos_energy_down", "is_magnetic", "ordering", "total_magnetization_normalized_vol", "total_magnetization_normalized_formula_units", "num_magnetic_sites", "num_unique_magnetic_sites", "types_of_magnetic_species", "bulk_modulus", "shear_modulus", "universal_anisotropy", "homogeneous_poisson", "e_total", "e_ionic", "e_electronic", "n", "e_ij_max", "weighted_surface_energy_EV_PER_ANG2", "weighted_surface_energy", "weighted_work_function", "surface_anisotropy", "shape_factor", "has_reconstructed", "possible_species", "has_props", "theoretical", "database_IDs"]}