{"builder_meta": null, "nsites": null, "elements": null, "nelements": null, "composition": null, "composition_reduced": null, "formula_pretty": "Dy3Ru2", "formula_anonymous": "A2B3", "chemsys": null, "volume": 236.66878745797885, "density": 9.67744140822416, "density_atomic": 23.666878745797884, "symmetry": null, "property_name": null, "material_id": "mp-1206285", "deprecated": null, "deprecation_reasons": null, "last_updated": null, "origins": null, "warnings": null, "structure": {"@module": "pymatgen.core.structure", "@class": "Structure", "charge": 0, "lattice": {"matrix": [[0.0, 0.0, -4.752651], [-3.791466, -6.567013, 0.0], [-3.791467, 6.567012, 0.0]], "pbc": [true, true, true], "a": 4.752651, "b": 7.582933084982684, "c": 7.58293271895729, "alpha": 119.99999914470858, "beta": 90.0, "gamma": 90.0, "volume": 236.66878745797885}, "properties": {}, "sites": [{"species": [{"element": "Dy", "occu": 1}], "abc": [0.75, 0.616749, 0.695599], "properties": {"magmom": -0.0}, "label": "Dy", "xyz": [-4.975723517766999, 0.5178082794509997, -3.56448825]}, {"species": [{"element": "Dy", "occu": 1}], "abc": [0.25, 0.383251, 0.304401], "properties": {"magmom": -0.0}, "label": "Dy", "xyz": [-2.607209482233, -0.5178092794510003, -1.18816275]}, {"species": [{"element": "Dy", "occu": 1}], "abc": [0.75, 0.07885, 0.383251], "properties": {"magmom": -0.0}, "label": "Dy", "xyz": [-1.752040613317, 1.999004940962, -3.56448825]}, {"species": [{"element": "Dy", "occu": 1}], "abc": [0.25, 0.92115, 0.616749], "properties": {"magmom": -0.0}, "label": "Dy", "xyz": [-5.830892386683, -1.9990059409620011, -1.18816275]}, {"species": [{"element": "Dy", "occu": 1}], "abc": [0.75, 0.304401, 0.92115], "properties": {"magmom": 0.0}, "label": "Dy", "xyz": [-4.646635868916, 4.050197779587, -3.56448825]}, {"species": [{"element": "Dy", "occu": 1}], "abc": [0.25, 0.695599, 0.07885], "properties": {"magmom": 0.0}, "label": "Dy", "xyz": [-2.9362971310839994, -4.050198779587, -1.18816275]}, {"species": [{"element": "Ru", "occu": 1}], "abc": [0.75, 0.666667, 0.333333], "properties": {"magmom": -0.0}, "label": "Ru", "xyz": [-3.791466333333, -2.1890090446750006, -3.56448825]}, {"species": [{"element": "Ru", "occu": 1}], "abc": [0.25, 0.333333, 0.666667], "properties": {"magmom": -0.0}, "label": "Ru", "xyz": [-3.7914666666669996, 2.1890080446749995, -1.18816275]}, {"species": [{"element": "Ru", "occu": 1}], "abc": [0.0, 0.0, 0.0], "properties": {"magmom": -0.0}, "label": "Ru", "xyz": [0.0, 0.0, 0.0]}, {"species": [{"element": "Ru", "occu": 1}], "abc": [0.5, 0.0, 0.0], "properties": {"magmom": -0.0}, "label": "Ru", "xyz": [0.0, 0.0, -2.3763255]}]}, "task_ids": null, "uncorrected_energy_per_atom": null, "energy_per_atom": -6.753532699999999, "formation_energy_per_atom": -0.27274636699999605, "energy_above_hull": 0.068347736249998, "is_stable": false, "equilibrium_reaction_energy_per_atom": null, "decomposes_to": null, "xas": null, "grain_boundaries": null, "band_gap": 0.0, "cbm": null, "vbm": null, "efermi": 4.27781695, "is_gap_direct": null, "is_metal": null, "es_source_calc_id": null, "bandstructure": null, "dos": null, "dos_energy_up": null, "dos_energy_down": null, "is_magnetic": null, "ordering": null, "total_magnetization": 0.000323999999999, "total_magnetization_normalized_vol": null, "total_magnetization_normalized_formula_units": null, "num_magnetic_sites": null, "num_unique_magnetic_sites": null, "types_of_magnetic_species": null, "bulk_modulus": null, "shear_modulus": null, "universal_anisotropy": null, "homogeneous_poisson": null, "e_total": null, "e_ionic": null, "e_electronic": null, "n": null, "e_ij_max": null, "weighted_surface_energy_EV_PER_ANG2": null, "weighted_surface_energy": null, "weighted_work_function": null, "surface_anisotropy": null, "shape_factor": null, "has_reconstructed": null, "possible_species": null, "has_props": null, "theoretical": null, "database_IDs": null, "fields_not_requested": ["builder_meta", "nsites", "elements", "nelements", "composition", "composition_reduced", "chemsys", "symmetry", "property_name", "deprecated", "deprecation_reasons", "last_updated", "origins", "warnings", "task_ids", "uncorrected_energy_per_atom", "equilibrium_reaction_energy_per_atom", "decomposes_to", "xas", "grain_boundaries", "cbm", "vbm", "is_gap_direct", "is_metal", "es_source_calc_id", "bandstructure", "dos", "dos_energy_up", "dos_energy_down", "is_magnetic", "ordering", "total_magnetization_normalized_vol", "total_magnetization_normalized_formula_units", "num_magnetic_sites", "num_unique_magnetic_sites", "types_of_magnetic_species", "bulk_modulus", "shear_modulus", "universal_anisotropy", "homogeneous_poisson", "e_total", "e_ionic", "e_electronic", "n", "e_ij_max", "weighted_surface_energy_EV_PER_ANG2", "weighted_surface_energy", "weighted_work_function", "surface_anisotropy", "shape_factor", "has_reconstructed", "possible_species", "has_props", "theoretical", "database_IDs"]}