{"builder_meta": null, "nsites": null, "elements": null, "nelements": null, "composition": null, "composition_reduced": null, "formula_pretty": "Dy3Se4", "formula_anonymous": "A3B4", "chemsys": null, "volume": 327.64759123705085, "density": 8.142757581253328, "density_atomic": 23.40339937407506, "symmetry": null, "property_name": null, "material_id": "mp-571400", "deprecated": null, "deprecation_reasons": null, "last_updated": null, "origins": null, "warnings": null, "structure": {"@module": "pymatgen.core.structure", "@class": "Structure", "charge": 0, "lattice": {"matrix": [[-4.342925, 4.342925, 4.342925], [4.342925, -4.342925, 4.342925], [4.342925, 4.342925, -4.342925]], "pbc": [true, true, true], "a": 7.522166753461066, "b": 7.522166753461066, "c": 7.522166753461066, "alpha": 109.47122063449069, "beta": 109.47122063449069, "gamma": 109.47122063449069, "volume": 327.64759123705085}, "properties": {}, "sites": [{"species": [{"element": "Dy", "occu": 1}], "abc": [0.25, 0.125, 0.875], "properties": {"magmom": -0.001}, "label": "Dy", "xyz": [3.25719375, 4.342925, -2.1714625]}, {"species": [{"element": "Dy", "occu": 1}], "abc": [0.125, 0.875, 0.25], "properties": {"magmom": 0.002}, "label": "Dy", "xyz": [4.342925, -2.1714624999999996, 3.25719375]}, {"species": [{"element": "Dy", "occu": 1}], "abc": [0.75, 0.375, 0.625], "properties": {"magmom": 0.0}, "label": "Dy", "xyz": [1.0857312500000003, 4.342925, 2.1714625]}, {"species": [{"element": "Dy", "occu": 1}], "abc": [0.875, 0.25, 0.125], "properties": {"magmom": -0.0}, "label": "Dy", "xyz": [-2.1714624999999996, 3.25719375, 4.342925]}, {"species": [{"element": "Dy", "occu": 1}], "abc": [0.625, 0.75, 0.375], "properties": {"magmom": 0.0}, "label": "Dy", "xyz": [2.1714624999999996, 1.0857312500000003, 4.342925000000001]}, {"species": [{"element": "Dy", "occu": 1}], "abc": [0.375, 0.625, 0.75], "properties": {"magmom": -0.002}, "label": "Dy", "xyz": [4.342925, 2.1714624999999996, 1.0857312500000003]}, {"species": [{"element": "Se", "occu": 1}], "abc": [0.5, 0.0, 0.643212], "properties": {"magmom": -0.0}, "label": "Se", "xyz": [0.6219589751000001, 4.9648839751, -0.6219589751000001]}, {"species": [{"element": "Se", "occu": 1}], "abc": [0.0, 0.643212, 0.5], "properties": {"magmom": -0.0}, "label": "Se", "xyz": [4.9648839751, -0.6219589751000001, 0.6219589751000001]}, {"species": [{"element": "Se", "occu": 1}], "abc": [0.643212, 0.5, 0.0], "properties": {"magmom": -0.0}, "label": "Se", "xyz": [-0.6219589751000001, 0.6219589751000001, 4.9648839751]}, {"species": [{"element": "Se", "occu": 1}], "abc": [0.0, 0.143212, 0.5], "properties": {"magmom": 0.0}, "label": "Se", "xyz": [2.7934214751, 1.5495035249, -1.5495035249]}, {"species": [{"element": "Se", "occu": 1}], "abc": [0.856788, 0.856788, 0.856788], "properties": {"magmom": -0.0}, "label": "Se", "xyz": [3.7209660249, 3.7209660249, 3.7209660249]}, {"species": [{"element": "Se", "occu": 1}], "abc": [0.356788, 0.356788, 0.356788], "properties": {"magmom": -0.0}, "label": "Se", "xyz": [1.5495035249, 1.5495035249, 1.5495035249]}, {"species": [{"element": "Se", "occu": 1}], "abc": [0.143212, 0.5, 0.0], "properties": {"magmom": 0.001}, "label": "Se", "xyz": [1.5495035249, -1.5495035249, 2.7934214751]}, {"species": [{"element": "Se", "occu": 1}], "abc": [0.5, 0.0, 0.143212], "properties": {"magmom": 0.0}, "label": "Se", "xyz": [-1.5495035249, 2.7934214751, 1.5495035249]}]}, "task_ids": null, "uncorrected_energy_per_atom": null, "energy_per_atom": -23.942075098214286, "formation_energy_per_atom": -2.057553584107142, "energy_above_hull": 0.058138801428572, "is_stable": false, "equilibrium_reaction_energy_per_atom": null, "decomposes_to": null, "xas": null, "grain_boundaries": null, "band_gap": 0.0, "cbm": null, "vbm": null, "efermi": 5.92218002, "is_gap_direct": null, "is_metal": null, "es_source_calc_id": null, "bandstructure": null, "dos": null, "dos_energy_up": null, "dos_energy_down": null, "is_magnetic": null, "ordering": null, "total_magnetization": 0.0003692, "total_magnetization_normalized_vol": null, "total_magnetization_normalized_formula_units": null, "num_magnetic_sites": null, "num_unique_magnetic_sites": null, "types_of_magnetic_species": null, "bulk_modulus": null, "shear_modulus": null, "universal_anisotropy": null, "homogeneous_poisson": null, "e_total": null, "e_ionic": null, "e_electronic": null, "n": null, "e_ij_max": null, "weighted_surface_energy_EV_PER_ANG2": null, "weighted_surface_energy": null, "weighted_work_function": null, "surface_anisotropy": null, "shape_factor": null, "has_reconstructed": null, "possible_species": null, "has_props": null, "theoretical": null, "database_IDs": null, "fields_not_requested": ["builder_meta", "nsites", "elements", "nelements", "composition", "composition_reduced", "chemsys", "symmetry", "property_name", "deprecated", "deprecation_reasons", "last_updated", "origins", "warnings", "task_ids", "uncorrected_energy_per_atom", "equilibrium_reaction_energy_per_atom", "decomposes_to", "xas", "grain_boundaries", "cbm", "vbm", "is_gap_direct", "is_metal", "es_source_calc_id", "bandstructure", "dos", "dos_energy_up", "dos_energy_down", "is_magnetic", "ordering", "total_magnetization_normalized_vol", "total_magnetization_normalized_formula_units", "num_magnetic_sites", "num_unique_magnetic_sites", "types_of_magnetic_species", "bulk_modulus", "shear_modulus", "universal_anisotropy", "homogeneous_poisson", "e_total", "e_ionic", "e_electronic", "n", "e_ij_max", "weighted_surface_energy_EV_PER_ANG2", "weighted_surface_energy", "weighted_work_function", "surface_anisotropy", "shape_factor", "has_reconstructed", "possible_species", "has_props", "theoretical", "database_IDs"]}