{
  "builder_meta": null,
  "nsites": null,
  "elements": null,
  "nelements": null,
  "composition": null,
  "composition_reduced": null,
  "formula_pretty": "Dy4Al",
  "formula_anonymous": "AB4",
  "chemsys": null,
  "volume": 345.56992007610233,
  "density": 6.5060887936352305,
  "density_atomic": 34.55699200761023,
  "symmetry": null,
  "property_name": null,
  "material_id": "mp-1212899",
  "deprecated": null,
  "deprecation_reasons": null,
  "last_updated": null,
  "origins": null,
  "warnings": null,
  "structure": {
    "@module": "pymatgen.core.structure",
    "@class": "Structure",
    "charge": 0,
    "lattice": {
      "matrix": [
        [-5.569745, -5.569745, 0.0],
        [-5.569745, 0.0, -5.569745],
        [0.0, -5.569745, -5.569745]
      ],
      "pbc": [true, true, true],
      "a": 7.8768089179597345,
      "b": 7.8768089179597345,
      "c": 7.8768089179597345,
      "alpha": 59.99999999999999,
      "beta": 59.99999999999999,
      "gamma": 59.99999999999999,
      "volume": 345.56992007610233
    },
    "properties": {},
    "sites": [
      {
        "species": [{ "element": "Dy", "occu": 1 }],
        "abc": [0.606596999999999, 0.606596999999999, 0.606596999999999],
        "properties": { "magmom": 0.105 },
        "label": "Dy",
        "xyz": [-6.7571812155299895, -6.7571812155299895, -6.7571812155299895]
      },
      {
        "species": [{ "element": "Dy", "occu": 1 }],
        "abc": [0.18021, 0.606596999999999, 0.606596999999999],
        "properties": { "magmom": 0.105 },
        "label": "Dy",
        "xyz": [-4.382314354214995, -4.382314354214995, -6.7571812155299895]
      },
      {
        "species": [{ "element": "Dy", "occu": 1 }],
        "abc": [0.606596999999999, 0.18021, 0.606596999999999],
        "properties": { "magmom": 0.105 },
        "label": "Dy",
        "xyz": [-4.382314354214995, -6.7571812155299895, -4.382314354214995]
      },
      {
        "species": [{ "element": "Dy", "occu": 1 }],
        "abc": [0.56979, 0.143403, 0.143403],
        "properties": { "magmom": 0.105 },
        "label": "Dy",
        "xyz": [-3.972303145785, -3.972303145785, -1.59743628447]
      },
      {
        "species": [{ "element": "Dy", "occu": 1 }],
        "abc": [0.143403, 0.143403, 0.143403],
        "properties": { "magmom": 0.105 },
        "label": "Dy",
        "xyz": [-1.59743628447, -1.59743628447, -1.59743628447]
      },
      {
        "species": [{ "element": "Dy", "occu": 1 }],
        "abc": [0.606596999999999, 0.606596999999999, 0.18021],
        "properties": { "magmom": 0.10400000000000001 },
        "label": "Dy",
        "xyz": [-6.7571812155299895, -4.382314354214995, -4.382314354214995]
      },
      {
        "species": [{ "element": "Dy", "occu": 1 }],
        "abc": [0.143403, 0.56979, 0.143403],
        "properties": { "magmom": 0.105 },
        "label": "Dy",
        "xyz": [-3.972303145785, -1.59743628447, -3.972303145785]
      },
      {
        "species": [{ "element": "Dy", "occu": 1 }],
        "abc": [0.143403, 0.143403, 0.56979],
        "properties": { "magmom": 0.10400000000000001 },
        "label": "Dy",
        "xyz": [-1.59743628447, -3.972303145785, -3.972303145785]
      },
      {
        "species": [{ "element": "Al", "occu": 1 }],
        "abc": [0.0, 0.0, 0.0],
        "properties": { "magmom": 0.008 },
        "label": "Al",
        "xyz": [0.0, 0.0, 0.0]
      },
      {
        "species": [{ "element": "Al", "occu": 1 }],
        "abc": [0.75, 0.75, 0.75],
        "properties": { "magmom": 0.008 },
        "label": "Al",
        "xyz": [-8.3546175, -8.3546175, -8.3546175]
      }
    ]
  },
  "task_ids": null,
  "uncorrected_energy_per_atom": null,
  "energy_per_atom": -26.457010574500003,
  "formation_energy_per_atom": 0.474851671499999,
  "energy_above_hull": 0.681416066999997,
  "is_stable": false,
  "equilibrium_reaction_energy_per_atom": null,
  "decomposes_to": null,
  "xas": null,
  "grain_boundaries": null,
  "band_gap": 0.0,
  "cbm": null,
  "vbm": null,
  "efermi": 2.3725655,
  "is_gap_direct": null,
  "is_metal": null,
  "es_source_calc_id": null,
  "bandstructure": null,
  "dos": null,
  "dos_energy_up": null,
  "dos_energy_down": null,
  "is_magnetic": null,
  "ordering": null,
  "total_magnetization": 1.2957776,
  "total_magnetization_normalized_vol": null,
  "total_magnetization_normalized_formula_units": null,
  "num_magnetic_sites": null,
  "num_unique_magnetic_sites": null,
  "types_of_magnetic_species": null,
  "bulk_modulus": null,
  "shear_modulus": null,
  "universal_anisotropy": null,
  "homogeneous_poisson": null,
  "e_total": null,
  "e_ionic": null,
  "e_electronic": null,
  "n": null,
  "e_ij_max": null,
  "weighted_surface_energy_EV_PER_ANG2": null,
  "weighted_surface_energy": null,
  "weighted_work_function": null,
  "surface_anisotropy": null,
  "shape_factor": null,
  "has_reconstructed": null,
  "possible_species": null,
  "has_props": null,
  "theoretical": null,
  "database_IDs": null,
  "fields_not_requested": [
    "builder_meta",
    "nsites",
    "elements",
    "nelements",
    "composition",
    "composition_reduced",
    "chemsys",
    "symmetry",
    "property_name",
    "deprecated",
    "deprecation_reasons",
    "last_updated",
    "origins",
    "warnings",
    "task_ids",
    "uncorrected_energy_per_atom",
    "equilibrium_reaction_energy_per_atom",
    "decomposes_to",
    "xas",
    "grain_boundaries",
    "cbm",
    "vbm",
    "is_gap_direct",
    "is_metal",
    "es_source_calc_id",
    "bandstructure",
    "dos",
    "dos_energy_up",
    "dos_energy_down",
    "is_magnetic",
    "ordering",
    "total_magnetization_normalized_vol",
    "total_magnetization_normalized_formula_units",
    "num_magnetic_sites",
    "num_unique_magnetic_sites",
    "types_of_magnetic_species",
    "bulk_modulus",
    "shear_modulus",
    "universal_anisotropy",
    "homogeneous_poisson",
    "e_total",
    "e_ionic",
    "e_electronic",
    "n",
    "e_ij_max",
    "weighted_surface_energy_EV_PER_ANG2",
    "weighted_surface_energy",
    "weighted_work_function",
    "surface_anisotropy",
    "shape_factor",
    "has_reconstructed",
    "possible_species",
    "has_props",
    "theoretical",
    "database_IDs"
  ]
}
