{
  "builder_meta": null,
  "nsites": null,
  "elements": null,
  "nelements": null,
  "composition": null,
  "composition_reduced": null,
  "formula_pretty": "Dy4Co3",
  "formula_anonymous": "A3B4",
  "chemsys": null,
  "volume": 442.57135206982673,
  "density": 9.306519760397094,
  "density_atomic": 21.07482628903937,
  "symmetry": null,
  "property_name": null,
  "material_id": "mp-1225451",
  "deprecated": null,
  "deprecation_reasons": null,
  "last_updated": null,
  "origins": null,
  "warnings": null,
  "structure": {
    "@module": "pymatgen.core.structure",
    "@class": "Structure",
    "charge": 0,
    "lattice": {
      "matrix": [
        [5.65429165, -9.74130181, -0.02678572],
        [5.65843334, 9.74371259, 0.01277767],
        [-0.00504804, 0.00821111, 4.01557584]
      ],
      "pbc": [true, true, true],
      "a": 11.263422769814019,
      "b": 11.267562565550666,
      "c": 4.015587408067091,
      "alpha": 89.86988243647222,
      "beta": 90.27374087307797,
      "gamma": 119.72237263301541,
      "volume": 442.57135206982673
    },
    "properties": {},
    "sites": [
      {
        "species": [{ "element": "Dy", "occu": 1 }],
        "abc": [0.61893695, 0.48504689, 0.74841988],
        "properties": { "magmom": -0.306 },
        "label": "Dy",
        "xyz": [6.240477468609746, -1.2969487845166676, 2.9949558855582916]
      },
      {
        "species": [{ "element": "Dy", "occu": 1 }],
        "abc": [0.51544768, 0.13436958000000002, 0.74808736],
        "properties": { "magmom": -0.302 },
        "label": "Dy",
        "xyz": [3.671036449472895, -3.7057302221827184, 2.9919118219455316]
      },
      {
        "species": [{ "element": "Dy", "occu": 1 }],
        "abc": [0.86631614, 0.38128393, 0.74842569],
        "properties": { "magmom": -0.291 },
        "label": "Dy",
        "xyz": [7.052095735360309, -4.717780547841119, 2.987027137475652]
      },
      {
        "species": [{ "element": "Dy", "occu": 1 }],
        "abc": [0.38106305, 0.51495311, 0.25158012],
        "properties": { "magmom": -0.306 },
        "label": "Dy",
        "xyz": [5.067199481390255, 1.307570674516667, 1.0066119044417086]
      },
      {
        "species": [{ "element": "Dy", "occu": 1 }],
        "abc": [0.48455232000000004, 0.86563042, 0.25191264],
        "properties": { "magmom": -0.302 },
        "label": "Dy",
        "xyz": [7.636640500527105, 3.716352112182719, 1.0096559680544688]
      },
      {
        "species": [{ "element": "Dy", "occu": 1 }],
        "abc": [0.13368386000000002, 0.6187160700000001, 0.25157431],
        "properties": { "magmom": -0.291 },
        "label": "Dy",
        "xyz": [4.255581214639691, 4.728402437841119, 1.0145406525243483]
      },
      {
        "species": [{ "element": "Dy", "occu": 1 }],
        "abc": [0.78218811, 0.035259240000000004, 0.75510933],
        "properties": { "magmom": -0.374 },
        "label": "Dy",
        "xyz": [4.618419936159131, -7.26977426523099, 3.0116978413379694]
      },
      {
        "species": [{ "element": "Dy", "occu": 1 }],
        "abc": [0.96409492, 0.74601308, 0.75055147],
        "properties": { "magmom": -0.376 },
        "label": "Dy",
        "xyz": [9.668750326068887, -2.1164396886262957, 2.9976046819798663]
      },
      {
        "species": [{ "element": "Dy", "occu": 1 }],
        "abc": [0.2533974, 0.21844858, 0.75135235],
        "properties": { "magmom": -0.398 },
        "label": "Dy",
        "xyz": [2.6650666743824734, -0.3337509352610633, 3.0131161760493046]
      },
      {
        "species": [{ "element": "Dy", "occu": 1 }],
        "abc": [0.21781189, 0.96474076, 0.24489067],
        "properties": { "magmom": -0.374 },
        "label": "Dy",
        "xyz": [6.68925701384087, 7.280396155230991, 0.9898699486620313]
      },
      {
        "species": [{ "element": "Dy", "occu": 1 }],
        "abc": [0.03590508, 0.25398692, 0.24944853],
        "properties": { "magmom": -0.376 },
        "label": "Dy",
        "xyz": [1.6389266239311138, 2.127061578626296, 1.003963108020134]
      },
      {
        "species": [{ "element": "Dy", "occu": 1 }],
        "abc": [0.7466026, 0.78155142, 0.24864765],
        "properties": { "magmom": -0.398 },
        "label": "Dy",
        "xyz": [8.642610275617526, 0.3443728252610624, 0.9884516139506955]
      },
      {
        "species": [{ "element": "Co", "occu": 1 }],
        "abc": [0.33313376, 0.6669284600000001, 0.74987485],
        "properties": { "magmom": 0.962 },
        "label": "Co",
        "xyz": [5.653620272722168, 3.259360037950789, 3.010777894841205]
      },
      {
        "species": [{ "element": "Co", "occu": 1 }],
        "abc": [0.66686624, 0.33307154, 0.25012515],
        "properties": { "magmom": 0.962 },
        "label": "Co",
        "xyz": [5.6540566772778345, -3.2487381479507893, 0.9907898951587952]
      },
      {
        "species": [{ "element": "Co", "occu": 1 }],
        "abc": [0.28141299000000003, 0.83797126, 0.74900186],
        "properties": { "magmom": 0.6990000000000001 },
        "label": "Co",
        "xyz": [6.329014643754988, 5.429772383938315, 3.010843243806324]
      },
      {
        "species": [{ "element": "Co", "occu": 1 }],
        "abc": [0.16231146, 0.44462606, 0.74882573],
        "properties": { "magmom": 0.647 },
        "label": "Co",
        "xyz": [3.4298631524760803, 2.757332310022213, 3.008300165506092]
      },
      {
        "species": [{ "element": "Co", "occu": 1 }],
        "abc": [0.55542256, 0.71765053, 0.74898935],
        "properties": { "magmom": 0.727 },
        "label": "Co",
        "xyz": [7.1975179004519205, 1.5881917492800175, 3.001916046751126]
      },
      {
        "species": [{ "element": "Co", "occu": 1 }],
        "abc": [0.71858701, 0.16202874, 0.25099814],
        "properties": { "magmom": 0.6990000000000001 },
        "label": "Co",
        "xyz": [4.978662306245013, -5.419150493938316, 0.9907245461936762]
      },
      {
        "species": [{ "element": "Co", "occu": 1 }],
        "abc": [0.83768854, 0.5553739400000001, 0.25117427000000003],
        "properties": { "magmom": 0.647 },
        "label": "Co",
        "xyz": [7.87781379752392, -2.746710420022214, 0.993267624493908]
      },
      {
        "species": [{ "element": "Co", "occu": 1 }],
        "abc": [0.44457744, 0.28234947, 0.25101065],
        "properties": { "magmom": 0.727 },
        "label": "Co",
        "xyz": [4.11015904954808, -1.5775698592800171, 0.9996517432488742]
      },
      {
        "species": [{ "element": "Co", "occu": 1 }],
        "abc": [-0.0, 0.0, 0.5],
        "properties": { "magmom": 1.425 },
        "label": "Co",
        "xyz": [-0.00252402, 0.004105555, 2.00778792]
      }
    ]
  },
  "task_ids": null,
  "uncorrected_energy_per_atom": null,
  "energy_per_atom": -5.8452150233333295,
  "formation_energy_per_atom": -0.148964698571421,
  "energy_above_hull": 0.015904088095241003,
  "is_stable": false,
  "equilibrium_reaction_energy_per_atom": null,
  "decomposes_to": null,
  "xas": null,
  "grain_boundaries": null,
  "band_gap": 0.0,
  "cbm": null,
  "vbm": null,
  "efermi": 3.83617259,
  "is_gap_direct": null,
  "is_metal": null,
  "es_source_calc_id": null,
  "bandstructure": null,
  "dos": null,
  "dos_energy_up": null,
  "dos_energy_down": null,
  "is_magnetic": null,
  "ordering": null,
  "total_magnetization": 2.0189865,
  "total_magnetization_normalized_vol": null,
  "total_magnetization_normalized_formula_units": null,
  "num_magnetic_sites": null,
  "num_unique_magnetic_sites": null,
  "types_of_magnetic_species": null,
  "bulk_modulus": null,
  "shear_modulus": null,
  "universal_anisotropy": null,
  "homogeneous_poisson": null,
  "e_total": null,
  "e_ionic": null,
  "e_electronic": null,
  "n": null,
  "e_ij_max": null,
  "weighted_surface_energy_EV_PER_ANG2": null,
  "weighted_surface_energy": null,
  "weighted_work_function": null,
  "surface_anisotropy": null,
  "shape_factor": null,
  "has_reconstructed": null,
  "possible_species": null,
  "has_props": null,
  "theoretical": null,
  "database_IDs": null,
  "fields_not_requested": [
    "builder_meta",
    "nsites",
    "elements",
    "nelements",
    "composition",
    "composition_reduced",
    "chemsys",
    "symmetry",
    "property_name",
    "deprecated",
    "deprecation_reasons",
    "last_updated",
    "origins",
    "warnings",
    "task_ids",
    "uncorrected_energy_per_atom",
    "equilibrium_reaction_energy_per_atom",
    "decomposes_to",
    "xas",
    "grain_boundaries",
    "cbm",
    "vbm",
    "is_gap_direct",
    "is_metal",
    "es_source_calc_id",
    "bandstructure",
    "dos",
    "dos_energy_up",
    "dos_energy_down",
    "is_magnetic",
    "ordering",
    "total_magnetization_normalized_vol",
    "total_magnetization_normalized_formula_units",
    "num_magnetic_sites",
    "num_unique_magnetic_sites",
    "types_of_magnetic_species",
    "bulk_modulus",
    "shear_modulus",
    "universal_anisotropy",
    "homogeneous_poisson",
    "e_total",
    "e_ionic",
    "e_electronic",
    "n",
    "e_ij_max",
    "weighted_surface_energy_EV_PER_ANG2",
    "weighted_surface_energy",
    "weighted_work_function",
    "surface_anisotropy",
    "shape_factor",
    "has_reconstructed",
    "possible_species",
    "has_props",
    "theoretical",
    "database_IDs"
  ]
}
