{
  "builder_meta": null,
  "nsites": null,
  "elements": null,
  "nelements": null,
  "composition": null,
  "composition_reduced": null,
  "formula_pretty": "Dy4C5",
  "formula_anonymous": "A4B5",
  "chemsys": null,
  "volume": 286.2376712902692,
  "density": 8.238409506415978,
  "density_atomic": 15.9020928494594,
  "symmetry": null,
  "property_name": null,
  "material_id": "mp-1212812",
  "deprecated": null,
  "deprecation_reasons": null,
  "last_updated": null,
  "origins": null,
  "warnings": null,
  "structure": {
    "@module": "pymatgen.core.structure",
    "@class": "Structure",
    "charge": 0,
    "lattice": {
      "matrix": [
        [0.0, 0.0, 3.6518359],
        [6.56592551, -0.0, 0.0],
        [-0.0, 11.93767043, 0.0]
      ],
      "pbc": [true, true, true],
      "a": 3.6518359,
      "b": 6.56592551,
      "c": 11.93767043,
      "alpha": 90.0,
      "beta": 90.0,
      "gamma": 90.0,
      "volume": 286.2376712902692
    },
    "properties": {},
    "sites": [
      {
        "species": [{ "element": "Dy", "occu": 1 }],
        "abc": [0.5, 0.39231662, 0.30426387],
        "properties": { "magmom": -0.0 },
        "label": "Dy",
        "xyz": [2.575921703254976, 3.6322018038163644, 1.82591795]
      },
      {
        "species": [{ "element": "Dy", "occu": 1 }],
        "abc": [0.5, 0.60768238, 0.69573613],
        "properties": { "magmom": -0.0 },
        "label": "Dy",
        "xyz": [3.9899972408195135, 8.305468626183636, 1.82591795]
      },
      {
        "species": [{ "element": "Dy", "occu": 1 }],
        "abc": [0.5, 0.10768338000000001, 0.80426387],
        "properties": { "magmom": -0.0 },
        "label": "Dy",
        "xyz": [0.7070410517450239, 9.601037018816365, 1.82591795]
      },
      {
        "species": [{ "element": "Dy", "occu": 1 }],
        "abc": [0.5, 0.89231762, 0.19573613],
        "properties": { "magmom": -0.0 },
        "label": "Dy",
        "xyz": [5.858891024180486, 2.336633411183636, 1.82591795]
      },
      {
        "species": [{ "element": "Dy", "occu": 1 }],
        "abc": [0.0, 0.24364628, 0.04239053],
        "properties": { "magmom": -0.0 },
        "label": "Dy",
        "xyz": [1.5997633252686025, 0.5060441764930279, 0.0]
      },
      {
        "species": [{ "element": "Dy", "occu": 1 }],
        "abc": [-0.0, 0.75635372, 0.9576094700000001],
        "properties": { "magmom": -0.0 },
        "label": "Dy",
        "xyz": [4.966162184731397, 11.431626253506973, 0.0]
      },
      {
        "species": [{ "element": "Dy", "occu": 1 }],
        "abc": [0.0, 0.25635372, 0.54239053],
        "properties": { "magmom": -0.0 },
        "label": "Dy",
        "xyz": [1.6831994297313972, 6.474879391493029, 0.0]
      },
      {
        "species": [{ "element": "Dy", "occu": 1 }],
        "abc": [-0.0, 0.74364628, 0.45760947],
        "properties": { "magmom": -0.0 },
        "label": "Dy",
        "xyz": [4.882726080268602, 5.462791038506973, 0.0]
      },
      {
        "species": [{ "element": "C", "occu": 1 }],
        "abc": [0.5, -0.0, -0.0],
        "properties": { "magmom": 0.0 },
        "label": "C",
        "xyz": [0.0, 0.0, 1.82591795]
      },
      {
        "species": [{ "element": "C", "occu": 1 }],
        "abc": [0.5, 0.5, 0.5],
        "properties": { "magmom": 0.0 },
        "label": "C",
        "xyz": [3.282962755, 5.968835215, 1.82591795]
      },
      {
        "species": [{ "element": "C", "occu": 1 }],
        "abc": [0.0, 0.13783162000000002, 0.234814299999999],
        "properties": { "magmom": -0.0 },
        "label": "C",
        "xyz": [0.9049921498426262, 2.803135725651137, 0.0]
      },
      {
        "species": [{ "element": "C", "occu": 1 }],
        "abc": [-0.0, 0.8621683800000001, 0.7651857],
        "properties": { "magmom": -0.0 },
        "label": "C",
        "xyz": [5.660933360157374, 9.134534704348852, 0.0]
      },
      {
        "species": [{ "element": "C", "occu": 1 }],
        "abc": [-0.0, 0.36216938, 0.734814299999999],
        "properties": { "magmom": -0.0 },
        "label": "C",
        "xyz": [2.3779771710828834, 8.771970940651139, 0.0]
      },
      {
        "species": [{ "element": "C", "occu": 1 }],
        "abc": [0.0, 0.63783162, 0.265185699999999],
        "properties": { "magmom": -0.0 },
        "label": "C",
        "xyz": [4.187954904842626, 3.1656994893488397, 0.0]
      },
      {
        "species": [{ "element": "C", "occu": 1 }],
        "abc": [-0.0, 0.09767764, 0.34380283],
        "properties": { "magmom": 0.0 },
        "label": "C",
        "xyz": [0.6413441082325964, 4.104204877441317, 0.0]
      },
      {
        "species": [{ "element": "C", "occu": 1 }],
        "abc": [0.0, 0.90232236, 0.65619717],
        "properties": { "magmom": 0.0 },
        "label": "C",
        "xyz": [5.924581401767403, 7.833465552558684, 0.0]
      },
      {
        "species": [{ "element": "C", "occu": 1 }],
        "abc": [0.0, 0.40232236, 0.84380283],
        "properties": { "magmom": 0.0 },
        "label": "C",
        "xyz": [2.6416186467674034, 10.073040092441317, 0.0]
      },
      {
        "species": [{ "element": "C", "occu": 1 }],
        "abc": [0.0, 0.59767764, 0.15619717],
        "properties": { "magmom": 0.0 },
        "label": "C",
        "xyz": [3.924306863232596, 1.8646303375586832, 0.0]
      }
    ]
  },
  "task_ids": null,
  "uncorrected_energy_per_atom": null,
  "energy_per_atom": -7.497547638888891,
  "formation_energy_per_atom": -0.31789990824074005,
  "energy_above_hull": 0.0,
  "is_stable": true,
  "equilibrium_reaction_energy_per_atom": null,
  "decomposes_to": null,
  "xas": null,
  "grain_boundaries": null,
  "band_gap": 0.0,
  "cbm": null,
  "vbm": null,
  "efermi": 4.21855848,
  "is_gap_direct": null,
  "is_metal": null,
  "es_source_calc_id": null,
  "bandstructure": null,
  "dos": null,
  "dos_energy_up": null,
  "dos_energy_down": null,
  "is_magnetic": null,
  "ordering": null,
  "total_magnetization": 0.0,
  "total_magnetization_normalized_vol": null,
  "total_magnetization_normalized_formula_units": null,
  "num_magnetic_sites": null,
  "num_unique_magnetic_sites": null,
  "types_of_magnetic_species": null,
  "bulk_modulus": null,
  "shear_modulus": null,
  "universal_anisotropy": null,
  "homogeneous_poisson": null,
  "e_total": null,
  "e_ionic": null,
  "e_electronic": null,
  "n": null,
  "e_ij_max": null,
  "weighted_surface_energy_EV_PER_ANG2": null,
  "weighted_surface_energy": null,
  "weighted_work_function": null,
  "surface_anisotropy": null,
  "shape_factor": null,
  "has_reconstructed": null,
  "possible_species": null,
  "has_props": null,
  "theoretical": null,
  "database_IDs": null,
  "fields_not_requested": [
    "builder_meta",
    "nsites",
    "elements",
    "nelements",
    "composition",
    "composition_reduced",
    "chemsys",
    "symmetry",
    "property_name",
    "deprecated",
    "deprecation_reasons",
    "last_updated",
    "origins",
    "warnings",
    "task_ids",
    "uncorrected_energy_per_atom",
    "equilibrium_reaction_energy_per_atom",
    "decomposes_to",
    "xas",
    "grain_boundaries",
    "cbm",
    "vbm",
    "is_gap_direct",
    "is_metal",
    "es_source_calc_id",
    "bandstructure",
    "dos",
    "dos_energy_up",
    "dos_energy_down",
    "is_magnetic",
    "ordering",
    "total_magnetization_normalized_vol",
    "total_magnetization_normalized_formula_units",
    "num_magnetic_sites",
    "num_unique_magnetic_sites",
    "types_of_magnetic_species",
    "bulk_modulus",
    "shear_modulus",
    "universal_anisotropy",
    "homogeneous_poisson",
    "e_total",
    "e_ionic",
    "e_electronic",
    "n",
    "e_ij_max",
    "weighted_surface_energy_EV_PER_ANG2",
    "weighted_surface_energy",
    "weighted_work_function",
    "surface_anisotropy",
    "shape_factor",
    "has_reconstructed",
    "possible_species",
    "has_props",
    "theoretical",
    "database_IDs"
  ]
}
