{"builder_meta": null, "nsites": null, "elements": null, "nelements": null, "composition": null, "composition_reduced": null, "formula_pretty": "Dy4Fe", "formula_anonymous": "AB4", "chemsys": null, "volume": 294.5386087030943, "density": 7.958774590707594, "density_atomic": 29.453860870309434, "symmetry": null, "property_name": null, "material_id": "mp-1213260", "deprecated": null, "deprecation_reasons": null, "last_updated": null, "origins": null, "warnings": null, "structure": {"@module": "pymatgen.core.structure", "@class": "Structure", "charge": 0, "lattice": {"matrix": [[0.0, 5.280853, 5.280853], [5.280853, 0.0, 5.280853], [5.280853, 5.280853, 0.0]], "pbc": [true, true, true], "a": 7.468253933498645, "b": 7.468253933498645, "c": 7.468253933498645, "alpha": 59.99999999999999, "beta": 59.99999999999999, "gamma": 59.99999999999999, "volume": 294.5386087030943}, "properties": {}, "sites": [{"species": [{"element": "Dy", "occu": 1}], "abc": [0.384488999999999, 0.384488999999999, 0.384488999999999], "properties": {"magmom": -0.0}, "label": "Dy", "xyz": [4.060859778233989, 4.060859778233989, 4.060859778233989]}, {"species": [{"element": "Dy", "occu": 1}], "abc": [0.384488999999999, 0.384488999999999, 0.846533], "properties": {"magmom": -0.0}, "label": "Dy", "xyz": [6.500846221765993, 6.500846221765993, 4.060859778233989]}, {"species": [{"element": "Dy", "occu": 1}], "abc": [0.384488999999999, 0.846533, 0.384488999999999], "properties": {"magmom": -0.0}, "label": "Dy", "xyz": [6.500846221765993, 4.060859778233989, 6.500846221765993]}, {"species": [{"element": "Dy", "occu": 1}], "abc": [0.865510999999999, 0.865510999999999, 0.403466999999999], "properties": {"magmom": -0.0}, "label": "Dy", "xyz": [6.701286278233988, 6.701286278233988, 9.141272721765988]}, {"species": [{"element": "Dy", "occu": 1}], "abc": [0.865510999999999, 0.865510999999999, 0.865510999999999], "properties": {"magmom": -0.0}, "label": "Dy", "xyz": [9.141272721765988, 9.141272721765988, 9.141272721765988]}, {"species": [{"element": "Dy", "occu": 1}], "abc": [0.846533, 0.384488999999999, 0.384488999999999], "properties": {"magmom": -0.0}, "label": "Dy", "xyz": [4.060859778233989, 6.500846221765993, 6.500846221765993]}, {"species": [{"element": "Dy", "occu": 1}], "abc": [0.865510999999999, 0.403466999999999, 0.865510999999999], "properties": {"magmom": -0.0}, "label": "Dy", "xyz": [6.701286278233988, 9.141272721765988, 6.701286278233988]}, {"species": [{"element": "Dy", "occu": 1}], "abc": [0.403466999999999, 0.865510999999999, 0.865510999999999], "properties": {"magmom": -0.0}, "label": "Dy", "xyz": [9.141272721765988, 6.701286278233988, 6.701286278233988]}, {"species": [{"element": "Fe", "occu": 1}], "abc": [0.0, 0.0, 0.0], "properties": {"magmom": 0.002}, "label": "Fe", "xyz": [0.0, 0.0, 0.0]}, {"species": [{"element": "Fe", "occu": 1}], "abc": [0.25, 0.25, 0.25], "properties": {"magmom": 0.002}, "label": "Fe", "xyz": [2.6404265, 2.6404265, 2.6404265]}]}, "task_ids": null, "uncorrected_energy_per_atom": null, "energy_per_atom": -4.958068423999999, "formation_energy_per_atom": 0.43063624066667006, "energy_above_hull": 0.45311837733333604, "is_stable": false, "equilibrium_reaction_energy_per_atom": null, "decomposes_to": null, "xas": null, "grain_boundaries": null, "band_gap": 0.0, "cbm": null, "vbm": null, "efermi": 2.9096262999999993, "is_gap_direct": null, "is_metal": null, "es_source_calc_id": null, "bandstructure": null, "dos": null, "dos_energy_up": null, "dos_energy_down": null, "is_magnetic": null, "ordering": null, "total_magnetization": 0.0021241, "total_magnetization_normalized_vol": null, "total_magnetization_normalized_formula_units": null, "num_magnetic_sites": null, "num_unique_magnetic_sites": null, "types_of_magnetic_species": null, "bulk_modulus": null, "shear_modulus": null, "universal_anisotropy": null, "homogeneous_poisson": null, "e_total": null, "e_ionic": null, "e_electronic": null, "n": null, "e_ij_max": null, "weighted_surface_energy_EV_PER_ANG2": null, "weighted_surface_energy": null, "weighted_work_function": null, "surface_anisotropy": null, "shape_factor": null, "has_reconstructed": null, "possible_species": null, "has_props": null, "theoretical": null, "database_IDs": null, "fields_not_requested": ["builder_meta", "nsites", "elements", "nelements", "composition", "composition_reduced", "chemsys", "symmetry", "property_name", "deprecated", "deprecation_reasons", "last_updated", "origins", "warnings", "task_ids", "uncorrected_energy_per_atom", "equilibrium_reaction_energy_per_atom", "decomposes_to", "xas", "grain_boundaries", "cbm", "vbm", "is_gap_direct", "is_metal", "es_source_calc_id", "bandstructure", "dos", "dos_energy_up", "dos_energy_down", "is_magnetic", "ordering", "total_magnetization_normalized_vol", "total_magnetization_normalized_formula_units", "num_magnetic_sites", "num_unique_magnetic_sites", "types_of_magnetic_species", "bulk_modulus", "shear_modulus", "universal_anisotropy", "homogeneous_poisson", "e_total", "e_ionic", "e_electronic", "n", "e_ij_max", "weighted_surface_energy_EV_PER_ANG2", "weighted_surface_energy", "weighted_work_function", "surface_anisotropy", "shape_factor", "has_reconstructed", "possible_species", "has_props", "theoretical", "database_IDs"]}