{
  "builder_meta": null,
  "nsites": null,
  "elements": null,
  "nelements": null,
  "composition": null,
  "composition_reduced": null,
  "formula_pretty": "Dy4Mn",
  "formula_anonymous": "AB4",
  "chemsys": null,
  "volume": 293.59590633469816,
  "density": 7.974070060232211,
  "density_atomic": 29.359590633469814,
  "symmetry": null,
  "property_name": null,
  "material_id": "mp-1213216",
  "deprecated": null,
  "deprecation_reasons": null,
  "last_updated": null,
  "origins": null,
  "warnings": null,
  "structure": {
    "@module": "pymatgen.core.structure",
    "@class": "Structure",
    "charge": 0,
    "lattice": {
      "matrix": [
        [0.0, 5.275213, 5.275213],
        [5.275213, 0.0, 5.275213],
        [5.275213, 5.275213, 0.0]
      ],
      "pbc": [true, true, true],
      "a": 7.460277769006862,
      "b": 7.460277769006862,
      "c": 7.460277769006862,
      "alpha": 60.00000000000001,
      "beta": 60.00000000000001,
      "gamma": 60.00000000000001,
      "volume": 293.59590633469816
    },
    "properties": {},
    "sites": [
      {
        "species": [{ "element": "Dy", "occu": 1 }],
        "abc": [0.385212, 0.385212, 0.385212],
        "properties": { "magmom": -0.089 },
        "label": "Dy",
        "xyz": [4.064150700312, 4.064150700312, 4.064150700312]
      },
      {
        "species": [{ "element": "Dy", "occu": 1 }],
        "abc": [0.385212, 0.385212, 0.844364999999999],
        "properties": { "magmom": -0.089 },
        "label": "Dy",
        "xyz": [6.486280574900995, 6.486280574900995, 4.064150700312]
      },
      {
        "species": [{ "element": "Dy", "occu": 1 }],
        "abc": [0.385212, 0.844364999999999, 0.385212],
        "properties": { "magmom": -0.089 },
        "label": "Dy",
        "xyz": [6.486280574900995, 4.064150700312, 6.486280574900995]
      },
      {
        "species": [{ "element": "Dy", "occu": 1 }],
        "abc": [0.864788, 0.864788, 0.405634999999999],
        "properties": { "magmom": -0.089 },
        "label": "Dy",
        "xyz": [6.7017519250989945, 6.7017519250989945, 9.123881799688]
      },
      {
        "species": [{ "element": "Dy", "occu": 1 }],
        "abc": [0.864788, 0.864788, 0.864788],
        "properties": { "magmom": -0.089 },
        "label": "Dy",
        "xyz": [9.123881799688, 9.123881799688, 9.123881799688]
      },
      {
        "species": [{ "element": "Dy", "occu": 1 }],
        "abc": [0.844364999999999, 0.385212, 0.385212],
        "properties": { "magmom": -0.089 },
        "label": "Dy",
        "xyz": [4.064150700312, 6.486280574900995, 6.486280574900995]
      },
      {
        "species": [{ "element": "Dy", "occu": 1 }],
        "abc": [0.864788, 0.405634999999999, 0.864788],
        "properties": { "magmom": -0.089 },
        "label": "Dy",
        "xyz": [6.7017519250989945, 9.123881799688, 6.7017519250989945]
      },
      {
        "species": [{ "element": "Dy", "occu": 1 }],
        "abc": [0.405634999999999, 0.864788, 0.864788],
        "properties": { "magmom": -0.089 },
        "label": "Dy",
        "xyz": [9.123881799688, 6.7017519250989945, 6.7017519250989945]
      },
      {
        "species": [{ "element": "Mn", "occu": 1 }],
        "abc": [0.0, 0.0, 0.0],
        "properties": { "magmom": 0.803 },
        "label": "Mn",
        "xyz": [0.0, 0.0, 0.0]
      },
      {
        "species": [{ "element": "Mn", "occu": 1 }],
        "abc": [0.25, 0.25, 0.25],
        "properties": { "magmom": 0.805 },
        "label": "Mn",
        "xyz": [2.6376065, 2.6376065, 2.6376065]
      }
    ]
  },
  "task_ids": null,
  "uncorrected_energy_per_atom": null,
  "energy_per_atom": -27.983417659416666,
  "formation_energy_per_atom": 0.538691855686784,
  "energy_above_hull": 0.5524282701666651,
  "is_stable": false,
  "equilibrium_reaction_energy_per_atom": null,
  "decomposes_to": null,
  "xas": null,
  "grain_boundaries": null,
  "band_gap": 0.0,
  "cbm": null,
  "vbm": null,
  "efermi": 2.92609185,
  "is_gap_direct": null,
  "is_metal": null,
  "es_source_calc_id": null,
  "bandstructure": null,
  "dos": null,
  "dos_energy_up": null,
  "dos_energy_down": null,
  "is_magnetic": null,
  "ordering": null,
  "total_magnetization": 0.4074152,
  "total_magnetization_normalized_vol": null,
  "total_magnetization_normalized_formula_units": null,
  "num_magnetic_sites": null,
  "num_unique_magnetic_sites": null,
  "types_of_magnetic_species": null,
  "bulk_modulus": null,
  "shear_modulus": null,
  "universal_anisotropy": null,
  "homogeneous_poisson": null,
  "e_total": null,
  "e_ionic": null,
  "e_electronic": null,
  "n": null,
  "e_ij_max": null,
  "weighted_surface_energy_EV_PER_ANG2": null,
  "weighted_surface_energy": null,
  "weighted_work_function": null,
  "surface_anisotropy": null,
  "shape_factor": null,
  "has_reconstructed": null,
  "possible_species": null,
  "has_props": null,
  "theoretical": null,
  "database_IDs": null,
  "fields_not_requested": [
    "builder_meta",
    "nsites",
    "elements",
    "nelements",
    "composition",
    "composition_reduced",
    "chemsys",
    "symmetry",
    "property_name",
    "deprecated",
    "deprecation_reasons",
    "last_updated",
    "origins",
    "warnings",
    "task_ids",
    "uncorrected_energy_per_atom",
    "equilibrium_reaction_energy_per_atom",
    "decomposes_to",
    "xas",
    "grain_boundaries",
    "cbm",
    "vbm",
    "is_gap_direct",
    "is_metal",
    "es_source_calc_id",
    "bandstructure",
    "dos",
    "dos_energy_up",
    "dos_energy_down",
    "is_magnetic",
    "ordering",
    "total_magnetization_normalized_vol",
    "total_magnetization_normalized_formula_units",
    "num_magnetic_sites",
    "num_unique_magnetic_sites",
    "types_of_magnetic_species",
    "bulk_modulus",
    "shear_modulus",
    "universal_anisotropy",
    "homogeneous_poisson",
    "e_total",
    "e_ionic",
    "e_electronic",
    "n",
    "e_ij_max",
    "weighted_surface_energy_EV_PER_ANG2",
    "weighted_surface_energy",
    "weighted_work_function",
    "surface_anisotropy",
    "shape_factor",
    "has_reconstructed",
    "possible_species",
    "has_props",
    "theoretical",
    "database_IDs"
  ]
}
