{
  "builder_meta": null,
  "nsites": null,
  "elements": null,
  "nelements": null,
  "composition": null,
  "composition_reduced": null,
  "formula_pretty": "Dy4Ni",
  "formula_anonymous": "AB4",
  "chemsys": null,
  "volume": 296.75113524721985,
  "density": 7.931313057732307,
  "density_atomic": 29.675113524721986,
  "symmetry": null,
  "property_name": null,
  "material_id": "mp-1213233",
  "deprecated": null,
  "deprecation_reasons": null,
  "last_updated": null,
  "origins": null,
  "warnings": null,
  "structure": {
    "@module": "pymatgen.core.structure",
    "@class": "Structure",
    "charge": 0,
    "lattice": {
      "matrix": [
        [0.0, 5.294043, 5.294043],
        [5.294043, 0.0, 5.294043],
        [5.294043, 5.294043, 0.0]
      ],
      "pbc": [true, true, true],
      "a": 7.4869074103863476,
      "b": 7.4869074103863476,
      "c": 7.4869074103863476,
      "alpha": 59.99999999999999,
      "beta": 59.99999999999999,
      "gamma": 59.99999999999999,
      "volume": 296.75113524721985
    },
    "properties": {},
    "sites": [
      {
        "species": [{ "element": "Dy", "occu": 1 }],
        "abc": [0.387264, 0.387264, 0.387264],
        "properties": { "magmom": 0.008 },
        "label": "Dy",
        "xyz": [4.100384536704, 4.100384536704, 4.100384536704]
      },
      {
        "species": [{ "element": "Dy", "occu": 1 }],
        "abc": [0.387264, 0.387264, 0.838206999999999],
        "properties": { "magmom": 0.008 },
        "label": "Dy",
        "xyz": [6.487696169252995, 6.487696169252995, 4.100384536704]
      },
      {
        "species": [{ "element": "Dy", "occu": 1 }],
        "abc": [0.387264, 0.838206999999999, 0.387264],
        "properties": { "magmom": 0.008 },
        "label": "Dy",
        "xyz": [6.487696169252995, 4.100384536704, 6.487696169252995]
      },
      {
        "species": [{ "element": "Dy", "occu": 1 }],
        "abc": [0.862736, 0.862736, 0.411792999999999],
        "properties": { "magmom": 0.008 },
        "label": "Dy",
        "xyz": [6.747411330746995, 6.747411330746995, 9.134722963296]
      },
      {
        "species": [{ "element": "Dy", "occu": 1 }],
        "abc": [0.862736, 0.862736, 0.862736],
        "properties": { "magmom": 0.008 },
        "label": "Dy",
        "xyz": [9.134722963296, 9.134722963296, 9.134722963296]
      },
      {
        "species": [{ "element": "Dy", "occu": 1 }],
        "abc": [0.838206999999999, 0.387264, 0.387264],
        "properties": { "magmom": 0.008 },
        "label": "Dy",
        "xyz": [4.100384536704, 6.487696169252995, 6.487696169252995]
      },
      {
        "species": [{ "element": "Dy", "occu": 1 }],
        "abc": [0.862736, 0.411792999999999, 0.862736],
        "properties": { "magmom": 0.008 },
        "label": "Dy",
        "xyz": [6.747411330746995, 9.134722963296, 6.747411330746995]
      },
      {
        "species": [{ "element": "Dy", "occu": 1 }],
        "abc": [0.411792999999999, 0.862736, 0.862736],
        "properties": { "magmom": 0.008 },
        "label": "Dy",
        "xyz": [9.134722963296, 6.747411330746995, 6.747411330746995]
      },
      {
        "species": [{ "element": "Ni", "occu": 1 }],
        "abc": [0.0, 0.0, 0.0],
        "properties": { "magmom": -0.001 },
        "label": "Ni",
        "xyz": [0.0, 0.0, 0.0]
      },
      {
        "species": [{ "element": "Ni", "occu": 1 }],
        "abc": [0.25, 0.25, 0.25],
        "properties": { "magmom": -0.001 },
        "label": "Ni",
        "xyz": [2.6470215, 2.6470215, 2.6470215]
      }
    ]
  },
  "task_ids": null,
  "uncorrected_energy_per_atom": null,
  "energy_per_atom": -4.601639726,
  "formation_energy_per_atom": 0.249088032666671,
  "energy_above_hull": 0.42850810716666904,
  "is_stable": false,
  "equilibrium_reaction_energy_per_atom": null,
  "decomposes_to": null,
  "xas": null,
  "grain_boundaries": null,
  "band_gap": 0.0,
  "cbm": null,
  "vbm": null,
  "efermi": 3.08798683,
  "is_gap_direct": null,
  "is_metal": null,
  "es_source_calc_id": null,
  "bandstructure": null,
  "dos": null,
  "dos_energy_up": null,
  "dos_energy_down": null,
  "is_magnetic": null,
  "ordering": null,
  "total_magnetization": 0.129785899999999,
  "total_magnetization_normalized_vol": null,
  "total_magnetization_normalized_formula_units": null,
  "num_magnetic_sites": null,
  "num_unique_magnetic_sites": null,
  "types_of_magnetic_species": null,
  "bulk_modulus": null,
  "shear_modulus": null,
  "universal_anisotropy": null,
  "homogeneous_poisson": null,
  "e_total": null,
  "e_ionic": null,
  "e_electronic": null,
  "n": null,
  "e_ij_max": null,
  "weighted_surface_energy_EV_PER_ANG2": null,
  "weighted_surface_energy": null,
  "weighted_work_function": null,
  "surface_anisotropy": null,
  "shape_factor": null,
  "has_reconstructed": null,
  "possible_species": null,
  "has_props": null,
  "theoretical": null,
  "database_IDs": null,
  "fields_not_requested": [
    "builder_meta",
    "nsites",
    "elements",
    "nelements",
    "composition",
    "composition_reduced",
    "chemsys",
    "symmetry",
    "property_name",
    "deprecated",
    "deprecation_reasons",
    "last_updated",
    "origins",
    "warnings",
    "task_ids",
    "uncorrected_energy_per_atom",
    "equilibrium_reaction_energy_per_atom",
    "decomposes_to",
    "xas",
    "grain_boundaries",
    "cbm",
    "vbm",
    "is_gap_direct",
    "is_metal",
    "es_source_calc_id",
    "bandstructure",
    "dos",
    "dos_energy_up",
    "dos_energy_down",
    "is_magnetic",
    "ordering",
    "total_magnetization_normalized_vol",
    "total_magnetization_normalized_formula_units",
    "num_magnetic_sites",
    "num_unique_magnetic_sites",
    "types_of_magnetic_species",
    "bulk_modulus",
    "shear_modulus",
    "universal_anisotropy",
    "homogeneous_poisson",
    "e_total",
    "e_ionic",
    "e_electronic",
    "n",
    "e_ij_max",
    "weighted_surface_energy_EV_PER_ANG2",
    "weighted_surface_energy",
    "weighted_work_function",
    "surface_anisotropy",
    "shape_factor",
    "has_reconstructed",
    "possible_species",
    "has_props",
    "theoretical",
    "database_IDs"
  ]
}
