{
  "builder_meta": null,
  "nsites": null,
  "elements": null,
  "nelements": null,
  "composition": null,
  "composition_reduced": null,
  "formula_pretty": "Dy4Rh",
  "formula_anonymous": "AB4",
  "chemsys": null,
  "volume": 309.0744424715555,
  "density": 8.090148031719355,
  "density_atomic": 30.907444247155553,
  "symmetry": null,
  "property_name": null,
  "material_id": "mp-1212808",
  "deprecated": null,
  "deprecation_reasons": null,
  "last_updated": null,
  "origins": null,
  "warnings": null,
  "structure": {
    "@module": "pymatgen.core.structure",
    "@class": "Structure",
    "charge": 0,
    "lattice": {
      "matrix": [
        [0.0, 5.366334, 5.366334],
        [5.366334, 0.0, 5.366334],
        [5.366334, 5.366334, 0.0]
      ],
      "pbc": [true, true, true],
      "a": 7.589142323023861,
      "b": 7.589142323023861,
      "c": 7.589142323023861,
      "alpha": 59.99999999999999,
      "beta": 59.99999999999999,
      "gamma": 59.99999999999999,
      "volume": 309.0744424715555
    },
    "properties": {},
    "sites": [
      {
        "species": [{ "element": "Dy", "occu": 1 }],
        "abc": [0.889299, 0.889299, 0.889299],
        "properties": { "magmom": 0.001 },
        "label": "Dy",
        "xyz": [9.544550919732, 9.544550919732, 9.544550919732]
      },
      {
        "species": [{ "element": "Dy", "occu": 1 }],
        "abc": [0.889299, 0.889299, 0.332104],
        "properties": { "magmom": 0.001 },
        "label": "Dy",
        "xyz": [6.554456446602, 6.554456446602, 9.544550919732]
      },
      {
        "species": [{ "element": "Dy", "occu": 1 }],
        "abc": [0.889299, 0.332104, 0.889299],
        "properties": { "magmom": 0.002 },
        "label": "Dy",
        "xyz": [6.554456446602, 9.544550919732, 6.554456446602]
      },
      {
        "species": [{ "element": "Dy", "occu": 1 }],
        "abc": [0.360701, 0.360701, 0.917895999999999],
        "properties": { "magmom": 0.001 },
        "label": "Dy",
        "xyz": [6.861378553397995, 6.861378553397995, 3.871284080268]
      },
      {
        "species": [{ "element": "Dy", "occu": 1 }],
        "abc": [0.360701, 0.360701, 0.360701],
        "properties": { "magmom": 0.001 },
        "label": "Dy",
        "xyz": [3.871284080268, 3.871284080268, 3.871284080268]
      },
      {
        "species": [{ "element": "Dy", "occu": 1 }],
        "abc": [0.332104, 0.889299, 0.889299],
        "properties": { "magmom": 0.002 },
        "label": "Dy",
        "xyz": [9.544550919732, 6.554456446602, 6.554456446602]
      },
      {
        "species": [{ "element": "Dy", "occu": 1 }],
        "abc": [0.360701, 0.917895999999999, 0.360701],
        "properties": { "magmom": 0.002 },
        "label": "Dy",
        "xyz": [6.861378553397995, 3.871284080268, 6.861378553397995]
      },
      {
        "species": [{ "element": "Dy", "occu": 1 }],
        "abc": [0.917895999999999, 0.360701, 0.360701],
        "properties": { "magmom": 0.001 },
        "label": "Dy",
        "xyz": [3.871284080268, 6.861378553397995, 6.861378553397995]
      },
      {
        "species": [{ "element": "Rh", "occu": 1 }],
        "abc": [0.5, 0.5, 0.5],
        "properties": { "magmom": 0.0 },
        "label": "Rh",
        "xyz": [5.366334, 5.366334, 5.366334]
      },
      {
        "species": [{ "element": "Rh", "occu": 1 }],
        "abc": [0.75, 0.75, 0.75],
        "properties": { "magmom": 0.0 },
        "label": "Rh",
        "xyz": [8.049501, 8.049501, 8.049501]
      }
    ]
  },
  "task_ids": null,
  "uncorrected_energy_per_atom": null,
  "energy_per_atom": -5.079015378999999,
  "formation_energy_per_atom": 0.088546617666671,
  "energy_above_hull": 0.49831220816666805,
  "is_stable": false,
  "equilibrium_reaction_energy_per_atom": null,
  "decomposes_to": null,
  "xas": null,
  "grain_boundaries": null,
  "band_gap": 0.0,
  "cbm": null,
  "vbm": null,
  "efermi": 3.02102134,
  "is_gap_direct": null,
  "is_metal": null,
  "es_source_calc_id": null,
  "bandstructure": null,
  "dos": null,
  "dos_energy_up": null,
  "dos_energy_down": null,
  "is_magnetic": null,
  "ordering": null,
  "total_magnetization": 0.015663899999999002,
  "total_magnetization_normalized_vol": null,
  "total_magnetization_normalized_formula_units": null,
  "num_magnetic_sites": null,
  "num_unique_magnetic_sites": null,
  "types_of_magnetic_species": null,
  "bulk_modulus": null,
  "shear_modulus": null,
  "universal_anisotropy": null,
  "homogeneous_poisson": null,
  "e_total": null,
  "e_ionic": null,
  "e_electronic": null,
  "n": null,
  "e_ij_max": null,
  "weighted_surface_energy_EV_PER_ANG2": null,
  "weighted_surface_energy": null,
  "weighted_work_function": null,
  "surface_anisotropy": null,
  "shape_factor": null,
  "has_reconstructed": null,
  "possible_species": null,
  "has_props": null,
  "theoretical": null,
  "database_IDs": null,
  "fields_not_requested": [
    "builder_meta",
    "nsites",
    "elements",
    "nelements",
    "composition",
    "composition_reduced",
    "chemsys",
    "symmetry",
    "property_name",
    "deprecated",
    "deprecation_reasons",
    "last_updated",
    "origins",
    "warnings",
    "task_ids",
    "uncorrected_energy_per_atom",
    "equilibrium_reaction_energy_per_atom",
    "decomposes_to",
    "xas",
    "grain_boundaries",
    "cbm",
    "vbm",
    "is_gap_direct",
    "is_metal",
    "es_source_calc_id",
    "bandstructure",
    "dos",
    "dos_energy_up",
    "dos_energy_down",
    "is_magnetic",
    "ordering",
    "total_magnetization_normalized_vol",
    "total_magnetization_normalized_formula_units",
    "num_magnetic_sites",
    "num_unique_magnetic_sites",
    "types_of_magnetic_species",
    "bulk_modulus",
    "shear_modulus",
    "universal_anisotropy",
    "homogeneous_poisson",
    "e_total",
    "e_ionic",
    "e_electronic",
    "n",
    "e_ij_max",
    "weighted_surface_energy_EV_PER_ANG2",
    "weighted_surface_energy",
    "weighted_work_function",
    "surface_anisotropy",
    "shape_factor",
    "has_reconstructed",
    "possible_species",
    "has_props",
    "theoretical",
    "database_IDs"
  ]
}
