{
  "builder_meta": null,
  "nsites": null,
  "elements": null,
  "nelements": null,
  "composition": null,
  "composition_reduced": null,
  "formula_pretty": "Dy4Sb3",
  "formula_anonymous": "A3B4",
  "chemsys": null,
  "volume": 385.0064139558632,
  "density": 8.757839051122506,
  "density_atomic": 27.500458139704513,
  "symmetry": null,
  "property_name": null,
  "material_id": "mp-1927",
  "deprecated": null,
  "deprecation_reasons": null,
  "last_updated": null,
  "origins": null,
  "warnings": null,
  "structure": {
    "@module": "pymatgen.core.structure",
    "@class": "Structure",
    "charge": 0,
    "lattice": {
      "matrix": [
        [7.48376424, -6.599999999999997e-7, -2.64591045],
        [-3.7418843600000002, 6.48113912, -2.64591666],
        [2.6e-6, -3.859999999999999e-6, 7.93773552]
      ],
      "pbc": [true, true, true],
      "a": 7.937730740540549,
      "b": 7.937741355579215,
      "c": 7.937735520001365,
      "alpha": 109.4712761568685,
      "beta": 109.471203422634,
      "gamma": 109.47119643602772,
      "volume": 385.0064139558632
    },
    "properties": {},
    "sites": [
      {
        "species": [{ "element": "Dy", "occu": 1 }],
        "abc": [0.14362512, 0.14362382, 0.14362457],
        "properties": { "magmom": -0.0 },
        "label": "Dy",
        "xyz": [0.5374331846641355, 0.930845309182419, 0.3800179868323813]
      },
      {
        "species": [{ "element": "Dy", "occu": 1 }],
        "abc": [0.8563748800000001, 0.5000007, 4.5e-7],
        "properties": { "magmom": -0.0 },
        "label": "Dy",
        "xyz": [4.53796290366041, 3.2405735315882263, -3.5888478542701745]
      },
      {
        "species": [{ "element": "Dy", "occu": 1 }],
        "abc": [0.99999938, 0.85637507, 0.49999915],
        "properties": { "magmom": -0.0 },
        "label": "Dy",
        "xyz": [4.279304419337056, 5.550283377573429, -0.9429448615323794]
      },
      {
        "species": [{ "element": "Dy", "occu": 1 }],
        "abc": [0.49999887, 4e-8, 0.8563749900000001],
        "properties": { "magmom": -0.0 },
        "label": "Dy",
        "xyz": [3.7418757402460088, -3.3763611507999988e-6, 5.474725835604788]
      },
      {
        "species": [{ "element": "Dy", "occu": 1 }],
        "abc": [6.2e-7, 0.35637569, 0.50000077],
        "properties": { "magmom": -0.0 },
        "label": "Dy",
        "xyz": [-1.3335106807593777, 2.309718495872612, 3.025931856201876]
      },
      {
        "species": [{ "element": "Dy", "occu": 1 }],
        "abc": [0.50000113, 1.169999999999999e-6, 0.35637712],
        "properties": { "magmom": -0.0 },
        "label": "Dy",
        "xyz": [3.741887125229402, 5.877316341399995e-6, 1.5058660133380017]
      },
      {
        "species": [{ "element": "Dy", "occu": 1 }],
        "abc": [0.35637656, 0.5000007200000001, 1.009999999999998e-6],
        "properties": { "magmom": -0.0 },
        "label": "Dy",
        "xyz": [0.7960932815481009, 3.2405739912077385, -2.265892682186172]
      },
      {
        "species": [{ "element": "Dy", "occu": 1 }],
        "abc": [0.64362344, 0.64362416, 0.64362346],
        "properties": { "magmom": -0.0 },
        "label": "Dy",
        "xyz": [2.408360579696644, 4.1714148127751125, 1.702966926463846]
      },
      {
        "species": [{ "element": "Sb", "occu": 1 }],
        "abc": [0.24999233, 0.62499465, 0.37499394],
        "properties": { "magmom": 0.0 },
        "label": "Sb",
        "xyz": [-0.46777307140615076, 4.050675663434161, 0.6614616421100314]
      },
      {
        "species": [{ "element": "Sb", "occu": 1 }],
        "abc": [0.37499954, 0.24999686000000002, 0.62499757],
        "properties": { "magmom": 0.0 },
        "label": "Sb",
        "xyz": [1.870950431979022, 1.620261769232847, 3.307379352849806]
      },
      {
        "species": [{ "element": "Sb", "occu": 1 }],
        "abc": [0.12500012, 0.75000431, 0.87500423],
        "properties": { "magmom": 0.0 },
        "label": "Sb",
        "xyz": [-1.8709556944588848, 4.8608788136932, 4.630364133961192]
      },
      {
        "species": [{ "element": "Sb", "occu": 1 }],
        "abc": [0.8749998800000001, 0.12500419000000002, 0.75000412],
        "properties": { "magmom": 0.0 },
        "label": "Sb",
        "xyz": [6.080543538463536, 0.8101660734570889, 3.307412348338791]
      },
      {
        "species": [{ "element": "Sb", "occu": 1 }],
        "abc": [0.62500046, 0.37499632, 0.24999902000000002],
        "properties": { "magmom": 0.0 },
        "label": "Sb",
        "xyz": [3.274163877663447, 2.4304019419115175, -0.6614781578763076]
      },
      {
        "species": [{ "element": "Sb", "occu": 1 }],
        "abc": [0.75000767, 0.87500232, 0.12500161],
        "properties": { "magmom": 0.0 },
        "label": "Sb",
        "xyz": [2.3387234093041913, 5.671010788731482, -3.3074066279056153]
      }
    ]
  },
  "task_ids": null,
  "uncorrected_energy_per_atom": null,
  "energy_per_atom": -5.47405836285714,
  "formation_energy_per_atom": -1.0654146723809461,
  "energy_above_hull": 0.016935901785717,
  "is_stable": false,
  "equilibrium_reaction_energy_per_atom": null,
  "decomposes_to": null,
  "xas": null,
  "grain_boundaries": null,
  "band_gap": 0.0,
  "cbm": null,
  "vbm": null,
  "efermi": 5.80393834,
  "is_gap_direct": null,
  "is_metal": null,
  "es_source_calc_id": null,
  "bandstructure": null,
  "dos": null,
  "dos_energy_up": null,
  "dos_energy_down": null,
  "is_magnetic": null,
  "ordering": null,
  "total_magnetization": 1.6000000000000003e-5,
  "total_magnetization_normalized_vol": null,
  "total_magnetization_normalized_formula_units": null,
  "num_magnetic_sites": null,
  "num_unique_magnetic_sites": null,
  "types_of_magnetic_species": null,
  "bulk_modulus": null,
  "shear_modulus": null,
  "universal_anisotropy": null,
  "homogeneous_poisson": null,
  "e_total": null,
  "e_ionic": null,
  "e_electronic": null,
  "n": null,
  "e_ij_max": null,
  "weighted_surface_energy_EV_PER_ANG2": null,
  "weighted_surface_energy": null,
  "weighted_work_function": null,
  "surface_anisotropy": null,
  "shape_factor": null,
  "has_reconstructed": null,
  "possible_species": null,
  "has_props": null,
  "theoretical": null,
  "database_IDs": null,
  "fields_not_requested": [
    "builder_meta",
    "nsites",
    "elements",
    "nelements",
    "composition",
    "composition_reduced",
    "chemsys",
    "symmetry",
    "property_name",
    "deprecated",
    "deprecation_reasons",
    "last_updated",
    "origins",
    "warnings",
    "task_ids",
    "uncorrected_energy_per_atom",
    "equilibrium_reaction_energy_per_atom",
    "decomposes_to",
    "xas",
    "grain_boundaries",
    "cbm",
    "vbm",
    "is_gap_direct",
    "is_metal",
    "es_source_calc_id",
    "bandstructure",
    "dos",
    "dos_energy_up",
    "dos_energy_down",
    "is_magnetic",
    "ordering",
    "total_magnetization_normalized_vol",
    "total_magnetization_normalized_formula_units",
    "num_magnetic_sites",
    "num_unique_magnetic_sites",
    "types_of_magnetic_species",
    "bulk_modulus",
    "shear_modulus",
    "universal_anisotropy",
    "homogeneous_poisson",
    "e_total",
    "e_ionic",
    "e_electronic",
    "n",
    "e_ij_max",
    "weighted_surface_energy_EV_PER_ANG2",
    "weighted_surface_energy",
    "weighted_work_function",
    "surface_anisotropy",
    "shape_factor",
    "has_reconstructed",
    "possible_species",
    "has_props",
    "theoretical",
    "database_IDs"
  ]
}
