{
  "builder_meta": null,
  "nsites": null,
  "elements": null,
  "nelements": null,
  "composition": null,
  "composition_reduced": null,
  "formula_pretty": "Dy4Te7",
  "formula_anonymous": "A4B7",
  "chemsys": null,
  "volume": 334.0935246777473,
  "density": 7.67013934211638,
  "density_atomic": 30.37213860706794,
  "symmetry": null,
  "property_name": null,
  "material_id": "mp-1225322",
  "deprecated": null,
  "deprecation_reasons": null,
  "last_updated": null,
  "origins": null,
  "warnings": null,
  "structure": {
    "@module": "pymatgen.core.structure",
    "@class": "Structure",
    "charge": 0,
    "lattice": {
      "matrix": [
        [4.35946465, 0.0, 0.0],
        [0.0, 4.35946465, 0.0],
        [0.0, 0.0, 17.57930647]
      ],
      "pbc": [true, true, true],
      "a": 4.35946465,
      "b": 4.35946465,
      "c": 17.57930647,
      "alpha": 90.0,
      "beta": 90.0,
      "gamma": 90.0,
      "volume": 334.0935246777473
    },
    "properties": {},
    "sites": [
      {
        "species": [{ "element": "Dy", "occu": 1 }],
        "abc": [0.5, 0.0, 0.36149939000000003],
        "properties": { "magmom": 0.0 },
        "label": "Dy",
        "xyz": [2.179732325, 0.0, 6.354908565528054]
      },
      {
        "species": [{ "element": "Dy", "occu": 1 }],
        "abc": [0.5, -0.0, 0.87122977],
        "properties": { "magmom": 0.0 },
        "label": "Dy",
        "xyz": [2.179732325, 0.0, 15.31561513261761]
      },
      {
        "species": [{ "element": "Dy", "occu": 1 }],
        "abc": [0.0, 0.5, 0.12877023],
        "properties": { "magmom": 0.0 },
        "label": "Dy",
        "xyz": [0.0, 2.179732325, 2.2636913373823884]
      },
      {
        "species": [{ "element": "Dy", "occu": 1 }],
        "abc": [0.0, 0.5, 0.63850061],
        "properties": { "magmom": 0.0 },
        "label": "Dy",
        "xyz": [0.0, 2.179732325, 11.224397904471946]
      },
      {
        "species": [{ "element": "Te", "occu": 1 }],
        "abc": [0.5, -0.0, 0.17942897],
        "properties": { "magmom": -0.0 },
        "label": "Te",
        "xyz": [2.179732325, 0.0, 3.1542368532264358]
      },
      {
        "species": [{ "element": "Te", "occu": 1 }],
        "abc": [0.5, 0.0, 0.68973245],
        "properties": { "magmom": 0.0 },
        "label": "Te",
        "xyz": [2.179732325, 0.0, 12.125018120853952]
      },
      {
        "species": [{ "element": "Te", "occu": 1 }],
        "abc": [0.0, 0.5, 0.31026755],
        "properties": { "magmom": 0.0 },
        "label": "Te",
        "xyz": [0.0, 2.179732325, 5.454288349146048]
      },
      {
        "species": [{ "element": "Te", "occu": 1 }],
        "abc": [-0.0, 0.5, 0.82057103],
        "properties": { "magmom": -0.0 },
        "label": "Te",
        "xyz": [0.0, 2.179732325, 14.425069616773563]
      },
      {
        "species": [{ "element": "Te", "occu": 1 }],
        "abc": [0.5, 0.5, 0.5],
        "properties": { "magmom": -0.0 },
        "label": "Te",
        "xyz": [2.179732325, 2.179732325, 8.789653235]
      },
      {
        "species": [{ "element": "Te", "occu": 1 }],
        "abc": [0.0, 0.0, -0.0],
        "properties": { "magmom": 0.0 },
        "label": "Te",
        "xyz": [0.0, 0.0, 0.0]
      },
      {
        "species": [{ "element": "Te", "occu": 1 }],
        "abc": [0.0, -0.0, 0.5],
        "properties": { "magmom": -0.0 },
        "label": "Te",
        "xyz": [0.0, 0.0, 8.789653235]
      }
    ]
  },
  "task_ids": null,
  "uncorrected_energy_per_atom": null,
  "energy_per_atom": -29.25713505909091,
  "formation_energy_per_atom": -1.452791143636364,
  "energy_above_hull": 0.07550766363636101,
  "is_stable": false,
  "equilibrium_reaction_energy_per_atom": null,
  "decomposes_to": null,
  "xas": null,
  "grain_boundaries": null,
  "band_gap": 0.0,
  "cbm": null,
  "vbm": null,
  "efermi": 6.0096193,
  "is_gap_direct": null,
  "is_metal": null,
  "es_source_calc_id": null,
  "bandstructure": null,
  "dos": null,
  "dos_energy_up": null,
  "dos_energy_down": null,
  "is_magnetic": null,
  "ordering": null,
  "total_magnetization": 1e-7,
  "total_magnetization_normalized_vol": null,
  "total_magnetization_normalized_formula_units": null,
  "num_magnetic_sites": null,
  "num_unique_magnetic_sites": null,
  "types_of_magnetic_species": null,
  "bulk_modulus": null,
  "shear_modulus": null,
  "universal_anisotropy": null,
  "homogeneous_poisson": null,
  "e_total": null,
  "e_ionic": null,
  "e_electronic": null,
  "n": null,
  "e_ij_max": null,
  "weighted_surface_energy_EV_PER_ANG2": null,
  "weighted_surface_energy": null,
  "weighted_work_function": null,
  "surface_anisotropy": null,
  "shape_factor": null,
  "has_reconstructed": null,
  "possible_species": null,
  "has_props": null,
  "theoretical": null,
  "database_IDs": null,
  "fields_not_requested": [
    "builder_meta",
    "nsites",
    "elements",
    "nelements",
    "composition",
    "composition_reduced",
    "chemsys",
    "symmetry",
    "property_name",
    "deprecated",
    "deprecation_reasons",
    "last_updated",
    "origins",
    "warnings",
    "task_ids",
    "uncorrected_energy_per_atom",
    "equilibrium_reaction_energy_per_atom",
    "decomposes_to",
    "xas",
    "grain_boundaries",
    "cbm",
    "vbm",
    "is_gap_direct",
    "is_metal",
    "es_source_calc_id",
    "bandstructure",
    "dos",
    "dos_energy_up",
    "dos_energy_down",
    "is_magnetic",
    "ordering",
    "total_magnetization_normalized_vol",
    "total_magnetization_normalized_formula_units",
    "num_magnetic_sites",
    "num_unique_magnetic_sites",
    "types_of_magnetic_species",
    "bulk_modulus",
    "shear_modulus",
    "universal_anisotropy",
    "homogeneous_poisson",
    "e_total",
    "e_ionic",
    "e_electronic",
    "n",
    "e_ij_max",
    "weighted_surface_energy_EV_PER_ANG2",
    "weighted_surface_energy",
    "weighted_work_function",
    "surface_anisotropy",
    "shape_factor",
    "has_reconstructed",
    "possible_species",
    "has_props",
    "theoretical",
    "database_IDs"
  ]
}
