{"builder_meta": null, "nsites": null, "elements": null, "nelements": null, "composition": null, "composition_reduced": null, "formula_pretty": "Dy5Bi3", "formula_anonymous": "A3B5", "chemsys": null, "volume": 937.6565859321533, "density": 10.196689843744291, "density_atomic": 29.301768310379792, "symmetry": null, "property_name": null, "material_id": "mp-31464", "deprecated": null, "deprecation_reasons": null, "last_updated": null, "origins": null, "warnings": null, "structure": {"@module": "pymatgen.core.structure", "@class": "Structure", "charge": 0, "lattice": {"matrix": [[8.23636724, 0.0, 0.0], [-0.0, 9.46108646, 0.0], [0.0, 0.0, 12.03281098]], "pbc": [true, true, true], "a": 8.23636724, "b": 9.46108646, "c": 12.03281098, "alpha": 90.0, "beta": 90.0, "gamma": 90.0, "volume": 937.6565859321533}, "properties": {}, "sites": [{"species": [{"element": "Dy", "occu": 1}], "abc": [0.35497946, 0.75, 0.21469397], "properties": {"magmom": -0.0}, "label": "Dy", "xyz": [2.9237411952168904, 7.0958148450000005, 2.583371959555791]}, {"species": [{"element": "Dy", "occu": 1}], "abc": [0.85497946, 0.75, 0.28530603], "properties": {"magmom": -0.0}, "label": "Dy", "xyz": [7.04192481521689, 7.0958148450000005, 3.4330335304442094]}, {"species": [{"element": "Dy", "occu": 1}], "abc": [0.64502054, 0.25, 0.78530603], "properties": {"magmom": -0.0}, "label": "Dy", "xyz": [5.3126260447831095, 2.365271615, 9.44943902044421]}, {"species": [{"element": "Dy", "occu": 1}], "abc": [0.14502054, 0.25, 0.71469397], "properties": {"magmom": -0.0}, "label": "Dy", "xyz": [1.1944424247831096, 2.365271615, 8.599777449555791]}, {"species": [{"element": "Dy", "occu": 1}], "abc": [0.69397541, 0.56363902, 0.059004970000000004], "properties": {"magmom": -0.0}, "label": "Dy", "xyz": [5.715836332289568, 5.332637500449669, 0.7099956508905707]}, {"species": [{"element": "Dy", "occu": 1}], "abc": [0.19397541000000001, 0.93636098, 0.44099503], "properties": {"magmom": -0.0}, "label": "Dy", "xyz": [1.5976527122895685, 8.858992189550332, 5.306409839109429]}, {"species": [{"element": "Dy", "occu": 1}], "abc": [0.30602459, 0.06363902, 0.9409950300000001], "properties": {"magmom": -0.0}, "label": "Dy", "xyz": [2.5205309077104316, 0.6020942704496692, 11.322815329109432]}, {"species": [{"element": "Dy", "occu": 1}], "abc": [0.80602459, 0.43636098, 0.55900497], "properties": {"magmom": -0.0}, "label": "Dy", "xyz": [6.638714527710432, 4.128448959550331, 6.726401140890571]}, {"species": [{"element": "Dy", "occu": 1}], "abc": [0.30602459, 0.43636098, 0.9409950300000001], "properties": {"magmom": -0.0}, "label": "Dy", "xyz": [2.5205309077104316, 4.128448959550331, 11.322815329109432]}, {"species": [{"element": "Dy", "occu": 1}], "abc": [0.80602459, 0.06363902, 0.55900497], "properties": {"magmom": -0.0}, "label": "Dy", "xyz": [6.638714527710432, 0.6020942704496692, 6.726401140890571]}, {"species": [{"element": "Dy", "occu": 1}], "abc": [0.69397541, 0.93636098, 0.059004970000000004], "properties": {"magmom": -0.0}, "label": "Dy", "xyz": [5.715836332289568, 8.858992189550332, 0.7099956508905707]}, {"species": [{"element": "Dy", "occu": 1}], "abc": [0.19397541000000001, 0.56363902, 0.44099503], "properties": {"magmom": -0.0}, "label": "Dy", "xyz": [1.5976527122895685, 5.332637500449669, 5.306409839109429]}, {"species": [{"element": "Dy", "occu": 1}], "abc": [0.47528908000000003, 0.25, 0.48821865000000003], "properties": {"magmom": -0.0}, "label": "Dy", "xyz": [3.9146554080417393, 2.365271615, 5.874642732360778]}, {"species": [{"element": "Dy", "occu": 1}], "abc": [0.97528908, 0.25, 0.01178135], "properties": {"magmom": -0.0}, "label": "Dy", "xyz": [8.032839028041739, 2.365271615, 0.141762757639223]}, {"species": [{"element": "Dy", "occu": 1}], "abc": [0.52471092, 0.75, 0.51178135], "properties": {"magmom": -0.0}, "label": "Dy", "xyz": [4.32171183195826, 7.0958148450000005, 6.158168247639224]}, {"species": [{"element": "Dy", "occu": 1}], "abc": [0.02471092, 0.75, 0.98821865], "properties": {"magmom": -0.0}, "label": "Dy", "xyz": [0.2035282119582608, 7.0958148450000005, 11.891048222360778]}, {"species": [{"element": "Dy", "occu": 1}], "abc": [0.31481481, 0.25, 0.2184911], "properties": {"magmom": -0.0}, "label": "Dy", "xyz": [2.5929303877508243, 2.365271615, 2.629062107112278]}, {"species": [{"element": "Dy", "occu": 1}], "abc": [0.81481481, 0.25, 0.2815089], "properties": {"magmom": -0.0}, "label": "Dy", "xyz": [6.711114007750824, 2.365271615, 3.3873433828877224]}, {"species": [{"element": "Dy", "occu": 1}], "abc": [0.68518519, 0.75, 0.7815089], "properties": {"magmom": -0.0}, "label": "Dy", "xyz": [5.643436852249176, 7.0958148450000005, 9.403748872887721]}, {"species": [{"element": "Dy", "occu": 1}], "abc": [0.18518519, 0.75, 0.718491099999999], "properties": {"magmom": -0.0}, "label": "Dy", "xyz": [1.5252532322491756, 7.0958148450000005, 8.645467597112267]}, {"species": [{"element": "Bi", "occu": 1}], "abc": [0.40875175, 0.75, 0.9582109600000001], "properties": {"magmom": 0.0}, "label": "Bi", "xyz": [3.36662952299267, 7.0958148450000005, 11.529971360644343]}, {"species": [{"element": "Bi", "occu": 1}], "abc": [0.90875175, 0.75, 0.54178904], "properties": {"magmom": 0.0}, "label": "Bi", "xyz": [7.484813142992669, 7.0958148450000005, 6.51924510935566]}, {"species": [{"element": "Bi", "occu": 1}], "abc": [0.59124825, 0.25, 0.04178904], "properties": {"magmom": 0.0}, "label": "Bi", "xyz": [4.869737717007331, 2.365271615, 0.5028396193556592]}, {"species": [{"element": "Bi", "occu": 1}], "abc": [0.09124825, 0.25, 0.45821096], "properties": {"magmom": 0.0}, "label": "Bi", "xyz": [0.75155409700733, 2.365271615, 5.513565870644341]}, {"species": [{"element": "Bi", "occu": 1}], "abc": [0.5662605900000001, 0.99570251, 0.32603413000000003], "properties": {"magmom": 0.0}, "label": "Bi", "xyz": [4.663930172779072, 9.420427535549015, 3.923107059318748]}, {"species": [{"element": "Bi", "occu": 1}], "abc": [0.06626059000000001, 0.50429749, 0.17396587], "properties": {"magmom": 0.0}, "label": "Bi", "xyz": [0.5457465527790717, 4.771202154450986, 2.0932984306812528]}, {"species": [{"element": "Bi", "occu": 1}], "abc": [0.43373941, 0.49570251, 0.67396587], "properties": {"magmom": 0.0}, "label": "Bi", "xyz": [3.5724370672209282, 4.689884305549015, 8.109703920681254]}, {"species": [{"element": "Bi", "occu": 1}], "abc": [0.93373941, 0.00429749, 0.82603413], "properties": {"magmom": 0.0}, "label": "Bi", "xyz": [7.690620687220929, 0.0406589244509854, 9.939512549318748]}, {"species": [{"element": "Bi", "occu": 1}], "abc": [0.43373941, 0.00429749, 0.67396587], "properties": {"magmom": 0.0}, "label": "Bi", "xyz": [3.5724370672209282, 0.0406589244509854, 8.109703920681254]}, {"species": [{"element": "Bi", "occu": 1}], "abc": [0.93373941, 0.49570251, 0.82603413], "properties": {"magmom": 0.0}, "label": "Bi", "xyz": [7.690620687220929, 4.689884305549015, 9.939512549318748]}, {"species": [{"element": "Bi", "occu": 1}], "abc": [0.5662605900000001, 0.50429749, 0.32603413000000003], "properties": {"magmom": 0.0}, "label": "Bi", "xyz": [4.663930172779072, 4.771202154450986, 3.923107059318748]}, {"species": [{"element": "Bi", "occu": 1}], "abc": [0.06626059000000001, 0.99570251, 0.17396587], "properties": {"magmom": 0.0}, "label": "Bi", "xyz": [0.5457465527790717, 9.420427535549015, 2.0932984306812528]}]}, "task_ids": null, "uncorrected_energy_per_atom": null, "energy_per_atom": -42.7490790978125, "formation_energy_per_atom": -0.8220994278125031, "energy_above_hull": 0.0, "is_stable": true, "equilibrium_reaction_energy_per_atom": null, "decomposes_to": null, "xas": null, "grain_boundaries": null, "band_gap": 0.0, "cbm": null, "vbm": null, "efermi": 5.00273301, "is_gap_direct": null, "is_metal": null, "es_source_calc_id": null, "bandstructure": null, "dos": null, "dos_energy_up": null, "dos_energy_down": null, "is_magnetic": null, "ordering": null, "total_magnetization": 0.0001143, "total_magnetization_normalized_vol": null, "total_magnetization_normalized_formula_units": null, "num_magnetic_sites": null, "num_unique_magnetic_sites": null, "types_of_magnetic_species": null, "bulk_modulus": null, "shear_modulus": null, "universal_anisotropy": null, "homogeneous_poisson": null, "e_total": null, "e_ionic": null, "e_electronic": null, "n": null, "e_ij_max": null, "weighted_surface_energy_EV_PER_ANG2": null, "weighted_surface_energy": null, "weighted_work_function": null, "surface_anisotropy": null, "shape_factor": null, "has_reconstructed": null, "possible_species": null, "has_props": null, "theoretical": null, "database_IDs": null, "fields_not_requested": ["builder_meta", "nsites", "elements", "nelements", "composition", "composition_reduced", "chemsys", "symmetry", "property_name", "deprecated", "deprecation_reasons", "last_updated", "origins", "warnings", "task_ids", "uncorrected_energy_per_atom", "equilibrium_reaction_energy_per_atom", "decomposes_to", "xas", "grain_boundaries", "cbm", "vbm", "is_gap_direct", "is_metal", "es_source_calc_id", "bandstructure", "dos", "dos_energy_up", "dos_energy_down", "is_magnetic", "ordering", "total_magnetization_normalized_vol", "total_magnetization_normalized_formula_units", "num_magnetic_sites", "num_unique_magnetic_sites", "types_of_magnetic_species", "bulk_modulus", "shear_modulus", "universal_anisotropy", "homogeneous_poisson", "e_total", "e_ionic", "e_electronic", "n", "e_ij_max", "weighted_surface_energy_EV_PER_ANG2", "weighted_surface_energy", "weighted_work_function", "surface_anisotropy", "shape_factor", "has_reconstructed", "possible_species", "has_props", "theoretical", "database_IDs"]}