{
  "builder_meta": null,
  "nsites": null,
  "elements": null,
  "nelements": null,
  "composition": null,
  "composition_reduced": null,
  "formula_pretty": "Dy5Ge3",
  "formula_anonymous": "A3B5",
  "chemsys": null,
  "volume": 396.9761328501966,
  "density": 8.620430919718071,
  "density_atomic": 24.81100830313729,
  "symmetry": null,
  "property_name": null,
  "material_id": "mp-1105737",
  "deprecated": null,
  "deprecation_reasons": null,
  "last_updated": null,
  "origins": null,
  "warnings": null,
  "structure": {
    "@module": "pymatgen.core.structure",
    "@class": "Structure",
    "charge": 0,
    "lattice": {
      "matrix": [
        [-2.2e-7, 3.899999999999998e-7, -6.39960932],
        [-4.23166998, -7.32942365, 3e-7],
        [-4.23165963, 7.32941873, 4.2e-7]
      ],
      "pbc": [true, true, true],
      "a": 6.399609320000015,
      "b": 8.463302066026747,
      "c": 8.463292630167453,
      "alpha": 119.99974780142787,
      "beta": 89.99999883465443,
      "gamma": 90.00000407001127,
      "volume": 396.9761328501967
    },
    "properties": {},
    "sites": [
      {
        "species": [{ "element": "Dy", "occu": 1 }],
        "abc": [0.50000027, 0.33333222, 0.6666719600000001],
        "properties": { "magmom": 0.0 },
        "label": "Dy",
        "xyz": [-4.231680878325791, 2.443185088814914, -3.199806007892627]
      },
      {
        "species": [{ "element": "Dy", "occu": 1 }],
        "abc": [0.50000028, 0.66666041, 0.33332804],
        "properties": { "magmom": 0.0 },
        "label": "Dy",
        "xyz": [-4.231617764266579, -2.443135600962398, -3.199806111894709]
      },
      {
        "species": [{ "element": "Dy", "occu": 1 }],
        "abc": [0.99999958, 0.66666736, 0.33332808],
        "properties": { "magmom": 0.0 },
        "label": "Dy",
        "xyz": [-4.231647453639171, -2.4431860522802893, -6.399606292166083]
      },
      {
        "species": [{ "element": "Dy", "occu": 1 }],
        "abc": [0.99999959, 0.3333391, 0.6666719600000001],
        "properties": { "magmom": 0.0 },
        "label": "Dy",
        "xyz": [-4.231710102215104, 2.4431348573799365, -6.399606316156226]
      },
      {
        "species": [{ "element": "Dy", "occu": 1 }],
        "abc": [0.75000342, 0.24216403, 0.99999991],
        "properties": { "magmom": 0.0 },
        "label": "Dy",
        "xyz": [-5.256417670138205, 5.554495594192339, -4.799728384014703]
      },
      {
        "species": [{ "element": "Dy", "occu": 1 }],
        "abc": [0.74999834, 0.75783153, 0.7578291500000001],
        "properties": { "magmom": 0.0 },
        "label": "Dy",
        "xyz": [-6.413768120890319, -2.088004835165691e-5, -4.799695821010826]
      },
      {
        "species": [{ "element": "Dy", "occu": 1 }],
        "abc": [0.74999825, 2.98e-6, 0.24217096000000002],
        "properties": { "magmom": 0.0 },
        "label": "Dy",
        "xyz": [-1.0247978503665003, 1.7749508209029217, -4.799695688970992]
      },
      {
        "species": [{ "element": "Dy", "occu": 1 }],
        "abc": [0.25000339, 0.75783464, 0.99999947],
        "properties": { "magmom": 0.0 },
        "label": "Dy",
        "xyz": [-7.43856353811325, 1.774923809704159, -1.5999233773254251]
      },
      {
        "species": [{ "element": "Dy", "occu": 1 }],
        "abc": [0.24999835, 0.24216903, 0.24217135],
        "properties": { "magmom": 0.0 },
        "label": "Dy",
        "xyz": [-2.0495661946739574, 1.5910279182573817e-5, -1.599891596281946]
      },
      {
        "species": [{ "element": "Dy", "occu": 1 }],
        "abc": [0.24999911, 0.9999978900000001, 0.75782824],
        "properties": { "magmom": 0.0 },
        "label": "Dy",
        "xyz": [-7.4385322758580985, -1.7749675910375098, -1.5998960160604774]
      },
      {
        "species": [{ "element": "Ge", "occu": 1 }],
        "abc": [0.74999584, 0.60680292, 5.1e-7],
        "properties": { "magmom": -0.0 },
        "label": "Ge",
        "xyz": [-2.567792023485838, -4.447511642235129, -4.799680185584139]
      },
      {
        "species": [{ "element": "Ge", "occu": 1 }],
        "abc": [0.7500017, 0.39320045000000003, 0.39320193000000003],
        "properties": { "magmom": -0.0 },
        "label": "Ge",
        "xyz": [-3.3277914390069516, 9.205494169606254e-6, -4.799717586230898]
      },
      {
        "species": [{ "element": "Ge", "occu": 1 }],
        "abc": [0.75000168, 1.41e-6, 0.6068006300000001],
        "properties": { "magmom": -0.0 },
        "label": "Ge",
        "xyz": [-2.5677798610846088, 4.44748586091111, -4.79971748648697]
      },
      {
        "species": [{ "element": "Ge", "occu": 1 }],
        "abc": [0.2499958, 0.39319587, 0.99999784],
        "properties": { "magmom": -0.0 },
        "label": "Ge",
        "xyz": [-5.895525703953258, 4.44750388729358, -1.599874913683002]
      },
      {
        "species": [{ "element": "Ge", "occu": 1 }],
        "abc": [0.2500017, 0.60679885, 0.60679879],
        "properties": { "magmom": -0.0 },
        "label": "Ge",
        "xyz": [-5.135538475619745, -3.327714802381365e-6, -1.5999127724406972]
      },
      {
        "species": [{ "element": "Ge", "occu": 1 }],
        "abc": [0.2500017, 3.2e-7, 0.39320016],
        "properties": { "magmom": -0.0 },
        "label": "Ge",
        "xyz": [-1.6638906527163084, 2.881926369428092, -1.5999130441916807]
      }
    ]
  },
  "task_ids": null,
  "uncorrected_energy_per_atom": null,
  "energy_per_atom": -26.110949914375,
  "formation_energy_per_atom": -0.920331306249998,
  "energy_above_hull": 0.0,
  "is_stable": true,
  "equilibrium_reaction_energy_per_atom": null,
  "decomposes_to": null,
  "xas": null,
  "grain_boundaries": null,
  "band_gap": 0.0,
  "cbm": null,
  "vbm": null,
  "efermi": 4.22683908,
  "is_gap_direct": null,
  "is_metal": null,
  "es_source_calc_id": null,
  "bandstructure": null,
  "dos": null,
  "dos_energy_up": null,
  "dos_energy_down": null,
  "is_magnetic": null,
  "ordering": null,
  "total_magnetization": 1.4e-5,
  "total_magnetization_normalized_vol": null,
  "total_magnetization_normalized_formula_units": null,
  "num_magnetic_sites": null,
  "num_unique_magnetic_sites": null,
  "types_of_magnetic_species": null,
  "bulk_modulus": null,
  "shear_modulus": null,
  "universal_anisotropy": null,
  "homogeneous_poisson": null,
  "e_total": null,
  "e_ionic": null,
  "e_electronic": null,
  "n": null,
  "e_ij_max": null,
  "weighted_surface_energy_EV_PER_ANG2": null,
  "weighted_surface_energy": null,
  "weighted_work_function": null,
  "surface_anisotropy": null,
  "shape_factor": null,
  "has_reconstructed": null,
  "possible_species": null,
  "has_props": null,
  "theoretical": null,
  "database_IDs": null,
  "fields_not_requested": [
    "builder_meta",
    "nsites",
    "elements",
    "nelements",
    "composition",
    "composition_reduced",
    "chemsys",
    "symmetry",
    "property_name",
    "deprecated",
    "deprecation_reasons",
    "last_updated",
    "origins",
    "warnings",
    "task_ids",
    "uncorrected_energy_per_atom",
    "equilibrium_reaction_energy_per_atom",
    "decomposes_to",
    "xas",
    "grain_boundaries",
    "cbm",
    "vbm",
    "is_gap_direct",
    "is_metal",
    "es_source_calc_id",
    "bandstructure",
    "dos",
    "dos_energy_up",
    "dos_energy_down",
    "is_magnetic",
    "ordering",
    "total_magnetization_normalized_vol",
    "total_magnetization_normalized_formula_units",
    "num_magnetic_sites",
    "num_unique_magnetic_sites",
    "types_of_magnetic_species",
    "bulk_modulus",
    "shear_modulus",
    "universal_anisotropy",
    "homogeneous_poisson",
    "e_total",
    "e_ionic",
    "e_electronic",
    "n",
    "e_ij_max",
    "weighted_surface_energy_EV_PER_ANG2",
    "weighted_surface_energy",
    "weighted_work_function",
    "surface_anisotropy",
    "shape_factor",
    "has_reconstructed",
    "possible_species",
    "has_props",
    "theoretical",
    "database_IDs"
  ]
}
