{"builder_meta": null, "nsites": null, "elements": null, "nelements": null, "composition": null, "composition_reduced": null, "formula_pretty": "Dy5Ga3", "formula_anonymous": "A3B5", "chemsys": null, "volume": 406.78337982275957, "density": 8.341153408840597, "density_atomic": 25.423961238922473, "symmetry": null, "property_name": null, "material_id": "mp-542342", "deprecated": null, "deprecation_reasons": null, "last_updated": null, "origins": null, "warnings": null, "structure": {"@module": "pymatgen.core.structure", "@class": "Structure", "charge": 0, "lattice": {"matrix": [[6.86308339, -0.00037148, -3.279951999999999], [-1.5675814, 6.6816609, -3.27995233], [0.0147607, 0.01862438, 8.8525597]], "pbc": [true, true, true], "a": 7.606576028568654, "b": 7.606575518279379, "c": 8.852591597258906, "alpha": 115.44811977481146, "beta": 115.44812103184988, "gamma": 90.00281009533401, "volume": 406.78337982275957}, "properties": {}, "sites": [{"species": [{"element": "Dy", "occu": 1}], "abc": [0.0, 0.0, 0.0], "properties": {"magmom": -0.0}, "label": "Dy", "xyz": [0.0, 0.0, 0.0]}, {"species": [{"element": "Dy", "occu": 1}], "abc": [0.5, 0.5, 0.0], "properties": {"magmom": -0.0}, "label": "Dy", "xyz": [2.647750995, 3.34064471, -3.279952164999999]}, {"species": [{"element": "Dy", "occu": 1}], "abc": [0.31729208000000003, 0.81729211, 0.29468744], "properties": {"magmom": 0.0}, "label": "Dy", "xyz": [0.9007798869194055, 5.4662392384674074, -1.1126437974251076]}, {"species": [{"element": "Dy", "occu": 1}], "abc": [0.47740324, 0.31730203, 0.29469821], "properties": {"magmom": 0.0}, "label": "Dy", "xyz": [2.783411438234289, 2.1254157930343918, 0.0022382530514275523]}, {"species": [{"element": "Dy", "occu": 1}], "abc": [0.81730209, 0.9774032500000001, 0.29469819], "properties": {"magmom": 0.0}, "label": "Dy", "xyz": [4.081403195064867, 6.535862038753405, -3.2777143714298083]}, {"species": [{"element": "Dy", "occu": 1}], "abc": [0.52259676, 0.68269797, 0.70530179], "properties": {"magmom": 0.0}, "label": "Dy", "xyz": [2.526851251765711, 4.574498006965608, 2.2904171169485745]}, {"species": [{"element": "Dy", "occu": 1}], "abc": [0.18269791, 0.02259675, 0.70530181], "properties": {"magmom": 0.0}, "label": "Dy", "xyz": [1.2288594949351317, 0.16405176124659598, 5.57036974142981]}, {"species": [{"element": "Dy", "occu": 1}], "abc": [0.02258102, 0.52258103, 0.7052712800000001], "properties": {"magmom": 0.0}, "label": "Dy", "xyz": [-0.6538025815468882, 3.5048360871572237, 4.455350582222076]}, {"species": [{"element": "Dy", "occu": 1}], "abc": [0.68270792, 0.18270789, 0.70531256], "properties": {"magmom": 0.0}, "label": "Dy", "xyz": [4.409482803080595, 1.2336745615325921, 3.4052991674251096]}, {"species": [{"element": "Dy", "occu": 1}], "abc": [0.97741898, 0.47741897, 0.29472872], "properties": {"magmom": 0.0}, "label": "Dy", "xyz": [5.964065271546889, 3.1950777128427763, -2.162695212222075]}, {"species": [{"element": "Ga", "occu": 1}], "abc": [0.25000005000000003, 0.24999991, 0.49999997], "properties": {"magmom": 0.0}, "label": "Ga", "xyz": [1.3312563312936747, 1.6796339430732135, 2.7863036331213196]}, {"species": [{"element": "Ga", "occu": 1}], "abc": [0.74999995, 0.75000009, 0.50000003], "properties": {"magmom": 0.0}, "label": "Ga", "xyz": [3.979006358706325, 5.020279856926786, -0.49364826312131616]}, {"species": [{"element": "Ga", "occu": 1}], "abc": [0.37876197, 0.87876202, 2.5390000000000003e-05], "properties": {"magmom": 0.0}, "label": "Ga", "xyz": [1.2219443622664232, 5.871449599815411, -4.124393849549163]}, {"species": [{"element": "Ga", "occu": 1}], "abc": [0.12119291, 0.37880704, -1e-08], "properties": {"magmom": -0.0}, "label": "Ga", "xyz": [0.23794617736610205, 2.531015166884285, -1.63997604953432]}, {"species": [{"element": "Ga", "occu": 1}], "abc": [0.87880709, 0.62119296, 1e-08], "properties": {"magmom": -0.0}, "label": "Ga", "xyz": [5.057555812633899, 4.150274253115715, -4.919928280465679]}, {"species": [{"element": "Ga", "occu": 1}], "abc": [0.62123803, 0.12123798000000001, -2.5390000000000003e-05], "properties": {"magmom": 0.0}, "label": "Ga", "xyz": [4.073557627733577, 0.8098398201845894, -2.435510480450836]}]}, "task_ids": null, "uncorrected_energy_per_atom": null, "energy_per_atom": -24.871139561875, "formation_energy_per_atom": -0.5914715650000021, "energy_above_hull": 0.012315424296875, "is_stable": false, "equilibrium_reaction_energy_per_atom": null, "decomposes_to": null, "xas": null, "grain_boundaries": null, "band_gap": 0.0, "cbm": null, "vbm": null, "efermi": 3.30713905, "is_gap_direct": null, "is_metal": null, "es_source_calc_id": null, "bandstructure": null, "dos": null, "dos_energy_up": null, "dos_energy_down": null, "is_magnetic": null, "ordering": null, "total_magnetization": 0.000115099999999, "total_magnetization_normalized_vol": null, "total_magnetization_normalized_formula_units": null, "num_magnetic_sites": null, "num_unique_magnetic_sites": null, "types_of_magnetic_species": null, "bulk_modulus": null, "shear_modulus": null, "universal_anisotropy": null, "homogeneous_poisson": null, "e_total": null, "e_ionic": null, "e_electronic": null, "n": null, "e_ij_max": null, "weighted_surface_energy_EV_PER_ANG2": null, "weighted_surface_energy": null, "weighted_work_function": null, "surface_anisotropy": null, "shape_factor": null, "has_reconstructed": null, "possible_species": null, "has_props": null, "theoretical": null, "database_IDs": null, "fields_not_requested": ["builder_meta", "nsites", "elements", "nelements", "composition", "composition_reduced", "chemsys", "symmetry", "property_name", "deprecated", "deprecation_reasons", "last_updated", "origins", "warnings", "task_ids", "uncorrected_energy_per_atom", "equilibrium_reaction_energy_per_atom", "decomposes_to", "xas", "grain_boundaries", "cbm", "vbm", "is_gap_direct", "is_metal", "es_source_calc_id", "bandstructure", "dos", "dos_energy_up", "dos_energy_down", "is_magnetic", "ordering", "total_magnetization_normalized_vol", "total_magnetization_normalized_formula_units", "num_magnetic_sites", "num_unique_magnetic_sites", "types_of_magnetic_species", "bulk_modulus", "shear_modulus", "universal_anisotropy", "homogeneous_poisson", "e_total", "e_ionic", "e_electronic", "n", "e_ij_max", "weighted_surface_energy_EV_PER_ANG2", "weighted_surface_energy", "weighted_work_function", "surface_anisotropy", "shape_factor", "has_reconstructed", "possible_species", "has_props", "theoretical", "database_IDs"]}