{"builder_meta": null, "nsites": null, "elements": null, "nelements": null, "composition": null, "composition_reduced": null, "formula_pretty": "Dy5Ir2", "formula_anonymous": "A2B5", "chemsys": null, "volume": 367.95295694932304, "density": 10.803314008510842, "density_atomic": 26.28235406780879, "symmetry": null, "property_name": null, "material_id": "mp-1104805", "deprecated": null, "deprecation_reasons": null, "last_updated": null, "origins": null, "warnings": null, "structure": {"@module": "pymatgen.core.structure", "@class": "Structure", "charge": 0, "lattice": {"matrix": [[0.0, 6.476878, 0.0], [0.895721999999999, 0.0, -7.136073], [-7.9609939999999995, -3.238439, 0.0]], "pbc": [true, true, true], "a": 6.476878, "b": 7.192068948683195, "c": 8.594469886197578, "alpha": 96.62457900991146, "beta": 112.13591524759308, "gamma": 90.0, "volume": 367.952956949323}, "properties": {}, "sites": [{"species": [{"element": "Dy", "occu": 1}], "abc": [0.791914, 0.083748, 0.81398], "properties": {"magmom": 0.028}, "label": "Dy", "xyz": [-6.405074970064, 2.493105787272, -0.597631841604]}, {"species": [{"element": "Dy", "occu": 1}], "abc": [0.977934, 0.416251999999999, 0.18602000000000002], "properties": {"magmom": 0.028}, "label": "Dy", "xyz": [-1.1080580299360014, 5.731544787272, -2.9704046583959927]}, {"species": [{"element": "Dy", "occu": 1}], "abc": [0.208086, 0.916252, 0.18602000000000002], "properties": {"magmom": 0.028}, "label": "Dy", "xyz": [-0.660197029936001, 0.7453332127279999, -6.538441158395999]}, {"species": [{"element": "Dy", "occu": 1}], "abc": [0.022066, 0.583747999999999, 0.81398], "properties": {"magmom": 0.028}, "label": "Dy", "xyz": [-5.957213970064002, -2.4931057872720004, -4.165668341603993]}, {"species": [{"element": "Dy", "occu": 1}], "abc": [0.209684999999999, 0.184260999999999, 0.56093], "properties": {"magmom": 0.024}, "label": "Dy", "xyz": [-4.3005137329780005, -0.4584334248400066, -1.314899947052993]}, {"species": [{"element": "Dy", "occu": 1}], "abc": [0.648755, 0.315739, 0.43907], "properties": {"magmom": 0.024}, "label": "Dy", "xyz": [-3.212619267022, 2.7800055751599997, -2.2531365529469998]}, {"species": [{"element": "Dy", "occu": 1}], "abc": [0.790315, 0.815739, 0.43907], "properties": {"magmom": 0.024}, "label": "Dy", "xyz": [-2.7647582670220006, 3.6968724248399996, -5.821173052947]}, {"species": [{"element": "Dy", "occu": 1}], "abc": [0.351245, 0.684261, 0.56093], "properties": {"magmom": 0.024}, "label": "Dy", "xyz": [-3.8526527329780005, 0.45843342483999994, -4.882936447053]}, {"species": [{"element": "Dy", "occu": 1}], "abc": [0.429882, 0.25, 0.0], "properties": {"magmom": 0.022}, "label": "Dy", "xyz": [0.22393049999999975, 2.784293268396, -1.78401825]}, {"species": [{"element": "Dy", "occu": 1}], "abc": [0.570118, 0.75, 0.0], "properties": {"magmom": 0.022}, "label": "Dy", "xyz": [0.6717914999999992, 3.692584731604, -5.35205475]}, {"species": [{"element": "Ir", "occu": 1}], "abc": [0.600491, 0.425278, 0.777447999999999], "properties": {"magmom": -0.002}, "label": "Ir", "xyz": [-5.808328002595992, 1.371589023426003, -3.034814853294]}, {"species": [{"element": "Ir", "occu": 1}], "abc": [0.823043, 0.074722, 0.222552], "properties": {"magmom": -0.002}, "label": "Ir", "xyz": [-1.704804997404, 4.610028023426, -0.5332216467059999]}, {"species": [{"element": "Ir", "occu": 1}], "abc": [0.399509, 0.574722, 0.222552], "properties": {"magmom": -0.002}, "label": "Ir", "xyz": [-1.2569439974040004, 1.866849976574, -4.101258146706]}, {"species": [{"element": "Ir", "occu": 1}], "abc": [0.176957, 0.925277999999999, 0.777447999999999], "properties": {"magmom": -0.002}, "label": "Ir", "xyz": [-5.360467002595994, -1.3715890234259969, -6.6028513532939925]}]}, "task_ids": null, "uncorrected_energy_per_atom": null, "energy_per_atom": -6.476644353571428, "formation_energy_per_atom": -0.6525377819047571, "energy_above_hull": 0.0, "is_stable": true, "equilibrium_reaction_energy_per_atom": null, "decomposes_to": null, "xas": null, "grain_boundaries": null, "band_gap": 0.0, "cbm": null, "vbm": null, "efermi": 4.23094809, "is_gap_direct": null, "is_metal": null, "es_source_calc_id": null, "bandstructure": null, "dos": null, "dos_energy_up": null, "dos_energy_down": null, "is_magnetic": null, "ordering": null, "total_magnetization": 0.5620795, "total_magnetization_normalized_vol": null, "total_magnetization_normalized_formula_units": null, "num_magnetic_sites": null, "num_unique_magnetic_sites": null, "types_of_magnetic_species": null, "bulk_modulus": null, "shear_modulus": null, "universal_anisotropy": null, "homogeneous_poisson": null, "e_total": null, "e_ionic": null, "e_electronic": null, "n": null, "e_ij_max": null, "weighted_surface_energy_EV_PER_ANG2": null, "weighted_surface_energy": null, "weighted_work_function": null, "surface_anisotropy": null, "shape_factor": null, "has_reconstructed": null, "possible_species": null, "has_props": null, "theoretical": null, "database_IDs": null, "fields_not_requested": ["builder_meta", "nsites", "elements", "nelements", "composition", "composition_reduced", "chemsys", "symmetry", "property_name", "deprecated", "deprecation_reasons", "last_updated", "origins", "warnings", "task_ids", "uncorrected_energy_per_atom", "equilibrium_reaction_energy_per_atom", "decomposes_to", "xas", "grain_boundaries", "cbm", "vbm", "is_gap_direct", "is_metal", "es_source_calc_id", "bandstructure", "dos", "dos_energy_up", "dos_energy_down", "is_magnetic", "ordering", "total_magnetization_normalized_vol", "total_magnetization_normalized_formula_units", "num_magnetic_sites", "num_unique_magnetic_sites", "types_of_magnetic_species", "bulk_modulus", "shear_modulus", "universal_anisotropy", "homogeneous_poisson", "e_total", "e_ionic", "e_electronic", "n", "e_ij_max", "weighted_surface_energy_EV_PER_ANG2", "weighted_surface_energy", "weighted_work_function", "surface_anisotropy", "shape_factor", "has_reconstructed", "possible_species", "has_props", "theoretical", "database_IDs"]}