{"builder_meta": null, "nsites": null, "elements": null, "nelements": null, "composition": null, "composition_reduced": null, "formula_pretty": "Dy5Ir3", "formula_anonymous": "A3B5", "chemsys": null, "volume": 744.690269432626, "density": 12.39032977650665, "density_atomic": 23.271570919769562, "symmetry": null, "property_name": null, "material_id": "mp-1200226", "deprecated": null, "deprecation_reasons": null, "last_updated": null, "origins": null, "warnings": null, "structure": {"@module": "pymatgen.core.structure", "@class": "Structure", "charge": 0, "lattice": {"matrix": [[0.0, 0.0, 6.35420366], [10.82569793, 0.0, 0.0], [0.0, 10.82576621, 0.0]], "pbc": [true, true, true], "a": 6.35420366, "b": 10.82569793, "c": 10.82576621, "alpha": 90.0, "beta": 90.0, "gamma": 90.0, "volume": 744.690269432626}, "properties": {}, "sites": [{"species": [{"element": "Dy", "occu": 1}], "abc": [0.38347524, 0.83822279, 0.54175282], "properties": {"magmom": 0.0}, "label": "Dy", "xyz": [9.074346722581826, 5.8648893729282126, 2.4366797735273784]}, {"species": [{"element": "Dy", "occu": 1}], "abc": [0.88347524, 0.66177721, 0.54175282], "properties": {"magmom": 0.0}, "label": "Dy", "xyz": [7.164200172418176, 5.8648893729282126, 5.613781603527378]}, {"species": [{"element": "Dy", "occu": 1}], "abc": [0.88347524, 0.83822279, 0.95824718], "properties": {"magmom": 0.0}, "label": "Dy", "xyz": [9.074346722581826, 10.373759942071787, 5.613781603527378]}, {"species": [{"element": "Dy", "occu": 1}], "abc": [0.38347524, 0.66177721, 0.95824718], "properties": {"magmom": 0.0}, "label": "Dy", "xyz": [7.164200172418176, 10.373759942071787, 2.4366797735273784]}, {"species": [{"element": "Dy", "occu": 1}], "abc": [0.88347883, 0.54180545, 0.83824683], "properties": {"magmom": -0.0}, "label": "Dy", "xyz": [5.865422138527719, 9.074664207853614, 5.613804415118517]}, {"species": [{"element": "Dy", "occu": 1}], "abc": [0.38347783, 0.95819455, 0.83824683], "properties": {"magmom": -0.0}, "label": "Dy", "xyz": [10.373124756472281, 9.074664207853614, 2.436696230914858]}, {"species": [{"element": "Dy", "occu": 1}], "abc": [0.38347883, 0.54180545, 0.66175217], "properties": {"magmom": -0.0}, "label": "Dy", "xyz": [5.865422138527719, 7.163974281380175, 2.4367025851185176]}, {"species": [{"element": "Dy", "occu": 1}], "abc": [0.88347883, 0.95819455, 0.66175217], "properties": {"magmom": -0.0}, "label": "Dy", "xyz": [10.373124756472281, 7.163974281380175, 5.613804415118517]}, {"species": [{"element": "Dy", "occu": 1}], "abc": [0.61652556, 0.16175441000000002, 0.45818366], "properties": {"magmom": 0.0}, "label": "Dy", "xyz": [1.7511043815053715, 4.960189184402128, 3.9175289698355495]}, {"species": [{"element": "Dy", "occu": 1}], "abc": [0.11652456, 0.33824559, 0.45818366], "properties": {"magmom": 0.0}, "label": "Dy", "xyz": [3.6617445834946287, 4.960189184402128, 0.7404207856318895]}, {"species": [{"element": "Dy", "occu": 1}], "abc": [0.11652556, 0.16175441000000002, 0.04181634], "properties": {"magmom": 0.0}, "label": "Dy", "xyz": [1.7511043815053715, 0.4526939205978714, 0.7404271398355495]}, {"species": [{"element": "Dy", "occu": 1}], "abc": [0.61652556, 0.33824559, 0.04181634], "properties": {"magmom": 0.0}, "label": "Dy", "xyz": [3.6617445834946287, 0.4526939205978714, 3.9175289698355495]}, {"species": [{"element": "Dy", "occu": 1}], "abc": [0.11652478000000001, 0.4582367, 0.16178233], "properties": {"magmom": 0.0}, "label": "Dy", "xyz": [4.960732094640031, 1.7514176814890692, 0.7404221835566948]}, {"species": [{"element": "Dy", "occu": 1}], "abc": [0.61652478, 0.041763299999999004, 0.16178233], "properties": {"magmom": 0.0}, "label": "Dy", "xyz": [0.45211687035995823, 1.7514176814890692, 3.9175240135566947]}, {"species": [{"element": "Dy", "occu": 1}], "abc": [0.61652478, 0.4582367, 0.33821867], "properties": {"magmom": 0.0}, "label": "Dy", "xyz": [4.960732094640031, 3.6614762492771407, 3.9175240135566947]}, {"species": [{"element": "Dy", "occu": 1}], "abc": [0.11652478000000001, 0.041763299999999004, 0.33821867], "properties": {"magmom": 0.0}, "label": "Dy", "xyz": [0.45211687035995823, 3.6614762492771407, 0.7404221835566948]}, {"species": [{"element": "Dy", "occu": 1}], "abc": [0.49998812000000004, 0.75, 0.250001], "properties": {"magmom": -0.0}, "label": "Dy", "xyz": [8.1192734475, 2.7064523782662095, 3.177026342060519]}, {"species": [{"element": "Dy", "occu": 1}], "abc": [-1.188e-05, 0.75, 0.250001], "properties": {"magmom": -0.0}, "label": "Dy", "xyz": [8.1192734475, 2.7064523782662095, -7.548793948079999e-05]}, {"species": [{"element": "Dy", "occu": 1}], "abc": [1.05e-06, 0.25, 0.749999], "properties": {"magmom": -0.0}, "label": "Dy", "xyz": [2.7064244825, 8.11931383173379, 6.671913842999999e-06]}, {"species": [{"element": "Dy", "occu": 1}], "abc": [0.5000010500000001, 0.25, 0.749999], "properties": {"magmom": -0.0}, "label": "Dy", "xyz": [2.7064244825, 8.11931383173379, 3.177108501913843]}, {"species": [{"element": "Ir", "occu": 1}], "abc": [0.25000013, 0.90347772, 0.096521], "properties": {"magmom": 0.0}, "label": "Ir", "xyz": [9.780776883205121, 1.0449137803554098, 1.5885517410464756]}, {"species": [{"element": "Ir", "occu": 1}], "abc": [0.75000013, 0.59652228, 0.096521], "properties": {"magmom": 0.0}, "label": "Ir", "xyz": [6.457770011794881, 1.0449137803554098, 4.765653571046475]}, {"species": [{"element": "Ir", "occu": 1}], "abc": [0.75000013, 0.90347772, 0.40348], "properties": {"magmom": 0.0}, "label": "Ir", "xyz": [9.780776883205121, 4.3679801504108, 4.765653571046475]}, {"species": [{"element": "Ir", "occu": 1}], "abc": [0.25000013, 0.59652228, 0.40348], "properties": {"magmom": 0.0}, "label": "Ir", "xyz": [6.457770011794881, 4.3679801504108, 1.5885517410464756]}, {"species": [{"element": "Ir", "occu": 1}], "abc": [0.750002, 0.09648115, 0.90351893], "properties": {"magmom": 0.0}, "label": "Ir", "xyz": [1.0444757858390195, 9.781284702489355, 4.765665453407319]}, {"species": [{"element": "Ir", "occu": 1}], "abc": [0.250002, 0.40351885, 0.90351893], "properties": {"magmom": 0.0}, "label": "Ir", "xyz": [4.36837317916098, 9.781284702489355, 1.58856362340732]}, {"species": [{"element": "Ir", "occu": 1}], "abc": [0.250002, 0.09648115, 0.59648007], "properties": {"magmom": 0.0}, "label": "Ir", "xyz": [1.0444757858390195, 6.457353786744434, 1.58856362340732]}, {"species": [{"element": "Ir", "occu": 1}], "abc": [0.750002, 0.40351885, 0.59648007], "properties": {"magmom": 0.0}, "label": "Ir", "xyz": [4.36837317916098, 6.457353786744434, 4.765665453407319]}, {"species": [{"element": "Ir", "occu": 1}], "abc": [0.12853272, 0.75, 0.749999], "properties": {"magmom": -0.0}, "label": "Ir", "xyz": [8.1192734475, 8.11931383173379, 0.816723079853755]}, {"species": [{"element": "Ir", "occu": 1}], "abc": [0.62853272, 0.75, 0.749999], "properties": {"magmom": -0.0}, "label": "Ir", "xyz": [8.1192734475, 8.11931383173379, 3.993824909853755]}, {"species": [{"element": "Ir", "occu": 1}], "abc": [0.871463999999999, 0.25, 0.250001], "properties": {"magmom": -0.0}, "label": "Ir", "xyz": [2.7064244825, 2.7064523782662095, 5.537459738358233]}, {"species": [{"element": "Ir", "occu": 1}], "abc": [0.371463999999999, 0.25, 0.250001], "properties": {"magmom": -0.0}, "label": "Ir", "xyz": [2.7064244825, 2.7064523782662095, 2.3603579083582336]}]}, "task_ids": null, "uncorrected_energy_per_atom": null, "energy_per_atom": -7.007757367187501, "formation_energy_per_atom": -0.806859844479165, "energy_above_hull": 0.0, "is_stable": true, "equilibrium_reaction_energy_per_atom": null, "decomposes_to": null, "xas": null, "grain_boundaries": null, "band_gap": 0.0, "cbm": null, "vbm": null, "efermi": 4.87338179, "is_gap_direct": null, "is_metal": null, "es_source_calc_id": null, "bandstructure": null, "dos": null, "dos_energy_up": null, "dos_energy_down": null, "is_magnetic": null, "ordering": null, "total_magnetization": 6e-07, "total_magnetization_normalized_vol": null, "total_magnetization_normalized_formula_units": null, "num_magnetic_sites": null, "num_unique_magnetic_sites": null, "types_of_magnetic_species": null, "bulk_modulus": null, "shear_modulus": null, "universal_anisotropy": null, "homogeneous_poisson": null, "e_total": null, "e_ionic": null, "e_electronic": null, "n": null, "e_ij_max": null, "weighted_surface_energy_EV_PER_ANG2": null, "weighted_surface_energy": null, "weighted_work_function": null, "surface_anisotropy": null, "shape_factor": null, "has_reconstructed": null, "possible_species": null, "has_props": null, "theoretical": null, "database_IDs": null, "fields_not_requested": ["builder_meta", "nsites", "elements", "nelements", "composition", "composition_reduced", "chemsys", "symmetry", "property_name", "deprecated", "deprecation_reasons", "last_updated", "origins", "warnings", "task_ids", "uncorrected_energy_per_atom", "equilibrium_reaction_energy_per_atom", "decomposes_to", "xas", "grain_boundaries", "cbm", "vbm", "is_gap_direct", "is_metal", "es_source_calc_id", "bandstructure", "dos", "dos_energy_up", "dos_energy_down", "is_magnetic", "ordering", "total_magnetization_normalized_vol", "total_magnetization_normalized_formula_units", "num_magnetic_sites", "num_unique_magnetic_sites", "types_of_magnetic_species", "bulk_modulus", "shear_modulus", "universal_anisotropy", "homogeneous_poisson", "e_total", "e_ionic", "e_electronic", "n", "e_ij_max", "weighted_surface_energy_EV_PER_ANG2", "weighted_surface_energy", "weighted_work_function", "surface_anisotropy", "shape_factor", "has_reconstructed", "possible_species", "has_props", "theoretical", "database_IDs"]}