{"builder_meta": null, "nsites": null, "elements": null, "nelements": null, "composition": null, "composition_reduced": null, "formula_pretty": "Dy5Mg", "formula_anonymous": "AB5", "chemsys": null, "volume": 180.67197590076896, "density": 7.690995721380709, "density_atomic": 30.111995983461494, "symmetry": null, "property_name": null, "material_id": "mp-1183822", "deprecated": null, "deprecation_reasons": null, "last_updated": null, "origins": null, "warnings": null, "structure": {"@module": "pymatgen.core.structure", "@class": "Structure", "charge": 0, "lattice": {"matrix": [[5.82621316, -3.06525898, -0.0046524800000000005], [5.82621316, 3.06525898, -0.0046524800000000005], [4.21757444, 0.0, 5.05496321]], "pbc": [true, true, true], "a": 6.583357353645477, "b": 6.583357353645477, "c": 6.583356834578756, "alpha": 55.49905558089409, "beta": 55.49905558089409, "gamma": 55.499059926615, "volume": 180.67197590076896}, "properties": {}, "sites": [{"species": [{"element": "Dy", "occu": 1}], "abc": [0.5, 0.16043905, 0.83956095], "properties": {"magmom": 0.0}, "label": "Dy", "xyz": [7.388769488030016, -1.040842251244831, 4.240877035331306]}, {"species": [{"element": "Dy", "occu": 1}], "abc": [0.16043905, 0.83956095, 0.5], "properties": {"magmom": 0.0}, "label": "Dy", "xyz": [7.93500038, 2.081684502489662, 2.5228291250000003]}, {"species": [{"element": "Dy", "occu": 1}], "abc": [0.83956095, 0.5, 0.16043905], "properties": {"magmom": 0.0}, "label": "Dy", "xyz": [8.481231271969984, -1.040842251244831, 0.8047812146686946]}, {"species": [{"element": "Dy", "occu": 1}], "abc": [0.33209609, 0.33209609, 0.33209609], "properties": {"magmom": -0.0}, "label": "Dy", "xyz": [5.270365200693028, 0.0, 1.6756433763012426]}, {"species": [{"element": "Dy", "occu": 1}], "abc": [0.66790391, 0.66790391, 0.66790391], "properties": {"magmom": -0.0}, "label": "Dy", "xyz": [10.599635559306972, 0.0, 3.3700148736987576]}, {"species": [{"element": "Mg", "occu": 1}], "abc": [-0.0, 0.0, 0.0], "properties": {"magmom": 0.0}, "label": "Mg", "xyz": [0.0, 0.0, 0.0]}]}, "task_ids": null, "uncorrected_energy_per_atom": null, "energy_per_atom": -4.089619284999998, "formation_energy_per_atom": 0.030771991111117003, "energy_above_hull": 0.050397520555561, "is_stable": false, "equilibrium_reaction_energy_per_atom": null, "decomposes_to": null, "xas": null, "grain_boundaries": null, "band_gap": 0.0, "cbm": null, "vbm": null, "efermi": 3.13766634, "is_gap_direct": null, "is_metal": null, "es_source_calc_id": null, "bandstructure": null, "dos": null, "dos_energy_up": null, "dos_energy_down": null, "is_magnetic": null, "ordering": null, "total_magnetization": 8.7e-06, "total_magnetization_normalized_vol": null, "total_magnetization_normalized_formula_units": null, "num_magnetic_sites": null, "num_unique_magnetic_sites": null, "types_of_magnetic_species": null, "bulk_modulus": null, "shear_modulus": null, "universal_anisotropy": null, "homogeneous_poisson": null, "e_total": null, "e_ionic": null, "e_electronic": null, "n": null, "e_ij_max": null, "weighted_surface_energy_EV_PER_ANG2": null, "weighted_surface_energy": null, "weighted_work_function": null, "surface_anisotropy": null, "shape_factor": null, "has_reconstructed": null, "possible_species": null, "has_props": null, "theoretical": null, "database_IDs": null, "fields_not_requested": ["builder_meta", "nsites", "elements", "nelements", "composition", "composition_reduced", "chemsys", "symmetry", "property_name", "deprecated", "deprecation_reasons", "last_updated", "origins", "warnings", "task_ids", "uncorrected_energy_per_atom", "equilibrium_reaction_energy_per_atom", "decomposes_to", "xas", "grain_boundaries", "cbm", "vbm", "is_gap_direct", "is_metal", "es_source_calc_id", "bandstructure", "dos", "dos_energy_up", "dos_energy_down", "is_magnetic", "ordering", "total_magnetization_normalized_vol", "total_magnetization_normalized_formula_units", "num_magnetic_sites", "num_unique_magnetic_sites", "types_of_magnetic_species", "bulk_modulus", "shear_modulus", "universal_anisotropy", "homogeneous_poisson", "e_total", "e_ionic", "e_electronic", "n", "e_ij_max", "weighted_surface_energy_EV_PER_ANG2", "weighted_surface_energy", "weighted_work_function", "surface_anisotropy", "shape_factor", "has_reconstructed", "possible_species", "has_props", "theoretical", "database_IDs"]}