{
  "builder_meta": null,
  "nsites": null,
  "elements": null,
  "nelements": null,
  "composition": null,
  "composition_reduced": null,
  "formula_pretty": "Dy5Pt4",
  "formula_anonymous": "A4B5",
  "chemsys": null,
  "volume": 820.0081581909463,
  "density": 12.902146781183475,
  "density_atomic": 22.778004394192955,
  "symmetry": null,
  "property_name": null,
  "material_id": "mp-1202228",
  "deprecated": null,
  "deprecation_reasons": null,
  "last_updated": null,
  "origins": null,
  "warnings": null,
  "structure": {
    "@module": "pymatgen.core.structure",
    "@class": "Structure",
    "charge": 0,
    "lattice": {
      "matrix": [
        [7.46947194, 8.52e-5, 0.0],
        [8.199e-5, 7.55945005, 0.0],
        [0.0, 0.0, 14.52238919]
      ],
      "pbc": [true, true, true],
      "a": 7.469471940485914,
      "b": 7.5594500504446325,
      "c": 14.52238919,
      "alpha": 90.0,
      "beta": 90.0,
      "gamma": 89.99872502819288,
      "volume": 820.0081581909463
    },
    "properties": {},
    "sites": [
      {
        "species": [{ "element": "Dy", "occu": 1 }],
        "abc": [0.653749399999999, 0.16757109, 0.62198967],
        "properties": { "magmom": -0.0 },
        "label": "Dy",
        "xyz": [4.883176538245498, 1.2668009841279346, 9.032776059899668]
      },
      {
        "species": [{ "element": "Dy", "occu": 1 }],
        "abc": [0.15376151, 0.33244435, 0.87801552],
        "properties": { "magmom": 0.0 },
        "label": "Dy",
        "xyz": [1.1485445415092859, 2.513109558710369, 12.75088309630023]
      },
      {
        "species": [{ "element": "Dy", "occu": 1 }],
        "abc": [0.346250599999999, 0.83242891, 0.12198967000000001],
        "properties": { "magmom": -0.0 },
        "label": "Dy",
        "xyz": [2.5863773917544877, 6.292734265872065, 1.7715814648996675]
      },
      {
        "species": [{ "element": "Dy", "occu": 1 }],
        "abc": [0.8462384900000001, 0.6675556500000001, 0.37801552],
        "properties": { "magmom": 0.0 },
        "label": "Dy",
        "xyz": [6.321009388490715, 5.04642569128963, 5.489688501300229]
      },
      {
        "species": [{ "element": "Dy", "occu": 1 }],
        "abc": [0.346250599999999, 0.83242891, 0.37801033],
        "properties": { "magmom": -0.0 },
        "label": "Dy",
        "xyz": [2.5863773917544877, 6.292734265872065, 5.489613130100333]
      },
      {
        "species": [{ "element": "Dy", "occu": 1 }],
        "abc": [0.8462384900000001, 0.6675556500000001, 0.12198448],
        "properties": { "magmom": 0.0 },
        "label": "Dy",
        "xyz": [6.321009388490715, 5.04642569128963, 1.7715060936997713]
      },
      {
        "species": [{ "element": "Dy", "occu": 1 }],
        "abc": [0.653749399999999, 0.16757109, 0.8780103300000001],
        "properties": { "magmom": -0.0 },
        "label": "Dy",
        "xyz": [4.883176538245498, 1.2668009841279346, 12.750807725100334]
      },
      {
        "species": [{ "element": "Dy", "occu": 1 }],
        "abc": [0.15376151, 0.33244435, 0.6219844800000001],
        "properties": { "magmom": 0.0 },
        "label": "Dy",
        "xyz": [1.1485445415092859, 2.513109558710369, 9.032700688699773]
      },
      {
        "species": [{ "element": "Dy", "occu": 1 }],
        "abc": [0.49932916, 0.67979207, 0.59397807],
        "properties": { "magmom": -0.0 },
        "label": "Dy",
        "xyz": [3.7297808855955896, 5.138896740395535, 8.625980702865064]
      },
      {
        "species": [{ "element": "Dy", "occu": 1 }],
        "abc": [0.99932728, 0.82018541, 0.90602198],
        "properties": { "magmom": -0.0 },
        "label": "Dy",
        "xyz": [7.46451432383829, 6.200235781318026, 13.157603808254397]
      },
      {
        "species": [{ "element": "Dy", "occu": 1 }],
        "abc": [0.5006708400000001, 0.32020793000000003, 0.09397807],
        "properties": { "magmom": -0.0 },
        "label": "Dy",
        "xyz": [3.739773044404411, 2.4206385096044643, 1.3647861078650634]
      },
      {
        "species": [{ "element": "Dy", "occu": 1 }],
        "abc": [0.00067272, 0.17981459, 0.40602198],
        "properties": { "magmom": -0.0 },
        "label": "Dy",
        "xyz": [0.0050396061617109, 1.3592994686819733, 5.896409213254397]
      },
      {
        "species": [{ "element": "Dy", "occu": 1 }],
        "abc": [0.5006708400000001, 0.32020793000000003, 0.40602193000000003],
        "properties": { "magmom": -0.0 },
        "label": "Dy",
        "xyz": [3.739773044404411, 2.4206385096044643, 5.896408487134937]
      },
      {
        "species": [{ "element": "Dy", "occu": 1 }],
        "abc": [0.00067272, 0.17981459, 0.09397802],
        "properties": { "magmom": -0.0 },
        "label": "Dy",
        "xyz": [0.0050396061617109, 1.3592994686819733, 1.3647853817456037]
      },
      {
        "species": [{ "element": "Dy", "occu": 1 }],
        "abc": [0.49932916, 0.67979207, 0.90602193],
        "properties": { "magmom": -0.0 },
        "label": "Dy",
        "xyz": [3.7297808855955896, 5.138896740395535, 13.157603082134937]
      },
      {
        "species": [{ "element": "Dy", "occu": 1 }],
        "abc": [0.99932728, 0.82018541, 0.59397802],
        "properties": { "magmom": -0.0 },
        "label": "Dy",
        "xyz": [7.46451432383829, 6.200235781318026, 8.625979976745604]
      },
      {
        "species": [{ "element": "Dy", "occu": 1 }],
        "abc": [0.81566607, 0.51171037, 0.75],
        "properties": { "magmom": 0.0 },
        "label": "Dy",
        "xyz": [6.092636777408312, 3.8683184768311825, 10.8917918925]
      },
      {
        "species": [{ "element": "Dy", "occu": 1 }],
        "abc": [0.31566047, 0.9882706800000001, 0.75],
        "properties": { "magmom": 0.0 },
        "label": "Dy",
        "xyz": [2.357898051545265, 7.470809735611578, 10.8917918925]
      },
      {
        "species": [{ "element": "Dy", "occu": 1 }],
        "abc": [0.18433393, 0.48828963000000003, 0.25],
        "properties": { "magmom": 0.0 },
        "label": "Dy",
        "xyz": [1.376917152591688, 3.6912167731688172, 3.6305972975]
      },
      {
        "species": [{ "element": "Dy", "occu": 1 }],
        "abc": [0.68433953, 0.01172932, 0.25],
        "properties": { "magmom": 0.0 },
        "label": "Dy",
        "xyz": [5.1116558784547355, 0.088725514388422, 3.6305972975]
      },
      {
        "species": [{ "element": "Pt", "occu": 1 }],
        "abc": [0.6857653300000001, 0.96796223, 0.45840076],
        "properties": { "magmom": -0.0 },
        "label": "Pt",
        "xyz": [5.122384253083078, 7.317320555177727, 6.6570742417117845]
      },
      {
        "species": [{ "element": "Pt", "occu": 1 }],
        "abc": [0.18577167, 0.53205722, 0.0415863],
        "properties": { "magmom": -0.0 },
        "label": "Pt",
        "xyz": [1.3876598996834075, 4.022075806078145, 0.603932433572097]
      },
      {
        "species": [{ "element": "Pt", "occu": 1 }],
        "abc": [0.31423467, 0.03203777, 0.9584007600000001],
        "properties": { "magmom": -0.0 },
        "label": "Pt",
        "xyz": [2.347169676916922, 0.24221469482227248, 13.918268836711785]
      },
      {
        "species": [{ "element": "Pt", "occu": 1 }],
        "abc": [0.8142283300000001, 0.46794278, 0.5415863],
        "properties": { "magmom": -0.0 },
        "label": "Pt",
        "xyz": [6.081894030316593, 3.537459443921855, 7.865127028572097]
      },
      {
        "species": [{ "element": "Pt", "occu": 1 }],
        "abc": [0.31423467, 0.03203777, 0.54159924],
        "properties": { "magmom": -0.0 },
        "label": "Pt",
        "xyz": [2.347169676916922, 0.24221469482227248, 7.8653149482882165]
      },
      {
        "species": [{ "element": "Pt", "occu": 1 }],
        "abc": [0.8142283300000001, 0.46794278, 0.958413699999999],
        "properties": { "magmom": -0.0 },
        "label": "Pt",
        "xyz": [6.081894030316593, 3.537459443921855, 13.91845675642789]
      },
      {
        "species": [{ "element": "Pt", "occu": 1 }],
        "abc": [0.6857653300000001, 0.96796223, 0.04159924],
        "properties": { "magmom": -0.0 },
        "label": "Pt",
        "xyz": [5.122384253083078, 7.317320555177727, 0.6041203532882157]
      },
      {
        "species": [{ "element": "Pt", "occu": 1 }],
        "abc": [0.18577167, 0.53205722, 0.4584137],
        "properties": { "magmom": -0.0 },
        "label": "Pt",
        "xyz": [1.3876598996834075, 4.022075806078145, 6.657262161427902]
      },
      {
        "species": [{ "element": "Pt", "occu": 1 }],
        "abc": [0.44968331, 0.38662534, 0.75],
        "properties": { "magmom": -0.0 },
        "label": "Pt",
        "xyz": [3.358928565342948, 2.9227132588122786, 10.8917918925]
      },
      {
        "species": [{ "element": "Pt", "occu": 1 }],
        "abc": [0.94967964, 0.11341082, 0.75],
        "properties": { "magmom": -0.0 },
        "label": "Pt",
        "xyz": [7.093614721522434, 0.8574043416248689, 10.8917918925]
      },
      {
        "species": [{ "element": "Pt", "occu": 1 }],
        "abc": [0.55031669, 0.61337466, 0.25],
        "properties": { "magmom": -0.0 },
        "label": "Pt",
        "xyz": [4.110625364657053, 4.63682199118772, 3.6305972975]
      },
      {
        "species": [{ "element": "Pt", "occu": 1 }],
        "abc": [0.05032036, 0.88658918, 0.25],
        "properties": { "magmom": -0.0 },
        "label": "Pt",
        "xyz": [0.3759392084775666, 6.702130908375131, 3.6305972975]
      },
      {
        "species": [{ "element": "Pt", "occu": 1 }],
        "abc": [0.68282416, 0.85888145, 0.75],
        "properties": { "magmom": -0.0 },
        "label": "Pt",
        "xyz": [5.100406322764156, 6.492729596765004, 10.8917918925]
      },
      {
        "species": [{ "element": "Pt", "occu": 1 }],
        "abc": [0.1827926, 0.64110836, 0.75],
        "properties": { "magmom": -0.0 },
        "label": "Pt",
        "xyz": [1.3654167610140804, 4.8464421979869385, 10.8917918925]
      },
      {
        "species": [{ "element": "Pt", "occu": 1 }],
        "abc": [0.31717584, 0.14111855, 0.25],
        "properties": { "magmom": -0.0 },
        "label": "Pt",
        "xyz": [2.369147607235844, 1.0668056532349954, 3.6305972975]
      },
      {
        "species": [{ "element": "Pt", "occu": 1 }],
        "abc": [0.817207399999999, 0.35889164, 0.25],
        "properties": { "magmom": -0.0 },
        "label": "Pt",
        "xyz": [6.104137168985912, 2.7130930520130616, 3.6305972975]
      }
    ]
  },
  "task_ids": null,
  "uncorrected_energy_per_atom": null,
  "energy_per_atom": -41.93577985527778,
  "formation_energy_per_atom": -1.284681663611107,
  "energy_above_hull": 0.008831197500001001,
  "is_stable": false,
  "equilibrium_reaction_energy_per_atom": null,
  "decomposes_to": null,
  "xas": null,
  "grain_boundaries": null,
  "band_gap": 0.0,
  "cbm": null,
  "vbm": null,
  "efermi": 4.79249072,
  "is_gap_direct": null,
  "is_metal": null,
  "es_source_calc_id": null,
  "bandstructure": null,
  "dos": null,
  "dos_energy_up": null,
  "dos_energy_down": null,
  "is_magnetic": null,
  "ordering": null,
  "total_magnetization": 1e-6,
  "total_magnetization_normalized_vol": null,
  "total_magnetization_normalized_formula_units": null,
  "num_magnetic_sites": null,
  "num_unique_magnetic_sites": null,
  "types_of_magnetic_species": null,
  "bulk_modulus": null,
  "shear_modulus": null,
  "universal_anisotropy": null,
  "homogeneous_poisson": null,
  "e_total": null,
  "e_ionic": null,
  "e_electronic": null,
  "n": null,
  "e_ij_max": null,
  "weighted_surface_energy_EV_PER_ANG2": null,
  "weighted_surface_energy": null,
  "weighted_work_function": null,
  "surface_anisotropy": null,
  "shape_factor": null,
  "has_reconstructed": null,
  "possible_species": null,
  "has_props": null,
  "theoretical": null,
  "database_IDs": null,
  "fields_not_requested": [
    "builder_meta",
    "nsites",
    "elements",
    "nelements",
    "composition",
    "composition_reduced",
    "chemsys",
    "symmetry",
    "property_name",
    "deprecated",
    "deprecation_reasons",
    "last_updated",
    "origins",
    "warnings",
    "task_ids",
    "uncorrected_energy_per_atom",
    "equilibrium_reaction_energy_per_atom",
    "decomposes_to",
    "xas",
    "grain_boundaries",
    "cbm",
    "vbm",
    "is_gap_direct",
    "is_metal",
    "es_source_calc_id",
    "bandstructure",
    "dos",
    "dos_energy_up",
    "dos_energy_down",
    "is_magnetic",
    "ordering",
    "total_magnetization_normalized_vol",
    "total_magnetization_normalized_formula_units",
    "num_magnetic_sites",
    "num_unique_magnetic_sites",
    "types_of_magnetic_species",
    "bulk_modulus",
    "shear_modulus",
    "universal_anisotropy",
    "homogeneous_poisson",
    "e_total",
    "e_ionic",
    "e_electronic",
    "n",
    "e_ij_max",
    "weighted_surface_energy_EV_PER_ANG2",
    "weighted_surface_energy",
    "weighted_work_function",
    "surface_anisotropy",
    "shape_factor",
    "has_reconstructed",
    "possible_species",
    "has_props",
    "theoretical",
    "database_IDs"
  ]
}
