{"builder_meta": null, "nsites": null, "elements": null, "nelements": null, "composition": null, "composition_reduced": null, "formula_pretty": "Dy5Pb4", "formula_anonymous": "A4B5", "chemsys": null, "volume": 1067.1066329402781, "density": 10.216196529491958, "density_atomic": 29.641850915007726, "symmetry": null, "property_name": null, "material_id": "mp-1199847", "deprecated": null, "deprecation_reasons": null, "last_updated": null, "origins": null, "warnings": null, "structure": {"@module": "pymatgen.core.structure", "@class": "Structure", "charge": 0, "lattice": {"matrix": [[-8.207078, 0.0, 0.0], [0.0, 0.0, -8.27695], [0.0, -15.709014, 0.0]], "pbc": [true, true, true], "a": 8.207078, "b": 8.27695, "c": 15.709014, "alpha": 90.0, "beta": 90.0, "gamma": 90.0, "volume": 1067.1066329402781}, "properties": {}, "sites": [{"species": [{"element": "Dy", "occu": 1}], "abc": [0.376374, 0.841169, 0.879474], "properties": {"magmom": 0.01}, "label": "Dy", "xyz": [-3.0889307751719994, -13.815669378635999, -6.962313754549999]}, {"species": [{"element": "Dy", "occu": 1}], "abc": [0.876374, 0.6588309999999991, 0.620526], "properties": {"magmom": 0.01}, "label": "Dy", "xyz": [-7.1924697751719995, -9.747851621364001, -5.453111245449992]}, {"species": [{"element": "Dy", "occu": 1}], "abc": [0.623626, 0.158831, 0.379474], "properties": {"magmom": 0.01}, "label": "Dy", "xyz": [-5.118147224827999, -5.961162378636, -1.3146362454499998]}, {"species": [{"element": "Dy", "occu": 1}], "abc": [0.123626, 0.341169, 0.120526], "properties": {"magmom": 0.01}, "label": "Dy", "xyz": [-1.014608224828, -1.893344621364, -2.8238387545499997]}, {"species": [{"element": "Dy", "occu": 1}], "abc": [0.623626, 0.158831, 0.120526], "properties": {"magmom": 0.01}, "label": "Dy", "xyz": [-5.118147224827999, -1.893344621364, -1.3146362454499998]}, {"species": [{"element": "Dy", "occu": 1}], "abc": [0.123626, 0.341169, 0.379474], "properties": {"magmom": 0.01}, "label": "Dy", "xyz": [-1.014608224828, -5.961162378636, -2.8238387545499997]}, {"species": [{"element": "Dy", "occu": 1}], "abc": [0.376374, 0.841169, 0.620526], "properties": {"magmom": 0.01}, "label": "Dy", "xyz": [-3.0889307751719994, -9.747851621364001, -6.962313754549999]}, {"species": [{"element": "Dy", "occu": 1}], "abc": [0.876374, 0.6588309999999991, 0.879474], "properties": {"magmom": 0.01}, "label": "Dy", "xyz": [-7.1924697751719995, -13.815669378635999, -5.453111245449992]}, {"species": [{"element": "Dy", "occu": 1}], "abc": [0.536355, 0.322988, 0.899872999999999], "properties": {"magmom": 0.005}, "label": "Dy", "xyz": [-4.4019073206899995, -14.136117555221984, -2.6733555266]}, {"species": [{"element": "Dy", "occu": 1}], "abc": [0.036355, 0.177012, 0.600127], "properties": {"magmom": 0.005}, "label": "Dy", "xyz": [-0.29836832068999997, -9.427403444778, -1.4651194734]}, {"species": [{"element": "Dy", "occu": 1}], "abc": [0.463645, 0.677012, 0.399873], "properties": {"magmom": 0.005}, "label": "Dy", "xyz": [-3.8051706793099993, -6.281610555222, -5.603594473399999]}, {"species": [{"element": "Dy", "occu": 1}], "abc": [0.963645, 0.822987999999999, 0.100127], "properties": {"magmom": 0.005}, "label": "Dy", "xyz": [-7.908709679309999, -1.5728964447779998, -6.811830526599992]}, {"species": [{"element": "Dy", "occu": 1}], "abc": [0.463645, 0.677012, 0.100127], "properties": {"magmom": 0.005}, "label": "Dy", "xyz": [-3.8051706793099993, -1.5728964447779998, -5.603594473399999]}, {"species": [{"element": "Dy", "occu": 1}], "abc": [0.963645, 0.822987999999999, 0.399873], "properties": {"magmom": 0.005}, "label": "Dy", "xyz": [-7.908709679309999, -6.281610555222, -6.811830526599992]}, {"species": [{"element": "Dy", "occu": 1}], "abc": [0.536355, 0.322988, 0.600127], "properties": {"magmom": 0.005}, "label": "Dy", "xyz": [-4.4019073206899995, -9.427403444778, -2.6733555266]}, {"species": [{"element": "Dy", "occu": 1}], "abc": [0.036355, 0.177012, 0.899872999999999], "properties": {"magmom": 0.005}, "label": "Dy", "xyz": [-0.29836832068999997, -14.136117555221984, -1.4651194734]}, {"species": [{"element": "Dy", "occu": 1}], "abc": [0.208381999999999, 0.504092, 0.75], "properties": {"magmom": 0.021}, "label": "Dy", "xyz": [-1.7102073277959917, -11.7817605, -4.1723442794]}, {"species": [{"element": "Dy", "occu": 1}], "abc": [0.708382, 0.9959079999999991, 0.75], "properties": {"magmom": 0.021}, "label": "Dy", "xyz": [-5.813746327795999, -11.7817605, -8.243080720599993]}, {"species": [{"element": "Dy", "occu": 1}], "abc": [0.791617999999999, 0.495907999999999, 0.25], "properties": {"magmom": 0.021}, "label": "Dy", "xyz": [-6.4968706722039915, -3.9272535, -4.1046057205999915]}, {"species": [{"element": "Dy", "occu": 1}], "abc": [0.291618, 0.004092, 0.25], "properties": {"magmom": 0.021}, "label": "Dy", "xyz": [-2.393331672204, -3.9272535, -0.0338692794]}, {"species": [{"element": "Pb", "occu": 1}], "abc": [0.281311, 0.03221, 0.042497], "properties": {"magmom": 0.002}, "label": "Pb", "xyz": [-2.3087413192579995, -0.667585967958, -0.2666005595]}, {"species": [{"element": "Pb", "occu": 1}], "abc": [0.781311, 0.46779000000000004, 0.457503], "properties": {"magmom": 0.002}, "label": "Pb", "xyz": [-6.412280319258, -7.186921032042, -3.8718744405]}, {"species": [{"element": "Pb", "occu": 1}], "abc": [0.718689, 0.96779, 0.542497], "properties": {"magmom": 0.002}, "label": "Pb", "xyz": [-5.898336680741999, -8.522092967958, -8.010349440499999]}, {"species": [{"element": "Pb", "occu": 1}], "abc": [0.218689, 0.5322100000000001, 0.957503], "properties": {"magmom": 0.002}, "label": "Pb", "xyz": [-1.7947976807419999, -15.041428032041999, -4.4050755595]}, {"species": [{"element": "Pb", "occu": 1}], "abc": [0.718689, 0.96779, 0.957503], "properties": {"magmom": 0.002}, "label": "Pb", "xyz": [-5.898336680741999, -15.041428032041999, -8.010349440499999]}, {"species": [{"element": "Pb", "occu": 1}], "abc": [0.218689, 0.5322100000000001, 0.542497], "properties": {"magmom": 0.002}, "label": "Pb", "xyz": [-1.7947976807419999, -8.522092967958, -4.4050755595]}, {"species": [{"element": "Pb", "occu": 1}], "abc": [0.281311, 0.03221, 0.457503], "properties": {"magmom": 0.002}, "label": "Pb", "xyz": [-2.3087413192579995, -7.186921032042, -0.2666005595]}, {"species": [{"element": "Pb", "occu": 1}], "abc": [0.781311, 0.46779000000000004, 0.042497], "properties": {"magmom": 0.002}, "label": "Pb", "xyz": [-6.412280319258, -0.667585967958, -3.8718744405]}, {"species": [{"element": "Pb", "occu": 1}], "abc": [0.5708, 0.626332999999999, 0.75], "properties": {"magmom": 0.004}, "label": "Pb", "xyz": [-4.684600122399999, -11.7817605, -5.184126924349991]}, {"species": [{"element": "Pb", "occu": 1}], "abc": [0.0708, 0.873667, 0.75], "properties": {"magmom": 0.004}, "label": "Pb", "xyz": [-0.5810611224, -11.7817605, -7.231298075649999]}, {"species": [{"element": "Pb", "occu": 1}], "abc": [0.4292, 0.373666999999999, 0.25], "properties": {"magmom": 0.004}, "label": "Pb", "xyz": [-3.5224778776, -3.9272535, -3.0928230756499917]}, {"species": [{"element": "Pb", "occu": 1}], "abc": [0.9292, 0.126333, 0.25], "properties": {"magmom": 0.004}, "label": "Pb", "xyz": [-7.6260168776, -3.9272535, -1.04565192435]}, {"species": [{"element": "Pb", "occu": 1}], "abc": [0.346423, 0.153142, 0.75], "properties": {"magmom": 0.003}, "label": "Pb", "xyz": [-2.8431205819939995, -11.7817605, -1.2675486769]}, {"species": [{"element": "Pb", "occu": 1}], "abc": [0.846422999999999, 0.346858, 0.75], "properties": {"magmom": 0.003}, "label": "Pb", "xyz": [-6.946659581993991, -11.7817605, -2.8709263231]}, {"species": [{"element": "Pb", "occu": 1}], "abc": [0.653577, 0.846858, 0.25], "properties": {"magmom": 0.003}, "label": "Pb", "xyz": [-5.363957418005999, -3.9272535, -7.0094013231]}, {"species": [{"element": "Pb", "occu": 1}], "abc": [0.153577, 0.653142, 0.25], "properties": {"magmom": 0.003}, "label": "Pb", "xyz": [-1.2604184180059999, -3.9272535, -5.406023676899999]}]}, "task_ids": null, "uncorrected_energy_per_atom": null, "energy_per_atom": -4.737796900277778, "formation_energy_per_atom": -0.521967353425922, "energy_above_hull": 0.0, "is_stable": true, "equilibrium_reaction_energy_per_atom": null, "decomposes_to": null, "xas": null, "grain_boundaries": null, "band_gap": 0.0, "cbm": null, "vbm": null, "efermi": 5.14330104, "is_gap_direct": null, "is_metal": null, "es_source_calc_id": null, "bandstructure": null, "dos": null, "dos_energy_up": null, "dos_energy_down": null, "is_magnetic": null, "ordering": null, "total_magnetization": 0.3790382, "total_magnetization_normalized_vol": null, "total_magnetization_normalized_formula_units": null, "num_magnetic_sites": null, "num_unique_magnetic_sites": null, "types_of_magnetic_species": null, "bulk_modulus": null, "shear_modulus": null, "universal_anisotropy": null, "homogeneous_poisson": null, "e_total": null, "e_ionic": null, "e_electronic": null, "n": null, "e_ij_max": null, "weighted_surface_energy_EV_PER_ANG2": null, "weighted_surface_energy": null, "weighted_work_function": null, "surface_anisotropy": null, "shape_factor": null, "has_reconstructed": null, "possible_species": null, "has_props": null, "theoretical": null, "database_IDs": null, "fields_not_requested": ["builder_meta", "nsites", "elements", "nelements", "composition", "composition_reduced", "chemsys", "symmetry", "property_name", "deprecated", "deprecation_reasons", "last_updated", "origins", "warnings", "task_ids", "uncorrected_energy_per_atom", "equilibrium_reaction_energy_per_atom", "decomposes_to", "xas", "grain_boundaries", "cbm", "vbm", "is_gap_direct", "is_metal", "es_source_calc_id", "bandstructure", "dos", "dos_energy_up", "dos_energy_down", "is_magnetic", "ordering", "total_magnetization_normalized_vol", "total_magnetization_normalized_formula_units", "num_magnetic_sites", "num_unique_magnetic_sites", "types_of_magnetic_species", "bulk_modulus", "shear_modulus", "universal_anisotropy", "homogeneous_poisson", "e_total", "e_ionic", "e_electronic", "n", "e_ij_max", "weighted_surface_energy_EV_PER_ANG2", "weighted_surface_energy", "weighted_work_function", "surface_anisotropy", "shape_factor", "has_reconstructed", "possible_species", "has_props", "theoretical", "database_IDs"]}