{"builder_meta": null, "nsites": null, "elements": null, "nelements": null, "composition": null, "composition_reduced": null, "formula_pretty": "Dy5Pb3", "formula_anonymous": "A3B5", "chemsys": null, "volume": 464.8509350226317, "density": 10.24577513346346, "density_atomic": 29.05318343891448, "symmetry": null, "property_name": null, "material_id": "mp-569760", "deprecated": null, "deprecation_reasons": null, "last_updated": null, "origins": null, "warnings": null, "structure": {"@module": "pymatgen.core.structure", "@class": "Structure", "charge": 0, "lattice": {"matrix": [[8.99883347, -0.0, 0.0], [-4.49941674, 7.79321854, 0.0], [-0.0, -0.0, 6.628429459999999]], "pbc": [true, true, true], "a": 8.99883347, "b": 8.998833602883874, "c": 6.628429459999999, "alpha": 90.0, "beta": 90.0, "gamma": 119.99999954827858, "volume": 464.8509350226315}, "properties": {}, "sites": [{"species": [{"element": "Dy", "occu": 1}], "abc": [0.23770712, 0.23770712, 0.75], "properties": {"magmom": -0.0}, "label": "Dy", "xyz": [1.0695433925681173, 1.8525035346740046, 4.971322094999999]}, {"species": [{"element": "Dy", "occu": 1}], "abc": [0.23770712, 0.0, 0.25], "properties": {"magmom": -0.0}, "label": "Dy", "xyz": [2.139086787513306, 0.0, 1.6571073649999997]}, {"species": [{"element": "Dy", "occu": 1}], "abc": [0.333333, 0.666667, -0.0], "properties": {"magmom": -0.0}, "label": "Dy", "xyz": [-4.502750070134454e-06, 5.19548162440618, 0.0]}, {"species": [{"element": "Dy", "occu": 1}], "abc": [0.666667, 0.333333, -0.0], "properties": {"magmom": -0.0}, "label": "Dy", "xyz": [4.49942123275007, 2.5977369155938197, 0.0]}, {"species": [{"element": "Dy", "occu": 1}], "abc": [0.0, 0.7622928800000001, 0.75], "properties": {"magmom": -0.0}, "label": "Dy", "xyz": [-3.4298733450548116, 5.940715005325996, 4.971322094999999]}, {"species": [{"element": "Dy", "occu": 1}], "abc": [0.7622928800000001, 0.7622928800000001, 0.25], "properties": {"magmom": -0.0}, "label": "Dy", "xyz": [3.4298733374318817, 5.940715005325996, 1.6571073649999997]}, {"species": [{"element": "Dy", "occu": 1}], "abc": [-0.0, 0.23770712, 0.25], "properties": {"magmom": -0.0}, "label": "Dy", "xyz": [-1.0695433949451887, 1.8525035346740046, 1.6571073649999997]}, {"species": [{"element": "Dy", "occu": 1}], "abc": [0.7622928800000001, 0.0, 0.75], "properties": {"magmom": -0.0}, "label": "Dy", "xyz": [6.859746682486693, 0.0, 4.971322094999999]}, {"species": [{"element": "Dy", "occu": 1}], "abc": [0.333333, 0.666667, 0.5], "properties": {"magmom": -0.0}, "label": "Dy", "xyz": [-4.502750070134454e-06, 5.19548162440618, 3.3142147299999993]}, {"species": [{"element": "Dy", "occu": 1}], "abc": [0.666667, 0.333333, 0.5], "properties": {"magmom": -0.0}, "label": "Dy", "xyz": [4.49942123275007, 2.5977369155938197, 3.3142147299999993]}, {"species": [{"element": "Pb", "occu": 1}], "abc": [-0.0, 0.39376389, 0.75], "properties": {"magmom": 0.0}, "label": "Pb", "xyz": [-1.7717078382735187, 3.0686880479305207, 4.971322094999999]}, {"species": [{"element": "Pb", "occu": 1}], "abc": [0.39376389, 0.39376389, 0.25], "properties": {"magmom": 0.0}, "label": "Pb", "xyz": [1.7717078343358792, 3.0686880479305207, 1.6571073649999997]}, {"species": [{"element": "Pb", "occu": 1}], "abc": [0.60623611, 0.0, 0.25], "properties": {"magmom": 0.0}, "label": "Pb", "xyz": [5.455417797390601, 0.0, 1.6571073649999997]}, {"species": [{"element": "Pb", "occu": 1}], "abc": [0.60623611, 0.60623611, 0.75], "properties": {"magmom": 0.0}, "label": "Pb", "xyz": [2.72770889566412, 4.724530492069479, 4.971322094999999]}, {"species": [{"element": "Pb", "occu": 1}], "abc": [0.39376389, 0.0, 0.75], "properties": {"magmom": 0.0}, "label": "Pb", "xyz": [3.543415672609398, 0.0, 4.971322094999999]}, {"species": [{"element": "Pb", "occu": 1}], "abc": [0.0, 0.60623611, 0.25], "properties": {"magmom": 0.0}, "label": "Pb", "xyz": [-2.7277089017264813, 4.724530492069479, 1.6571073649999997]}]}, "task_ids": null, "uncorrected_energy_per_atom": null, "energy_per_atom": -4.807685135, "formation_energy_per_atom": -0.528957778541662, "energy_above_hull": 0.0, "is_stable": true, "equilibrium_reaction_energy_per_atom": null, "decomposes_to": null, "xas": null, "grain_boundaries": null, "band_gap": 0.0, "cbm": null, "vbm": null, "efermi": 4.94365687, "is_gap_direct": null, "is_metal": null, "es_source_calc_id": null, "bandstructure": null, "dos": null, "dos_energy_up": null, "dos_energy_down": null, "is_magnetic": null, "ordering": null, "total_magnetization": 0.0006232, "total_magnetization_normalized_vol": null, "total_magnetization_normalized_formula_units": null, "num_magnetic_sites": null, "num_unique_magnetic_sites": null, "types_of_magnetic_species": null, "bulk_modulus": null, "shear_modulus": null, "universal_anisotropy": null, "homogeneous_poisson": null, "e_total": null, "e_ionic": null, "e_electronic": null, "n": null, "e_ij_max": null, "weighted_surface_energy_EV_PER_ANG2": null, "weighted_surface_energy": null, "weighted_work_function": null, "surface_anisotropy": null, "shape_factor": null, "has_reconstructed": null, "possible_species": null, "has_props": null, "theoretical": null, "database_IDs": null, "fields_not_requested": ["builder_meta", "nsites", "elements", "nelements", "composition", "composition_reduced", "chemsys", "symmetry", "property_name", "deprecated", "deprecation_reasons", "last_updated", "origins", "warnings", "task_ids", "uncorrected_energy_per_atom", "equilibrium_reaction_energy_per_atom", "decomposes_to", "xas", "grain_boundaries", "cbm", "vbm", "is_gap_direct", "is_metal", "es_source_calc_id", "bandstructure", "dos", "dos_energy_up", "dos_energy_down", "is_magnetic", "ordering", "total_magnetization_normalized_vol", "total_magnetization_normalized_formula_units", "num_magnetic_sites", "num_unique_magnetic_sites", "types_of_magnetic_species", "bulk_modulus", "shear_modulus", "universal_anisotropy", "homogeneous_poisson", "e_total", "e_ionic", "e_electronic", "n", "e_ij_max", "weighted_surface_energy_EV_PER_ANG2", "weighted_surface_energy", "weighted_work_function", "surface_anisotropy", "shape_factor", "has_reconstructed", "possible_species", "has_props", "theoretical", "database_IDs"]}