{
  "builder_meta": null,
  "nsites": null,
  "elements": null,
  "nelements": null,
  "composition": null,
  "composition_reduced": null,
  "formula_pretty": "Dy5Rh3",
  "formula_anonymous": "A3B5",
  "chemsys": null,
  "volume": 374.1432223027839,
  "density": 9.952465737090355,
  "density_atomic": 23.383951393923994,
  "symmetry": null,
  "property_name": null,
  "material_id": "mp-1188653",
  "deprecated": null,
  "deprecation_reasons": null,
  "last_updated": null,
  "origins": null,
  "warnings": null,
  "structure": {
    "@module": "pymatgen.core.structure",
    "@class": "Structure",
    "charge": 0,
    "lattice": {
      "matrix": [
        [0.0, 0.0, -6.281151],
        [-4.147799, -7.184198, 0.0],
        [-4.144543, 7.182318, 0.0]
      ],
      "pbc": [true, true, true],
      "a": 6.281151,
      "b": 8.295597473817361,
      "c": 8.29234155905152,
      "alpha": 120.01298409885743,
      "beta": 90.0,
      "gamma": 90.0,
      "volume": 374.1432223027839
    },
    "properties": {},
    "sites": [
      {
        "species": [{ "element": "Dy", "occu": 1 }],
        "abc": [0.499998999999999, 0.333337999999999, 0.666696],
        "properties": { "magmom": -0.0 },
        "label": "Dy",
        "xyz": [-4.145769262989996, 2.393656488404007, -3.140569218848994]
      },
      {
        "species": [{ "element": "Dy", "occu": 1 }],
        "abc": [0.499998999999999, 0.666642, 0.333304],
        "properties": { "magmom": -0.0 },
        "label": "Dy",
        "xyz": [-4.14648978103, -2.395392804444, -3.140569218848994]
      },
      {
        "species": [{ "element": "Dy", "occu": 1 }],
        "abc": [0.999999, 0.666662, 0.333304],
        "properties": { "magmom": 0.001 },
        "label": "Dy",
        "xyz": [-4.14657273701, -2.3955364884040002, -6.281144718849]
      },
      {
        "species": [{ "element": "Dy", "occu": 1 }],
        "abc": [0.999999, 0.333358, 0.666696],
        "properties": { "magmom": 0.001 },
        "label": "Dy",
        "xyz": [-4.145852218969999, 2.393512804444, -6.281144718849]
      },
      {
        "species": [{ "element": "Dy", "occu": 1 }],
        "abc": [0.750019, 0.255490999999999, 0.0],
        "properties": { "magmom": -0.002 },
        "label": "Dy",
        "xyz": [-1.059725314308996, -1.835497931217993, -4.7109825918690005]
      },
      {
        "species": [{ "element": "Dy", "occu": 1 }],
        "abc": [0.749988, 0.744510999999999, 0.744528],
        "properties": { "magmom": -0.002 },
        "label": "Dy",
        "xyz": [-6.173810291992996, -0.0012775812739933556, -4.710787876188]
      },
      {
        "species": [{ "element": "Dy", "occu": 1 }],
        "abc": [0.749988, 0.999981999999999, 0.255472],
        "properties": { "magmom": -0.002 },
        "label": "Dy",
        "xyz": [-5.206539028913996, -5.349187540339993, -4.710787876188]
      },
      {
        "species": [{ "element": "Dy", "occu": 1 }],
        "abc": [0.250019, 0.744509, 0.0],
        "properties": { "magmom": 0.003 },
        "label": "Dy",
        "xyz": [-3.088073685691, -5.348700068782, -1.570407091869]
      },
      {
        "species": [{ "element": "Dy", "occu": 1 }],
        "abc": [0.249988, 0.255488999999999, 0.255472],
        "properties": { "magmom": 0.002 },
        "label": "Dy",
        "xyz": [-2.1185317080069956, -0.0006024187259929814, -1.570212376188]
      },
      {
        "species": [{ "element": "Dy", "occu": 1 }],
        "abc": [0.249988, 1.8e-5, 0.744528],
        "properties": { "magmom": 0.002 },
        "label": "Dy",
        "xyz": [-3.0858029710859993, 5.34730754034, -1.570212376188]
      },
      {
        "species": [{ "element": "Rh", "occu": 1 }],
        "abc": [0.75, 0.607294, 0.0],
        "properties": { "magmom": 0.001 },
        "label": "Rh",
        "xyz": [-2.518933445906, -4.362920340212, -4.71086325]
      },
      {
        "species": [{ "element": "Rh", "occu": 1 }],
        "abc": [0.750004, 0.39279000000000003, 0.39281000000000005],
        "properties": { "magmom": -0.0 },
        "label": "Rh",
        "xyz": [-3.2572319050400003, -0.0005947988399994664, -4.710888374604]
      },
      {
        "species": [{ "element": "Rh", "occu": 1 }],
        "abc": [0.750004, 0.9999800000000001, 0.60719],
        "properties": { "magmom": 0.0 },
        "label": "Rh",
        "xyz": [-6.66424110819, -2.8230226496200004, -4.710888374604]
      },
      {
        "species": [{ "element": "Rh", "occu": 1 }],
        "abc": [0.25, 0.392706, 0.0],
        "properties": { "magmom": -0.001 },
        "label": "Rh",
        "xyz": [-1.628865554094, -2.821277659788, -1.57028775]
      },
      {
        "species": [{ "element": "Rh", "occu": 1 }],
        "abc": [0.250004, 0.607209, 0.60719],
        "properties": { "magmom": -0.0 },
        "label": "Rh",
        "xyz": [-5.035105947161, -0.001278016961999917, -1.570312874604]
      },
      {
        "species": [{ "element": "Rh", "occu": 1 }],
        "abc": [0.250004, 2e-5, 0.39281000000000005],
        "properties": { "magmom": 0.0 },
        "label": "Rh",
        "xyz": [-1.62810089181, 2.8211426496200005, -1.570312874604]
      }
    ]
  },
  "task_ids": null,
  "uncorrected_energy_per_atom": null,
  "energy_per_atom": -6.358130348125,
  "formation_energy_per_atom": -0.710030191666662,
  "energy_above_hull": 0.011884476607141,
  "is_stable": false,
  "equilibrium_reaction_energy_per_atom": null,
  "decomposes_to": null,
  "xas": null,
  "grain_boundaries": null,
  "band_gap": 0.0,
  "cbm": null,
  "vbm": null,
  "efermi": 4.34107306,
  "is_gap_direct": null,
  "is_metal": null,
  "es_source_calc_id": null,
  "bandstructure": null,
  "dos": null,
  "dos_energy_up": null,
  "dos_energy_down": null,
  "is_magnetic": null,
  "ordering": null,
  "total_magnetization": 0.0054608,
  "total_magnetization_normalized_vol": null,
  "total_magnetization_normalized_formula_units": null,
  "num_magnetic_sites": null,
  "num_unique_magnetic_sites": null,
  "types_of_magnetic_species": null,
  "bulk_modulus": null,
  "shear_modulus": null,
  "universal_anisotropy": null,
  "homogeneous_poisson": null,
  "e_total": null,
  "e_ionic": null,
  "e_electronic": null,
  "n": null,
  "e_ij_max": null,
  "weighted_surface_energy_EV_PER_ANG2": null,
  "weighted_surface_energy": null,
  "weighted_work_function": null,
  "surface_anisotropy": null,
  "shape_factor": null,
  "has_reconstructed": null,
  "possible_species": null,
  "has_props": null,
  "theoretical": null,
  "database_IDs": null,
  "fields_not_requested": [
    "builder_meta",
    "nsites",
    "elements",
    "nelements",
    "composition",
    "composition_reduced",
    "chemsys",
    "symmetry",
    "property_name",
    "deprecated",
    "deprecation_reasons",
    "last_updated",
    "origins",
    "warnings",
    "task_ids",
    "uncorrected_energy_per_atom",
    "equilibrium_reaction_energy_per_atom",
    "decomposes_to",
    "xas",
    "grain_boundaries",
    "cbm",
    "vbm",
    "is_gap_direct",
    "is_metal",
    "es_source_calc_id",
    "bandstructure",
    "dos",
    "dos_energy_up",
    "dos_energy_down",
    "is_magnetic",
    "ordering",
    "total_magnetization_normalized_vol",
    "total_magnetization_normalized_formula_units",
    "num_magnetic_sites",
    "num_unique_magnetic_sites",
    "types_of_magnetic_species",
    "bulk_modulus",
    "shear_modulus",
    "universal_anisotropy",
    "homogeneous_poisson",
    "e_total",
    "e_ionic",
    "e_electronic",
    "n",
    "e_ij_max",
    "weighted_surface_energy_EV_PER_ANG2",
    "weighted_surface_energy",
    "weighted_work_function",
    "surface_anisotropy",
    "shape_factor",
    "has_reconstructed",
    "possible_species",
    "has_props",
    "theoretical",
    "database_IDs"
  ]
}
