{"builder_meta": null, "nsites": null, "elements": null, "nelements": null, "composition": null, "composition_reduced": null, "formula_pretty": "Dy5Ru2", "formula_anonymous": "A2B5", "chemsys": null, "volume": 355.7555950554386, "density": 9.471948618390487, "density_atomic": 25.41111393253133, "symmetry": null, "property_name": null, "material_id": "mp-30622", "deprecated": null, "deprecation_reasons": null, "last_updated": null, "origins": null, "warnings": null, "structure": {"@module": "pymatgen.core.structure", "@class": "Structure", "charge": 0, "lattice": {"matrix": [[5.87617231, 0.00013106, -2.35840587], [-0.34093591, 7.16233991, -0.84833609], [-0.01194868, 0.004758099999999, 8.45696513]], "pbc": [true, true, true], "a": 6.331783262370713, "b": 7.220458739076267, "c": 8.456974909535043, "alpha": 96.7112453856369, "beta": 111.94904105554558, "gamma": 90.0021789248909, "volume": 355.7555950554386}, "properties": {}, "sites": [{"species": [{"element": "Dy", "occu": 1}], "abc": [0.9799252700000001, 0.41288256, 0.18691483], "properties": {"magmom": 0.0}, "label": "Dy", "xyz": [5.615209860635621, 2.9582230260894784, -1.0805924859190477]}, {"species": [{"element": "Dy", "occu": 1}], "abc": [0.7931678600000001, 0.08694003, 0.8130465], "properties": {"magmom": -0.0}, "label": "Dy", "xyz": [4.62143520541686, 0.6266665557769782, 4.9315397975345245]}, {"species": [{"element": "Dy", "occu": 1}], "abc": [0.358041699999999, 0.68548884, 0.56691957], "properties": {"magmom": 0.0}, "label": "Dy", "xyz": [1.8634330213774093, 4.912448461542824, 3.368486465755582]}, {"species": [{"element": "Dy", "occu": 1}], "abc": [0.79126692, 0.814340699999999, 0.43285314], "properties": {"magmom": 0.0}, "label": "Dy", "xyz": [4.366810753861594, 5.8347481579153, 1.103660757160326]}, {"species": [{"element": "Dy", "occu": 1}], "abc": [0.6419583, 0.31451116, 0.43308043], "properties": {"magmom": 0.0}, "label": "Dy", "xyz": [3.659854698622585, 2.2547806084571764, 1.8817367042444206]}, {"species": [{"element": "Dy", "occu": 1}], "abc": [0.20873308000000002, 0.1856593, 0.56714686], "properties": {"magmom": 0.0}, "label": "Dy", "xyz": [1.1564769661384071, 1.3324809120846934, 4.146562412839676]}, {"species": [{"element": "Dy", "occu": 1}], "abc": [0.20683214, 0.91305997, 0.1869535], "properties": {"magmom": -0.0}, "label": "Dy", "xyz": [0.9018525145831408, 6.540562514223022, 0.31868337246547584]}, {"species": [{"element": "Dy", "occu": 1}], "abc": [0.02007473, 0.58711744, 0.81308517], "properties": {"magmom": 0.0}, "label": "Dy", "xyz": [-0.0919221406356197, 4.20900604391052, 6.330815655919047]}, {"species": [{"element": "Dy", "occu": 1}], "abc": [0.42162511, 0.25000209, 6.055e-05], "properties": {"magmom": -0.0}, "label": "Dy", "xyz": [2.3923063830340783, 1.7906554930802836, -1.2059368606472023]}, {"species": [{"element": "Dy", "occu": 1}], "abc": [0.57837489, 0.74999791, 0.9999394500000001], "properties": {"magmom": -0.0}, "label": "Dy", "xyz": [3.130981336965922, 5.376573576919716, 6.456160030647204]}, {"species": [{"element": "Ru", "occu": 1}], "abc": [0.60555663, 0.42509446, 0.77802004], "properties": {"magmom": -0.0}, "label": "Ru", "xyz": [3.4041288222953097, 3.0484522777821494, 4.790917065834726]}, {"species": [{"element": "Ru", "occu": 1}], "abc": [0.82703174, 0.07486676, 0.22172613], "properties": {"magmom": -0.0}, "label": "Ru", "xyz": [4.831606908554759, 0.5373845689593888, -0.13885853492183542]}, {"species": [{"element": "Ru", "occu": 1}], "abc": [0.39444437, 0.57490554, 0.22197996], "properties": {"magmom": -0.0}, "label": "Ru", "xyz": [2.1191647738770003, 4.11877679234891, 0.45930374575940447]}, {"species": [{"element": "Ru", "occu": 1}], "abc": [0.17296826, 0.92513324, 0.77827387], "properties": {"magmom": -0.0}, "label": "Ru", "xyz": [0.6916808114452407, 6.629844501040609, 5.389081704921836]}]}, "task_ids": null, "uncorrected_energy_per_atom": null, "energy_per_atom": -6.297673039285712, "formation_energy_per_atom": -0.34900407904761305, "energy_above_hull": 0.0, "is_stable": true, "equilibrium_reaction_energy_per_atom": null, "decomposes_to": null, "xas": null, "grain_boundaries": null, "band_gap": 0.0, "cbm": null, "vbm": null, "efermi": 3.9772623400000002, "is_gap_direct": null, "is_metal": null, "es_source_calc_id": null, "bandstructure": null, "dos": null, "dos_energy_up": null, "dos_energy_down": null, "is_magnetic": null, "ordering": null, "total_magnetization": 1e-07, "total_magnetization_normalized_vol": null, "total_magnetization_normalized_formula_units": null, "num_magnetic_sites": null, "num_unique_magnetic_sites": null, "types_of_magnetic_species": null, "bulk_modulus": null, "shear_modulus": null, "universal_anisotropy": null, "homogeneous_poisson": null, "e_total": null, "e_ionic": null, "e_electronic": null, "n": null, "e_ij_max": null, "weighted_surface_energy_EV_PER_ANG2": null, "weighted_surface_energy": null, "weighted_work_function": null, "surface_anisotropy": null, "shape_factor": null, "has_reconstructed": null, "possible_species": null, "has_props": null, "theoretical": null, "database_IDs": null, "fields_not_requested": ["builder_meta", "nsites", "elements", "nelements", "composition", "composition_reduced", "chemsys", "symmetry", "property_name", "deprecated", "deprecation_reasons", "last_updated", "origins", "warnings", "task_ids", "uncorrected_energy_per_atom", "equilibrium_reaction_energy_per_atom", "decomposes_to", "xas", "grain_boundaries", "cbm", "vbm", "is_gap_direct", "is_metal", "es_source_calc_id", "bandstructure", "dos", "dos_energy_up", "dos_energy_down", "is_magnetic", "ordering", "total_magnetization_normalized_vol", "total_magnetization_normalized_formula_units", "num_magnetic_sites", "num_unique_magnetic_sites", "types_of_magnetic_species", "bulk_modulus", "shear_modulus", "universal_anisotropy", "homogeneous_poisson", "e_total", "e_ionic", "e_electronic", "n", "e_ij_max", "weighted_surface_energy_EV_PER_ANG2", "weighted_surface_energy", "weighted_work_function", "surface_anisotropy", "shape_factor", "has_reconstructed", "possible_species", "has_props", "theoretical", "database_IDs"]}