{
  "builder_meta": null,
  "nsites": null,
  "elements": null,
  "nelements": null,
  "composition": null,
  "composition_reduced": null,
  "formula_pretty": "Dy5Sn3",
  "formula_anonymous": "A3B5",
  "chemsys": null,
  "volume": 452.8304260067234,
  "density": 8.570783489587978,
  "density_atomic": 28.301901625420214,
  "symmetry": null,
  "property_name": null,
  "material_id": "mp-30623",
  "deprecated": null,
  "deprecation_reasons": null,
  "last_updated": null,
  "origins": null,
  "warnings": null,
  "structure": {
    "@module": "pymatgen.core.structure",
    "@class": "Structure",
    "charge": 0,
    "lattice": {
      "matrix": [
        [8.92765376, -3.339999999999999e-6, 0.0],
        [-4.46382995, 7.73157584, 0.0],
        [0.0, 0.0, 6.56040022]
      ],
      "pbc": [true, true, true],
      "a": 8.927653760000625,
      "b": 8.927656063726285,
      "c": 6.56040022,
      "alpha": 90.0,
      "beta": 90.0,
      "gamma": 120.00003564999287,
      "volume": 452.8304260067234
    },
    "properties": {},
    "sites": [
      {
        "species": [{ "element": "Dy", "occu": 1 }],
        "abc": [4.139999999999998e-6, 0.76106168, 0.75],
        "properties": { "magmom": 0.0 },
        "label": "Dy",
        "xyz": [-3.3972129604947496, 5.884206097823983, 4.9203001650000004]
      },
      {
        "species": [{ "element": "Dy", "occu": 1 }],
        "abc": [0.9999958600000001, 0.23893832, 0.25],
        "properties": { "magmom": 0.0 },
        "label": "Dy",
        "xyz": [7.861036770494749, 1.8473664021760166, 1.640100055]
      },
      {
        "species": [{ "element": "Dy", "occu": 1 }],
        "abc": [0.7610578100000001, 0.7610597, 0.25],
        "properties": { "magmom": 0.0 },
        "label": "Dy",
        "xyz": [3.3972195364258506, 5.884188247384563, 1.640100055]
      },
      {
        "species": [{ "element": "Dy", "occu": 1 }],
        "abc": [0.76106076, 1.99e-6, 0.75],
        "properties": { "magmom": 0.0 },
        "label": "Dy",
        "xyz": [6.794478072580858, 1.28438929832e-5, 4.9203001650000004]
      },
      {
        "species": [{ "element": "Dy", "occu": 1 }],
        "abc": [0.23894219, 0.2389403, 0.75],
        "properties": { "magmom": 0.0 },
        "label": "Dy",
        "xyz": [1.0666042735741492, 1.8473842526154374, 4.9203001650000004]
      },
      {
        "species": [{ "element": "Dy", "occu": 1 }],
        "abc": [0.23893924, 0.99999801, 0.25],
        "properties": { "magmom": 0.0 },
        "label": "Dy",
        "xyz": [-2.3306542625808566, 7.731559656107017, 1.640100055]
      },
      {
        "species": [{ "element": "Dy", "occu": 1 }],
        "abc": [0.33333304, 0.66666683, 0.50000061],
        "properties": { "magmom": 0.0 },
        "label": "Dy",
        "xyz": [-5.394537327951809e-6, 5.154384042825034, 3.280204111844134]
      },
      {
        "species": [{ "element": "Dy", "occu": 1 }],
        "abc": [0.66666696, 0.33333317, 6.1e-7],
        "properties": { "magmom": 0.0 },
        "label": "Dy",
        "xyz": [4.463829204537328, 2.5771884571749664, 4.0018441341999995e-6]
      },
      {
        "species": [{ "element": "Dy", "occu": 1 }],
        "abc": [0.66666696, 0.33333317, 0.49999939],
        "properties": { "magmom": 0.0 },
        "label": "Dy",
        "xyz": [4.463829204537328, 2.5771884571749664, 3.2801961081558657]
      },
      {
        "species": [{ "element": "Dy", "occu": 1 }],
        "abc": [0.33333304, 0.66666683, -6.1e-7],
        "properties": { "magmom": 0.0 },
        "label": "Dy",
        "xyz": [
          -5.394537327951809e-6, 5.154384042825034, -4.0018441341999995e-6
        ]
      },
      {
        "species": [{ "element": "Sn", "occu": 1 }],
        "abc": [0.39392074, 9.1e-7, 0.75],
        "properties": { "magmom": -0.0 },
        "label": "Sn",
        "xyz": [3.516783913517728, 5.7200387428e-6, 4.9203001650000004]
      },
      {
        "species": [{ "element": "Sn", "occu": 1 }],
        "abc": [0.39391867, 0.39391897000000003, 0.25],
        "properties": { "magmom": -0.0 },
        "label": "Sn",
        "xyz": [1.758382199200548, 3.0456130756813273, 1.640100055]
      },
      {
        "species": [{ "element": "Sn", "occu": 1 }],
        "abc": [-1.739999999999999e-6, 0.60607981, 0.25],
        "properties": { "magmom": -0.0 },
        "label": "Sn",
        "xyz": [-2.705452742085852, 4.6859520161136015, 1.640100055]
      },
      {
        "species": [{ "element": "Sn", "occu": 1 }],
        "abc": [1.739999999999999e-6, 0.39392019, 0.75],
        "properties": { "magmom": -0.0 },
        "label": "Sn",
        "xyz": [-1.7583772079141482, 3.0456238238863977, 4.9203001650000004]
      },
      {
        "species": [{ "element": "Sn", "occu": 1 }],
        "abc": [0.60608133, 0.60608103, 0.75],
        "properties": { "magmom": -0.0 },
        "label": "Sn",
        "xyz": [2.7054416107994523, 4.685959424318673, 4.9203001650000004]
      },
      {
        "species": [{ "element": "Sn", "occu": 1 }],
        "abc": [0.60607926, -9.1e-7, 0.25],
        "properties": { "magmom": -0.0 },
        "label": "Sn",
        "xyz": [5.410869846482273, -9.060038742799999e-6, 1.640100055]
      }
    ]
  },
  "task_ids": null,
  "uncorrected_energy_per_atom": null,
  "energy_per_atom": -5.1029790706250004,
  "formation_energy_per_atom": -0.712904919791663,
  "energy_above_hull": 0.0,
  "is_stable": true,
  "equilibrium_reaction_energy_per_atom": null,
  "decomposes_to": null,
  "xas": null,
  "grain_boundaries": null,
  "band_gap": 0.0,
  "cbm": null,
  "vbm": null,
  "efermi": 4.96348072,
  "is_gap_direct": null,
  "is_metal": null,
  "es_source_calc_id": null,
  "bandstructure": null,
  "dos": null,
  "dos_energy_up": null,
  "dos_energy_down": null,
  "is_magnetic": null,
  "ordering": null,
  "total_magnetization": 0.0009163999999990001,
  "total_magnetization_normalized_vol": null,
  "total_magnetization_normalized_formula_units": null,
  "num_magnetic_sites": null,
  "num_unique_magnetic_sites": null,
  "types_of_magnetic_species": null,
  "bulk_modulus": null,
  "shear_modulus": null,
  "universal_anisotropy": null,
  "homogeneous_poisson": null,
  "e_total": null,
  "e_ionic": null,
  "e_electronic": null,
  "n": null,
  "e_ij_max": null,
  "weighted_surface_energy_EV_PER_ANG2": null,
  "weighted_surface_energy": null,
  "weighted_work_function": null,
  "surface_anisotropy": null,
  "shape_factor": null,
  "has_reconstructed": null,
  "possible_species": null,
  "has_props": null,
  "theoretical": null,
  "database_IDs": null,
  "fields_not_requested": [
    "builder_meta",
    "nsites",
    "elements",
    "nelements",
    "composition",
    "composition_reduced",
    "chemsys",
    "symmetry",
    "property_name",
    "deprecated",
    "deprecation_reasons",
    "last_updated",
    "origins",
    "warnings",
    "task_ids",
    "uncorrected_energy_per_atom",
    "equilibrium_reaction_energy_per_atom",
    "decomposes_to",
    "xas",
    "grain_boundaries",
    "cbm",
    "vbm",
    "is_gap_direct",
    "is_metal",
    "es_source_calc_id",
    "bandstructure",
    "dos",
    "dos_energy_up",
    "dos_energy_down",
    "is_magnetic",
    "ordering",
    "total_magnetization_normalized_vol",
    "total_magnetization_normalized_formula_units",
    "num_magnetic_sites",
    "num_unique_magnetic_sites",
    "types_of_magnetic_species",
    "bulk_modulus",
    "shear_modulus",
    "universal_anisotropy",
    "homogeneous_poisson",
    "e_total",
    "e_ionic",
    "e_electronic",
    "n",
    "e_ij_max",
    "weighted_surface_energy_EV_PER_ANG2",
    "weighted_surface_energy",
    "weighted_work_function",
    "surface_anisotropy",
    "shape_factor",
    "has_reconstructed",
    "possible_species",
    "has_props",
    "theoretical",
    "database_IDs"
  ]
}
