{"builder_meta": null, "nsites": null, "elements": null, "nelements": null, "composition": null, "composition_reduced": null, "formula_pretty": "Dy5S7", "formula_anonymous": "A5B7", "chemsys": null, "volume": 272.4796935923175, "density": 6.319385731483189, "density_atomic": 22.706641132693125, "symmetry": null, "property_name": null, "material_id": "mp-1103125", "deprecated": null, "deprecation_reasons": null, "last_updated": null, "origins": null, "warnings": null, "structure": {"@module": "pymatgen.core.structure", "@class": "Structure", "charge": 0, "lattice": {"matrix": [[0.0, -3.79728158, 0.0], [-6.19346076, 1.89864079, 1.63111395], [-0.01802329, 0.0, -11.58110465]], "pbc": [true, true, true], "a": 3.79728158, "b": 6.680144141633188, "c": 11.581118674516468, "alpha": 104.0477403564231, "beta": 90.0, "gamma": 106.51232133172472, "volume": 272.4796935923176}, "properties": {}, "sites": [{"species": [{"element": "Dy", "occu": 1}], "abc": [-0.0, -0.0, 0.0], "properties": {"magmom": -0.0}, "label": "Dy", "xyz": [0.0, 0.0, 0.0]}, {"species": [{"element": "Dy", "occu": 1}], "abc": [0.11169034, 0.22338367, 0.42142164], "properties": {"magmom": -0.0}, "label": "Dy", "xyz": [-1.3911133989997848, 5.6769359620956195e-06, -4.516163894275429]}, {"species": [{"element": "Dy", "occu": 1}], "abc": [0.88830966, 0.77661633, 0.57857836], "properties": {"magmom": -0.0}, "label": "Dy", "xyz": [-4.820370651000214, -1.8986464669359622, -5.43382680572457]}, {"species": [{"element": "Dy", "occu": 1}], "abc": [0.30044786, 0.60089673, 0.18797016], "properties": {"magmom": -0.0}, "label": "Dy", "xyz": [-3.725018158772341, 1.9176271979226556e-06, -1.1967710552248603]}, {"species": [{"element": "Dy", "occu": 1}], "abc": [0.69955214, 0.39910327, 0.81202984], "properties": {"magmom": -0.0}, "label": "Dy", "xyz": [-2.4864658912276587, -1.898642707627198, -8.75321964477514]}, {"species": [{"element": "S", "occu": 1}], "abc": [0.5, -0.0, 0.5], "properties": {"magmom": -0.0}, "label": "S", "xyz": [-0.009011645, -1.89864079, -5.790552325]}, {"species": [{"element": "S", "occu": 1}], "abc": [0.65899655, 0.31799311, 0.05117809], "properties": {"magmom": -0.0}, "label": "S", "xyz": [-1.9704002462930799, -1.898640771013592, -0.07401581835223392]}, {"species": [{"element": "S", "occu": 1}], "abc": [0.34100345, 0.68200689, 0.94882191], "properties": {"magmom": -0.0}, "label": "S", "xyz": [-4.24108380370692, -1.8986407779308934e-08, -9.875974881647767]}, {"species": [{"element": "S", "occu": 1}], "abc": [0.95881279, 0.91762258, 0.21501781], "properties": {"magmom": 0.0}, "label": "S", "xyz": [-5.687134770064755, -1.8986464859223702, -0.9933967681508256]}, {"species": [{"element": "S", "occu": 1}], "abc": [0.04118721, 0.08237742, 0.78498219], "properties": {"magmom": 0.0}, "label": "S", "xyz": [-0.5243492799352444, 5.695922370013706e-06, -8.956593931849175]}, {"species": [{"element": "S", "occu": 1}], "abc": [0.25920321, 0.51840841, 0.64741154], "properties": {"magmom": -0.0}, "label": "S", "xyz": [-3.222410630923758, 3.7782951721743174e-06, -6.652157607009341]}, {"species": [{"element": "S", "occu": 1}], "abc": [0.74079679, 0.48159159, 0.35258846], "properties": {"magmom": -0.0}, "label": "S", "xyz": [-2.989073419076242, -1.8986445682951723, -3.2978330929906585]}]}, "task_ids": null, "uncorrected_energy_per_atom": null, "energy_per_atom": -20.391597900833332, "formation_energy_per_atom": -2.378763759140625, "energy_above_hull": 0.0, "is_stable": true, "equilibrium_reaction_energy_per_atom": null, "decomposes_to": null, "xas": null, "grain_boundaries": null, "band_gap": 0.0, "cbm": null, "vbm": null, "efermi": 5.06236859, "is_gap_direct": null, "is_metal": null, "es_source_calc_id": null, "bandstructure": null, "dos": null, "dos_energy_up": null, "dos_energy_down": null, "is_magnetic": null, "ordering": null, "total_magnetization": 0.0, "total_magnetization_normalized_vol": null, "total_magnetization_normalized_formula_units": null, "num_magnetic_sites": null, "num_unique_magnetic_sites": null, "types_of_magnetic_species": null, "bulk_modulus": null, "shear_modulus": null, "universal_anisotropy": null, "homogeneous_poisson": null, "e_total": null, "e_ionic": null, "e_electronic": null, "n": null, "e_ij_max": null, "weighted_surface_energy_EV_PER_ANG2": null, "weighted_surface_energy": null, "weighted_work_function": null, "surface_anisotropy": null, "shape_factor": null, "has_reconstructed": null, "possible_species": null, "has_props": null, "theoretical": null, "database_IDs": null, "fields_not_requested": ["builder_meta", "nsites", "elements", "nelements", "composition", "composition_reduced", "chemsys", "symmetry", "property_name", "deprecated", "deprecation_reasons", "last_updated", "origins", "warnings", "task_ids", "uncorrected_energy_per_atom", "equilibrium_reaction_energy_per_atom", "decomposes_to", "xas", "grain_boundaries", "cbm", "vbm", "is_gap_direct", "is_metal", "es_source_calc_id", "bandstructure", "dos", "dos_energy_up", "dos_energy_down", "is_magnetic", "ordering", "total_magnetization_normalized_vol", "total_magnetization_normalized_formula_units", "num_magnetic_sites", "num_unique_magnetic_sites", "types_of_magnetic_species", "bulk_modulus", "shear_modulus", "universal_anisotropy", "homogeneous_poisson", "e_total", "e_ionic", "e_electronic", "n", "e_ij_max", "weighted_surface_energy_EV_PER_ANG2", "weighted_surface_energy", "weighted_work_function", "surface_anisotropy", "shape_factor", "has_reconstructed", "possible_species", "has_props", "theoretical", "database_IDs"]}