{
  "builder_meta": null,
  "nsites": null,
  "elements": null,
  "nelements": null,
  "composition": null,
  "composition_reduced": null,
  "formula_pretty": "Dy5Sn4",
  "formula_anonymous": "A4B5",
  "chemsys": null,
  "volume": 1018.1942819803355,
  "density": 8.397919335548297,
  "density_atomic": 28.283174499453764,
  "symmetry": null,
  "property_name": null,
  "material_id": "mp-1199441",
  "deprecated": null,
  "deprecation_reasons": null,
  "last_updated": null,
  "origins": null,
  "warnings": null,
  "structure": {
    "@module": "pymatgen.core.structure",
    "@class": "Structure",
    "charge": 0,
    "lattice": {
      "matrix": [
        [-8.045521, 0.0, 0.0],
        [0.0, 0.0, -8.149442],
        [0.0, -15.529183, 0.0]
      ],
      "pbc": [true, true, true],
      "a": 8.045521,
      "b": 8.149442,
      "c": 15.529183,
      "alpha": 90.0,
      "beta": 90.0,
      "gamma": 90.0,
      "volume": 1018.1942819803355
    },
    "properties": {},
    "sites": [
      {
        "species": [{ "element": "Dy", "occu": 1 }],
        "abc": [0.36762, 0.835291999999999, 0.878585],
        "properties": { "magmom": -0.0 },
        "label": "Dy",
        "xyz": [-2.95769443002, -13.643707246055, -6.807163707063992]
      },
      {
        "species": [{ "element": "Dy", "occu": 1 }],
        "abc": [0.8676200000000001, 0.664708, 0.621414999999999],
        "properties": { "magmom": -0.0 },
        "label": "Dy",
        "xyz": [-6.980454930020001, -9.650067253944986, -5.4169992929360005]
      },
      {
        "species": [{ "element": "Dy", "occu": 1 }],
        "abc": [0.63238, 0.164708, 0.378585],
        "properties": { "magmom": -0.0 },
        "label": "Dy",
        "xyz": [-5.087826569980001, -5.879115746055, -1.342278292936]
      },
      {
        "species": [{ "element": "Dy", "occu": 1 }],
        "abc": [0.13238, 0.335292, 0.121415],
        "properties": { "magmom": -0.0 },
        "label": "Dy",
        "xyz": [-1.06506606998, -1.885475753945, -2.732442707064]
      },
      {
        "species": [{ "element": "Dy", "occu": 1 }],
        "abc": [0.63238, 0.164708, 0.121415],
        "properties": { "magmom": -0.0 },
        "label": "Dy",
        "xyz": [-5.087826569980001, -1.885475753945, -1.342278292936]
      },
      {
        "species": [{ "element": "Dy", "occu": 1 }],
        "abc": [0.13238, 0.335292, 0.378585],
        "properties": { "magmom": -0.0 },
        "label": "Dy",
        "xyz": [-1.06506606998, -5.879115746055, -2.732442707064]
      },
      {
        "species": [{ "element": "Dy", "occu": 1 }],
        "abc": [0.36762, 0.835291999999999, 0.621414999999999],
        "properties": { "magmom": -0.0 },
        "label": "Dy",
        "xyz": [-2.95769443002, -9.650067253944986, -6.807163707063992]
      },
      {
        "species": [{ "element": "Dy", "occu": 1 }],
        "abc": [0.8676200000000001, 0.664708, 0.878585],
        "properties": { "magmom": -0.0 },
        "label": "Dy",
        "xyz": [-6.980454930020001, -13.643707246055, -5.4169992929360005]
      },
      {
        "species": [{ "element": "Dy", "occu": 1 }],
        "abc": [0.5217579999999991, 0.31952, 0.902415],
        "properties": { "magmom": 0.0 },
        "label": "Dy",
        "xyz": [-4.197814945917993, -14.013767676945, -2.60390970784]
      },
      {
        "species": [{ "element": "Dy", "occu": 1 }],
        "abc": [0.021758, 0.18048, 0.597584999999999],
        "properties": { "magmom": 0.0 },
        "label": "Dy",
        "xyz": [-0.175054445918, -9.280006823054984, -1.47081129216]
      },
      {
        "species": [{ "element": "Dy", "occu": 1 }],
        "abc": [0.478242, 0.6804800000000001, 0.402414999999999],
        "properties": { "magmom": 0.0 },
        "label": "Dy",
        "xyz": [-3.8477060540820003, -6.249176176944985, -5.545532292160001]
      },
      {
        "species": [{ "element": "Dy", "occu": 1 }],
        "abc": [0.978242, 0.81952, 0.097584999999999],
        "properties": { "magmom": 0.0 },
        "label": "Dy",
        "xyz": [-7.870466554082, -1.5154153230549845, -6.678630707840001]
      },
      {
        "species": [{ "element": "Dy", "occu": 1 }],
        "abc": [0.478242, 0.6804800000000001, 0.097584999999999],
        "properties": { "magmom": 0.0 },
        "label": "Dy",
        "xyz": [-3.8477060540820003, -1.5154153230549845, -5.545532292160001]
      },
      {
        "species": [{ "element": "Dy", "occu": 1 }],
        "abc": [0.978242, 0.81952, 0.402414999999999],
        "properties": { "magmom": 0.0 },
        "label": "Dy",
        "xyz": [-7.870466554082, -6.249176176944985, -6.678630707840001]
      },
      {
        "species": [{ "element": "Dy", "occu": 1 }],
        "abc": [0.5217579999999991, 0.31952, 0.597584999999999],
        "properties": { "magmom": 0.0 },
        "label": "Dy",
        "xyz": [-4.197814945917993, -9.280006823054984, -2.60390970784]
      },
      {
        "species": [{ "element": "Dy", "occu": 1 }],
        "abc": [0.021758, 0.18048, 0.902415],
        "properties": { "magmom": 0.0 },
        "label": "Dy",
        "xyz": [-0.175054445918, -14.013767676945, -1.47081129216]
      },
      {
        "species": [{ "element": "Dy", "occu": 1 }],
        "abc": [0.197182, 0.503068, 0.75],
        "properties": { "magmom": 0.0 },
        "label": "Dy",
        "xyz": [-1.5864319218220002, -11.646887249999999, -4.099723488056]
      },
      {
        "species": [{ "element": "Dy", "occu": 1 }],
        "abc": [0.697182, 0.996931999999999, 0.75],
        "properties": { "magmom": 0.0 },
        "label": "Dy",
        "xyz": [-5.609192421822001, -11.646887249999999, -8.124439511943992]
      },
      {
        "species": [{ "element": "Dy", "occu": 1 }],
        "abc": [0.802817999999999, 0.496932, 0.25],
        "properties": { "magmom": 0.0 },
        "label": "Dy",
        "xyz": [-6.459089078177993, -3.88229575, -4.0497185119440005]
      },
      {
        "species": [{ "element": "Dy", "occu": 1 }],
        "abc": [0.302818, 0.003068, 0.25],
        "properties": { "magmom": 0.0 },
        "label": "Dy",
        "xyz": [-2.436328578178, -3.88229575, -0.025002488056000003]
      },
      {
        "species": [{ "element": "Sn", "occu": 1 }],
        "abc": [0.291591999999999, 0.033378, 0.041844],
        "properties": { "magmom": -0.0 },
        "label": "Sn",
        "xyz": [-2.3460095594319923, -0.649803133452, -0.272012075076]
      },
      {
        "species": [{ "element": "Sn", "occu": 1 }],
        "abc": [0.791592, 0.466622, 0.458155999999999],
        "properties": { "magmom": -0.0 },
        "label": "Sn",
        "xyz": [-6.368770059432, -7.114788366547985, -3.802708924924]
      },
      {
        "species": [{ "element": "Sn", "occu": 1 }],
        "abc": [0.708407999999999, 0.966622, 0.541844],
        "properties": { "magmom": -0.0 },
        "label": "Sn",
        "xyz": [-5.699511440567993, -8.414394633452, -7.877429924924001]
      },
      {
        "species": [{ "element": "Sn", "occu": 1 }],
        "abc": [0.208407999999999, 0.533378, 0.958156],
        "properties": { "magmom": -0.0 },
        "label": "Sn",
        "xyz": [-1.6767509405679921, -14.879379866548, -4.346733075076]
      },
      {
        "species": [{ "element": "Sn", "occu": 1 }],
        "abc": [0.708407999999999, 0.966622, 0.958156],
        "properties": { "magmom": -0.0 },
        "label": "Sn",
        "xyz": [-5.699511440567993, -14.879379866548, -7.877429924924001]
      },
      {
        "species": [{ "element": "Sn", "occu": 1 }],
        "abc": [0.208407999999999, 0.533378, 0.541844],
        "properties": { "magmom": -0.0 },
        "label": "Sn",
        "xyz": [-1.6767509405679921, -8.414394633452, -4.346733075076]
      },
      {
        "species": [{ "element": "Sn", "occu": 1 }],
        "abc": [0.291591999999999, 0.033378, 0.458155999999999],
        "properties": { "magmom": -0.0 },
        "label": "Sn",
        "xyz": [-2.3460095594319923, -7.114788366547985, -0.272012075076]
      },
      {
        "species": [{ "element": "Sn", "occu": 1 }],
        "abc": [0.791592, 0.466622, 0.041844],
        "properties": { "magmom": -0.0 },
        "label": "Sn",
        "xyz": [-6.368770059432, -0.649803133452, -3.802708924924]
      },
      {
        "species": [{ "element": "Sn", "occu": 1 }],
        "abc": [0.565215999999999, 0.619657999999999, 0.75],
        "properties": { "magmom": -0.0 },
        "label": "Sn",
        "xyz": [-4.5474571975359925, -11.646887249999999, -5.049866930835993]
      },
      {
        "species": [{ "element": "Sn", "occu": 1 }],
        "abc": [0.065216, 0.880342, 0.75],
        "properties": { "magmom": -0.0 },
        "label": "Sn",
        "xyz": [-0.524696697536, -11.646887249999999, -7.174296069164]
      },
      {
        "species": [{ "element": "Sn", "occu": 1 }],
        "abc": [0.434784, 0.380341999999999, 0.25],
        "properties": { "magmom": -0.0 },
        "label": "Sn",
        "xyz": [-3.4980638024640003, -3.88229575, -3.099575069163992]
      },
      {
        "species": [{ "element": "Sn", "occu": 1 }],
        "abc": [0.934784, 0.119658, 0.25],
        "properties": { "magmom": -0.0 },
        "label": "Sn",
        "xyz": [-7.520824302464001, -3.88229575, -0.9751459308360001]
      },
      {
        "species": [{ "element": "Sn", "occu": 1 }],
        "abc": [0.328777999999999, 0.145341, 0.75],
        "properties": { "magmom": 0.0 },
        "label": "Sn",
        "xyz": [-2.6451903033379924, -11.646887249999999, -1.184448049722]
      },
      {
        "species": [{ "element": "Sn", "occu": 1 }],
        "abc": [0.828778, 0.354659, 0.75],
        "properties": { "magmom": 0.0 },
        "label": "Sn",
        "xyz": [-6.667950803338001, -11.646887249999999, -2.8902729502780002]
      },
      {
        "species": [{ "element": "Sn", "occu": 1 }],
        "abc": [0.671222, 0.854659, 0.25],
        "properties": { "magmom": 0.0 },
        "label": "Sn",
        "xyz": [-5.400330696662, -3.88229575, -6.964993950278]
      },
      {
        "species": [{ "element": "Sn", "occu": 1 }],
        "abc": [0.171221999999999, 0.645340999999999, 0.25],
        "properties": { "magmom": 0.0 },
        "label": "Sn",
        "xyz": [-1.3775701966619922, -3.88229575, -5.259169049721993]
      }
    ]
  },
  "task_ids": null,
  "uncorrected_energy_per_atom": null,
  "energy_per_atom": -5.076396205277778,
  "formation_energy_per_atom": -0.7286000873148111,
  "energy_above_hull": 0.0,
  "is_stable": true,
  "equilibrium_reaction_energy_per_atom": null,
  "decomposes_to": null,
  "xas": null,
  "grain_boundaries": null,
  "band_gap": 0.0,
  "cbm": null,
  "vbm": null,
  "efermi": 5.29436698,
  "is_gap_direct": null,
  "is_metal": null,
  "es_source_calc_id": null,
  "bandstructure": null,
  "dos": null,
  "dos_energy_up": null,
  "dos_energy_down": null,
  "is_magnetic": null,
  "ordering": null,
  "total_magnetization": 0.001390199999999,
  "total_magnetization_normalized_vol": null,
  "total_magnetization_normalized_formula_units": null,
  "num_magnetic_sites": null,
  "num_unique_magnetic_sites": null,
  "types_of_magnetic_species": null,
  "bulk_modulus": null,
  "shear_modulus": null,
  "universal_anisotropy": null,
  "homogeneous_poisson": null,
  "e_total": null,
  "e_ionic": null,
  "e_electronic": null,
  "n": null,
  "e_ij_max": null,
  "weighted_surface_energy_EV_PER_ANG2": null,
  "weighted_surface_energy": null,
  "weighted_work_function": null,
  "surface_anisotropy": null,
  "shape_factor": null,
  "has_reconstructed": null,
  "possible_species": null,
  "has_props": null,
  "theoretical": null,
  "database_IDs": null,
  "fields_not_requested": [
    "builder_meta",
    "nsites",
    "elements",
    "nelements",
    "composition",
    "composition_reduced",
    "chemsys",
    "symmetry",
    "property_name",
    "deprecated",
    "deprecation_reasons",
    "last_updated",
    "origins",
    "warnings",
    "task_ids",
    "uncorrected_energy_per_atom",
    "equilibrium_reaction_energy_per_atom",
    "decomposes_to",
    "xas",
    "grain_boundaries",
    "cbm",
    "vbm",
    "is_gap_direct",
    "is_metal",
    "es_source_calc_id",
    "bandstructure",
    "dos",
    "dos_energy_up",
    "dos_energy_down",
    "is_magnetic",
    "ordering",
    "total_magnetization_normalized_vol",
    "total_magnetization_normalized_formula_units",
    "num_magnetic_sites",
    "num_unique_magnetic_sites",
    "types_of_magnetic_species",
    "bulk_modulus",
    "shear_modulus",
    "universal_anisotropy",
    "homogeneous_poisson",
    "e_total",
    "e_ionic",
    "e_electronic",
    "n",
    "e_ij_max",
    "weighted_surface_energy_EV_PER_ANG2",
    "weighted_surface_energy",
    "weighted_work_function",
    "surface_anisotropy",
    "shape_factor",
    "has_reconstructed",
    "possible_species",
    "has_props",
    "theoretical",
    "database_IDs"
  ]
}
