{
  "builder_meta": null,
  "nsites": null,
  "elements": null,
  "nelements": null,
  "composition": null,
  "composition_reduced": null,
  "formula_pretty": "Dy5Si3",
  "formula_anonymous": "A3B5",
  "chemsys": null,
  "volume": 390.99421776364136,
  "density": 7.616988353406563,
  "density_atomic": 24.437138610227585,
  "symmetry": null,
  "property_name": null,
  "material_id": "mp-2836",
  "deprecated": null,
  "deprecation_reasons": null,
  "last_updated": null,
  "origins": null,
  "warnings": null,
  "structure": {
    "@module": "pymatgen.core.structure",
    "@class": "Structure",
    "charge": 0,
    "lattice": {
      "matrix": [
        [8.4213324, -0.0, -0.0],
        [-4.21066671, 7.29308771, 0.0],
        [-0.0, -0.0, 6.3661679]
      ],
      "pbc": [true, true, true],
      "a": 8.4213324,
      "b": 8.421332583888091,
      "c": 6.3661679,
      "alpha": 90.0,
      "beta": 90.0,
      "gamma": 120.00000328432104,
      "volume": 390.99421776364136
    },
    "properties": {},
    "sites": [
      {
        "species": [{ "element": "Dy", "occu": 1 }],
        "abc": [0.999999, 0.75723066, 0.75],
        "properties": { "magmom": -0.0 },
        "label": "Dy",
        "xyz": [5.232878046814273, 5.522549620081189, 4.774625925]
      },
      {
        "species": [{ "element": "Dy", "occu": 1 }],
        "abc": [0.999999, 0.24276834, 0.25],
        "properties": { "magmom": -0.0 },
        "label": "Dy",
        "xyz": [7.399107411187639, 1.7705307968311015, 1.591541975]
      },
      {
        "species": [{ "element": "Dy", "occu": 1 }],
        "abc": [0.75723166, 0.75723066, 0.25],
        "properties": { "magmom": -0.0 },
        "label": "Dy",
        "xyz": [3.1884535808104553, 5.522549620081189, 1.591541975]
      },
      {
        "species": [{ "element": "Dy", "occu": 1 }],
        "abc": [0.75723166, 1e-6, 0.75],
        "properties": { "magmom": -0.0 },
        "label": "Dy",
        "xyz": [6.376895301997074, 7.293087709999999e-6, 4.774625925]
      },
      {
        "species": [{ "element": "Dy", "occu": 1 }],
        "abc": [0.24276934, 0.24276834, 0.75],
        "properties": { "magmom": -0.0 },
        "label": "Dy",
        "xyz": [1.022224741188655, 1.7705307968311015, 4.774625925]
      },
      {
        "species": [{ "element": "Dy", "occu": 1 }],
        "abc": [0.24276934, 1e-6, 0.25],
        "properties": { "magmom": -0.0 },
        "label": "Dy",
        "xyz": [2.0444370980019064, 7.293087709999999e-6, 1.591541975]
      },
      {
        "species": [{ "element": "Dy", "occu": 1 }],
        "abc": [0.666667, 0.333333, -0.0],
        "properties": { "magmom": -0.0 },
        "label": "Dy",
        "xyz": [4.210670240666371, 2.43102680563743, 0.0]
      },
      {
        "species": [{ "element": "Dy", "occu": 1 }],
        "abc": [0.333333, 0.666667, 0.5],
        "properties": { "magmom": -0.0 },
        "label": "Dy",
        "xyz": [-4.550666369951273e-6, 4.86206090436257, 3.18308395]
      },
      {
        "species": [{ "element": "Dy", "occu": 1 }],
        "abc": [0.333333, 0.666667, -0.0],
        "properties": { "magmom": -0.0 },
        "label": "Dy",
        "xyz": [-4.550666369951273e-6, 4.86206090436257, 0.0]
      },
      {
        "species": [{ "element": "Dy", "occu": 1 }],
        "abc": [0.666667, 0.333333, 0.5],
        "properties": { "magmom": -0.0 },
        "label": "Dy",
        "xyz": [4.210670240666371, 2.43102680563743, 3.18308395]
      },
      {
        "species": [{ "element": "Si", "occu": 1 }],
        "abc": [0.39410525, 1e-6, 0.75],
        "properties": { "magmom": 0.0 },
        "label": "Si",
        "xyz": [3.3188871001683906, 7.293087709999999e-6, 4.774625925]
      },
      {
        "species": [{ "element": "Si", "occu": 1 }],
        "abc": [0.39410525, 0.39410425, 0.25],
        "properties": { "magmom": 0.0 },
        "label": "Si",
        "xyz": [1.6594496650905832, 2.8742368621337673, 1.591541975]
      },
      {
        "species": [{ "element": "Si", "occu": 1 }],
        "abc": [0.999999, 0.60589475, 0.25],
        "properties": { "magmom": 0.0 },
        "label": "Si",
        "xyz": [5.8701031250788285, 4.4188435547785225, 1.591541975]
      },
      {
        "species": [{ "element": "Si", "occu": 1 }],
        "abc": [0.999999, 0.39410425, 0.75],
        "properties": { "magmom": 0.0 },
        "label": "Si",
        "xyz": [6.761882332923084, 2.8742368621337673, 4.774625925]
      },
      {
        "species": [{ "element": "Si", "occu": 1 }],
        "abc": [0.6058957500000001, 0.60589475, 0.75],
        "properties": { "magmom": 0.0 },
        "label": "Si",
        "xyz": [2.5512286569085285, 4.4188435547785225, 4.774625925]
      },
      {
        "species": [{ "element": "Si", "occu": 1 }],
        "abc": [0.6058957500000001, 1e-6, 0.25],
        "properties": { "magmom": 0.0 },
        "label": "Si",
        "xyz": [5.102445299830591, 7.293087709999999e-6, 1.591541975]
      }
    ]
  },
  "task_ids": null,
  "uncorrected_energy_per_atom": null,
  "energy_per_atom": -24.055047125625,
  "formation_energy_per_atom": -0.776258386874999,
  "energy_above_hull": 0.0,
  "is_stable": true,
  "equilibrium_reaction_energy_per_atom": null,
  "decomposes_to": null,
  "xas": null,
  "grain_boundaries": null,
  "band_gap": 0.0,
  "cbm": null,
  "vbm": null,
  "efermi": 4.36212825,
  "is_gap_direct": null,
  "is_metal": null,
  "es_source_calc_id": null,
  "bandstructure": null,
  "dos": null,
  "dos_energy_up": null,
  "dos_energy_down": null,
  "is_magnetic": null,
  "ordering": null,
  "total_magnetization": 1.1100000000000002e-5,
  "total_magnetization_normalized_vol": null,
  "total_magnetization_normalized_formula_units": null,
  "num_magnetic_sites": null,
  "num_unique_magnetic_sites": null,
  "types_of_magnetic_species": null,
  "bulk_modulus": null,
  "shear_modulus": null,
  "universal_anisotropy": null,
  "homogeneous_poisson": null,
  "e_total": null,
  "e_ionic": null,
  "e_electronic": null,
  "n": null,
  "e_ij_max": null,
  "weighted_surface_energy_EV_PER_ANG2": null,
  "weighted_surface_energy": null,
  "weighted_work_function": null,
  "surface_anisotropy": null,
  "shape_factor": null,
  "has_reconstructed": null,
  "possible_species": null,
  "has_props": null,
  "theoretical": null,
  "database_IDs": null,
  "fields_not_requested": [
    "builder_meta",
    "nsites",
    "elements",
    "nelements",
    "composition",
    "composition_reduced",
    "chemsys",
    "symmetry",
    "property_name",
    "deprecated",
    "deprecation_reasons",
    "last_updated",
    "origins",
    "warnings",
    "task_ids",
    "uncorrected_energy_per_atom",
    "equilibrium_reaction_energy_per_atom",
    "decomposes_to",
    "xas",
    "grain_boundaries",
    "cbm",
    "vbm",
    "is_gap_direct",
    "is_metal",
    "es_source_calc_id",
    "bandstructure",
    "dos",
    "dos_energy_up",
    "dos_energy_down",
    "is_magnetic",
    "ordering",
    "total_magnetization_normalized_vol",
    "total_magnetization_normalized_formula_units",
    "num_magnetic_sites",
    "num_unique_magnetic_sites",
    "types_of_magnetic_species",
    "bulk_modulus",
    "shear_modulus",
    "universal_anisotropy",
    "homogeneous_poisson",
    "e_total",
    "e_ionic",
    "e_electronic",
    "n",
    "e_ij_max",
    "weighted_surface_energy_EV_PER_ANG2",
    "weighted_surface_energy",
    "weighted_work_function",
    "surface_anisotropy",
    "shape_factor",
    "has_reconstructed",
    "possible_species",
    "has_props",
    "theoretical",
    "database_IDs"
  ]
}
