{
  "builder_meta": null,
  "nsites": null,
  "elements": null,
  "nelements": null,
  "composition": null,
  "composition_reduced": null,
  "formula_pretty": "Dy5Tl3",
  "formula_anonymous": "A3B5",
  "chemsys": null,
  "volume": 461.6483092577559,
  "density": 10.256064223653864,
  "density_atomic": 28.853019328609744,
  "symmetry": null,
  "property_name": null,
  "material_id": "mp-1181553",
  "deprecated": null,
  "deprecation_reasons": null,
  "last_updated": null,
  "origins": null,
  "warnings": null,
  "structure": {
    "@module": "pymatgen.core.structure",
    "@class": "Structure",
    "charge": 0,
    "lattice": {
      "matrix": [
        [8.95511876, -6.1020000000000015e-5, 1.2e-7],
        [-4.47761166, 7.75548587, -1.7000000000000001e-7],
        [9e-8, -1e-7, 6.64710589]
      ],
      "pbc": [true, true, true],
      "a": 8.955118760207895,
      "b": 8.955253612128338,
      "c": 6.6471058900000015,
      "alpha": 90.00000222202969,
      "beta": 89.99999845645246,
      "gamma": 120.00027851652757,
      "volume": 461.6483092577559
    },
    "properties": {},
    "sites": [
      {
        "species": [{ "element": "Dy", "occu": 1 }],
        "abc": [0.66664727, 0.33332727, 0.49999936],
        "properties": { "magmom": -0.0 },
        "label": "Dy",
        "xyz": [4.47739544813176, 2.5850742037543237, 3.3235487141842666]
      },
      {
        "species": [{ "element": "Dy", "occu": 1 }],
        "abc": [0.33335424, 0.66667377, 0.50000148],
        "properties": { "magmom": -0.0 },
        "label": "Dy",
        "xyz": [0.0001206073815172262, 5.170358611858758, 3.323562709384685]
      },
      {
        "species": [{ "element": "Dy", "occu": 1 }],
        "abc": [0.33335284, 0.66667241, -5.8e-7],
        "properties": { "magmom": -0.0 },
        "label": "Dy",
        "xyz": [0.00011411476692544656, 5.170348114483608, -3.9286533851e-6]
      },
      {
        "species": [{ "element": "Dy", "occu": 1 }],
        "abc": [0.6666458, 0.3333258, 1.539999999999999e-6],
        "properties": { "magmom": -0.0 },
        "label": "Dy",
        "xyz": [4.477388821196517, 2.585062853279576, 1.0259875180599992e-5]
      },
      {
        "species": [{ "element": "Dy", "occu": 1 }],
        "abc": [0.763560999999999, 0.76356367, 0.24999955000000001],
        "properties": { "magmom": 0.0 },
        "label": "Dy",
        "xyz": [3.4188378660599184, 5.921760636038169, 1.6617734431238456]
      },
      {
        "species": [{ "element": "Dy", "occu": 1 }],
        "abc": [0.23644786, 0.99999591, 0.25000063],
        "properties": { "magmom": 0.0 },
        "label": "Dy",
        "xyz": [-2.3601746572204005, 7.755439697014311, 1.6617805185511492]
      },
      {
        "species": [{ "element": "Dy", "occu": 1 }],
        "abc": [-8.35e-6, 0.23642877, 0.2500002],
        "properties": { "magmom": 0.0 },
        "label": "Dy",
        "xyz": [-1.0587109700530861, 1.833619960505977, 1.661777761727285]
      },
      {
        "species": [{ "element": "Dy", "occu": 1 }],
        "abc": [0.23643877, 0.23643629, 0.74999943],
        "properties": { "magmom": -0.0 },
        "label": "Dy",
        "xyz": [1.0586674433671324, 1.8336638037565338, 4.985325616828126]
      },
      {
        "species": [{ "element": "Dy", "occu": 1 }],
        "abc": [0.76355191, 3.88e-6, 0.7499999900000001],
        "properties": { "magmom": -0.0 },
        "label": "Dy",
        "xyz": [6.83768072784159, -1.657565237160001e-5, 4.9853294426545105]
      },
      {
        "species": [{ "element": "Dy", "occu": 1 }],
        "abc": [8.48e-6, 0.76357134, 0.75000011],
        "properties": { "magmom": -0.0 },
        "label": "Dy",
        "xyz": [-3.4188999283187296, 5.9218666625895064, 4.985330018875538]
      },
      {
        "species": [{ "element": "Tl", "occu": 1 }],
        "abc": [0.40275313, 0.40273776, 0.25000044],
        "properties": { "magmom": -0.0 },
        "label": "Tl",
        "xyz": [1.8033988425134768, 3.123402405999415, 1.6617793770915479]
      },
      {
        "species": [{ "element": "Tl", "occu": 1 }],
        "abc": [0.59723116, -1.48e-6, 0.25000025],
        "properties": { "magmom": -0.0 },
        "label": "Tl",
        "xyz": [5.34828261433784, -4.794616449580001e-5, 1.6617782059444632]
      },
      {
        "species": [{ "element": "Tl", "occu": 1 }],
        "abc": [1.2370000000000002e-5, 0.59725342, 0.25000026000000003],
        "properties": { "magmom": -0.0 },
        "label": "Tl",
        "xyz": [-2.6741580800477927, 4.631990433864332, 1.6617780992159346]
      },
      {
        "species": [{ "element": "Tl", "occu": 1 }],
        "abc": [0.59724666, 0.59726241, 0.75000023],
        "properties": { "magmom": 0.0 },
        "label": "Tl",
        "xyz": [2.674105705717662, 4.632023662445931, 4.985330916469344]
      },
      {
        "species": [{ "element": "Tl", "occu": 1 }],
        "abc": [0.40276892000000003, 1.44e-6, 0.75000007],
        "properties": { "magmom": 0.0 },
        "label": "Tl",
        "xyz": [3.6068371311761553, -1.3484059852600007e-5, 4.985329931129438]
      },
      {
        "species": [{ "element": "Tl", "occu": 1 }],
        "abc": [-1.2060000000000001e-5, 0.40274636, 0.75000005],
        "properties": { "magmom": 0.0 },
        "label": "Tl",
        "xyz": [-1.803449728790799, 3.12349362990983, 4.985329681386966]
      }
    ]
  },
  "task_ids": null,
  "uncorrected_energy_per_atom": null,
  "energy_per_atom": -40.372809944375,
  "formation_energy_per_atom": -0.44194371124999704,
  "energy_above_hull": 0.0,
  "is_stable": true,
  "equilibrium_reaction_energy_per_atom": null,
  "decomposes_to": null,
  "xas": null,
  "grain_boundaries": null,
  "band_gap": 0.0,
  "cbm": null,
  "vbm": null,
  "efermi": 4.4120204,
  "is_gap_direct": null,
  "is_metal": null,
  "es_source_calc_id": null,
  "bandstructure": null,
  "dos": null,
  "dos_energy_up": null,
  "dos_energy_down": null,
  "is_magnetic": null,
  "ordering": null,
  "total_magnetization": 7.630000000000001e-5,
  "total_magnetization_normalized_vol": null,
  "total_magnetization_normalized_formula_units": null,
  "num_magnetic_sites": null,
  "num_unique_magnetic_sites": null,
  "types_of_magnetic_species": null,
  "bulk_modulus": null,
  "shear_modulus": null,
  "universal_anisotropy": null,
  "homogeneous_poisson": null,
  "e_total": null,
  "e_ionic": null,
  "e_electronic": null,
  "n": null,
  "e_ij_max": null,
  "weighted_surface_energy_EV_PER_ANG2": null,
  "weighted_surface_energy": null,
  "weighted_work_function": null,
  "surface_anisotropy": null,
  "shape_factor": null,
  "has_reconstructed": null,
  "possible_species": null,
  "has_props": null,
  "theoretical": null,
  "database_IDs": null,
  "fields_not_requested": [
    "builder_meta",
    "nsites",
    "elements",
    "nelements",
    "composition",
    "composition_reduced",
    "chemsys",
    "symmetry",
    "property_name",
    "deprecated",
    "deprecation_reasons",
    "last_updated",
    "origins",
    "warnings",
    "task_ids",
    "uncorrected_energy_per_atom",
    "equilibrium_reaction_energy_per_atom",
    "decomposes_to",
    "xas",
    "grain_boundaries",
    "cbm",
    "vbm",
    "is_gap_direct",
    "is_metal",
    "es_source_calc_id",
    "bandstructure",
    "dos",
    "dos_energy_up",
    "dos_energy_down",
    "is_magnetic",
    "ordering",
    "total_magnetization_normalized_vol",
    "total_magnetization_normalized_formula_units",
    "num_magnetic_sites",
    "num_unique_magnetic_sites",
    "types_of_magnetic_species",
    "bulk_modulus",
    "shear_modulus",
    "universal_anisotropy",
    "homogeneous_poisson",
    "e_total",
    "e_ionic",
    "e_electronic",
    "n",
    "e_ij_max",
    "weighted_surface_energy_EV_PER_ANG2",
    "weighted_surface_energy",
    "weighted_work_function",
    "surface_anisotropy",
    "shape_factor",
    "has_reconstructed",
    "possible_species",
    "has_props",
    "theoretical",
    "database_IDs"
  ]
}
