{
  "builder_meta": null,
  "nsites": null,
  "elements": null,
  "nelements": null,
  "composition": null,
  "composition_reduced": null,
  "formula_pretty": "Dy7Rh3",
  "formula_anonymous": "A3B7",
  "chemsys": null,
  "volume": 507.79375977387065,
  "density": 9.458560491491458,
  "density_atomic": 25.38968798869353,
  "symmetry": null,
  "property_name": null,
  "material_id": "mp-1105786",
  "deprecated": null,
  "deprecation_reasons": null,
  "last_updated": null,
  "origins": null,
  "warnings": null,
  "structure": {
    "@module": "pymatgen.core.structure",
    "@class": "Structure",
    "charge": 0,
    "lattice": {
      "matrix": [
        [-0.0, 0.0, -6.1595072],
        [-4.87845906, -8.44945479, -0.0],
        [-4.87846008, 8.44945479, 0.0]
      ],
      "pbc": [true, true, true],
      "a": 6.1595072,
      "b": 9.75667202730265,
      "c": 9.756672537315556,
      "alpha": 119.99832606428053,
      "beta": 90.0,
      "gamma": 90.0,
      "volume": 507.79375977387065
    },
    "properties": {},
    "sites": [
      {
        "species": [{ "element": "Dy", "occu": 1 }],
        "abc": [0.46791749, 0.33332968, 0.66667032],
        "properties": { "magmom": -0.0 },
        "label": "Dy",
        "xyz": [-4.878459740003727, 2.816546667349666, -2.882141148660928]
      },
      {
        "species": [{ "element": "Dy", "occu": 1 }],
        "abc": [0.96791749, 0.66667032, 0.33332968],
        "properties": { "magmom": -0.0 },
        "label": "Dy",
        "xyz": [-4.878459399996274, -2.816546667349666, -5.961894748660929]
      },
      {
        "species": [{ "element": "Dy", "occu": 1 }],
        "abc": [0.25919126, 0.12367595, 0.87632405],
        "properties": { "magmom": 0.0 },
        "label": "Dy",
        "xyz": [-4.87845995385053, 6.3594660937294005, -1.5964904321470719]
      },
      {
        "species": [{ "element": "Dy", "occu": 1 }],
        "abc": [0.2591604, 0.75264916, 0.87632015],
        "properties": { "magmom": 0.0 },
        "label": "Dy",
        "xyz": [-7.946860982678002, 1.044952438839541, -1.5963003497548802]
      },
      {
        "species": [{ "element": "Dy", "occu": 1 }],
        "abc": [0.2591604, 0.12367985000000001, 0.24735084000000002],
        "properties": { "magmom": 0.0 },
        "label": "Dy",
        "xyz": [-1.8100582834664083, 1.0449524388395421, -1.5963003497548802]
      },
      {
        "species": [{ "element": "Dy", "occu": 1 }],
        "abc": [0.75919126, 0.87632405, 0.12367595],
        "properties": { "magmom": 0.0 },
        "label": "Dy",
        "xyz": [-4.8784591861494695, -6.3594660937294005, -4.676244032147072]
      },
      {
        "species": [{ "element": "Dy", "occu": 1 }],
        "abc": [0.7591604, 0.24735084000000002, 0.12367985000000001],
        "properties": { "magmom": 0.0 },
        "label": "Dy",
        "xyz": [-1.8100581573219985, -1.0449524388395421, -4.67605394975488]
      },
      {
        "species": [{ "element": "Dy", "occu": 1 }],
        "abc": [0.7591604, 0.87632015, 0.75264916],
        "properties": { "magmom": 0.0 },
        "label": "Dy",
        "xyz": [-7.946860856533592, -1.044952438839541, -4.67605394975488]
      },
      {
        "species": [{ "element": "Dy", "occu": 1 }],
        "abc": [0.44969375, 0.54124549, 0.45875451],
        "properties": { "magmom": -0.0 },
        "label": "Dy",
        "xyz": [-4.8784595279296, -0.6970038060927943, -2.7698918909200003]
      },
      {
        "species": [{ "element": "Dy", "occu": 1 }],
        "abc": [0.44978535000000003, 0.91753241, 0.45875151000000003],
        "properties": { "magmom": 0.0 },
        "label": "Dy",
        "xyz": [-6.714145226582856, -3.87644847306551, -2.77045610177952]
      },
      {
        "species": [{ "element": "Dy", "occu": 1 }],
        "abc": [0.44978535000000003, 0.54124849, 0.08246759000000001],
        "properties": { "magmom": 0.0 },
        "label": "Dy",
        "xyz": [-3.042773445460626, -3.876448473065511, -2.77045610177952]
      },
      {
        "species": [{ "element": "Dy", "occu": 1 }],
        "abc": [0.94969375, 0.45875451, 0.54124549],
        "properties": { "magmom": -0.0 },
        "label": "Dy",
        "xyz": [-4.878459612070399, 0.6970038060927943, -5.84964549092]
      },
      {
        "species": [{ "element": "Dy", "occu": 1 }],
        "abc": [0.94978535, 0.08246759000000001, 0.54124849],
        "properties": { "magmom": 0.0 },
        "label": "Dy",
        "xyz": [-3.042773913417144, 3.876448473065511, -5.85020970177952]
      },
      {
        "species": [{ "element": "Dy", "occu": 1 }],
        "abc": [0.94978535, 0.45875151000000003, 0.91753241],
        "properties": { "magmom": 0.0 },
        "label": "Dy",
        "xyz": [-6.714145694539374, 3.87644847306551, -5.85020970177952]
      },
      {
        "species": [{ "element": "Rh", "occu": 1 }],
        "abc": [0.18779376, 0.81053049, 0.18947051],
        "properties": { "magmom": -0.0 },
        "label": "Rh",
        "xyz": [-4.87846413171898, -5.247618222888304, -1.156717016835072]
      },
      {
        "species": [{ "element": "Rh", "occu": 1 }],
        "abc": [0.18775613, 0.37894221, 0.18942797],
        "properties": { "magmom": -0.0 },
        "label": "Rh",
        "xyz": [-2.77277084727136, -1.6012920029412097, -1.156485234579136]
      },
      {
        "species": [{ "element": "Rh", "occu": 1 }],
        "abc": [0.18775613, 0.81057203, 0.62105779],
        "properties": { "magmom": -0.0 },
        "label": "Rh",
        "xyz": [-6.984148099424115, -1.6012920029412099, -1.156485234579136]
      },
      {
        "species": [{ "element": "Rh", "occu": 1 }],
        "abc": [0.68779376, 0.18946951, 0.81052949],
        "properties": { "magmom": -0.0 },
        "label": "Rh",
        "xyz": [-4.878455008281019, 5.247618222888304, -4.2364706168350725]
      },
      {
        "species": [{ "element": "Rh", "occu": 1 }],
        "abc": [0.68775613, 0.62105779, 0.81057203],
        "properties": { "magmom": -0.0 },
        "label": "Rh",
        "xyz": [-6.98414829272864, 1.6012920029412099, -4.236238834579137]
      },
      {
        "species": [{ "element": "Rh", "occu": 1 }],
        "abc": [0.68775613, 0.18942797, 0.37894221],
        "properties": { "magmom": -0.0 },
        "label": "Rh",
        "xyz": [-2.772771040575885, 1.6012920029412097, -4.236238834579137]
      }
    ]
  },
  "task_ids": null,
  "uncorrected_energy_per_atom": null,
  "energy_per_atom": -6.050768416499997,
  "formation_energy_per_atom": -0.608613185666659,
  "energy_above_hull": 0.0,
  "is_stable": true,
  "equilibrium_reaction_energy_per_atom": null,
  "decomposes_to": null,
  "xas": null,
  "grain_boundaries": null,
  "band_gap": 0.0,
  "cbm": null,
  "vbm": null,
  "efermi": 3.993453279999999,
  "is_gap_direct": null,
  "is_metal": null,
  "es_source_calc_id": null,
  "bandstructure": null,
  "dos": null,
  "dos_energy_up": null,
  "dos_energy_down": null,
  "is_magnetic": null,
  "ordering": null,
  "total_magnetization": 5e-7,
  "total_magnetization_normalized_vol": null,
  "total_magnetization_normalized_formula_units": null,
  "num_magnetic_sites": null,
  "num_unique_magnetic_sites": null,
  "types_of_magnetic_species": null,
  "bulk_modulus": null,
  "shear_modulus": null,
  "universal_anisotropy": null,
  "homogeneous_poisson": null,
  "e_total": null,
  "e_ionic": null,
  "e_electronic": null,
  "n": null,
  "e_ij_max": null,
  "weighted_surface_energy_EV_PER_ANG2": null,
  "weighted_surface_energy": null,
  "weighted_work_function": null,
  "surface_anisotropy": null,
  "shape_factor": null,
  "has_reconstructed": null,
  "possible_species": null,
  "has_props": null,
  "theoretical": null,
  "database_IDs": null,
  "fields_not_requested": [
    "builder_meta",
    "nsites",
    "elements",
    "nelements",
    "composition",
    "composition_reduced",
    "chemsys",
    "symmetry",
    "property_name",
    "deprecated",
    "deprecation_reasons",
    "last_updated",
    "origins",
    "warnings",
    "task_ids",
    "uncorrected_energy_per_atom",
    "equilibrium_reaction_energy_per_atom",
    "decomposes_to",
    "xas",
    "grain_boundaries",
    "cbm",
    "vbm",
    "is_gap_direct",
    "is_metal",
    "es_source_calc_id",
    "bandstructure",
    "dos",
    "dos_energy_up",
    "dos_energy_down",
    "is_magnetic",
    "ordering",
    "total_magnetization_normalized_vol",
    "total_magnetization_normalized_formula_units",
    "num_magnetic_sites",
    "num_unique_magnetic_sites",
    "types_of_magnetic_species",
    "bulk_modulus",
    "shear_modulus",
    "universal_anisotropy",
    "homogeneous_poisson",
    "e_total",
    "e_ionic",
    "e_electronic",
    "n",
    "e_ij_max",
    "weighted_surface_energy_EV_PER_ANG2",
    "weighted_surface_energy",
    "weighted_work_function",
    "surface_anisotropy",
    "shape_factor",
    "has_reconstructed",
    "possible_species",
    "has_props",
    "theoretical",
    "database_IDs"
  ]
}
