{"builder_meta": null, "nsites": null, "elements": null, "nelements": null, "composition": null, "composition_reduced": null, "formula_pretty": "DyAl3", "formula_anonymous": "AB3", "chemsys": null, "volume": 154.83479505398617, "density": 5.221685409256727, "density_atomic": 19.35434938174827, "symmetry": null, "property_name": null, "material_id": "mp-864995", "deprecated": null, "deprecation_reasons": null, "last_updated": null, "origins": null, "warnings": null, "structure": {"@module": "pymatgen.core.structure", "@class": "Structure", "charge": 0, "lattice": {"matrix": [[6.24297251, -8.198000000000001e-05, 5.599999999999997e-07], [-3.12155699, 5.40669679, -4.099999999999998e-07], [-3.2e-07, 1.3e-07, 4.58720785]], "pbc": [true, true, true], "a": 6.242972510538288, "b": 6.243115265699836, "c": 4.587207850000014, "alpha": 90.00000035809057, "beta": 89.99999885744903, "gamma": 120.00074557085816, "volume": 154.83479505398617}, "properties": {}, "sites": [{"species": [{"element": "Dy", "occu": 1}], "abc": [0.66667067, 0.33333604, 0.25000152000000003], "properties": {"magmom": -0.0}, "label": "Dy", "xyz": [3.121479140351876, 1.8021922762979825, 1.146809171723731]}, {"species": [{"element": "Dy", "occu": 1}], "abc": [0.3333299, 0.6666643, 0.75000085], "properties": {"magmom": 0.0}, "label": "Dy", "xyz": [-6.144318767987667e-05, 3.604424501932505, 3.440409699959054]}, {"species": [{"element": "Al", "occu": 1}], "abc": [0.85394126, 0.14603968, 0.750001399999999], "properties": {"magmom": -0.0}, "label": "Al", "xyz": [4.875260387412951, 0.7895223604643145, 3.4404127279218226]}, {"species": [{"element": "Al", "occu": 1}], "abc": [0.29210929, 0.14605477, 0.7500015800000001], "properties": {"magmom": 0.0}, "label": "Al", "xyz": [1.36771173916877, 0.7896500065037995, 3.44041323898715]}, {"species": [{"element": "Al", "occu": 1}], "abc": [0.85394393, 0.7079036, 0.7500014500000001], "properties": {"magmom": -0.0}, "label": "Al", "xyz": [3.1213868092447368, 3.8273502129262504, 3.440412726919508]}, {"species": [{"element": "Al", "occu": 1}], "abc": [0.14605911, 0.8539603100000001, 0.25000182], "properties": {"magmom": -0.0}, "label": "Al", "xyz": [-1.7538428462985836, 4.617092525438804, 1.1468100428876615]}, {"species": [{"element": "Al", "occu": 1}], "abc": [0.70789111, 0.85394568, 0.25000163000000003], "properties": {"magmom": 0.0}, "label": "Al", "xyz": [1.7537045533185613, 4.616967366477382, 1.1468094859500886]}, {"species": [{"element": "Al", "occu": 1}], "abc": [0.14605673, 0.29209661, 0.25000176], "properties": {"magmom": -0.0}, "label": "Al", "xyz": [3.185558912530319e-05, 1.5792658624263851, 1.146809998017975]}]}, "task_ids": null, "uncorrected_energy_per_atom": null, "energy_per_atom": -13.5250853725, "formation_energy_per_atom": -0.48056081874999806, "energy_above_hull": 0.0, "is_stable": true, "equilibrium_reaction_energy_per_atom": null, "decomposes_to": null, "xas": null, "grain_boundaries": null, "band_gap": 0.0, "cbm": null, "vbm": null, "efermi": 6.00385738, "is_gap_direct": null, "is_metal": null, "es_source_calc_id": null, "bandstructure": null, "dos": null, "dos_energy_up": null, "dos_energy_down": null, "is_magnetic": null, "ordering": null, "total_magnetization": 0.0, "total_magnetization_normalized_vol": null, "total_magnetization_normalized_formula_units": null, "num_magnetic_sites": null, "num_unique_magnetic_sites": null, "types_of_magnetic_species": null, "bulk_modulus": null, "shear_modulus": null, "universal_anisotropy": null, "homogeneous_poisson": null, "e_total": null, "e_ionic": null, "e_electronic": null, "n": null, "e_ij_max": null, "weighted_surface_energy_EV_PER_ANG2": null, "weighted_surface_energy": null, "weighted_work_function": null, "surface_anisotropy": null, "shape_factor": null, "has_reconstructed": null, "possible_species": null, "has_props": null, "theoretical": null, "database_IDs": null, "fields_not_requested": ["builder_meta", "nsites", "elements", "nelements", "composition", "composition_reduced", "chemsys", "symmetry", "property_name", "deprecated", "deprecation_reasons", "last_updated", "origins", "warnings", "task_ids", "uncorrected_energy_per_atom", "equilibrium_reaction_energy_per_atom", "decomposes_to", "xas", "grain_boundaries", "cbm", "vbm", "is_gap_direct", "is_metal", "es_source_calc_id", "bandstructure", "dos", "dos_energy_up", "dos_energy_down", "is_magnetic", "ordering", "total_magnetization_normalized_vol", "total_magnetization_normalized_formula_units", "num_magnetic_sites", "num_unique_magnetic_sites", "types_of_magnetic_species", "bulk_modulus", "shear_modulus", "universal_anisotropy", "homogeneous_poisson", "e_total", "e_ionic", "e_electronic", "n", "e_ij_max", "weighted_surface_energy_EV_PER_ANG2", "weighted_surface_energy", "weighted_work_function", "surface_anisotropy", "shape_factor", "has_reconstructed", "possible_species", "has_props", "theoretical", "database_IDs"]}