{"builder_meta": null, "nsites": null, "elements": null, "nelements": null, "composition": null, "composition_reduced": null, "formula_pretty": "DyAl", "formula_anonymous": "AB", "chemsys": null, "volume": 370.29907459658006, "density": 6.7975648621333455, "density_atomic": 23.143692162286253, "symmetry": null, "property_name": null, "material_id": "mp-433", "deprecated": null, "deprecation_reasons": null, "last_updated": null, "origins": null, "warnings": null, "structure": {"@module": "pymatgen.core.structure", "@class": "Structure", "charge": 0, "lattice": {"matrix": [[5.59806028, 1e-08, 2.799999999999998e-07], [2e-08, 5.81017973, -3.867e-05], [-4.299999999999998e-07, -7.577e-05, 11.38480219]], "pbc": [true, true, true], "a": 5.598060280000007, "b": 5.810179730128684, "c": 11.384802190252147, "alpha": 90.00076265975525, "beta": 89.99999929826063, "gamma": 89.99999970044423, "volume": 370.29907459658006}, "properties": {}, "sites": [{"species": [{"element": "Dy", "occu": 1}], "abc": [0.24999999, 0.59771906, 0.83272526], "properties": {"magmom": 0.0}, "label": "Dy", "xyz": [1.3995146679019168, 3.472792073553703, 9.480389319920267]}, {"species": [{"element": "Dy", "occu": 1}], "abc": [0.74999997, 0.40227575, 0.167285699999999], "properties": {"magmom": -0.0}, "label": "Dy", "xyz": [4.198544978170856, 2.337281740783058, 1.904499257712411]}, {"species": [{"element": "Dy", "occu": 1}], "abc": [0.7499999900000001, 0.59771616, 0.66727714], "properties": {"magmom": -0.0}, "label": "Dy", "xyz": [4.19854487904455, 3.472787765036539, 7.596795341125027]}, {"species": [{"element": "Dy", "occu": 1}], "abc": [0.25, 0.40227876, 0.33270964000000003], "properties": {"magmom": -0.0}, "label": "Dy", "xyz": [1.39951493498043, 2.3372866902521126, 3.7878179519864625]}, {"species": [{"element": "Dy", "occu": 1}], "abc": [0.25000001, 0.837392599999999, 0.5147957400000001], "properties": {"magmom": 0.0}, "label": "Dy", "xyz": [1.3995149213662867, 4.865362506998773, 5.860815356182832]}, {"species": [{"element": "Dy", "occu": 1}], "abc": [0.74999997, 0.16261071, 0.48517319000000003], "properties": {"magmom": 0.0}, "label": "Dy", "xyz": [4.198544836685935, 0.9447606970503016, 5.523594717885122]}, {"species": [{"element": "Dy", "occu": 1}], "abc": [0.75000001, 0.83738248, 0.9852023], "properties": {"magmom": 0.0}, "label": "Dy", "xyz": [4.198544859091264, 4.865268070274859, 11.21630113105254]}, {"species": [{"element": "Dy", "occu": 1}], "abc": [0.25000001, 0.16262088, 0.01482648], "properties": {"magmom": -0.0}, "label": "Dy", "xyz": [1.3995151228576341, 0.9448554197483728, 0.16879032342456438]}, {"species": [{"element": "Al", "occu": 1}], "abc": [0.49999712, 0.9317787200000001, 0.25001699], "properties": {"magmom": 0.0}, "label": "Al", "xyz": [2.7990139287146625, 5.413782893001985, 2.846358083405299]}, {"species": [{"element": "Al", "occu": 1}], "abc": [0.99999713, 0.06822182, 0.74998182], "properties": {"magmom": -0.0}, "label": "Al", "xyz": [5.598043892439251, 0.3963242195851785, 8.538392308657604]}, {"species": [{"element": "Al", "occu": 1}], "abc": [0.50000287, 0.06822184, 0.74998182], "properties": {"magmom": 0.0}, "label": "Al", "xyz": [2.799045885305258, 0.39632433078883056, 8.538392168658437]}, {"species": [{"element": "Al", "occu": 1}], "abc": [2.88e-06, 0.93177874, 0.250017], "properties": {"magmom": -0.0}, "label": "Al", "xyz": [1.60335418712e-05, 5.413783004204879, 2.846358057254161]}, {"species": [{"element": "Al", "occu": 1}], "abc": [0.25000002, 0.33718543, 0.59866757], "properties": {"magmom": -0.0}, "label": "Al", "xyz": [1.3995149312778594, 1.959062592095555, 6.815698893057407]}, {"species": [{"element": "Al", "occu": 1}], "abc": [0.75, 0.66281804, 0.40133093000000003], "properties": {"magmom": -0.0}, "label": "Al", "xyz": [4.198545050684062, 3.8510615393417633, 4.56904782960513]}, {"species": [{"element": "Al", "occu": 1}], "abc": [0.75000003, 0.33716785, 0.90132433], "properties": {"magmom": 0.0}, "label": "Al", "xyz": [4.198544997115704, 1.9589375218331968, 10.261386377803532]}, {"species": [{"element": "Al", "occu": 1}], "abc": [0.25000001, 0.66283116, 0.09868408000000001], "properties": {"magmom": -0.0}, "label": "Al", "xyz": [1.3995150968030716, 3.8511606954516453, 1.123473168421181]}]}, "task_ids": null, "uncorrected_energy_per_atom": null, "energy_per_atom": -19.83922699375, "formation_energy_per_atom": -0.48227621624999906, "energy_above_hull": 0.0, "is_stable": true, "equilibrium_reaction_energy_per_atom": null, "decomposes_to": null, "xas": null, "grain_boundaries": null, "band_gap": 0.0, "cbm": null, "vbm": null, "efermi": 4.64577477, "is_gap_direct": null, "is_metal": null, "es_source_calc_id": null, "bandstructure": null, "dos": null, "dos_energy_up": null, "dos_energy_down": null, "is_magnetic": null, "ordering": null, "total_magnetization": 0.0, "total_magnetization_normalized_vol": null, "total_magnetization_normalized_formula_units": null, "num_magnetic_sites": null, "num_unique_magnetic_sites": null, "types_of_magnetic_species": null, "bulk_modulus": null, "shear_modulus": null, "universal_anisotropy": null, "homogeneous_poisson": null, "e_total": null, "e_ionic": null, "e_electronic": null, "n": null, "e_ij_max": null, "weighted_surface_energy_EV_PER_ANG2": null, "weighted_surface_energy": null, "weighted_work_function": null, "surface_anisotropy": null, "shape_factor": null, "has_reconstructed": null, "possible_species": null, "has_props": null, "theoretical": null, "database_IDs": null, "fields_not_requested": ["builder_meta", "nsites", "elements", "nelements", "composition", "composition_reduced", "chemsys", "symmetry", "property_name", "deprecated", "deprecation_reasons", "last_updated", "origins", "warnings", "task_ids", "uncorrected_energy_per_atom", "equilibrium_reaction_energy_per_atom", "decomposes_to", "xas", "grain_boundaries", "cbm", "vbm", "is_gap_direct", "is_metal", "es_source_calc_id", "bandstructure", "dos", "dos_energy_up", "dos_energy_down", "is_magnetic", "ordering", "total_magnetization_normalized_vol", "total_magnetization_normalized_formula_units", "num_magnetic_sites", "num_unique_magnetic_sites", "types_of_magnetic_species", "bulk_modulus", "shear_modulus", "universal_anisotropy", "homogeneous_poisson", "e_total", "e_ionic", "e_electronic", "n", "e_ij_max", "weighted_surface_energy_EV_PER_ANG2", "weighted_surface_energy", "weighted_work_function", "surface_anisotropy", "shape_factor", "has_reconstructed", "possible_species", "has_props", "theoretical", "database_IDs"]}