{
  "builder_meta": null,
  "nsites": null,
  "elements": null,
  "nelements": null,
  "composition": null,
  "composition_reduced": null,
  "formula_pretty": "DyAu3",
  "formula_anonymous": "AB3",
  "chemsys": null,
  "volume": 158.07519621970206,
  "density": 15.828538267315666,
  "density_atomic": 19.759399527462758,
  "symmetry": null,
  "property_name": null,
  "material_id": "mp-1080590",
  "deprecated": null,
  "deprecation_reasons": null,
  "last_updated": null,
  "origins": null,
  "warnings": null,
  "structure": {
    "@module": "pymatgen.core.structure",
    "@class": "Structure",
    "charge": 0,
    "lattice": {
      "matrix": [
        [0.0, 4.9967225200000005, 0.0],
        [0.0, -0.0, 5.09633337],
        [6.20755631, 0.0, 0.0]
      ],
      "pbc": [true, true, true],
      "a": 4.9967225200000005,
      "b": 5.09633337,
      "c": 6.20755631,
      "alpha": 90.0,
      "beta": 90.0,
      "gamma": 90.0,
      "volume": 158.07519621970212
    },
    "properties": {},
    "sites": [
      {
        "species": [{ "element": "Dy", "occu": 1 }],
        "abc": [0.75, 0.34412999, 0.75],
        "properties": { "magmom": 0.0 },
        "label": "Dy",
        "xyz": [4.6556672325, 3.7475418900000004, 1.7538011516547662]
      },
      {
        "species": [{ "element": "Dy", "occu": 1 }],
        "abc": [0.25, 0.65587001, 0.25],
        "properties": { "magmom": 0.0 },
        "label": "Dy",
        "xyz": [1.5518890775, 1.2491806300000001, 3.3425322183452337]
      },
      {
        "species": [{ "element": "Au", "occu": 1 }],
        "abc": [0.75, 0.8388938300000001, 0.00749175],
        "properties": { "magmom": -0.0 },
        "label": "Au",
        "xyz": [0.046505459985442504, 3.7475418900000004, 4.275282619716108]
      },
      {
        "species": [{ "element": "Au", "occu": 1 }],
        "abc": [0.75, 0.8388938300000001, 0.49250825000000004],
        "properties": { "magmom": -0.0 },
        "label": "Au",
        "xyz": [3.0572726950145577, 3.7475418900000004, 4.275282619716108]
      },
      {
        "species": [{ "element": "Au", "occu": 1 }],
        "abc": [0.25, 0.16110617, 0.99250825],
        "properties": { "magmom": -0.0 },
        "label": "Au",
        "xyz": [6.161050850014558, 1.2491806300000001, 0.8210507502838928]
      },
      {
        "species": [{ "element": "Au", "occu": 1 }],
        "abc": [0.25, 0.16110617, 0.50749175],
        "properties": { "magmom": -0.0 },
        "label": "Au",
        "xyz": [3.1502836149854425, 1.2491806300000001, 0.8210507502838928]
      },
      {
        "species": [{ "element": "Au", "occu": 1 }],
        "abc": [0.25, 0.66755882, 0.75],
        "properties": { "magmom": -0.0 },
        "label": "Au",
        "xyz": [4.6556672325, 1.2491806300000001, 3.4021022908038234]
      },
      {
        "species": [{ "element": "Au", "occu": 1 }],
        "abc": [0.75, 0.33244118, 0.25],
        "properties": { "magmom": -0.0 },
        "label": "Au",
        "xyz": [1.5518890775, 3.7475418900000004, 1.6942310791961765]
      }
    ]
  },
  "task_ids": null,
  "uncorrected_energy_per_atom": null,
  "energy_per_atom": -4.326117566249998,
  "formation_energy_per_atom": -0.716112184166663,
  "energy_above_hull": 0.0,
  "is_stable": true,
  "equilibrium_reaction_energy_per_atom": null,
  "decomposes_to": null,
  "xas": null,
  "grain_boundaries": null,
  "band_gap": 0.0,
  "cbm": null,
  "vbm": null,
  "efermi": 4.90314866,
  "is_gap_direct": null,
  "is_metal": null,
  "es_source_calc_id": null,
  "bandstructure": null,
  "dos": null,
  "dos_energy_up": null,
  "dos_energy_down": null,
  "is_magnetic": null,
  "ordering": null,
  "total_magnetization": 0.0,
  "total_magnetization_normalized_vol": null,
  "total_magnetization_normalized_formula_units": null,
  "num_magnetic_sites": null,
  "num_unique_magnetic_sites": null,
  "types_of_magnetic_species": null,
  "bulk_modulus": null,
  "shear_modulus": null,
  "universal_anisotropy": null,
  "homogeneous_poisson": null,
  "e_total": null,
  "e_ionic": null,
  "e_electronic": null,
  "n": null,
  "e_ij_max": null,
  "weighted_surface_energy_EV_PER_ANG2": null,
  "weighted_surface_energy": null,
  "weighted_work_function": null,
  "surface_anisotropy": null,
  "shape_factor": null,
  "has_reconstructed": null,
  "possible_species": null,
  "has_props": null,
  "theoretical": null,
  "database_IDs": null,
  "fields_not_requested": [
    "builder_meta",
    "nsites",
    "elements",
    "nelements",
    "composition",
    "composition_reduced",
    "chemsys",
    "symmetry",
    "property_name",
    "deprecated",
    "deprecation_reasons",
    "last_updated",
    "origins",
    "warnings",
    "task_ids",
    "uncorrected_energy_per_atom",
    "equilibrium_reaction_energy_per_atom",
    "decomposes_to",
    "xas",
    "grain_boundaries",
    "cbm",
    "vbm",
    "is_gap_direct",
    "is_metal",
    "es_source_calc_id",
    "bandstructure",
    "dos",
    "dos_energy_up",
    "dos_energy_down",
    "is_magnetic",
    "ordering",
    "total_magnetization_normalized_vol",
    "total_magnetization_normalized_formula_units",
    "num_magnetic_sites",
    "num_unique_magnetic_sites",
    "types_of_magnetic_species",
    "bulk_modulus",
    "shear_modulus",
    "universal_anisotropy",
    "homogeneous_poisson",
    "e_total",
    "e_ionic",
    "e_electronic",
    "n",
    "e_ij_max",
    "weighted_surface_energy_EV_PER_ANG2",
    "weighted_surface_energy",
    "weighted_work_function",
    "surface_anisotropy",
    "shape_factor",
    "has_reconstructed",
    "possible_species",
    "has_props",
    "theoretical",
    "database_IDs"
  ]
}
