{"builder_meta": null, "nsites": null, "elements": null, "nelements": null, "composition": null, "composition_reduced": null, "formula_pretty": "DyAu6", "formula_anonymous": "AB6", "chemsys": null, "volume": 1062.3696127100814, "density": 16.809680302959993, "density_atomic": 18.970885941251453, "symmetry": null, "property_name": null, "material_id": "mp-1199277", "deprecated": null, "deprecation_reasons": null, "last_updated": null, "origins": null, "warnings": null, "structure": {"@module": "pymatgen.core.structure", "@class": "Structure", "charge": 0, "lattice": {"matrix": [[10.38891527, 6.0930000000000015e-05, 0.0001103], [6.0950000000000004e-05, 10.38868802, 0.00023008], [0.00010452000000000001, 0.00021793, 9.84339089]], "pbc": [true, true, true], "a": 10.388915270764207, "b": 10.388688022726607, "c": 9.843390892967367, "alpha": 89.9974625442888, "beta": 89.99878329505543, "gamma": 89.9993278002777, "volume": 1062.3696127100816}, "properties": {}, "sites": [{"species": [{"element": "Dy", "occu": 1}], "abc": [0.32335992, 0.82334954, 0.03929404], "properties": {"magmom": -0.0}, "label": "Dy", "xyz": [3.3594131007615022, 8.553549768140574, 0.38701169822863485]}, {"species": [{"element": "Dy", "occu": 1}], "abc": [0.67662263, 0.82337131, 0.5392416], "properties": {"magmom": 0.0}, "label": "Dy", "xyz": [7.029481718847936, 8.553906407747439, 5.308229925696118]}, {"species": [{"element": "Dy", "occu": 1}], "abc": [0.3233762, 0.17662578, 0.53925307], "properties": {"magmom": -0.0}, "label": "Dy", "xyz": [3.359595070206741, 1.8350473474425668, 5.308155063096855]}, {"species": [{"element": "Dy", "occu": 1}], "abc": [0.6766350600000001, 0.17663898, 0.039266340000000004], "properties": {"magmom": 0.0}, "label": "Dy", "xyz": [7.029519177315055, 1.8350970400787017, 0.38662920738327905]}, {"species": [{"element": "Dy", "occu": 1}], "abc": [0.17662579, 0.67663739, 0.46072772], "properties": {"magmom": -0.0}, "label": "Dy", "xyz": [1.8350397631170283, 7.029485915578472, 4.535298204373799]}, {"species": [{"element": "Dy", "occu": 1}], "abc": [0.8233536100000001, 0.67665792, 0.96073612], "properties": {"magmom": 0.0}, "label": "Dy", "xyz": [8.553892549978112, 7.029847567300207, 9.457147672659364]}, {"species": [{"element": "Dy", "occu": 1}], "abc": [0.17664116, 0.32335287, 0.96077438], "properties": {"magmom": -0.0}, "label": "Dy", "xyz": [1.8352301729301372, 3.35943223110813, 9.457371659985677]}, {"species": [{"element": "Dy", "occu": 1}], "abc": [0.82337182, 0.32337072, 0.46071437], "properties": {"magmom": -0.0}, "label": "Dy", "xyz": [8.554007936997028, 3.359548096410421, 4.535156851597093]}, {"species": [{"element": "Au", "occu": 1}], "abc": [0.92984586, 0.7641548300000001, 0.672447999999999], "properties": {"magmom": 0.0}, "label": "Au", "xyz": [9.66020671320213, 7.938769329947027, 6.619446895940355]}, {"species": [{"element": "Au", "occu": 1}], "abc": [0.07014308, 0.76411353, 0.17250141], "properties": {"magmom": 0.0}, "label": "Au", "xyz": [0.7287751174638583, 7.9381789420810565, 1.6981823517288615]}, {"species": [{"element": "Au", "occu": 1}], "abc": [0.92985582, 0.23589087, 0.17247362], "properties": {"magmom": -0.0}, "label": "Au", "xyz": [9.660225731787659, 2.450690898487497, 1.6978820967416373]}, {"species": [{"element": "Au", "occu": 1}], "abc": [0.07015355, 0.23588013, 0.67249286], "properties": {"magmom": 0.0}, "label": "Au", "xyz": [0.7289039526873591, 2.4506359115118235, 6.61967210095092]}, {"species": [{"element": "Au", "occu": 1}], "abc": [0.26412342, 0.42985051, 0.67246893], "properties": {"magmom": 0.0}, "label": "Au", "xyz": [2.744052317043771, 4.465745487821786, 6.6195025721886145]}, {"species": [{"element": "Au", "occu": 1}], "abc": [0.26407174, 0.57013987, 0.17247425], "properties": {"magmom": 0.0}, "label": "Au", "xyz": [2.7434717090951564, 5.923058914397778, 1.697891766103794]}, {"species": [{"element": "Au", "occu": 1}], "abc": [0.73589563, 0.42985696, 0.17246618], "properties": {"magmom": -0.0}, "label": "Au", "xyz": [7.645201573580116, 4.465732274340963, 1.697832095822446]}, {"species": [{"element": "Au", "occu": 1}], "abc": [0.7358805900000001, 0.57011963, 0.67245029], "properties": {"magmom": -0.0}, "label": "Au", "xyz": [7.645106131643369, 5.922986354443881, 6.619403399317406]}, {"species": [{"element": "Au", "occu": 1}], "abc": [0.5701420500000001, 0.73587789, 0.82753003], "properties": {"magmom": -0.0}, "label": "Au", "xyz": [5.923288794510235, 7.6450209024004225, 8.145933755956474]}, {"species": [{"element": "Au", "occu": 1}], "abc": [0.42983587, 0.73587711, 0.32750926], "properties": {"magmom": 0.0}, "label": "Au", "xyz": [4.465607516414445, 7.644895280841813, 3.2240183877765713]}, {"species": [{"element": "Au", "occu": 1}], "abc": [0.5701479700000001, 0.26410626, 0.3274877], "properties": {"magmom": -0.0}, "label": "Au", "xyz": [5.923269277983454, 2.743823647779278, 3.2237130956564446]}, {"species": [{"element": "Au", "occu": 1}], "abc": [0.42987811000000004, 0.26409488000000003, 0.82755009], "properties": {"magmom": 0.0}, "label": "Au", "xyz": [4.466069853336083, 2.743805856463694, 8.146007195430204]}, {"species": [{"element": "Au", "occu": 1}], "abc": [0.23588464, 0.07013374, 0.82754349], "properties": {"magmom": 0.0}, "label": "Au", "xyz": [2.4506763079514804, 0.7287922635396857, 8.145876204991497]}, {"species": [{"element": "Au", "occu": 1}], "abc": [0.23589719, 0.92986628, 0.32748968], "properties": {"magmom": -0.0}, "label": "Au", "xyz": [2.4508068239122114, 9.660176426279715, 3.2238488957747746]}, {"species": [{"element": "Au", "occu": 1}], "abc": [0.76410033, 0.07014992, 0.32751196], "properties": {"magmom": -0.0}, "label": "Au", "xyz": [7.938212093336723, 0.7288835648225082, 3.223928663790037]}, {"species": [{"element": "Au", "occu": 1}], "abc": [0.76409885, 0.92984811, 0.82751948], "properties": {"magmom": -0.0}, "label": "Au", "xyz": [7.9383013771327935, 9.66012881863985, 8.145895930285842]}, {"species": [{"element": "Au", "occu": 1}], "abc": [0.87201208, 0.05357493, 0.60331428], "properties": {"magmom": 0.0}, "label": "Au", "xyz": [9.059325937336991, 0.5567578454404134, 5.938766797011228]}, {"species": [{"element": "Au", "occu": 1}], "abc": [0.1279778, 0.053563070000000004, 0.10331337], "properties": {"magmom": 0.0}, "label": "Au", "xyz": [1.329564583623555, 0.5564803363934996, 1.016980324815685]}, {"species": [{"element": "Au", "occu": 1}], "abc": [0.87200886, 0.9464329300000001, 0.10331196000000001], "properties": {"magmom": -0.0}, "label": "Au", "xyz": [9.059294644482435, 9.832272087899781, 1.017253943757837]}, {"species": [{"element": "Au", "occu": 1}], "abc": [0.12799054, 0.9464513, 0.603295199999999], "properties": {"magmom": -0.0}, "label": "Au", "xyz": [1.329803618042585, 9.832526556409965, 5.938702352532385]}, {"species": [{"element": "Au", "occu": 1}], "abc": [0.55353713, 0.3719957, 0.60330147], "properties": {"magmom": -0.0}, "label": "Au", "xyz": [5.750736072576534, 3.8647124765882017, 5.9386788376377035]}, {"species": [{"element": "Au", "occu": 1}], "abc": [0.55356795, 0.62797601, 0.10333149999999901], "properties": {"magmom": -0.0}, "label": "Au", "xyz": [5.751019604083786, 6.5239030998633885, 1.017337889015291]}, {"species": [{"element": "Au", "occu": 1}], "abc": [0.44641934, 0.37203137000000003, 0.10332386], "properties": {"magmom": 0.0}, "label": "Au", "xyz": [4.63784617287117, 3.864967554282384, 1.017191979274447]}, {"species": [{"element": "Au", "occu": 1}], "abc": [0.44644331, 0.62799622, 0.60331045], "properties": {"magmom": -0.0}, "label": "Au", "xyz": [4.638163054826186, 6.524215488556531, 5.938814319439192]}, {"species": [{"element": "Au", "occu": 1}], "abc": [0.62798756, 0.44644241, 0.8967018], "properties": {"magmom": 0.0}, "label": "Au", "xyz": [6.524230485391066, 4.638184597892233, 8.826758313664163]}, {"species": [{"element": "Au", "occu": 1}], "abc": [0.37201992, 0.44644783, 0.39666751], "properties": {"magmom": 0.0}, "label": "Au", "xyz": [3.864952098315562, 4.638116336000176, 3.904697106806886]}, {"species": [{"element": "Au", "occu": 1}], "abc": [0.6279892, 0.55355974, 0.39667186], "properties": {"magmom": -0.0}, "label": "Au", "xyz": [6.524201788884045, 5.75088414937272, 3.9047928032770947]}, {"species": [{"element": "Au", "occu": 1}], "abc": [0.37199764, 0.55356964, 0.89670003], "properties": {"magmom": -0.0}, "label": "Au", "xyz": [3.8647794257566566, 5.751080370957456, 8.82673730300719]}, {"species": [{"element": "Au", "occu": 1}], "abc": [0.94642958, 0.12798951, 0.89670732], "properties": {"magmom": -0.0}, "label": "Au", "xyz": [9.832478240451408, 1.3298961746032274, 8.826774503693448]}, {"species": [{"element": "Au", "occu": 1}], "abc": [0.94642739, 0.8720408900000001, 0.39667304000000003], "properties": {"magmom": -0.0}, "label": "Au", "xyz": [9.832448575075633, 9.059504859669618, 3.904912818353694]}, {"species": [{"element": "Au", "occu": 1}], "abc": [0.05355521, 0.12798125, 0.39667941], "properties": {"magmom": 0.0}, "label": "Au", "xyz": [0.5564298003461774, 1.3296469901223913, 3.904705843710238]}, {"species": [{"element": "Au", "occu": 1}], "abc": [0.053553460000000004, 0.87201237, 0.89668537], "properties": {"magmom": 0.0}, "label": "Au", "xyz": [0.5565092290641581, 9.05926313916581, 8.826631141807008]}, {"species": [{"element": "Au", "occu": 1}], "abc": [0.39942434, 0.89940951, 0.57110254], "properties": {"magmom": 0.0}, "label": "Au", "xyz": [4.149700135682787, 9.34383359891265, 5.621836532136625]}, {"species": [{"element": "Au", "occu": 1}], "abc": [0.60062799, 0.89935266, 0.07113185], "properties": {"magmom": 0.0}, "label": "Au", "xyz": [6.239935547145997, 9.343146302724634, 0.7004517766061563]}, {"species": [{"element": "Au", "occu": 1}], "abc": [0.39938373, 0.10058104, 0.07108463], "properties": {"magmom": -0.0}, "label": "Au", "xyz": [4.149177291366472, 1.0449448712112255, 0.6997809930721228]}, {"species": [{"element": "Au", "occu": 1}], "abc": [0.60060268, 0.10057722000000001, 0.57112636], "properties": {"magmom": -0.0}, "label": "Au", "xyz": [6.23967617776363, 1.0450264207878317, 5.6219093963452424]}, {"species": [{"element": "Au", "occu": 1}], "abc": [0.10059145, 0.60063098, 0.92890514], "properties": {"magmom": -0.0}, "label": "Au", "xyz": [1.0451697485599054, 6.239976431701068, 9.143725681162989]}, {"species": [{"element": "Au", "occu": 1}], "abc": [0.89942515, 0.60059613, 0.42887734], "properties": {"magmom": -0.0}, "label": "Au", "xyz": [9.344133107650741, 6.239554087802458, 4.221844693235068]}, {"species": [{"element": "Au", "occu": 1}], "abc": [0.10060645, 0.39940719, 0.42887451], "properties": {"magmom": -0.0}, "label": "Au", "xyz": [1.0452610544975074, 4.149416284427827, 4.221682437184923]}, {"species": [{"element": "Au", "occu": 1}], "abc": [0.89938522, 0.39941447, 0.928920099999999], "properties": {"magmom": 0.0}, "label": "Au", "xyz": [9.343758280711107, 4.149649558602498, 9.143914749348903]}, {"species": [{"element": "Au", "occu": 1}], "abc": [0.49997039, -2.1390000000000004e-05, 0.31823154], "properties": {"magmom": 0.0}, "label": "Au", "xyz": [5.194183279475696, -0.00012239864137290006, 3.1325325835592763]}, {"species": [{"element": "Au", "occu": 1}], "abc": [0.50001768, -1.0940000000000002e-05, 0.8183240900000001], "properties": {"magmom": 0.0}, "label": "Au", "xyz": [5.194726841589068, 9.51511992373e-05, 8.05513904200657]}, {"species": [{"element": "Au", "occu": 1}], "abc": [8.269999999999999e-06, 0.50000276, 0.18169672], "properties": {"magmom": -0.0}, "label": "Au", "xyz": [0.0001353824386793, 5.194412280449016, 1.7886268799380827]}, {"species": [{"element": "Au", "occu": 1}], "abc": [-2.417e-05, 0.5000281, 0.68177662], "properties": {"magmom": -0.0}, "label": "Au", "xyz": [-0.00014936407705849996, 5.19478451023948, 6.711108814122289]}, {"species": [{"element": "Au", "occu": 1}], "abc": [0.25002233, 0.75004957, 0.7500170700000001], "properties": {"magmom": 0.0}, "label": "Au", "xyz": [2.5975849092834276, 7.792209667345785, 7.382911343050558]}, {"species": [{"element": "Au", "occu": 1}], "abc": [0.7500221300000001, 0.74997482, 0.25000626], "properties": {"magmom": 0.0}, "label": "Au", "xyz": [7.7919882008145, 7.79135461054828, 2.4611646237744957]}, {"species": [{"element": "Au", "occu": 1}], "abc": [0.25005523, 0.24992762000000002, 0.25003855], "properties": {"magmom": -0.0}, "label": "Au", "xyz": [2.5978439644080473, 2.596489798527478, 2.4613122696574883]}, {"species": [{"element": "Au", "occu": 1}], "abc": [0.7500232800000001, 0.25005003, 0.74997339], "properties": {"magmom": 0.0}, "label": "Au", "xyz": [7.792021934215538, 2.597900891680973, 7.382421493947104]}]}, "task_ids": null, "uncorrected_energy_per_atom": null, "energy_per_atom": -3.873944999642861, "formation_energy_per_atom": -0.40799249559524003, "energy_above_hull": 0.007947047397955001, "is_stable": false, "equilibrium_reaction_energy_per_atom": null, "decomposes_to": null, "xas": null, "grain_boundaries": null, "band_gap": 0.0, "cbm": null, "vbm": null, "efermi": 4.97317993, "is_gap_direct": null, "is_metal": null, "es_source_calc_id": null, "bandstructure": null, "dos": null, "dos_energy_up": null, "dos_energy_down": null, "is_magnetic": null, "ordering": null, "total_magnetization": 1e-07, "total_magnetization_normalized_vol": null, "total_magnetization_normalized_formula_units": null, "num_magnetic_sites": null, "num_unique_magnetic_sites": null, "types_of_magnetic_species": null, "bulk_modulus": null, "shear_modulus": null, "universal_anisotropy": null, "homogeneous_poisson": null, "e_total": null, "e_ionic": null, "e_electronic": null, "n": null, "e_ij_max": null, "weighted_surface_energy_EV_PER_ANG2": null, "weighted_surface_energy": null, "weighted_work_function": null, "surface_anisotropy": null, "shape_factor": null, "has_reconstructed": null, "possible_species": null, "has_props": null, "theoretical": null, "database_IDs": null, "fields_not_requested": ["builder_meta", "nsites", "elements", "nelements", "composition", "composition_reduced", "chemsys", "symmetry", "property_name", "deprecated", "deprecation_reasons", "last_updated", "origins", "warnings", "task_ids", "uncorrected_energy_per_atom", "equilibrium_reaction_energy_per_atom", "decomposes_to", "xas", "grain_boundaries", "cbm", "vbm", "is_gap_direct", "is_metal", "es_source_calc_id", "bandstructure", "dos", "dos_energy_up", "dos_energy_down", "is_magnetic", "ordering", "total_magnetization_normalized_vol", "total_magnetization_normalized_formula_units", "num_magnetic_sites", "num_unique_magnetic_sites", "types_of_magnetic_species", "bulk_modulus", "shear_modulus", "universal_anisotropy", "homogeneous_poisson", "e_total", "e_ionic", "e_electronic", "n", "e_ij_max", "weighted_surface_energy_EV_PER_ANG2", "weighted_surface_energy", "weighted_work_function", "surface_anisotropy", "shape_factor", "has_reconstructed", "possible_species", "has_props", "theoretical", "database_IDs"]}