{"builder_meta": null, "nsites": null, "elements": null, "nelements": null, "composition": null, "composition_reduced": null, "formula_pretty": "DyAu2", "formula_anonymous": "AB2", "chemsys": null, "volume": 62.239509942254415, "density": 14.845537255307653, "density_atomic": 20.746503314084805, "symmetry": null, "property_name": null, "material_id": "mp-11241", "deprecated": null, "deprecation_reasons": null, "last_updated": null, "origins": null, "warnings": null, "structure": {"@module": "pymatgen.core.structure", "@class": "Structure", "charge": 0, "lattice": {"matrix": [[3.47673203, 2e-08, -1.3237661], [-0.50402253, 3.4400036800000002, -1.3237661], [-0.00669186, -0.007743760000000001, 5.20994487]], "pbc": [true, true, true], "a": 3.720218044138963, "b": 3.720217831884358, "c": 5.209954922573564, "alpha": 110.91790649441371, "beta": 110.91790552808045, "gamma": 89.99997730355147, "volume": 62.23950994225442}, "properties": {}, "sites": [{"species": [{"element": "Dy", "occu": 1}], "abc": [0.0, 0.0, 0.0], "properties": {"magmom": 0.0}, "label": "Dy", "xyz": [0.0, 0.0, 0.0]}, {"species": [{"element": "Au", "occu": 1}], "abc": [0.66464667, 0.66464667, 0.32929434], "properties": {"magmom": 0.0}, "label": "Au", "xyz": [1.9735978784302926, 2.2838370276543607, -0.04406810304473807]}, {"species": [{"element": "Au", "occu": 1}], "abc": [0.33535333, 0.33535333, 0.67070566], "properties": {"magmom": 0.0}, "label": "Au", "xyz": [0.9924197615697073, 1.1484229123456395, 2.606480773044738]}]}, "task_ids": null, "uncorrected_energy_per_atom": null, "energy_per_atom": -4.586018899999999, "formation_energy_per_atom": -0.8639723905555521, "energy_above_hull": 0.0, "is_stable": true, "equilibrium_reaction_energy_per_atom": null, "decomposes_to": null, "xas": null, "grain_boundaries": null, "band_gap": 0.0, "cbm": null, "vbm": null, "efermi": 4.67866171, "is_gap_direct": null, "is_metal": null, "es_source_calc_id": null, "bandstructure": null, "dos": null, "dos_energy_up": null, "dos_energy_down": null, "is_magnetic": null, "ordering": null, "total_magnetization": 1e-07, "total_magnetization_normalized_vol": null, "total_magnetization_normalized_formula_units": null, "num_magnetic_sites": null, "num_unique_magnetic_sites": null, "types_of_magnetic_species": null, "bulk_modulus": null, "shear_modulus": null, "universal_anisotropy": null, "homogeneous_poisson": null, "e_total": null, "e_ionic": null, "e_electronic": null, "n": null, "e_ij_max": null, "weighted_surface_energy_EV_PER_ANG2": null, "weighted_surface_energy": null, "weighted_work_function": null, "surface_anisotropy": null, "shape_factor": null, "has_reconstructed": null, "possible_species": null, "has_props": null, "theoretical": null, "database_IDs": null, "fields_not_requested": ["builder_meta", "nsites", "elements", "nelements", "composition", "composition_reduced", "chemsys", "symmetry", "property_name", "deprecated", "deprecation_reasons", "last_updated", "origins", "warnings", "task_ids", "uncorrected_energy_per_atom", "equilibrium_reaction_energy_per_atom", "decomposes_to", "xas", "grain_boundaries", "cbm", "vbm", "is_gap_direct", "is_metal", "es_source_calc_id", "bandstructure", "dos", "dos_energy_up", "dos_energy_down", "is_magnetic", "ordering", "total_magnetization_normalized_vol", "total_magnetization_normalized_formula_units", "num_magnetic_sites", "num_unique_magnetic_sites", "types_of_magnetic_species", "bulk_modulus", "shear_modulus", "universal_anisotropy", "homogeneous_poisson", "e_total", "e_ionic", "e_electronic", "n", "e_ij_max", "weighted_surface_energy_EV_PER_ANG2", "weighted_surface_energy", "weighted_work_function", "surface_anisotropy", "shape_factor", "has_reconstructed", "possible_species", "has_props", "theoretical", "database_IDs"]}