{"builder_meta": null, "nsites": null, "elements": null, "nelements": null, "composition": null, "composition_reduced": null, "formula_pretty": "DyAu", "formula_anonymous": "AB", "chemsys": null, "volume": 93.99368884072496, "density": 12.701028937647992, "density_atomic": 23.49842221018124, "symmetry": null, "property_name": null, "material_id": "mp-1007918", "deprecated": null, "deprecation_reasons": null, "last_updated": null, "origins": null, "warnings": null, "structure": {"@module": "pymatgen.core.structure", "@class": "Structure", "charge": 0, "lattice": {"matrix": [[-3.72855189, -0.00252856, 0.0], [0.0, 0.0, -4.62402105], [-1.86796907, -5.45305153, 0.0]], "pbc": [true, true, true], "a": 3.728552747385806, "b": 4.62402105, "c": 5.764120005283721, "alpha": 90.0, "beta": 71.05200119051054, "gamma": 90.0, "volume": 93.99368884072496}, "properties": {}, "sites": [{"species": [{"element": "Dy", "occu": 1}], "abc": [0.13858959, 0.75, 0.72277282], "properties": {"magmom": 0.0}, "label": "Dy", "xyz": [-1.8668557501255025, -3.941667864037105, -3.4680157874999997]}, {"species": [{"element": "Dy", "occu": 1}], "abc": [0.861409099999999, 0.25, 0.27722712], "properties": {"magmom": -0.0}, "label": "Dy", "xyz": [-3.7296602133933736, -1.5139118954673896, -1.1560052625]}, {"species": [{"element": "Au", "occu": 1}], "abc": [0.41175012, 0.75, 0.1763602], "properties": {"magmom": 0.0}, "label": "Au", "xyz": [-1.8646670869127406, -0.962742393324533, -3.4680157874999997]}, {"species": [{"element": "Au", "occu": 1}], "abc": [0.58825119, 0.25, 0.82363986], "properties": {"magmom": -0.0}, "label": "Au", "xyz": [-3.7318588695683794, -4.492838027170972, -1.1560052625]}]}, "task_ids": null, "uncorrected_energy_per_atom": null, "energy_per_atom": -4.823949505000002, "formation_energy_per_atom": -0.8778207408333321, "energy_above_hull": 0.0, "is_stable": true, "equilibrium_reaction_energy_per_atom": null, "decomposes_to": null, "xas": null, "grain_boundaries": null, "band_gap": 0.0, "cbm": null, "vbm": null, "efermi": 4.56128476, "is_gap_direct": null, "is_metal": null, "es_source_calc_id": null, "bandstructure": null, "dos": null, "dos_energy_up": null, "dos_energy_down": null, "is_magnetic": null, "ordering": null, "total_magnetization": 4e-07, "total_magnetization_normalized_vol": null, "total_magnetization_normalized_formula_units": null, "num_magnetic_sites": null, "num_unique_magnetic_sites": null, "types_of_magnetic_species": null, "bulk_modulus": null, "shear_modulus": null, "universal_anisotropy": null, "homogeneous_poisson": null, "e_total": null, "e_ionic": null, "e_electronic": null, "n": null, "e_ij_max": null, "weighted_surface_energy_EV_PER_ANG2": null, "weighted_surface_energy": null, "weighted_work_function": null, "surface_anisotropy": null, "shape_factor": null, "has_reconstructed": null, "possible_species": null, "has_props": null, "theoretical": null, "database_IDs": null, "fields_not_requested": ["builder_meta", "nsites", "elements", "nelements", "composition", "composition_reduced", "chemsys", "symmetry", "property_name", "deprecated", "deprecation_reasons", "last_updated", "origins", "warnings", "task_ids", "uncorrected_energy_per_atom", "equilibrium_reaction_energy_per_atom", "decomposes_to", "xas", "grain_boundaries", "cbm", "vbm", "is_gap_direct", "is_metal", "es_source_calc_id", "bandstructure", "dos", "dos_energy_up", "dos_energy_down", "is_magnetic", "ordering", "total_magnetization_normalized_vol", "total_magnetization_normalized_formula_units", "num_magnetic_sites", "num_unique_magnetic_sites", "types_of_magnetic_species", "bulk_modulus", "shear_modulus", "universal_anisotropy", "homogeneous_poisson", "e_total", "e_ionic", "e_electronic", "n", "e_ij_max", "weighted_surface_energy_EV_PER_ANG2", "weighted_surface_energy", "weighted_work_function", "surface_anisotropy", "shape_factor", "has_reconstructed", "possible_species", "has_props", "theoretical", "database_IDs"]}