{"builder_meta": null, "nsites": null, "elements": null, "nelements": null, "composition": null, "composition_reduced": null, "formula_pretty": "DyB4", "formula_anonymous": "AB4", "chemsys": null, "volume": 201.85686908874976, "density": 6.770063387208091, "density_atomic": 10.092843454437489, "symmetry": null, "property_name": null, "material_id": "mp-2719", "deprecated": null, "deprecation_reasons": null, "last_updated": null, "origins": null, "warnings": null, "structure": {"@module": "pymatgen.core.structure", "@class": "Structure", "charge": 0, "lattice": {"matrix": [[4.01251287, -0.0, 0.0], [0.0, 7.09273195, 0.0], [0.0, 0.0, 7.09273195]], "pbc": [true, true, true], "a": 4.01251287, "b": 7.09273195, "c": 7.09273195, "alpha": 90.0, "beta": 90.0, "gamma": 90.0, "volume": 201.85686908874976}, "properties": {}, "sites": [{"species": [{"element": "Dy", "occu": 1}], "abc": [0.0, 0.68235421, 0.18235421000000002], "properties": {"magmom": -0.0}, "label": "Dy", "xyz": [0.0, 4.83975550648401, 1.2933895314840096]}, {"species": [{"element": "Dy", "occu": 1}], "abc": [0.0, 0.81764579, 0.68235421], "properties": {"magmom": -0.0}, "label": "Dy", "xyz": [0.0, 5.799342418515991, 4.83975550648401]}, {"species": [{"element": "Dy", "occu": 1}], "abc": [0.0, 0.18235421000000002, 0.31764579], "properties": {"magmom": -0.0}, "label": "Dy", "xyz": [0.0, 1.2933895314840096, 2.2529764435159905]}, {"species": [{"element": "Dy", "occu": 1}], "abc": [0.0, 0.31764579, 0.81764579], "properties": {"magmom": -0.0}, "label": "Dy", "xyz": [0.0, 2.2529764435159905, 5.799342418515991]}, {"species": [{"element": "B", "occu": 1}], "abc": [0.5, 0.46157322, 0.32410764000000003], "properties": {"magmom": 0.0}, "label": "B", "xyz": [2.006256435, 3.273815124758379, 2.298808613467098]}, {"species": [{"element": "B", "occu": 1}], "abc": [0.5, 0.53842678, 0.67589236], "properties": {"magmom": 0.0}, "label": "B", "xyz": [2.006256435, 3.818916825241621, 4.7939233365329015]}, {"species": [{"element": "B", "occu": 1}], "abc": [0.5, 0.32410764000000003, 0.53842678], "properties": {"magmom": 0.0}, "label": "B", "xyz": [2.006256435, 2.298808613467098, 3.818916825241621]}, {"species": [{"element": "B", "occu": 1}], "abc": [0.5, 0.67589236, 0.46157322], "properties": {"magmom": 0.0}, "label": "B", "xyz": [2.006256435, 4.7939233365329015, 3.273815124758379]}, {"species": [{"element": "B", "occu": 1}], "abc": [0.20286735, -0.0, 0.0], "properties": {"magmom": -0.0}, "label": "B", "xyz": [0.8140078527777945, 0.0, 0.0]}, {"species": [{"element": "B", "occu": 1}], "abc": [0.79713265, 0.5, 0.5], "properties": {"magmom": -0.0}, "label": "B", "xyz": [3.1985050172222054, 3.546365975, 3.546365975]}, {"species": [{"element": "B", "occu": 1}], "abc": [0.79713265, -0.0, 0.0], "properties": {"magmom": -0.0}, "label": "B", "xyz": [3.1985050172222054, 0.0, 0.0]}, {"species": [{"element": "B", "occu": 1}], "abc": [0.20286735, 0.5, 0.5], "properties": {"magmom": -0.0}, "label": "B", "xyz": [0.8140078527777945, 3.546365975, 3.546365975]}, {"species": [{"element": "B", "occu": 1}], "abc": [0.5, 0.08713546, 0.58713546], "properties": {"magmom": -0.0}, "label": "B", "xyz": [2.006256435, 0.618028461119947, 4.164394436119948]}, {"species": [{"element": "B", "occu": 1}], "abc": [0.5, 0.41286454, 0.08713546], "properties": {"magmom": -0.0}, "label": "B", "xyz": [2.006256435, 2.928337513880053, 0.618028461119947]}, {"species": [{"element": "B", "occu": 1}], "abc": [0.5, 0.58713546, 0.9128645400000001], "properties": {"magmom": -0.0}, "label": "B", "xyz": [2.006256435, 4.164394436119948, 6.474703488880054]}, {"species": [{"element": "B", "occu": 1}], "abc": [0.5, 0.9128645400000001, 0.41286454], "properties": {"magmom": -0.0}, "label": "B", "xyz": [2.006256435, 6.474703488880054, 2.928337513880053]}, {"species": [{"element": "B", "occu": 1}], "abc": [0.5, 0.17589236, 0.03842678], "properties": {"magmom": 0.0}, "label": "B", "xyz": [2.006256435, 1.247557361532902, 0.272550850241621]}, {"species": [{"element": "B", "occu": 1}], "abc": [0.5, 0.96157322, 0.17589236], "properties": {"magmom": 0.0}, "label": "B", "xyz": [2.006256435, 6.820181099758379, 1.247557361532902]}, {"species": [{"element": "B", "occu": 1}], "abc": [0.5, 0.03842678, 0.82410764], "properties": {"magmom": 0.0}, "label": "B", "xyz": [2.006256435, 0.272550850241621, 5.845174588467098]}, {"species": [{"element": "B", "occu": 1}], "abc": [0.5, 0.82410764, 0.96157322], "properties": {"magmom": 0.0}, "label": "B", "xyz": [2.006256435, 5.845174588467098, 6.820181099758379]}]}, "task_ids": null, "uncorrected_energy_per_atom": null, "energy_per_atom": -12.941992082499999, "formation_energy_per_atom": -0.6685480794999991, "energy_above_hull": 0.0, "is_stable": true, "equilibrium_reaction_energy_per_atom": null, "decomposes_to": null, "xas": null, "grain_boundaries": null, "band_gap": 0.0, "cbm": null, "vbm": null, "efermi": 5.90631589, "is_gap_direct": null, "is_metal": null, "es_source_calc_id": null, "bandstructure": null, "dos": null, "dos_energy_up": null, "dos_energy_down": null, "is_magnetic": null, "ordering": null, "total_magnetization": 0.0, "total_magnetization_normalized_vol": null, "total_magnetization_normalized_formula_units": null, "num_magnetic_sites": null, "num_unique_magnetic_sites": null, "types_of_magnetic_species": null, "bulk_modulus": null, "shear_modulus": null, "universal_anisotropy": null, "homogeneous_poisson": null, "e_total": null, "e_ionic": null, "e_electronic": null, "n": null, "e_ij_max": null, "weighted_surface_energy_EV_PER_ANG2": null, "weighted_surface_energy": null, "weighted_work_function": null, "surface_anisotropy": null, "shape_factor": null, "has_reconstructed": null, "possible_species": null, "has_props": null, "theoretical": null, "database_IDs": null, "fields_not_requested": ["builder_meta", "nsites", "elements", "nelements", "composition", "composition_reduced", "chemsys", "symmetry", "property_name", "deprecated", "deprecation_reasons", "last_updated", "origins", "warnings", "task_ids", "uncorrected_energy_per_atom", "equilibrium_reaction_energy_per_atom", "decomposes_to", "xas", "grain_boundaries", "cbm", "vbm", "is_gap_direct", "is_metal", "es_source_calc_id", "bandstructure", "dos", "dos_energy_up", "dos_energy_down", "is_magnetic", "ordering", "total_magnetization_normalized_vol", "total_magnetization_normalized_formula_units", "num_magnetic_sites", "num_unique_magnetic_sites", "types_of_magnetic_species", "bulk_modulus", "shear_modulus", "universal_anisotropy", "homogeneous_poisson", "e_total", "e_ionic", "e_electronic", "n", "e_ij_max", "weighted_surface_energy_EV_PER_ANG2", "weighted_surface_energy", "weighted_work_function", "surface_anisotropy", "shape_factor", "has_reconstructed", "possible_species", "has_props", "theoretical", "database_IDs"]}