{"builder_meta": null, "nsites": null, "elements": null, "nelements": null, "composition": null, "composition_reduced": null, "formula_pretty": "DyBr2", "formula_anonymous": "AB2", "chemsys": null, "volume": 193.52593018775542, "density": 5.531093688152965, "density_atomic": 32.254321697959234, "symmetry": null, "property_name": null, "material_id": "mp-864986", "deprecated": null, "deprecation_reasons": null, "last_updated": null, "origins": null, "warnings": null, "structure": {"@module": "pymatgen.core.structure", "@class": "Structure", "charge": 0, "lattice": {"matrix": [[7.285175, 0.0, 0.0], [0.0, 7.285175, 0.0], [0.0, 0.0, 3.646357]], "pbc": [true, true, true], "a": 7.285175, "b": 7.285175, "c": 3.646357, "alpha": 90.0, "beta": 90.0, "gamma": 90.0, "volume": 193.52593018775542}, "properties": {}, "sites": [{"species": [{"element": "Dy", "occu": 1}], "abc": [0.0, 0.0, 0.0], "properties": {"magmom": 0.093}, "label": "Dy", "xyz": [0.0, 0.0, 0.0]}, {"species": [{"element": "Dy", "occu": 1}], "abc": [0.5, 0.5, 0.5], "properties": {"magmom": 0.094}, "label": "Dy", "xyz": [3.6425875, 3.6425875, 1.8231785]}, {"species": [{"element": "Br", "occu": 1}], "abc": [0.281896, 0.281896, 0.0], "properties": {"magmom": 0.001}, "label": "Br", "xyz": [2.0536616918, 2.0536616918, 0.0]}, {"species": [{"element": "Br", "occu": 1}], "abc": [0.718104, 0.718104, 0.0], "properties": {"magmom": 0.001}, "label": "Br", "xyz": [5.231513308199999, 5.231513308199999, 0.0]}, {"species": [{"element": "Br", "occu": 1}], "abc": [0.218104, 0.781895999999999, 0.5], "properties": {"magmom": 0.002}, "label": "Br", "xyz": [1.5889258082, 5.696249191799993, 1.8231785]}, {"species": [{"element": "Br", "occu": 1}], "abc": [0.781895999999999, 0.218104, 0.5], "properties": {"magmom": 0.002}, "label": "Br", "xyz": [5.696249191799993, 1.5889258082, 1.8231785]}]}, "task_ids": null, "uncorrected_energy_per_atom": null, "energy_per_atom": -4.507070751666666, "formation_energy_per_atom": -1.8763145522222202, "energy_above_hull": 0.12391080925926001, "is_stable": false, "equilibrium_reaction_energy_per_atom": null, "decomposes_to": null, "xas": null, "grain_boundaries": null, "band_gap": 0.0, "cbm": null, "vbm": null, "efermi": 3.48192943, "is_gap_direct": null, "is_metal": null, "es_source_calc_id": null, "bandstructure": null, "dos": null, "dos_energy_up": null, "dos_energy_down": null, "is_magnetic": null, "ordering": null, "total_magnetization": 0.2517078, "total_magnetization_normalized_vol": null, "total_magnetization_normalized_formula_units": null, "num_magnetic_sites": null, "num_unique_magnetic_sites": null, "types_of_magnetic_species": null, "bulk_modulus": null, "shear_modulus": null, "universal_anisotropy": null, "homogeneous_poisson": null, "e_total": null, "e_ionic": null, "e_electronic": null, "n": null, "e_ij_max": null, "weighted_surface_energy_EV_PER_ANG2": null, "weighted_surface_energy": null, "weighted_work_function": null, "surface_anisotropy": null, "shape_factor": null, "has_reconstructed": null, "possible_species": null, "has_props": null, "theoretical": null, "database_IDs": null, "fields_not_requested": ["builder_meta", "nsites", "elements", "nelements", "composition", "composition_reduced", "chemsys", "symmetry", "property_name", "deprecated", "deprecation_reasons", "last_updated", "origins", "warnings", "task_ids", "uncorrected_energy_per_atom", "equilibrium_reaction_energy_per_atom", "decomposes_to", "xas", "grain_boundaries", "cbm", "vbm", "is_gap_direct", "is_metal", "es_source_calc_id", "bandstructure", "dos", "dos_energy_up", "dos_energy_down", "is_magnetic", "ordering", "total_magnetization_normalized_vol", "total_magnetization_normalized_formula_units", "num_magnetic_sites", "num_unique_magnetic_sites", "types_of_magnetic_species", "bulk_modulus", "shear_modulus", "universal_anisotropy", "homogeneous_poisson", "e_total", "e_ionic", "e_electronic", "n", "e_ij_max", "weighted_surface_energy_EV_PER_ANG2", "weighted_surface_energy", "weighted_work_function", "surface_anisotropy", "shape_factor", "has_reconstructed", "possible_species", "has_props", "theoretical", "database_IDs"]}