{"builder_meta": null, "nsites": null, "elements": null, "nelements": null, "composition": null, "composition_reduced": null, "formula_pretty": "DyBr3", "formula_anonymous": "AB3", "chemsys": null, "volume": 321.75660882802066, "density": 4.151515280373349, "density_atomic": 40.21957610350258, "symmetry": null, "property_name": null, "material_id": "mp-864982", "deprecated": null, "deprecation_reasons": null, "last_updated": null, "origins": null, "warnings": null, "structure": {"@module": "pymatgen.core.structure", "@class": "Structure", "charge": 0, "lattice": {"matrix": [[9.97203761, -0.00051116, -3.163e-05], [-4.98646349, 8.63627909, -2.046e-05], [-2e-05, -5.314e-05, 3.73619688]], "pbc": [true, true, true], "a": 9.972037623151023, "b": 9.972468834641342, "c": 3.7361968804314363, "alpha": 90.00066992026245, "beta": 90.00048839937699, "gamma": 120.00445667110256, "volume": 321.75660882802066}, "properties": {}, "sites": [{"species": [{"element": "Dy", "occu": 1}], "abc": [0.33333637, 0.66666581, 0.75000077], "properties": {"magmom": 0.0}, "label": "Dy", "xyz": [-0.0002769031908016454, 5.757301751661107, 2.802126353459742]}, {"species": [{"element": "Dy", "occu": 1}], "abc": [0.66666137, 0.33333187000000003, 0.25], "properties": {"magmom": 0.0}, "label": "Dy", "xyz": [4.985820054965699, 2.8783930032857095, 0.9340213135308068]}, {"species": [{"element": "Br", "occu": 1}], "abc": [0.21133083, 0.42303635, 0.24998692], "properties": {"magmom": -0.0}, "label": "Br", "xyz": [-0.0020613290437452724, 3.65333867564293, 0.9339850108269356]}, {"species": [{"element": "Br", "occu": 1}], "abc": [0.57697483, 0.78829931, 0.25001453], "properties": {"magmom": -0.0}, "label": "Br", "xyz": [1.822783975985564, 6.807664635388201, 0.9340691286229109]}, {"species": [{"element": "Br", "occu": 1}], "abc": [0.21172136, 0.78866707, 0.24999085000000001], "properties": {"magmom": -0.0}, "label": "Br", "xyz": [-1.8213711853769254, 6.811027417608421, 0.9339922009236791]}, {"species": [{"element": "Br", "occu": 1}], "abc": [0.78829771, 0.57696011, 0.75001118], "properties": {"magmom": 0.0}, "label": "Br", "xyz": [4.983928888071889, 4.982345731905552, 2.8021526922207007]}, {"species": [{"element": "Br", "occu": 1}], "abc": [0.42302119, 0.21132713, 0.74999782], "properties": {"magmom": -0.0}, "label": "Br", "xyz": [3.164593198359072, 1.8248239875730767, 2.8021218111774826]}, {"species": [{"element": "Br", "occu": 1}], "abc": [0.7886563400000001, 0.21171235, 0.7500009400000001], "properties": {"magmom": -0.0}, "label": "Br", "xyz": [6.808799780169046, 1.8279639567750554, 2.802121895190352]}]}, "task_ids": null, "uncorrected_energy_per_atom": null, "energy_per_atom": -4.632557315, "formation_energy_per_atom": -2.250253531666665, "energy_above_hull": 0.0, "is_stable": true, "equilibrium_reaction_energy_per_atom": null, "decomposes_to": null, "xas": null, "grain_boundaries": null, "band_gap": 3.0029, "cbm": null, "vbm": null, "efermi": -2.28979865, "is_gap_direct": null, "is_metal": null, "es_source_calc_id": null, "bandstructure": null, "dos": null, "dos_energy_up": null, "dos_energy_down": null, "is_magnetic": null, "ordering": null, "total_magnetization": 0.0, "total_magnetization_normalized_vol": null, "total_magnetization_normalized_formula_units": null, "num_magnetic_sites": null, "num_unique_magnetic_sites": null, "types_of_magnetic_species": null, "bulk_modulus": null, "shear_modulus": null, "universal_anisotropy": null, "homogeneous_poisson": null, "e_total": null, "e_ionic": null, "e_electronic": null, "n": null, "e_ij_max": null, "weighted_surface_energy_EV_PER_ANG2": null, "weighted_surface_energy": null, "weighted_work_function": null, "surface_anisotropy": null, "shape_factor": null, "has_reconstructed": null, "possible_species": null, "has_props": null, "theoretical": null, "database_IDs": null, "fields_not_requested": ["builder_meta", "nsites", "elements", "nelements", "composition", "composition_reduced", "chemsys", "symmetry", "property_name", "deprecated", "deprecation_reasons", "last_updated", "origins", "warnings", "task_ids", "uncorrected_energy_per_atom", "equilibrium_reaction_energy_per_atom", "decomposes_to", "xas", "grain_boundaries", "cbm", "vbm", "is_gap_direct", "is_metal", "es_source_calc_id", "bandstructure", "dos", "dos_energy_up", "dos_energy_down", "is_magnetic", "ordering", "total_magnetization_normalized_vol", "total_magnetization_normalized_formula_units", "num_magnetic_sites", "num_unique_magnetic_sites", "types_of_magnetic_species", "bulk_modulus", "shear_modulus", "universal_anisotropy", "homogeneous_poisson", "e_total", "e_ionic", "e_electronic", "n", "e_ij_max", "weighted_surface_energy_EV_PER_ANG2", "weighted_surface_energy", "weighted_work_function", "surface_anisotropy", "shape_factor", "has_reconstructed", "possible_species", "has_props", "theoretical", "database_IDs"]}