{"builder_meta": null, "nsites": null, "elements": null, "nelements": null, "composition": null, "composition_reduced": null, "formula_pretty": "DyCd3", "formula_anonymous": "AB3", "chemsys": null, "volume": 185.71534636997762, "density": 8.936538477720177, "density_atomic": 23.214418296247203, "symmetry": null, "property_name": null, "material_id": "mp-11295", "deprecated": null, "deprecation_reasons": null, "last_updated": null, "origins": null, "warnings": null, "structure": {"@module": "pymatgen.core.structure", "@class": "Structure", "charge": 0, "lattice": {"matrix": [[4.82749221, 0.0, -0.0], [0.0, 5.93180508, -2.58855118], [-0.0, 0.03094139, 6.47193605]], "pbc": [true, true, true], "a": 4.82749221, "b": 6.4720096352364305, "c": 6.472010012732114, "alpha": 113.3018171099622, "beta": 90.0, "gamma": 90.0, "volume": 185.71534636997765}, "properties": {}, "sites": [{"species": [{"element": "Dy", "occu": 1}], "abc": [0.75, 0.36470298, 0.63529702], "properties": {"magmom": -0.0}, "label": "Dy", "xyz": [3.6206191575, 2.1830039623167963, 3.1675493569670543]}, {"species": [{"element": "Dy", "occu": 1}], "abc": [0.25, 0.63529702, 0.36470298], "properties": {"magmom": -0.0}, "label": "Dy", "xyz": [1.2068730525, 3.779742507683204, 0.7158355130329455]}, {"species": [{"element": "Cd", "occu": 1}], "abc": [0.75, 0.82501269, 0.17498731], "properties": {"magmom": -0.0}, "label": "Cd", "xyz": [3.6206191575, 4.899228816210226, -1.0030808923329486]}, {"species": [{"element": "Cd", "occu": 1}], "abc": [0.25, 0.17498731, 0.82501269], "properties": {"magmom": -0.0}, "label": "Cd", "xyz": [1.2068730525, 1.063517653789774, 4.886465762332949]}, {"species": [{"element": "Cd", "occu": 1}], "abc": [0.75, 0.30857094, 0.12008359], "properties": {"magmom": 0.0}, "label": "Cd", "xyz": [3.6206191575, 1.8340982226231655, -0.021578355716289743]}, {"species": [{"element": "Cd", "occu": 1}], "abc": [0.25, 0.69142906, 0.87991641], "properties": {"magmom": 0.0}, "label": "Cd", "xyz": [1.2068730525, 4.128648247376836, 3.9049632257162896]}, {"species": [{"element": "Cd", "occu": 1}], "abc": [0.25, 0.12008359, 0.30857094], "properties": {"magmom": 0.0}, "label": "Cd", "xyz": [1.2068730525, 0.7218600629838439, 1.6862088719752508]}, {"species": [{"element": "Cd", "occu": 1}], "abc": [0.75, 0.87991641, 0.69142906], "properties": {"magmom": 0.0}, "label": "Cd", "xyz": [3.6206191575, 5.2408864070161565, 2.1971759980247496]}]}, "task_ids": null, "uncorrected_energy_per_atom": null, "energy_per_atom": -2.118291633750001, "formation_energy_per_atom": -0.24369010916666503, "energy_above_hull": 0.0, "is_stable": true, "equilibrium_reaction_energy_per_atom": null, "decomposes_to": null, "xas": null, "grain_boundaries": null, "band_gap": 0.0, "cbm": null, "vbm": null, "efermi": 3.01010358, "is_gap_direct": null, "is_metal": null, "es_source_calc_id": null, "bandstructure": null, "dos": null, "dos_energy_up": null, "dos_energy_down": null, "is_magnetic": null, "ordering": null, "total_magnetization": 0.0, "total_magnetization_normalized_vol": null, "total_magnetization_normalized_formula_units": null, "num_magnetic_sites": null, "num_unique_magnetic_sites": null, "types_of_magnetic_species": null, "bulk_modulus": null, "shear_modulus": null, "universal_anisotropy": null, "homogeneous_poisson": null, "e_total": null, "e_ionic": null, "e_electronic": null, "n": null, "e_ij_max": null, "weighted_surface_energy_EV_PER_ANG2": null, "weighted_surface_energy": null, "weighted_work_function": null, "surface_anisotropy": null, "shape_factor": null, "has_reconstructed": null, "possible_species": null, "has_props": null, "theoretical": null, "database_IDs": null, "fields_not_requested": ["builder_meta", "nsites", "elements", "nelements", "composition", "composition_reduced", "chemsys", "symmetry", "property_name", "deprecated", "deprecation_reasons", "last_updated", "origins", "warnings", "task_ids", "uncorrected_energy_per_atom", "equilibrium_reaction_energy_per_atom", "decomposes_to", "xas", "grain_boundaries", "cbm", "vbm", "is_gap_direct", "is_metal", "es_source_calc_id", "bandstructure", "dos", "dos_energy_up", "dos_energy_down", "is_magnetic", "ordering", "total_magnetization_normalized_vol", "total_magnetization_normalized_formula_units", "num_magnetic_sites", "num_unique_magnetic_sites", "types_of_magnetic_species", "bulk_modulus", "shear_modulus", "universal_anisotropy", "homogeneous_poisson", "e_total", "e_ionic", "e_electronic", "n", "e_ij_max", "weighted_surface_energy_EV_PER_ANG2", "weighted_surface_energy", "weighted_work_function", "surface_anisotropy", "shape_factor", "has_reconstructed", "possible_species", "has_props", "theoretical", "database_IDs"]}