{
  "builder_meta": null,
  "nsites": null,
  "elements": null,
  "nelements": null,
  "composition": null,
  "composition_reduced": null,
  "formula_pretty": "DyCd2",
  "formula_anonymous": "AB2",
  "chemsys": null,
  "volume": 72.49648640797797,
  "density": 8.87164805110979,
  "density_atomic": 24.16549546932599,
  "symmetry": null,
  "property_name": null,
  "material_id": "mp-11294",
  "deprecated": null,
  "deprecation_reasons": null,
  "last_updated": null,
  "origins": null,
  "warnings": null,
  "structure": {
    "@module": "pymatgen.core.structure",
    "@class": "Structure",
    "charge": 0,
    "lattice": {
      "matrix": [
        [4.91029385, 1e-8, -0.0],
        [-2.4551454, 4.25243863, -0.0],
        [0.0, -0.0, 3.4719336800000002]
      ],
      "pbc": [true, true, true],
      "a": 4.91029385,
      "b": 4.910292581614404,
      "c": 3.4719336800000002,
      "alpha": 90.0,
      "beta": 90.0,
      "gamma": 119.9999878809087,
      "volume": 72.49648640797797
    },
    "properties": {},
    "sites": [
      {
        "species": [{ "element": "Dy", "occu": 1 }],
        "abc": [0.0, 0.0, -0.0],
        "properties": { "magmom": 0.0 },
        "label": "Dy",
        "xyz": [0.0, 0.0, 0.0]
      },
      {
        "species": [{ "element": "Cd", "occu": 1 }],
        "abc": [0.333333, 0.666667, 0.5],
        "properties": { "magmom": 0.0 },
        "label": "Cd",
        "xyz": [-1.43847975020428e-6, 2.8349605074795403, 1.7359668400000001]
      },
      {
        "species": [{ "element": "Cd", "occu": 1 }],
        "abc": [0.666667, 0.333333, 0.5],
        "properties": { "magmom": 0.0 },
        "label": "Cd",
        "xyz": [2.4551498884797502, 1.4174781325204602, 1.7359668400000001]
      }
    ]
  },
  "task_ids": null,
  "uncorrected_energy_per_atom": null,
  "energy_per_atom": -2.460971926666663,
  "formation_energy_per_atom": -0.28150662388888203,
  "energy_above_hull": 0.0,
  "is_stable": true,
  "equilibrium_reaction_energy_per_atom": null,
  "decomposes_to": null,
  "xas": null,
  "grain_boundaries": null,
  "band_gap": 0.0,
  "cbm": null,
  "vbm": null,
  "efermi": 2.94861438,
  "is_gap_direct": null,
  "is_metal": null,
  "es_source_calc_id": null,
  "bandstructure": null,
  "dos": null,
  "dos_energy_up": null,
  "dos_energy_down": null,
  "is_magnetic": null,
  "ordering": null,
  "total_magnetization": 1.0100000000000002e-5,
  "total_magnetization_normalized_vol": null,
  "total_magnetization_normalized_formula_units": null,
  "num_magnetic_sites": null,
  "num_unique_magnetic_sites": null,
  "types_of_magnetic_species": null,
  "bulk_modulus": null,
  "shear_modulus": null,
  "universal_anisotropy": null,
  "homogeneous_poisson": null,
  "e_total": null,
  "e_ionic": null,
  "e_electronic": null,
  "n": null,
  "e_ij_max": null,
  "weighted_surface_energy_EV_PER_ANG2": null,
  "weighted_surface_energy": null,
  "weighted_work_function": null,
  "surface_anisotropy": null,
  "shape_factor": null,
  "has_reconstructed": null,
  "possible_species": null,
  "has_props": null,
  "theoretical": null,
  "database_IDs": null,
  "fields_not_requested": [
    "builder_meta",
    "nsites",
    "elements",
    "nelements",
    "composition",
    "composition_reduced",
    "chemsys",
    "symmetry",
    "property_name",
    "deprecated",
    "deprecation_reasons",
    "last_updated",
    "origins",
    "warnings",
    "task_ids",
    "uncorrected_energy_per_atom",
    "equilibrium_reaction_energy_per_atom",
    "decomposes_to",
    "xas",
    "grain_boundaries",
    "cbm",
    "vbm",
    "is_gap_direct",
    "is_metal",
    "es_source_calc_id",
    "bandstructure",
    "dos",
    "dos_energy_up",
    "dos_energy_down",
    "is_magnetic",
    "ordering",
    "total_magnetization_normalized_vol",
    "total_magnetization_normalized_formula_units",
    "num_magnetic_sites",
    "num_unique_magnetic_sites",
    "types_of_magnetic_species",
    "bulk_modulus",
    "shear_modulus",
    "universal_anisotropy",
    "homogeneous_poisson",
    "e_total",
    "e_ionic",
    "e_electronic",
    "n",
    "e_ij_max",
    "weighted_surface_energy_EV_PER_ANG2",
    "weighted_surface_energy",
    "weighted_work_function",
    "surface_anisotropy",
    "shape_factor",
    "has_reconstructed",
    "possible_species",
    "has_props",
    "theoretical",
    "database_IDs"
  ]
}
