{"builder_meta": null, "nsites": null, "elements": null, "nelements": null, "composition": null, "composition_reduced": null, "formula_pretty": "DyCd6", "formula_anonymous": "AB6", "chemsys": null, "volume": 1965.5940086840324, "density": 8.484853337621344, "density_atomic": 23.39992867480991, "symmetry": null, "property_name": null, "material_id": "mp-1227006", "deprecated": null, "deprecation_reasons": null, "last_updated": null, "origins": null, "warnings": null, "structure": {"@module": "pymatgen.core.structure", "@class": "Structure", "charge": 0, "lattice": {"matrix": [[-7.817697, 7.872304, 7.984599], [7.817697, -7.872304, 7.984599], [7.817698, 7.872304, -7.984599]], "pbc": [true, true, true], "a": 13.66906645835867, "b": 13.66906645835867, "c": 13.669067030284877, "alpha": 110.2306888752944, "beta": 109.67167366150913, "gamma": 108.51599474265923, "volume": 1965.5940086840324}, "properties": {}, "sites": [{"species": [{"element": "Dy", "occu": 1}], "abc": [0.8074500000000001, 0.509517, 0.702067], "properties": {"magmom": 0.0}, "label": "Dy", "xyz": [3.1593978614649987, 7.872304000000001, 4.909729925100001]}, {"species": [{"element": "Dy", "occu": 1}], "abc": [0.19255000000000003, 0.490483, 0.297933], "properties": {"magmom": 0.0}, "label": "Dy", "xyz": [4.658300138535, 4.440892098500626e-16, 3.0748690748999996]}, {"species": [{"element": "Dy", "occu": 1}], "abc": [0.19255000000000003, 0.894617, 0.702067], "properties": {"magmom": 0.0}, "label": "Dy", "xyz": [10.977094861464998, 0.0, 3.0748690749000005]}, {"species": [{"element": "Dy", "occu": 1}], "abc": [0.8074500000000001, 0.105382999999999, 0.297933], "properties": {"magmom": 0.0}, "label": "Dy", "xyz": [-3.1593968614650088, 7.872304000000009, 4.909729925099993]}, {"species": [{"element": "Dy", "occu": 1}], "abc": [0.108457, 0.301907, 0.806549], "properties": {"magmom": 0.0}, "label": "Dy", "xyz": [7.817689988851999, 4.826501710096, -3.1633783548149994]}, {"species": [{"element": "Dy", "occu": 1}], "abc": [0.891543, 0.698093, 0.193450999999999], "properties": {"magmom": 0.0}, "label": "Dy", "xyz": [8.01114799231506e-06, 3.045802289903992, 11.147977354815007]}, {"species": [{"element": "Dy", "occu": 1}], "abc": [0.495357999999999, 0.301907, 0.193450999999999], "properties": {"magmom": 0.0}, "label": "Dy", "xyz": [1.934509998857692e-07, 3.0458101622079847, 4.821212660586]}, {"species": [{"element": "Dy", "occu": 1}], "abc": [0.504641999999999, 0.698093, 0.806549], "properties": {"magmom": 0.0}, "label": "Dy", "xyz": [7.817697806549007, 4.826493837791992, 3.163386339413993]}, {"species": [{"element": "Dy", "occu": 1}], "abc": [0.301089, 0.189598, 0.490687], "properties": {"magmom": 0.0}, "label": "Dy", "xyz": [2.9644399222990003, 4.7405282781119995, 4.440892098500626e-16]}, {"species": [{"element": "Dy", "occu": 1}], "abc": [0.698911, 0.810402, 0.509313], "properties": {"magmom": 0.0}, "label": "Dy", "xyz": [4.853258077701001, 3.1317757218880002, 7.984598999999999]}, {"species": [{"element": "Dy", "occu": 1}], "abc": [0.301089, 0.810402, 0.111492], "properties": {"magmom": 0.0}, "label": "Dy", "xyz": [4.853265497577, -3.1317678495840005, 7.9845910154010005]}, {"species": [{"element": "Dy", "occu": 1}], "abc": [0.698911, 0.189598, 0.888508], "properties": {"magmom": 0.0}, "label": "Dy", "xyz": [2.9644325024230005, 11.004071849584, 7.9845990006433e-06]}, {"species": [{"element": "Cd", "occu": 1}], "abc": [0.999992, 0.678562, 0.001996], "properties": {"magmom": -0.0}, "label": "Cd", "xyz": [-2.497238221502, 2.546107793504, 13.386643330242]}, {"species": [{"element": "Cd", "occu": 1}], "abc": [0.323432999999999, 0.321438, 0.32143000000000005], "properties": {"magmom": -0.0}, "label": "Cd", "xyz": [2.497246362625008, 2.5460999211999926, 2.582546685158992]}, {"species": [{"element": "Cd", "occu": 1}], "abc": [8e-06, 0.002003, 0.67857], "properties": {"magmom": 0.0}, "label": "Cd", "xyz": [5.320451637375, 5.3262040788, -5.402052314841001]}, {"species": [{"element": "Cd", "occu": 1}], "abc": [0.676566999999999, 0.997996999999999, 0.998004], "properties": {"magmom": 0.0}, "label": "Cd", "xyz": [10.314936221502, 5.326196206495999, 5.402060299439985]}, {"species": [{"element": "Cd", "occu": 1}], "abc": [8e-06, 0.321438, 0.998004999999999], "properties": {"magmom": -0.0}, "label": "Cd", "xyz": [10.314944039199993, 5.326204078799993, -5.402052314840992]}, {"species": [{"element": "Cd", "occu": 1}], "abc": [0.676566999999999, 0.678562, 0.67857], "properties": {"magmom": -0.0}, "label": "Cd", "xyz": [5.320451637375007, 5.326204078799992, 5.402052314840994]}, {"species": [{"element": "Cd", "occu": 1}], "abc": [0.999992, 0.997996999999999, 0.32143000000000005], "properties": {"magmom": 0.0}, "label": "Cd", "xyz": [2.4972463626249928, 2.5460999212000077, 13.386651314840991]}, {"species": [{"element": "Cd", "occu": 1}], "abc": [0.323432999999999, 0.002003, 0.001996], "properties": {"magmom": 0.0}, "label": "Cd", "xyz": [-2.497238221501992, 2.546107793503992, 2.582538700559992]}, {"species": [{"element": "Cd", "occu": 1}], "abc": [0.741617, 0.647175, 0.905559], "properties": {"magmom": -0.0}, "label": "Cd", "xyz": [6.341067843108, 7.872311872304, 3.8584217285669977]}, {"species": [{"element": "Cd", "occu": 1}], "abc": [0.258383, 0.352825, 0.094441], "properties": {"magmom": -0.0}, "label": "Cd", "xyz": [1.4766301568920004, -7.872304000122732e-06, 4.126177271433001]}, {"species": [{"element": "Cd", "occu": 1}], "abc": [0.258383, 0.163942, 0.905559], "properties": {"magmom": -0.0}, "label": "Cd", "xyz": [6.341075660805, 7.872304, -3.858429713166]}, {"species": [{"element": "Cd", "occu": 1}], "abc": [0.741617, 0.836058, 0.094441], "properties": {"magmom": -0.0}, "label": "Cd", "xyz": [1.4766223391950004, 1.1102230246251565e-16, 11.843028713166]}, {"species": [{"element": "Cd", "occu": 1}], "abc": [0.856113999999999, 0.090678, 0.765436], "properties": {"magmom": -0.0}, "label": "Cd", "xyz": [7.654360079101252e-07, 12.051489769087993, 1.4480549362439925]}, {"species": [{"element": "Cd", "occu": 1}], "abc": [0.143886, 0.909322, 0.234564], "properties": {"magmom": -0.0}, "label": "Cd", "xyz": [7.817697234564, -4.179185769088001, 6.536544063756]}, {"species": [{"element": "Cd", "occu": 1}], "abc": [0.325241, 0.090678, 0.234564], "properties": {"magmom": -0.0}, "label": "Cd", "xyz": [8.052260999980021e-06, 3.693110358608, 1.4480469516450005]}, {"species": [{"element": "Cd", "occu": 1}], "abc": [0.674759, 0.909322, 0.765436], "properties": {"magmom": -0.0}, "label": "Cd", "xyz": [7.817689947739, 4.179193641392001, 6.536552048355]}, {"species": [{"element": "Cd", "occu": 1}], "abc": [0.09534000000000001, 0.24122000000000002, 0.33656], "properties": {"magmom": 0.0}, "label": "Cd", "xyz": [3.7715700772400003, 1.5010909267199999, 0.0]}, {"species": [{"element": "Cd", "occu": 1}], "abc": [0.90466, 0.75878, 0.66344], "properties": {"magmom": 0.0}, "label": "Cd", "xyz": [4.04612792276, 6.37121307328, 7.984599]}, {"species": [{"element": "Cd", "occu": 1}], "abc": [0.09534000000000001, 0.75878, 0.854120999999999], "properties": {"magmom": 0.0}, "label": "Cd", "xyz": [11.863832931137992, 1.5010987990239926, -7.984598991761516e-06]}, {"species": [{"element": "Cd", "occu": 1}], "abc": [0.90466, 0.24122000000000002, 0.145878999999999], "properties": {"magmom": 0.0}, "label": "Cd", "xyz": [-4.046134931138007, 6.371205200975992, 7.984606984599009]}, {"species": [{"element": "Cd", "occu": 1}], "abc": [0.596013999999999, 0.248775, 0.652760999999999], "properties": {"magmom": -0.0}, "label": "Cd", "xyz": [2.388479075595, 7.872303999999985, 1.533266576772001]}, {"species": [{"element": "Cd", "occu": 1}], "abc": [0.403985999999999, 0.751224999999999, 0.347238999999999], "properties": {"magmom": -0.0}, "label": "Cd", "xyz": [5.429218924404992, -8.43769498715119e-15, 6.451332423227992]}, {"species": [{"element": "Cd", "occu": 1}], "abc": [0.403985999999999, 0.056747, 0.652760999999999], "properties": {"magmom": -0.0}, "label": "Cd", "xyz": [2.388479075595, 7.872303999999985, -1.5332665767720002]}, {"species": [{"element": "Cd", "occu": 1}], "abc": [0.596013999999999, 0.943253, 0.347238999999999], "properties": {"magmom": -0.0}, "label": "Cd", "xyz": [5.429218924404999, -1.509903313490213e-14, 9.517865576772001]}, {"species": [{"element": "Cd", "occu": 1}], "abc": [0.9418500000000001, 0.347269, 0.594581], "properties": {"magmom": 0.0}, "label": "Cd", "xyz": [5.945809995466789e-07, 9.361444769248001, 5.545607420262]}, {"species": [{"element": "Cd", "occu": 1}], "abc": [0.05815000000000001, 0.652731, 0.405419], "properties": {"magmom": 0.0}, "label": "Cd", "xyz": [7.817697405418999, -1.4891407692479999, 2.438991579738]}, {"species": [{"element": "Cd", "occu": 1}], "abc": [0.752687999999999, 0.347269, 0.405419], "properties": {"magmom": 0.0}, "label": "Cd", "xyz": [4.0541900769852646e-07, 6.383163230751991, 5.545607420261991]}, {"species": [{"element": "Cd", "occu": 1}], "abc": [0.24731199999999903, 0.652731, 0.594581], "properties": {"magmom": 0.0}, "label": "Cd", "xyz": [7.817697594581007, 1.4891407692479932, 2.4389915797379906]}, {"species": [{"element": "Cd", "occu": 1}], "abc": [0.345597999999999, 0.404213999999999, 0.749811], "properties": {"magmom": -0.0}, "label": "Cd", "xyz": [6.32003808243, 5.44129716328, 7.98459898376791e-06]}, {"species": [{"element": "Cd", "occu": 1}], "abc": [0.654401999999999, 0.595785999999999, 0.250189], "properties": {"magmom": -0.0}, "label": "Cd", "xyz": [1.4976599175700005, 2.43100683672, 7.984591015400986]}, {"species": [{"element": "Cd", "occu": 1}], "abc": [0.345597999999999, 0.595785999999999, 0.941384], "properties": {"magmom": -0.0}, "label": "Cd", "xyz": [9.315349791068, 5.441305035584, -1.5987211554602254e-14]}, {"species": [{"element": "Cd", "occu": 1}], "abc": [0.654401999999999, 0.404213999999999, 0.058615999999999], "properties": {"magmom": -0.0}, "label": "Cd", "xyz": [-1.4976517910680076, 2.430998964415992, 7.984598999999992]}, {"species": [{"element": "Cd", "occu": 1}], "abc": [0.589434999999999, 0.589434999999999, 0.0], "properties": {"magmom": -0.0}, "label": "Cd", "xyz": [0.0, 0.0, 9.412804223129985]}, {"species": [{"element": "Cd", "occu": 1}], "abc": [0.410564999999999, 0.410564999999999, 0.0], "properties": {"magmom": -0.0}, "label": "Cd", "xyz": [0.0, 0.0, 6.556393776869984]}, {"species": [{"element": "Cd", "occu": 1}], "abc": [0.594855999999999, 0.0, 0.594855999999999], "properties": {"magmom": -0.0}, "label": "Cd", "xyz": [5.948560000135217e-07, 9.365774536447985, 0.0]}, {"species": [{"element": "Cd", "occu": 1}], "abc": [0.405144, 0.0, 0.405144], "properties": {"magmom": -0.0}, "label": "Cd", "xyz": [4.051440001262563e-07, 6.378833463552, 0.0]}, {"species": [{"element": "Cd", "occu": 1}], "abc": [0.0, 0.404287, 0.404287], "properties": {"magmom": 0.0}, "label": "Cd", "xyz": [6.321186938365001, 0.0, 0.0]}, {"species": [{"element": "Cd", "occu": 1}], "abc": [0.0, 0.595712999999999, 0.595712999999999], "properties": {"magmom": 0.0}, "label": "Cd", "xyz": [9.314208061634986, 0.0, 0.0]}, {"species": [{"element": "Cd", "occu": 1}], "abc": [0.778536999999999, 0.455322, 0.918976999999999], "properties": {"magmom": -0.0}, "label": "Cd", "xyz": [4.657487719091, 9.778913050367985, 2.5142065023180002]}, {"species": [{"element": "Cd", "occu": 1}], "abc": [0.463655, 0.544678, 0.323215], "properties": {"magmom": -0.0}, "label": "Cd", "xyz": [3.1602105231010005, 1.9066090503680004, 5.470392497682]}, {"species": [{"element": "Cd", "occu": 1}], "abc": [0.221463, 0.14044, 0.676785], "properties": {"magmom": -0.0}, "label": "Cd", "xyz": [4.657487476899, 5.965694949631999, -2.5142065023179994]}, {"species": [{"element": "Cd", "occu": 1}], "abc": [0.536345, 0.8595600000000001, 0.081023], "properties": {"magmom": -0.0}, "label": "Cd", "xyz": [3.1602102809090016, -1.9066090503680004, 10.498805502318001]}, {"species": [{"element": "Cd", "occu": 1}], "abc": [0.860283999999999, 0.083728, 0.542377], "properties": {"magmom": 0.0}, "label": "Cd", "xyz": [-1.830739923385993, 10.383041531631992, 3.2068944193649926]}, {"species": [{"element": "Cd", "occu": 1}], "abc": [0.139716, 0.682093, 0.223444], "properties": {"magmom": 0.0}, "label": "Cd", "xyz": [5.986956757681, -2.5107375316319995, 4.777704580635]}, {"species": [{"element": "Cd", "occu": 1}], "abc": [0.541351, 0.317907, 0.457623], "properties": {"magmom": -0.0}, "label": "Cd", "xyz": [1.8307409233860001, 5.361566468368, 3.2068944193650006]}, {"species": [{"element": "Cd", "occu": 1}], "abc": [0.458649, 0.916272, 0.776555999999999], "properties": {"magmom": -0.0}, "label": "Cd", "xyz": [9.648438242318992, 2.5107375316319915, 4.777704580635008]}, {"species": [{"element": "Cd", "occu": 1}], "abc": [0.318739, 0.459486, 0.540356], "properties": {"magmom": 0.0}, "label": "Cd", "xyz": [5.324657420147, 3.145843529135999, 1.8992885795310004]}, {"species": [{"element": "Cd", "occu": 1}], "abc": [0.919130999999999, 0.778384, 0.459644], "properties": {"magmom": 0.0}, "label": "Cd", "xyz": [2.4930405798530075, 4.726460470863993, 9.883903548728991]}, {"species": [{"element": "Cd", "occu": 1}], "abc": [0.080869, 0.540513999999999, 0.859252999999999], "properties": {"magmom": 0.0}, "label": "Cd", "xyz": [10.310745797158985, 3.1458356568319994, -1.8992965641300001]}, {"species": [{"element": "Cd", "occu": 1}], "abc": [0.681261, 0.221615999999999, 0.140746999999999], "properties": {"magmom": 0.0}, "label": "Cd", "xyz": [-2.493047797159016, 4.726468343168, 6.08530243587]}, {"species": [{"element": "Cd", "occu": 1}], "abc": [0.221463, 0.544678, 0.081023], "properties": {"magmom": -0.0}, "label": "Cd", "xyz": [3.1602102809090007, -1.9066090503679995, 5.470392497682]}, {"species": [{"element": "Cd", "occu": 1}], "abc": [0.536345, 0.455322, 0.676785], "properties": {"magmom": -0.0}, "label": "Cd", "xyz": [4.657487476899, 5.965694949631999, 2.514206502318001]}, {"species": [{"element": "Cd", "occu": 1}], "abc": [0.778536999999999, 0.8595600000000001, 0.323215], "properties": {"magmom": -0.0}, "label": "Cd", "xyz": [3.1602105231010085, 1.9066090503679916, 10.498805502317992]}, {"species": [{"element": "Cd", "occu": 1}], "abc": [0.463655, 0.14044, 0.918976999999999], "properties": {"magmom": -0.0}, "label": "Cd", "xyz": [4.657487719090993, 9.778913050367992, -2.514206502317993]}, {"species": [{"element": "Cd", "occu": 1}], "abc": [0.139716, 0.916272, 0.457623], "properties": {"magmom": 0.0}, "label": "Cd", "xyz": [9.648437923386, -2.510737531632, 4.777704580634999]}, {"species": [{"element": "Cd", "occu": 1}], "abc": [0.860283999999999, 0.317907, 0.776555999999999], "properties": {"magmom": 0.0}, "label": "Cd", "xyz": [1.8307412423189993, 10.383041531631985, 3.2068944193650006]}, {"species": [{"element": "Cd", "occu": 1}], "abc": [0.458649, 0.682093, 0.542377], "properties": {"magmom": -0.0}, "label": "Cd", "xyz": [5.986957076613999, 2.5107375316320004, 4.777704580635]}, {"species": [{"element": "Cd", "occu": 1}], "abc": [0.541351, 0.083728, 0.223444], "properties": {"magmom": -0.0}, "label": "Cd", "xyz": [-1.8307402423189996, 5.361566468368, 3.206894419365]}, {"species": [{"element": "Cd", "occu": 1}], "abc": [0.681261, 0.540513999999999, 0.459644], "properties": {"magmom": 0.0}, "label": "Cd", "xyz": [2.4930405798529924, 4.726460470864008, 6.085310420468993]}, {"species": [{"element": "Cd", "occu": 1}], "abc": [0.080869, 0.221615999999999, 0.540356], "properties": {"magmom": 0.0}, "label": "Cd", "xyz": [5.324657420146991, 3.1458435291360067, -1.899304548729008]}, {"species": [{"element": "Cd", "occu": 1}], "abc": [0.919130999999999, 0.459486, 0.140746999999999], "properties": {"magmom": 0.0}, "label": "Cd", "xyz": [-2.493047797159, 4.726468343167984, 9.88389556413]}, {"species": [{"element": "Cd", "occu": 1}], "abc": [0.318739, 0.778384, 0.859252999999999], "properties": {"magmom": 0.0}, "label": "Cd", "xyz": [10.310745797158992, 3.1458356568319927, 1.8992965641300072]}, {"species": [{"element": "Cd", "occu": 1}], "abc": [0.5, 0.308718999999999, 0.808719], "properties": {"magmom": -0.0}, "label": "Cd", "xyz": [4.8269440090049915, 7.872304000000007, -7.993605777301127e-15]}, {"species": [{"element": "Cd", "occu": 1}], "abc": [0.5, 0.691280999999999, 0.191280999999999], "properties": {"magmom": -0.0}, "label": "Cd", "xyz": [2.9907539909949845, -4.440892098500626e-16, 7.984599]}, {"species": [{"element": "Cd", "occu": 1}], "abc": [0.69228, 0.19228, 0.5], "properties": {"magmom": -0.0}, "label": "Cd", "xyz": [4.999999996257998e-07, 7.872304, 3.070557391440001]}, {"species": [{"element": "Cd", "occu": 1}], "abc": [0.30772000000000005, 0.8077200000000001, 0.5], "properties": {"magmom": -0.0}, "label": "Cd", "xyz": [7.8176975, -4.440892098500626e-16, 4.914041608560002]}, {"species": [{"element": "Cd", "occu": 1}], "abc": [0.189063999999999, 0.5, 0.689064], "properties": {"magmom": -0.0}, "label": "Cd", "xyz": [7.8176976890640075, 2.9767385669119917, -7.993605777301127e-15]}, {"species": [{"element": "Cd", "occu": 1}], "abc": [0.810936, 0.5, 0.310936], "properties": {"magmom": -0.0}, "label": "Cd", "xyz": [3.1093599961451446e-07, 4.8955654330880005, 7.984598999999999]}, {"species": [{"element": "Cd", "occu": 1}], "abc": [0.914667999999999, 0.823784, 0.909115999999999], "properties": {"magmom": 0.0}, "label": "Cd", "xyz": [6.39669076082, 7.872303999999985, 6.621915396264]}, {"species": [{"element": "Cd", "occu": 1}], "abc": [0.085331999999999, 0.176215999999999, 0.09088399999999901], "properties": {"magmom": 0.0}, "label": "Cd", "xyz": [1.4210072391799922, -7.882583474838611e-15, 1.3626836037359924]}, {"species": [{"element": "Cd", "occu": 1}], "abc": [0.085331999999999, 0.994448, 0.909115999999999], "properties": {"magmom": 0.0}, "label": "Cd", "xyz": [14.214387760820001, -1.509903313490213e-14, 1.3626836037359995]}, {"species": [{"element": "Cd", "occu": 1}], "abc": [0.914667999999999, 0.005552, 0.09088399999999901], "properties": {"magmom": 0.0}, "label": "Cd", "xyz": [-6.39668976082, 7.872303999999984, 6.621915396264001]}]}, "task_ids": null, "uncorrected_energy_per_atom": null, "energy_per_atom": -1.620890946666666, "formation_energy_per_atom": -0.13825713690475902, "energy_above_hull": 0.00566895969697, "is_stable": false, "equilibrium_reaction_energy_per_atom": null, "decomposes_to": null, "xas": null, "grain_boundaries": null, "band_gap": 0.0, "cbm": null, "vbm": null, "efermi": 2.89044823, "is_gap_direct": null, "is_metal": null, "es_source_calc_id": null, "bandstructure": null, "dos": null, "dos_energy_up": null, "dos_energy_down": null, "is_magnetic": null, "ordering": null, "total_magnetization": 0.001967, "total_magnetization_normalized_vol": null, "total_magnetization_normalized_formula_units": null, "num_magnetic_sites": null, "num_unique_magnetic_sites": null, "types_of_magnetic_species": null, "bulk_modulus": null, "shear_modulus": null, "universal_anisotropy": null, "homogeneous_poisson": null, "e_total": null, "e_ionic": null, "e_electronic": null, "n": null, "e_ij_max": null, "weighted_surface_energy_EV_PER_ANG2": null, "weighted_surface_energy": null, "weighted_work_function": null, "surface_anisotropy": null, "shape_factor": null, "has_reconstructed": null, "possible_species": null, "has_props": null, "theoretical": null, "database_IDs": null, "fields_not_requested": ["builder_meta", "nsites", "elements", "nelements", "composition", "composition_reduced", "chemsys", "symmetry", "property_name", "deprecated", "deprecation_reasons", "last_updated", "origins", "warnings", "task_ids", "uncorrected_energy_per_atom", "equilibrium_reaction_energy_per_atom", "decomposes_to", "xas", "grain_boundaries", "cbm", "vbm", "is_gap_direct", "is_metal", "es_source_calc_id", "bandstructure", "dos", "dos_energy_up", "dos_energy_down", "is_magnetic", "ordering", "total_magnetization_normalized_vol", "total_magnetization_normalized_formula_units", "num_magnetic_sites", "num_unique_magnetic_sites", "types_of_magnetic_species", "bulk_modulus", "shear_modulus", "universal_anisotropy", "homogeneous_poisson", "e_total", "e_ionic", "e_electronic", "n", "e_ij_max", "weighted_surface_energy_EV_PER_ANG2", "weighted_surface_energy", "weighted_work_function", "surface_anisotropy", "shape_factor", "has_reconstructed", "possible_species", "has_props", "theoretical", "database_IDs"]}