{
  "builder_meta": null,
  "nsites": null,
  "elements": null,
  "nelements": null,
  "composition": null,
  "composition_reduced": null,
  "formula_pretty": "DyCl3",
  "formula_anonymous": "AB3",
  "chemsys": null,
  "volume": 196.99651372944453,
  "density": 4.532576383764497,
  "density_atomic": 24.624564216180566,
  "symmetry": null,
  "property_name": null,
  "material_id": "mp-28448",
  "deprecated": null,
  "deprecation_reasons": null,
  "last_updated": null,
  "origins": null,
  "warnings": null,
  "structure": {
    "@module": "pymatgen.core.structure",
    "@class": "Structure",
    "charge": 0,
    "lattice": {
      "matrix": [
        [3.78620423, -9.570000000000001e-5, 2e-8],
        [-1.8932552, 6.10867241, 1.149999999999999e-6],
        [4e-8, 1.6e-6, 8.51747898]
      ],
      "pbc": [true, true, true],
      "a": 3.7862042312094557,
      "b": 6.395333757125078,
      "c": 8.517478980000151,
      "alpha": 89.99997949628664,
      "beta": 89.99999942854264,
      "gamma": 107.22117699308725,
      "volume": 196.99651372944453
    },
    "properties": {},
    "sites": [
      {
        "species": [{ "element": "Dy", "occu": 1 }],
        "abc": [0.24244102, 0.48485208, 0.75000011],
        "properties": { "magmom": -0.0 },
        "label": "Dy",
        "xyz": [-1.7476241297079265e-5, 2.961780522421675, 6.3881107343514]
      },
      {
        "species": [{ "element": "Dy", "occu": 1 }],
        "abc": [0.75756201, 0.51514813, 0.25000018],
        "properties": { "magmom": 0.0 },
        "label": "Dy",
        "xyz": [1.8929776208565334, 3.146799070110024, 2.129371885717806]
      },
      {
        "species": [{ "element": "Cl", "occu": 1 }],
        "abc": [0.59084263, 0.18185074, 0.75000017],
        "properties": { "magmom": -0.0 },
        "label": "Cl",
        "xyz": [1.892761035841484, 1.1108112545366644, 6.38811090391663]
      },
      {
        "species": [{ "element": "Cl", "occu": 1 }],
        "abc": [0.40915738, 0.81814899, 0.25000002],
        "properties": { "magmom": 0.0 },
        "label": "Cl",
        "xyz": [0.00018858319947032167, 4.997765406121132, 2.1293708644040654]
      },
      {
        "species": [{ "element": "Cl", "occu": 1 }],
        "abc": [0.15109118, 0.3022527, 0.43230348],
        "properties": { "magmom": -0.0 },
        "label": "Cl",
        "xyz": [-0.00017941386520933076, 1.8463489615976487, 3.682136154493279]
      },
      {
        "species": [{ "element": "Cl", "occu": 1 }],
        "abc": [0.84890686, 0.69774744, 0.56769678],
        "properties": { "magmom": -0.0 },
        "label": "Cl",
        "xyz": [1.893120797849201, 4.262230203804477, 4.8353462100513775]
      },
      {
        "species": [{ "element": "Cl", "occu": 1 }],
        "abc": [0.84890678, 0.69774728, 0.93230331],
        "properties": { "magmom": -0.0 },
        "label": "Cl",
        "xyz": [1.8931208124579557, 4.262229809794994, 7.940874665296931]
      },
      {
        "species": [{ "element": "Cl", "occu": 1 }],
        "abc": [0.15109115, 0.30225264, 0.06769697],
        "properties": { "magmom": 0.0 },
        "label": "Cl",
        "xyz": [-0.00017942844028463365, 1.8463480117097595, 0.5766078695970496]
      }
    ]
  },
  "task_ids": null,
  "uncorrected_energy_per_atom": null,
  "energy_per_atom": -15.137345275,
  "formation_energy_per_atom": -2.527565295624999,
  "energy_above_hull": 0.0,
  "is_stable": true,
  "equilibrium_reaction_energy_per_atom": null,
  "decomposes_to": null,
  "xas": null,
  "grain_boundaries": null,
  "band_gap": 3.8954,
  "cbm": null,
  "vbm": null,
  "efermi": -0.13608061,
  "is_gap_direct": null,
  "is_metal": null,
  "es_source_calc_id": null,
  "bandstructure": null,
  "dos": null,
  "dos_energy_up": null,
  "dos_energy_down": null,
  "is_magnetic": null,
  "ordering": null,
  "total_magnetization": 0.0,
  "total_magnetization_normalized_vol": null,
  "total_magnetization_normalized_formula_units": null,
  "num_magnetic_sites": null,
  "num_unique_magnetic_sites": null,
  "types_of_magnetic_species": null,
  "bulk_modulus": null,
  "shear_modulus": null,
  "universal_anisotropy": null,
  "homogeneous_poisson": null,
  "e_total": null,
  "e_ionic": null,
  "e_electronic": null,
  "n": null,
  "e_ij_max": null,
  "weighted_surface_energy_EV_PER_ANG2": null,
  "weighted_surface_energy": null,
  "weighted_work_function": null,
  "surface_anisotropy": null,
  "shape_factor": null,
  "has_reconstructed": null,
  "possible_species": null,
  "has_props": null,
  "theoretical": null,
  "database_IDs": null,
  "fields_not_requested": [
    "builder_meta",
    "nsites",
    "elements",
    "nelements",
    "composition",
    "composition_reduced",
    "chemsys",
    "symmetry",
    "property_name",
    "deprecated",
    "deprecation_reasons",
    "last_updated",
    "origins",
    "warnings",
    "task_ids",
    "uncorrected_energy_per_atom",
    "equilibrium_reaction_energy_per_atom",
    "decomposes_to",
    "xas",
    "grain_boundaries",
    "cbm",
    "vbm",
    "is_gap_direct",
    "is_metal",
    "es_source_calc_id",
    "bandstructure",
    "dos",
    "dos_energy_up",
    "dos_energy_down",
    "is_magnetic",
    "ordering",
    "total_magnetization_normalized_vol",
    "total_magnetization_normalized_formula_units",
    "num_magnetic_sites",
    "num_unique_magnetic_sites",
    "types_of_magnetic_species",
    "bulk_modulus",
    "shear_modulus",
    "universal_anisotropy",
    "homogeneous_poisson",
    "e_total",
    "e_ionic",
    "e_electronic",
    "n",
    "e_ij_max",
    "weighted_surface_energy_EV_PER_ANG2",
    "weighted_surface_energy",
    "weighted_work_function",
    "surface_anisotropy",
    "shape_factor",
    "has_reconstructed",
    "possible_species",
    "has_props",
    "theoretical",
    "database_IDs"
  ]
}
