{
  "builder_meta": null,
  "nsites": null,
  "elements": null,
  "nelements": null,
  "composition": null,
  "composition_reduced": null,
  "formula_pretty": "DyCl2",
  "formula_anonymous": "AB2",
  "chemsys": null,
  "volume": 567.7266413797373,
  "density": 5.461498589348006,
  "density_atomic": 23.655276724155723,
  "symmetry": null,
  "property_name": null,
  "material_id": "mp-1213029",
  "deprecated": null,
  "deprecation_reasons": null,
  "last_updated": null,
  "origins": null,
  "warnings": null,
  "structure": {
    "@module": "pymatgen.core.structure",
    "@class": "Structure",
    "charge": 0,
    "lattice": {
      "matrix": [
        [-6.362239, 0.0, 0.0],
        [0.0, 0.0, -7.156986],
        [0.0, -12.468067, 0.0]
      ],
      "pbc": [true, true, true],
      "a": 6.362239,
      "b": 7.156986,
      "c": 12.468067,
      "alpha": 90.0,
      "beta": 90.0,
      "gamma": 90.0,
      "volume": 567.7266413797373
    },
    "properties": {},
    "sites": [
      {
        "species": [{ "element": "Dy", "occu": 1 }],
        "abc": [0.817307999999999, 0.950153999999999, 0.59799],
        "properties": { "magmom": 0.004 },
        "label": "Dy",
        "xyz": [-5.199908832611993, -7.45577938533, -6.800238875843993]
      },
      {
        "species": [{ "element": "Dy", "occu": 1 }],
        "abc": [0.182692, 0.049845999999999, 0.40201000000000003],
        "properties": { "magmom": 0.004 },
        "label": "Dy",
        "xyz": [-1.162330167388, -5.01228761467, -0.35674712415599286]
      },
      {
        "species": [{ "element": "Dy", "occu": 1 }],
        "abc": [0.682692, 0.450154, 0.40201000000000003],
        "properties": { "magmom": 0.004 },
        "label": "Dy",
        "xyz": [-4.343449667388, -5.01228761467, -3.221745875844]
      },
      {
        "species": [{ "element": "Dy", "occu": 1 }],
        "abc": [0.182692, 0.549846, 0.09799000000000001],
        "properties": { "magmom": 0.004 },
        "label": "Dy",
        "xyz": [-1.162330167388, -1.22174588533, -3.9352401241559996]
      },
      {
        "species": [{ "element": "Dy", "occu": 1 }],
        "abc": [0.317308, 0.549846, 0.59799],
        "properties": { "magmom": 0.004 },
        "label": "Dy",
        "xyz": [-2.0187893326119997, -7.45577938533, -3.9352401241559996]
      },
      {
        "species": [{ "element": "Dy", "occu": 1 }],
        "abc": [0.817307999999999, 0.450154, 0.9020100000000001],
        "properties": { "magmom": 0.004 },
        "label": "Dy",
        "xyz": [-5.199908832611993, -11.246321114670002, -3.221745875844]
      },
      {
        "species": [{ "element": "Dy", "occu": 1 }],
        "abc": [0.317308, 0.049845999999999, 0.9020100000000001],
        "properties": { "magmom": 0.004 },
        "label": "Dy",
        "xyz": [-2.0187893326119997, -11.246321114670002, -0.35674712415599286]
      },
      {
        "species": [{ "element": "Dy", "occu": 1 }],
        "abc": [0.682692, 0.950153999999999, 0.09799000000000001],
        "properties": { "magmom": 0.004 },
        "label": "Dy",
        "xyz": [-4.343449667388, -1.22174588533, -6.800238875843993]
      },
      {
        "species": [{ "element": "Cl", "occu": 1 }],
        "abc": [0.684072, 0.623255, 0.708612999999999],
        "properties": { "magmom": 0.001 },
        "label": "Cl",
        "xyz": [-4.352229557208, -8.835034361070988, -4.4606273094299995]
      },
      {
        "species": [{ "element": "Cl", "occu": 1 }],
        "abc": [0.315928, 0.376745, 0.291387],
        "properties": { "magmom": 0.001 },
        "label": "Cl",
        "xyz": [-2.0100094427919997, -3.633032638929, -2.69635869057]
      },
      {
        "species": [{ "element": "Cl", "occu": 1 }],
        "abc": [0.815928, 0.123254999999999, 0.291387],
        "properties": { "magmom": 0.001 },
        "label": "Cl",
        "xyz": [-5.191128942792, -3.633032638929, -0.8821343094299928]
      },
      {
        "species": [{ "element": "Cl", "occu": 1 }],
        "abc": [0.315928, 0.876745, 0.208613],
        "properties": { "magmom": 0.001 },
        "label": "Cl",
        "xyz": [-2.0100094427919997, -2.601000861071, -6.27485169057]
      },
      {
        "species": [{ "element": "Cl", "occu": 1 }],
        "abc": [0.18407199999999901, 0.876745, 0.708612999999999],
        "properties": { "magmom": 0.001 },
        "label": "Cl",
        "xyz": [-1.1711100572079938, -8.835034361070988, -6.27485169057]
      },
      {
        "species": [{ "element": "Cl", "occu": 1 }],
        "abc": [0.684072, 0.123254999999999, 0.791387],
        "properties": { "magmom": 0.001 },
        "label": "Cl",
        "xyz": [-4.352229557208, -9.867066138929, -0.8821343094299928]
      },
      {
        "species": [{ "element": "Cl", "occu": 1 }],
        "abc": [0.18407199999999901, 0.376745, 0.791387],
        "properties": { "magmom": 0.001 },
        "label": "Cl",
        "xyz": [-1.1711100572079938, -9.867066138929, -2.69635869057]
      },
      {
        "species": [{ "element": "Cl", "occu": 1 }],
        "abc": [0.815928, 0.623255, 0.208613],
        "properties": { "magmom": 0.001 },
        "label": "Cl",
        "xyz": [-5.191128942792, -2.601000861071, -4.4606273094299995]
      },
      {
        "species": [{ "element": "Cl", "occu": 1 }],
        "abc": [0.9802829999999991, 0.7925500000000001, 0.955079],
        "properties": { "magmom": 0.001 },
        "label": "Cl",
        "xyz": [-6.236794733636994, -11.907988962293, -5.672269254300001]
      },
      {
        "species": [{ "element": "Cl", "occu": 1 }],
        "abc": [0.019717, 0.20745000000000002, 0.044920999999999],
        "properties": { "magmom": 0.001 },
        "label": "Cl",
        "xyz": [-0.125444266363, -0.5600780377069876, -1.4847167457000001]
      },
      {
        "species": [{ "element": "Cl", "occu": 1 }],
        "abc": [0.519717, 0.29255000000000003, 0.044920999999999],
        "properties": { "magmom": 0.001 },
        "label": "Cl",
        "xyz": [-3.306563766363, -0.5600780377069876, -2.0937762543000003]
      },
      {
        "species": [{ "element": "Cl", "occu": 1 }],
        "abc": [0.019717, 0.70745, 0.455078999999999],
        "properties": { "magmom": 0.001 },
        "label": "Cl",
        "xyz": [-0.125444266363, -5.673955462292987, -5.0632097457]
      },
      {
        "species": [{ "element": "Cl", "occu": 1 }],
        "abc": [0.480282999999999, 0.70745, 0.955079],
        "properties": { "magmom": 0.001 },
        "label": "Cl",
        "xyz": [-3.0556752336369937, -11.907988962293, -5.0632097457]
      },
      {
        "species": [{ "element": "Cl", "occu": 1 }],
        "abc": [0.9802829999999991, 0.29255000000000003, 0.544921],
        "properties": { "magmom": 0.001 },
        "label": "Cl",
        "xyz": [-6.236794733636994, -6.794111537707, -2.0937762543000003]
      },
      {
        "species": [{ "element": "Cl", "occu": 1 }],
        "abc": [0.480282999999999, 0.20745000000000002, 0.544921],
        "properties": { "magmom": 0.001 },
        "label": "Cl",
        "xyz": [-3.0556752336369937, -6.794111537707, -1.4847167457000001]
      },
      {
        "species": [{ "element": "Cl", "occu": 1 }],
        "abc": [0.519717, 0.7925500000000001, 0.455078999999999],
        "properties": { "magmom": 0.001 },
        "label": "Cl",
        "xyz": [-3.306563766363, -5.673955462292987, -5.672269254300001]
      }
    ]
  },
  "task_ids": null,
  "uncorrected_energy_per_atom": null,
  "energy_per_atom": -16.80653208833333,
  "formation_energy_per_atom": -2.044305081666664,
  "energy_above_hull": 0.202419625555556,
  "is_stable": false,
  "equilibrium_reaction_energy_per_atom": null,
  "decomposes_to": null,
  "xas": null,
  "grain_boundaries": null,
  "band_gap": 0.023600000000000003,
  "cbm": null,
  "vbm": null,
  "efermi": 5.76436063,
  "is_gap_direct": null,
  "is_metal": null,
  "es_source_calc_id": null,
  "bandstructure": null,
  "dos": null,
  "dos_energy_up": null,
  "dos_energy_down": null,
  "is_magnetic": null,
  "ordering": null,
  "total_magnetization": 0.0033391999999990004,
  "total_magnetization_normalized_vol": null,
  "total_magnetization_normalized_formula_units": null,
  "num_magnetic_sites": null,
  "num_unique_magnetic_sites": null,
  "types_of_magnetic_species": null,
  "bulk_modulus": null,
  "shear_modulus": null,
  "universal_anisotropy": null,
  "homogeneous_poisson": null,
  "e_total": null,
  "e_ionic": null,
  "e_electronic": null,
  "n": null,
  "e_ij_max": null,
  "weighted_surface_energy_EV_PER_ANG2": null,
  "weighted_surface_energy": null,
  "weighted_work_function": null,
  "surface_anisotropy": null,
  "shape_factor": null,
  "has_reconstructed": null,
  "possible_species": null,
  "has_props": null,
  "theoretical": null,
  "database_IDs": null,
  "fields_not_requested": [
    "builder_meta",
    "nsites",
    "elements",
    "nelements",
    "composition",
    "composition_reduced",
    "chemsys",
    "symmetry",
    "property_name",
    "deprecated",
    "deprecation_reasons",
    "last_updated",
    "origins",
    "warnings",
    "task_ids",
    "uncorrected_energy_per_atom",
    "equilibrium_reaction_energy_per_atom",
    "decomposes_to",
    "xas",
    "grain_boundaries",
    "cbm",
    "vbm",
    "is_gap_direct",
    "is_metal",
    "es_source_calc_id",
    "bandstructure",
    "dos",
    "dos_energy_up",
    "dos_energy_down",
    "is_magnetic",
    "ordering",
    "total_magnetization_normalized_vol",
    "total_magnetization_normalized_formula_units",
    "num_magnetic_sites",
    "num_unique_magnetic_sites",
    "types_of_magnetic_species",
    "bulk_modulus",
    "shear_modulus",
    "universal_anisotropy",
    "homogeneous_poisson",
    "e_total",
    "e_ionic",
    "e_electronic",
    "n",
    "e_ij_max",
    "weighted_surface_energy_EV_PER_ANG2",
    "weighted_surface_energy",
    "weighted_work_function",
    "surface_anisotropy",
    "shape_factor",
    "has_reconstructed",
    "possible_species",
    "has_props",
    "theoretical",
    "database_IDs"
  ]
}
