{
  "builder_meta": null,
  "nsites": null,
  "elements": null,
  "nelements": null,
  "composition": null,
  "composition_reduced": null,
  "formula_pretty": "DyCo3",
  "formula_anonymous": "AB3",
  "chemsys": null,
  "volume": 174.0357371971533,
  "density": 9.712146917309402,
  "density_atomic": 14.502978099762776,
  "symmetry": null,
  "property_name": null,
  "material_id": "mp-568945",
  "deprecated": null,
  "deprecation_reasons": null,
  "last_updated": null,
  "origins": null,
  "warnings": null,
  "structure": {
    "@module": "pymatgen.core.structure",
    "@class": "Structure",
    "charge": 0,
    "lattice": {
      "matrix": [
        [4.75946934, -0.02160618, 7.05568642],
        [2.14130073, 4.25062881, 7.05568641],
        [-0.03525535, -0.02160617, 8.51081824]
      ],
      "pbc": [true, true, true],
      "a": 8.510918051701982,
      "b": 8.510917977102073,
      "c": 8.510918686052781,
      "alpha": 34.23917677535165,
      "beta": 34.239174322184944,
      "gamma": 34.23917945702236,
      "volume": 174.0357371971533
    },
    "properties": {},
    "sites": [
      {
        "species": [{ "element": "Dy", "occu": 1 }],
        "abc": [0.14199837, 0.14199837, 0.14199837],
        "properties": { "magmom": -0.616 },
        "label": "Dy",
        "xyz": [0.9748918994510065, 0.5974462792311703, 3.212314257768556]
      },
      {
        "species": [{ "element": "Dy", "occu": 1 }],
        "abc": [0.8580016300000001, 0.8580016300000001, 0.8580016300000001],
        "properties": { "magmom": -0.616 },
        "label": "Dy",
        "xyz": [5.8906228205489946, 3.6099701807688303, 19.409876812231445]
      },
      {
        "species": [{ "element": "Dy", "occu": 1 }],
        "abc": [-0.0, 0.0, 0.0],
        "properties": { "magmom": -0.53 },
        "label": "Dy",
        "xyz": [0.0, 0.0, 0.0]
      },
      {
        "species": [{ "element": "Co", "occu": 1 }],
        "abc": [0.57412217, 0.09299403, 0.57412217],
        "properties": { "magmom": 1.565 },
        "label": "Co",
        "xyz": [2.9114041718078, 0.37047393492320485, 9.593212148396445]
      },
      {
        "species": [{ "element": "Co", "occu": 1 }],
        "abc": [0.57412217, 0.57412217, 0.09299403],
        "properties": { "magmom": 1.565 },
        "label": "Co",
        "xyz": [3.9586065501838914, 2.425966404493542, 8.893107277573748]
      },
      {
        "species": [{ "element": "Co", "occu": 1 }],
        "abc": [0.32812294000000003, 0.32812294000000003, 0.32812294000000003],
        "properties": { "magmom": 1.76 },
        "label": "Co",
        "xyz": [2.2527328745396766, 1.3805498586595926, 7.422859843130146]
      },
      {
        "species": [{ "element": "Co", "occu": 1 }],
        "abc": [0.90700597, 0.42587783, 0.42587783],
        "properties": { "magmom": 1.565 },
        "label": "Co",
        "xyz": [5.213785141727885, 1.7814500506951767, 13.028978926414839]
      },
      {
        "species": [{ "element": "Co", "occu": 1 }],
        "abc": [0.09299403, 0.57412217, 0.57412217],
        "properties": { "magmom": 1.565 },
        "label": "Co",
        "xyz": [1.651729578272115, 2.4259664093048237, 9.593212143585163]
      },
      {
        "species": [{ "element": "Co", "occu": 1 }],
        "abc": [0.42587783, 0.90700597, 0.42587783],
        "properties": { "magmom": 1.565 },
        "label": "Co",
        "xyz": [3.9541105481922, 3.8369425250767955, 13.028978921603557]
      },
      {
        "species": [{ "element": "Co", "occu": 1 }],
        "abc": [0.67187706, 0.67187706, 0.67187706],
        "properties": { "magmom": 1.76 },
        "label": "Co",
        "xyz": [4.612781845460324, 2.826866601340408, 15.199331226869855]
      },
      {
        "species": [{ "element": "Co", "occu": 1 }],
        "abc": [0.5, 0.5, 0.5],
        "properties": { "magmom": 1.419 },
        "label": "Co",
        "xyz": [3.43275736, 2.10370823, 11.311095535]
      },
      {
        "species": [{ "element": "Co", "occu": 1 }],
        "abc": [0.42587783, 0.42587783, 0.90700597],
        "properties": { "magmom": 1.565 },
        "label": "Co",
        "xyz": [2.9069081698161088, 1.7814500555064583, 13.729083792426252]
      }
    ]
  },
  "task_ids": null,
  "uncorrected_energy_per_atom": null,
  "energy_per_atom": -6.6594101174999984,
  "formation_energy_per_atom": -0.154753695416663,
  "energy_above_hull": 0.0,
  "is_stable": true,
  "equilibrium_reaction_energy_per_atom": null,
  "decomposes_to": null,
  "xas": null,
  "grain_boundaries": null,
  "band_gap": 0.0,
  "cbm": null,
  "vbm": null,
  "efermi": 4.66006374,
  "is_gap_direct": null,
  "is_metal": null,
  "es_source_calc_id": null,
  "bandstructure": null,
  "dos": null,
  "dos_energy_up": null,
  "dos_energy_down": null,
  "is_magnetic": null,
  "ordering": null,
  "total_magnetization": 11.8028232,
  "total_magnetization_normalized_vol": null,
  "total_magnetization_normalized_formula_units": null,
  "num_magnetic_sites": null,
  "num_unique_magnetic_sites": null,
  "types_of_magnetic_species": null,
  "bulk_modulus": null,
  "shear_modulus": null,
  "universal_anisotropy": null,
  "homogeneous_poisson": null,
  "e_total": null,
  "e_ionic": null,
  "e_electronic": null,
  "n": null,
  "e_ij_max": null,
  "weighted_surface_energy_EV_PER_ANG2": null,
  "weighted_surface_energy": null,
  "weighted_work_function": null,
  "surface_anisotropy": null,
  "shape_factor": null,
  "has_reconstructed": null,
  "possible_species": null,
  "has_props": null,
  "theoretical": null,
  "database_IDs": null,
  "fields_not_requested": [
    "builder_meta",
    "nsites",
    "elements",
    "nelements",
    "composition",
    "composition_reduced",
    "chemsys",
    "symmetry",
    "property_name",
    "deprecated",
    "deprecation_reasons",
    "last_updated",
    "origins",
    "warnings",
    "task_ids",
    "uncorrected_energy_per_atom",
    "equilibrium_reaction_energy_per_atom",
    "decomposes_to",
    "xas",
    "grain_boundaries",
    "cbm",
    "vbm",
    "is_gap_direct",
    "is_metal",
    "es_source_calc_id",
    "bandstructure",
    "dos",
    "dos_energy_up",
    "dos_energy_down",
    "is_magnetic",
    "ordering",
    "total_magnetization_normalized_vol",
    "total_magnetization_normalized_formula_units",
    "num_magnetic_sites",
    "num_unique_magnetic_sites",
    "types_of_magnetic_species",
    "bulk_modulus",
    "shear_modulus",
    "universal_anisotropy",
    "homogeneous_poisson",
    "e_total",
    "e_ionic",
    "e_electronic",
    "n",
    "e_ij_max",
    "weighted_surface_energy_EV_PER_ANG2",
    "weighted_surface_energy",
    "weighted_work_function",
    "surface_anisotropy",
    "shape_factor",
    "has_reconstructed",
    "possible_species",
    "has_props",
    "theoretical",
    "database_IDs"
  ]
}
