{"builder_meta": null, "nsites": null, "elements": null, "nelements": null, "composition": null, "composition_reduced": null, "formula_pretty": "DyCo2", "formula_anonymous": "AB2", "chemsys": null, "volume": 91.10510922913666, "density": 10.220268599551153, "density_atomic": 15.184184871522776, "symmetry": null, "property_name": null, "material_id": "mp-2628", "deprecated": null, "deprecation_reasons": null, "last_updated": null, "origins": null, "warnings": null, "structure": {"@module": "pymatgen.core.structure", "@class": "Structure", "charge": 0, "lattice": {"matrix": [[4.3739039, 8.282000000000002e-05, 2.52542154], [1.45788802, 4.1243242, 2.52570526], [0.00012575, 0.00043636, 5.05062554]], "pbc": [true, true, true], "a": 5.0506226633941225, "b": 5.051205266662287, "c": 5.050625560415601, "alpha": 59.993513189059804, "beta": 59.997129826046645, "gamma": 60.001015940126194, "volume": 91.10510922913666}, "properties": {}, "sites": [{"species": [{"element": "Dy", "occu": 1}], "abc": [0.12498364000000001, 0.12501291, 0.12500092000000002], "properties": {"magmom": -0.586}, "label": "Dy", "xyz": [0.7289369731322243, 0.515658666571938, 1.2627149800340094]}, {"species": [{"element": "Dy", "occu": 1}], "abc": [0.87501473, 0.87498754, 0.87499967], "properties": {"magmom": -0.586}, "label": "Dy", "xyz": [5.1029742235282205, 3.609186569496408, 8.839037359965317]}, {"species": [{"element": "Co", "occu": 1}], "abc": [0.5000022, 0.99999939, 0.49999915], "properties": {"magmom": 1.3900000000000001}, "label": "Co", "xyz": [3.6449115781700003, 4.124581273973536, 6.313728522215471]}, {"species": [{"element": "Co", "occu": 1}], "abc": [2.5e-07, 0.50000133, 0.49999926], "properties": {"magmom": 1.391}, "label": "Co", "xyz": [0.7290099173739866, 2.062385765048985, 3.7881656530804815]}, {"species": [{"element": "Co", "occu": 1}], "abc": [0.49999904, 0.49999996, 0.50000085], "properties": {"magmom": 1.3900000000000001}, "label": "Co", "xyz": [2.915954577843623, 2.062421525318431, 5.0508779375988215]}, {"species": [{"element": "Co", "occu": 1}], "abc": [0.49999913, 0.49999986, 1.5e-07], "properties": {"magmom": 1.391}, "label": "Co", "xyz": [2.9158919506181467, 2.0622029325880127, 2.525561606878355]}]}, "task_ids": null, "uncorrected_energy_per_atom": null, "energy_per_atom": -6.478290439999999, "formation_energy_per_atom": -0.18322078388888702, "energy_above_hull": 0.0, "is_stable": true, "equilibrium_reaction_energy_per_atom": null, "decomposes_to": null, "xas": null, "grain_boundaries": null, "band_gap": 0.0, "cbm": null, "vbm": null, "efermi": 4.78119521, "is_gap_direct": null, "is_metal": null, "es_source_calc_id": null, "bandstructure": null, "dos": null, "dos_energy_up": null, "dos_energy_down": null, "is_magnetic": null, "ordering": null, "total_magnetization": 4.0764993, "total_magnetization_normalized_vol": null, "total_magnetization_normalized_formula_units": null, "num_magnetic_sites": null, "num_unique_magnetic_sites": null, "types_of_magnetic_species": null, "bulk_modulus": null, "shear_modulus": null, "universal_anisotropy": null, "homogeneous_poisson": null, "e_total": null, "e_ionic": null, "e_electronic": null, "n": null, "e_ij_max": null, "weighted_surface_energy_EV_PER_ANG2": null, "weighted_surface_energy": null, "weighted_work_function": null, "surface_anisotropy": null, "shape_factor": null, "has_reconstructed": null, "possible_species": null, "has_props": null, "theoretical": null, "database_IDs": null, "fields_not_requested": ["builder_meta", "nsites", "elements", "nelements", "composition", "composition_reduced", "chemsys", "symmetry", "property_name", "deprecated", "deprecation_reasons", "last_updated", "origins", "warnings", "task_ids", "uncorrected_energy_per_atom", "equilibrium_reaction_energy_per_atom", "decomposes_to", "xas", "grain_boundaries", "cbm", "vbm", "is_gap_direct", "is_metal", "es_source_calc_id", "bandstructure", "dos", "dos_energy_up", "dos_energy_down", "is_magnetic", "ordering", "total_magnetization_normalized_vol", "total_magnetization_normalized_formula_units", "num_magnetic_sites", "num_unique_magnetic_sites", "types_of_magnetic_species", "bulk_modulus", "shear_modulus", "universal_anisotropy", "homogeneous_poisson", "e_total", "e_ionic", "e_electronic", "n", "e_ij_max", "weighted_surface_energy_EV_PER_ANG2", "weighted_surface_energy", "weighted_work_function", "surface_anisotropy", "shape_factor", "has_reconstructed", "possible_species", "has_props", "theoretical", "database_IDs"]}