{
  "builder_meta": null,
  "nsites": null,
  "elements": null,
  "nelements": null,
  "composition": null,
  "composition_reduced": null,
  "formula_pretty": "DyCu7",
  "formula_anonymous": "AB7",
  "chemsys": null,
  "volume": 346.6493149595515,
  "density": 8.727684118948735,
  "density_atomic": 14.443721456647978,
  "symmetry": null,
  "property_name": null,
  "material_id": "mp-1225716",
  "deprecated": null,
  "deprecation_reasons": null,
  "last_updated": null,
  "origins": null,
  "warnings": null,
  "structure": {
    "@module": "pymatgen.core.structure",
    "@class": "Structure",
    "charge": 0,
    "lattice": {
      "matrix": [
        [0.0, 0.0, -4.111554],
        [-2.470709, -4.279392, 0.0],
        [-14.776225, 8.531058, 0.0]
      ],
      "pbc": [true, true, true],
      "a": 4.111554,
      "b": 4.941416684751955,
      "c": 17.062115222034723,
      "alpha": 89.99999270353166,
      "beta": 90.0,
      "gamma": 90.0,
      "volume": 346.6493149595515
    },
    "properties": {},
    "sites": [
      {
        "species": [{ "element": "Dy", "occu": 1 }],
        "abc": [0.0, 0.499984, 0.242839],
        "properties": { "magmom": 0.0 },
        "label": "Dy",
        "xyz": [-4.823558671431, -0.06795393606599953, 0.0]
      },
      {
        "species": [{ "element": "Dy", "occu": 1 }],
        "abc": [0.0, 0.999992, 0.5],
        "properties": { "magmom": 0.001 },
        "label": "Dy",
        "xyz": [-9.858801734328, -0.013828764863999865, 0.0]
      },
      {
        "species": [{ "element": "Dy", "occu": 1 }],
        "abc": [0.0, 0.499984, 0.757161],
        "properties": { "magmom": 0.0 },
        "label": "Dy",
        "xyz": [-12.423296265881, 4.3197568766100005, 0.0]
      },
      {
        "species": [{ "element": "Cu", "occu": 1 }],
        "abc": [0.0, 0.999981999999999, 0.152271],
        "properties": { "magmom": 0.0 },
        "label": "Cu",
        "xyz": [-4.720655084212997, -2.980282238225996, 0.0]
      },
      {
        "species": [{ "element": "Cu", "occu": 1 }],
        "abc": [0.0, 0.499988999999999, 0.415485],
        "properties": { "magmom": -0.0 },
        "label": "Cu",
        "xyz": [-7.374627166325998, 1.4048777064420044, 0.0]
      },
      {
        "species": [{ "element": "Cu", "occu": 1 }],
        "abc": [0.0, 0.999988, 0.669171],
        "properties": { "magmom": -0.0 },
        "label": "Cu",
        "xyz": [-12.358500610966999, 1.4293959656220006, 0.0]
      },
      {
        "species": [{ "element": "Cu", "occu": 1 }],
        "abc": [0.0, 0.499984, 0.925666],
        "properties": { "magmom": 0.0 },
        "label": "Cu",
        "xyz": [-14.913164059506, 5.757282804900001, 0.0]
      },
      {
        "species": [{ "element": "Cu", "occu": 1 }],
        "abc": [0.0, 0.499984, 0.074334],
        "properties": { "magmom": 0.0 },
        "label": "Cu",
        "xyz": [-2.333690877806, -1.5054798643559997, 0.0]
      },
      {
        "species": [{ "element": "Cu", "occu": 1 }],
        "abc": [0.0, 0.999988, 0.330829],
        "properties": { "magmom": -0.0 },
        "label": "Cu",
        "xyz": [-7.359083092016999, -1.4570192602139995, 0.0]
      },
      {
        "species": [{ "element": "Cu", "occu": 1 }],
        "abc": [0.0, 0.499988999999999, 0.584515],
        "properties": { "magmom": -0.0 },
        "label": "Cu",
        "xyz": [-9.872252478075998, 2.846882440182004, 0.0]
      },
      {
        "species": [{ "element": "Cu", "occu": 1 }],
        "abc": [0.0, 0.999981999999999, 0.847729],
        "properties": { "magmom": 0.0 },
        "label": "Cu",
        "xyz": [-14.996898970262997, 2.9527102963380036, 0.0]
      },
      {
        "species": [{ "element": "Cu", "occu": 1 }],
        "abc": [0.5, 0.999977999999999, 0.246126999999999],
        "properties": { "magmom": -0.0 },
        "label": "Cu",
        "xyz": [-6.1074825749769825, -2.179574141010004, -2.055777]
      },
      {
        "species": [{ "element": "Cu", "occu": 1 }],
        "abc": [0.5, 0.49998000000000004, 0.5],
        "properties": { "magmom": -0.0 },
        "label": "Cu",
        "xyz": [-8.62341758582, 2.1259185878399998, -2.055777]
      },
      {
        "species": [{ "element": "Cu", "occu": 1 }],
        "abc": [0.5, 0.999977999999999, 0.753873],
        "properties": { "magmom": -0.0 },
        "label": "Cu",
        "xyz": [-13.610051713826998, 2.1520364342580045, -2.055777]
      },
      {
        "species": [{ "element": "Cu", "occu": 1 }],
        "abc": [0.5, 0.499975, 0.0],
        "properties": { "magmom": 0.0 },
        "label": "Cu",
        "xyz": [-1.235292732275, -2.1395890152, -2.055777]
      },
      {
        "species": [{ "element": "Cu", "occu": 1 }],
        "abc": [0.5, 0.250452, 0.121427],
        "properties": { "magmom": 0.0 },
        "label": "Cu",
        "xyz": [-2.413026683543, -0.03588150541800017, -2.055777]
      },
      {
        "species": [{ "element": "Cu", "occu": 1 }],
        "abc": [0.5, 0.749883, 0.372896],
        "properties": { "magmom": 0.0 },
        "label": "Cu",
        "xyz": [-7.362737874647, -0.027845907167999506, -2.055777]
      },
      {
        "species": [{ "element": "Cu", "occu": 1 }],
        "abc": [0.5, 0.250089, 0.627103],
        "properties": { "magmom": 0.0 },
        "label": "Cu",
        "xyz": [-9.884112169276, 4.279623199086, -2.055777]
      },
      {
        "species": [{ "element": "Cu", "occu": 1 }],
        "abc": [0.5, 0.749505, 0.878572999999999],
        "properties": { "magmom": 0.0 },
        "label": "Cu",
        "xyz": [-14.833801075969987, 4.287731519273992, -2.055777]
      },
      {
        "species": [{ "element": "Cu", "occu": 1 }],
        "abc": [0.5, 0.749505, 0.121427],
        "properties": { "magmom": 0.0 },
        "label": "Cu",
        "xyz": [-3.6460414221199997, -2.171524921194, -2.055777]
      },
      {
        "species": [{ "element": "Cu", "occu": 1 }],
        "abc": [0.5, 0.250089, 0.372897],
        "properties": { "magmom": 0.0 },
        "label": "Cu",
        "xyz": [-6.127907116925999, 2.1109770691379994, -2.055777]
      },
      {
        "species": [{ "element": "Cu", "occu": 1 }],
        "abc": [0.5, 0.749883, 0.627104],
        "properties": { "magmom": 0.0 },
        "label": "Cu",
        "xyz": [-11.118972479446999, 2.1408172848960008, -2.055777]
      },
      {
        "species": [{ "element": "Cu", "occu": 1 }],
        "abc": [0.5, 0.250452, 0.878572999999999],
        "properties": { "magmom": 0.0 },
        "label": "Cu",
        "xyz": [-13.600786337392986, 6.423374935049992, -2.055777]
      },
      {
        "species": [{ "element": "Cu", "occu": 1 }],
        "abc": [0.0, 0.999983, 0.0],
        "properties": { "magmom": 0.0 },
        "label": "Cu",
        "xyz": [-2.4706669979469997, -4.279319250335999, 0.0]
      }
    ]
  },
  "task_ids": null,
  "uncorrected_energy_per_atom": null,
  "energy_per_atom": -13.59339744375,
  "formation_energy_per_atom": -0.104725540624999,
  "energy_above_hull": 0.048040481249999004,
  "is_stable": false,
  "equilibrium_reaction_energy_per_atom": null,
  "decomposes_to": null,
  "xas": null,
  "grain_boundaries": null,
  "band_gap": 0.0,
  "cbm": null,
  "vbm": null,
  "efermi": 5.7959938300000005,
  "is_gap_direct": null,
  "is_metal": null,
  "es_source_calc_id": null,
  "bandstructure": null,
  "dos": null,
  "dos_energy_up": null,
  "dos_energy_down": null,
  "is_magnetic": null,
  "ordering": null,
  "total_magnetization": 0.0020617,
  "total_magnetization_normalized_vol": null,
  "total_magnetization_normalized_formula_units": null,
  "num_magnetic_sites": null,
  "num_unique_magnetic_sites": null,
  "types_of_magnetic_species": null,
  "bulk_modulus": null,
  "shear_modulus": null,
  "universal_anisotropy": null,
  "homogeneous_poisson": null,
  "e_total": null,
  "e_ionic": null,
  "e_electronic": null,
  "n": null,
  "e_ij_max": null,
  "weighted_surface_energy_EV_PER_ANG2": null,
  "weighted_surface_energy": null,
  "weighted_work_function": null,
  "surface_anisotropy": null,
  "shape_factor": null,
  "has_reconstructed": null,
  "possible_species": null,
  "has_props": null,
  "theoretical": null,
  "database_IDs": null,
  "fields_not_requested": [
    "builder_meta",
    "nsites",
    "elements",
    "nelements",
    "composition",
    "composition_reduced",
    "chemsys",
    "symmetry",
    "property_name",
    "deprecated",
    "deprecation_reasons",
    "last_updated",
    "origins",
    "warnings",
    "task_ids",
    "uncorrected_energy_per_atom",
    "equilibrium_reaction_energy_per_atom",
    "decomposes_to",
    "xas",
    "grain_boundaries",
    "cbm",
    "vbm",
    "is_gap_direct",
    "is_metal",
    "es_source_calc_id",
    "bandstructure",
    "dos",
    "dos_energy_up",
    "dos_energy_down",
    "is_magnetic",
    "ordering",
    "total_magnetization_normalized_vol",
    "total_magnetization_normalized_formula_units",
    "num_magnetic_sites",
    "num_unique_magnetic_sites",
    "types_of_magnetic_species",
    "bulk_modulus",
    "shear_modulus",
    "universal_anisotropy",
    "homogeneous_poisson",
    "e_total",
    "e_ionic",
    "e_electronic",
    "n",
    "e_ij_max",
    "weighted_surface_energy_EV_PER_ANG2",
    "weighted_surface_energy",
    "weighted_work_function",
    "surface_anisotropy",
    "shape_factor",
    "has_reconstructed",
    "possible_species",
    "has_props",
    "theoretical",
    "database_IDs"
  ]
}
