{"builder_meta": null, "nsites": null, "elements": null, "nelements": null, "composition": null, "composition_reduced": null, "formula_pretty": "DyEr3", "formula_anonymous": "AB3", "chemsys": null, "volume": 248.2584018854786, "density": 8.886369211807684, "density_atomic": 31.032300235684826, "symmetry": null, "property_name": null, "material_id": "mp-1183856", "deprecated": null, "deprecation_reasons": null, "last_updated": null, "origins": null, "warnings": null, "structure": {"@module": "pymatgen.core.structure", "@class": "Structure", "charge": 0, "lattice": {"matrix": [[7.19994072, -7.709999999999999e-06, 2e-07], [-3.599976, 6.23534496, -1.5e-07], [1.5e-07, -5e-08, 5.52986868]], "pbc": [true, true, true], "a": 7.199940720004131, "b": 7.199955136719494, "c": 5.5298686800000025, "alpha": 90.00000241940603, "beta": 89.99999685426495, "gamma": 120.00004694327954, "volume": 248.2584018854786}, "properties": {}, "sites": [{"species": [{"element": "Dy", "occu": 1}], "abc": [0.33333354, 0.66666644, 0.75000077], "properties": {"magmom": 0.0}, "label": "Dy", "xyz": [-1.343517575803657e-06, 4.15689261915351, 4.147405734665625]}, {"species": [{"element": "Dy", "occu": 1}], "abc": [0.66666737, 0.33333367, 0.25000023], "properties": {"magmom": 0.0}, "label": "Dy", "xyz": [3.5999723694664207, 2.078445266727369, 1.3824685252032198]}, {"species": [{"element": "Er", "occu": 1}], "abc": [0.16624366000000002, 0.33248445, 0.25000012], "properties": {"magmom": 0.0}, "label": "Er", "xyz": [8.494202653495361e-06, 2.073153945347247, 1.382467816960306]}, {"species": [{"element": "Er", "occu": 1}], "abc": [0.6675174700000001, 0.83375907, 0.25000005000000003], "properties": {"magmom": 0.0}, "label": "Er", "xyz": [1.8045736092820666, 5.198770255919091, 1.3824674549330676]}, {"species": [{"element": "Er", "occu": 1}], "abc": [0.16624203, 0.83375975, 0.2500003], "properties": {"magmom": 0.0}, "label": "Er", "xyz": [-1.8045822910934932, 5.198778360787293, 1.3824687371450475]}, {"species": [{"element": "Er", "occu": 1}], "abc": [0.83375561, 0.66751507, 0.7500008300000001], "properties": {"magmom": 0.0}, "label": "Er", "xyz": [3.5999528478292437, 4.162180261692752, 4.147406166414866]}, {"species": [{"element": "Er", "occu": 1}], "abc": [0.33248401, 0.16624255000000002, 0.7500009], "properties": {"magmom": 0.0}, "label": "Er", "xyz": [1.795396084669222, 1.0365770453282859, 4.147406528442231]}, {"species": [{"element": "Er", "occu": 1}], "abc": [0.83375731, 0.16624101, 0.75000079], "properties": {"magmom": 0.0}, "label": "Er", "xyz": [5.404539673151022, 1.0365635780799098, 4.147406020411568]}]}, "task_ids": null, "uncorrected_energy_per_atom": null, "energy_per_atom": -33.4275451125, "formation_energy_per_atom": 0.011982068750000002, "energy_above_hull": 0.011982068750000002, "is_stable": false, "equilibrium_reaction_energy_per_atom": null, "decomposes_to": null, "xas": null, "grain_boundaries": null, "band_gap": 0.0, "cbm": null, "vbm": null, "efermi": 2.96858245, "is_gap_direct": null, "is_metal": null, "es_source_calc_id": null, "bandstructure": null, "dos": null, "dos_energy_up": null, "dos_energy_down": null, "is_magnetic": null, "ordering": null, "total_magnetization": 8.94e-05, "total_magnetization_normalized_vol": null, "total_magnetization_normalized_formula_units": null, "num_magnetic_sites": null, "num_unique_magnetic_sites": null, "types_of_magnetic_species": null, "bulk_modulus": null, "shear_modulus": null, "universal_anisotropy": null, "homogeneous_poisson": null, "e_total": null, "e_ionic": null, "e_electronic": null, "n": null, "e_ij_max": null, "weighted_surface_energy_EV_PER_ANG2": null, "weighted_surface_energy": null, "weighted_work_function": null, "surface_anisotropy": null, "shape_factor": null, "has_reconstructed": null, "possible_species": null, "has_props": null, "theoretical": null, "database_IDs": null, "fields_not_requested": ["builder_meta", "nsites", "elements", "nelements", "composition", "composition_reduced", "chemsys", "symmetry", "property_name", "deprecated", "deprecation_reasons", "last_updated", "origins", "warnings", "task_ids", "uncorrected_energy_per_atom", "equilibrium_reaction_energy_per_atom", "decomposes_to", "xas", "grain_boundaries", "cbm", "vbm", "is_gap_direct", "is_metal", "es_source_calc_id", "bandstructure", "dos", "dos_energy_up", "dos_energy_down", "is_magnetic", "ordering", "total_magnetization_normalized_vol", "total_magnetization_normalized_formula_units", "num_magnetic_sites", "num_unique_magnetic_sites", "types_of_magnetic_species", "bulk_modulus", "shear_modulus", "universal_anisotropy", "homogeneous_poisson", "e_total", "e_ionic", "e_electronic", "n", "e_ij_max", "weighted_surface_energy_EV_PER_ANG2", "weighted_surface_energy", "weighted_work_function", "surface_anisotropy", "shape_factor", "has_reconstructed", "possible_species", "has_props", "theoretical", "database_IDs"]}