{"builder_meta": null, "nsites": null, "elements": null, "nelements": null, "composition": null, "composition_reduced": null, "formula_pretty": "DyF3", "formula_anonymous": "AB3", "chemsys": null, "volume": 189.581093522056, "density": 7.690226144411419, "density_atomic": 11.8488183451285, "symmetry": null, "property_name": null, "material_id": "mp-1212843", "deprecated": null, "deprecation_reasons": null, "last_updated": null, "origins": null, "warnings": null, "structure": {"@module": "pymatgen.core.structure", "@class": "Structure", "charge": 0, "lattice": {"matrix": [[-0.0, 0.0, 4.34898429], [6.37037363, 0.0, 0.0], [0.0, 6.84293288, 0.0]], "pbc": [true, true, true], "a": 4.34898429, "b": 6.37037363, "c": 6.84293288, "alpha": 90.0, "beta": 90.0, "gamma": 90.0, "volume": 189.581093522056}, "properties": {}, "sites": [{"species": [{"element": "Dy", "occu": 1}], "abc": [0.43684042, 0.36877035, 0.25], "properties": {"magmom": -0.0}, "label": "Dy", "xyz": [2.3492049131658703, 1.71073322, 1.8998121238170018]}, {"species": [{"element": "Dy", "occu": 1}], "abc": [0.56315958, 0.63122965, 0.75], "properties": {"magmom": -0.0}, "label": "Dy", "xyz": [4.021168716834129, 5.13219966, 2.449172166182998]}, {"species": [{"element": "Dy", "occu": 1}], "abc": [0.93684042, 0.13122965, 0.75], "properties": {"magmom": -0.0}, "label": "Dy", "xyz": [0.8359819018341295, 5.13219966, 4.074304268817001]}, {"species": [{"element": "Dy", "occu": 1}], "abc": [0.06315958, 0.86877035, 0.25], "properties": {"magmom": -0.0}, "label": "Dy", "xyz": [5.53439172816587, 1.71073322, 0.2746800211829982]}, {"species": [{"element": "F", "occu": 1}], "abc": [0.5866701400000001, 0.02113451, 0.25], "properties": {"magmom": 0.0}, "label": "F", "xyz": [0.13463472518697128, 1.71073322, 2.551419222272101]}, {"species": [{"element": "F", "occu": 1}], "abc": [0.41332986, 0.97886549, 0.75], "properties": {"magmom": 0.0}, "label": "F", "xyz": [6.2357389048130285, 5.13219966, 1.7975650677278994]}, {"species": [{"element": "F", "occu": 1}], "abc": [0.08667014, 0.47886549, 0.75], "properties": {"magmom": 0.0}, "label": "F", "xyz": [3.0505520898130287, 5.13219966, 0.3769270772721006]}, {"species": [{"element": "F", "occu": 1}], "abc": [0.91332986, 0.52113451, 0.25], "properties": {"magmom": 0.0}, "label": "F", "xyz": [3.319821540186971, 1.71073322, 3.9720572127278992]}, {"species": [{"element": "F", "occu": 1}], "abc": [0.11994056, 0.16515394, 0.06272698], "properties": {"magmom": 0.0}, "label": "F", "xyz": [1.0520923042666022, 0.4292365139051024, 0.5216196111738024]}, {"species": [{"element": "F", "occu": 1}], "abc": [0.88005944, 0.8348460600000001, 0.93727302], "properties": {"magmom": 0.0}, "label": "F", "xyz": [5.318281325733397, 6.413696366094898, 3.8273646788261977]}, {"species": [{"element": "F", "occu": 1}], "abc": [0.61994056, 0.33484606, 0.93727302], "properties": {"magmom": 0.0}, "label": "F", "xyz": [2.1330945107333976, 6.413696366094898, 2.696111756173802]}, {"species": [{"element": "F", "occu": 1}], "abc": [0.88005944, 0.8348460600000001, 0.56272698], "properties": {"magmom": 0.0}, "label": "F", "xyz": [5.318281325733397, 3.8507029539051025, 3.8273646788261977]}, {"species": [{"element": "F", "occu": 1}], "abc": [0.38005944, 0.66515394, 0.06272698], "properties": {"magmom": 0.0}, "label": "F", "xyz": [4.237279119266602, 0.4292365139051024, 1.6528725338261976]}, {"species": [{"element": "F", "occu": 1}], "abc": [0.11994056, 0.16515394, 0.43727302], "properties": {"magmom": 0.0}, "label": "F", "xyz": [1.0520923042666022, 2.9922299260948977, 0.5216196111738024]}, {"species": [{"element": "F", "occu": 1}], "abc": [0.38005944, 0.66515394, 0.43727302], "properties": {"magmom": 0.0}, "label": "F", "xyz": [4.237279119266602, 2.9922299260948977, 1.6528725338261976]}, {"species": [{"element": "F", "occu": 1}], "abc": [0.61994056, 0.33484606, 0.56272698], "properties": {"magmom": 0.0}, "label": "F", "xyz": [2.1330945107333976, 3.8507029539051025, 2.696111756173802]}]}, "task_ids": null, "uncorrected_energy_per_atom": null, "energy_per_atom": -14.83959385125, "formation_energy_per_atom": -4.499622082499998, "energy_above_hull": 0.0, "is_stable": true, "equilibrium_reaction_energy_per_atom": null, "decomposes_to": null, "xas": null, "grain_boundaries": null, "band_gap": 7.7755, "cbm": null, "vbm": null, "efermi": -1.04856742, "is_gap_direct": null, "is_metal": null, "es_source_calc_id": null, "bandstructure": null, "dos": null, "dos_energy_up": null, "dos_energy_down": null, "is_magnetic": null, "ordering": null, "total_magnetization": 0.0, "total_magnetization_normalized_vol": null, "total_magnetization_normalized_formula_units": null, "num_magnetic_sites": null, "num_unique_magnetic_sites": null, "types_of_magnetic_species": null, "bulk_modulus": null, "shear_modulus": null, "universal_anisotropy": null, "homogeneous_poisson": null, "e_total": null, "e_ionic": null, "e_electronic": null, "n": null, "e_ij_max": null, "weighted_surface_energy_EV_PER_ANG2": null, "weighted_surface_energy": null, "weighted_work_function": null, "surface_anisotropy": null, "shape_factor": null, "has_reconstructed": null, "possible_species": null, "has_props": null, "theoretical": null, "database_IDs": null, "fields_not_requested": ["builder_meta", "nsites", "elements", "nelements", "composition", "composition_reduced", "chemsys", "symmetry", "property_name", "deprecated", "deprecation_reasons", "last_updated", "origins", "warnings", "task_ids", "uncorrected_energy_per_atom", "equilibrium_reaction_energy_per_atom", "decomposes_to", "xas", "grain_boundaries", "cbm", "vbm", "is_gap_direct", "is_metal", "es_source_calc_id", "bandstructure", "dos", "dos_energy_up", "dos_energy_down", "is_magnetic", "ordering", "total_magnetization_normalized_vol", "total_magnetization_normalized_formula_units", "num_magnetic_sites", "num_unique_magnetic_sites", "types_of_magnetic_species", "bulk_modulus", "shear_modulus", "universal_anisotropy", "homogeneous_poisson", "e_total", "e_ionic", "e_electronic", "n", "e_ij_max", "weighted_surface_energy_EV_PER_ANG2", "weighted_surface_energy", "weighted_work_function", "surface_anisotropy", "shape_factor", "has_reconstructed", "possible_species", "has_props", "theoretical", "database_IDs"]}