{"builder_meta": null, "nsites": null, "elements": null, "nelements": null, "composition": null, "composition_reduced": null, "formula_pretty": "DyFe3", "formula_anonymous": "AB3", "chemsys": null, "volume": 187.07324326743318, "density": 8.78857929557374, "density_atomic": 15.589436938952765, "symmetry": null, "property_name": null, "material_id": "mp-1101819", "deprecated": null, "deprecation_reasons": null, "last_updated": null, "origins": null, "warnings": null, "structure": {"@module": "pymatgen.core.structure", "@class": "Structure", "charge": 0.0, "lattice": {"matrix": [[-2.58201423, -4.4721803300000005, 0.0], [2.58192434, -4.47212843, 0.0008635100000000001], [0.00133153, -2.9822219800000003, 8.10082535]], "pbc": [true, true, true], "a": 5.1640288910850805, "b": 5.1639390718276506, "c": 8.632324198161806, "alpha": 72.5770566627632, "beta": 72.59584580717747, "gamma": 59.999419123233, "volume": 187.07324326743324}, "properties": {}, "sites": [{"species": [{"element": "Dy", "occu": 1}], "abc": [0.14212978, 0.14209926, 0.57364118], "properties": {"magmom": -0.9430000000000001}, "label": "Dy", "xyz": [0.0006722440636244226, -2.981841482580326, 4.647089716879915]}, {"species": [{"element": "Dy", "occu": 1}], "abc": [0.85788704, 0.85791838, 0.42630754], "properties": {"magmom": -0.9430000000000001}, "label": "Dy", "xyz": [0.0005714433215261355, -8.944690439495195, 3.4541837480284525]}, {"species": [{"element": "Dy", "occu": 1}], "abc": [-7.179999999999996e-06, -8.239999999999996e-06, 2.2590000000000002e-05], "properties": {"magmom": -0.749}, "label": "Dy", "xyz": [-2.7061151275000007e-06, 1.5921985043999506e-06, 0.00018299052933410003]}, {"species": [{"element": "Fe", "occu": 1}], "abc": [0.08255515000000001, 0.57958951, 0.75839931], "properties": {"magmom": 2.637}, "label": "Fe", "xyz": [1.284307522451133, -5.2229153352698034, 6.144160837208288]}, {"species": [{"element": "Fe", "occu": 1}], "abc": [0.57945603, 0.57958951, 0.75839931], "properties": {"magmom": 2.637}, "label": "Fe", "xyz": [0.0013023793916107182, -7.4451456767654935, 6.144160837208288]}, {"species": [{"element": "Fe", "occu": 1}], "abc": [0.57950934, 0.08258397, 0.75839735], "properties": {"magmom": 2.637}, "label": "Fe", "xyz": [-1.282065971237633, -5.222705638242303, 6.143715790336756]}, {"species": [{"element": "Fe", "occu": 1}], "abc": [0.91744403, 0.42041445, 0.24159264], "properties": {"magmom": 2.636}, "label": "Fe", "xyz": [-1.2830535514978947, -6.703605440283971, 1.957462814567143]}, {"species": [{"element": "Fe", "occu": 1}], "abc": [0.42054888, 0.42041445, 0.24159264], "properties": {"magmom": 2.636}, "label": "Fe", "xyz": [-6.320337991025984e-05, -4.481400724381571, 1.957462814567143]}, {"species": [{"element": "Fe", "occu": 1}], "abc": [0.42049485000000003, 0.9174151500000001, 0.24159514], "properties": {"magmom": 2.636}, "label": "Fe", "xyz": [1.2832945105048, -6.703817508233193, 1.9579122317049753]}, {"species": [{"element": "Fe", "occu": 1}], "abc": [0.33278038, 0.33277544000000003, 0.00166279], "properties": {"magmom": 2.67}, "label": "Fe", "xyz": [-4.0454279828950846e-05, -2.981427184561809, 0.013757326303920897]}, {"species": [{"element": "Fe", "occu": 1}], "abc": [0.6671785, 0.66718314, 0.99845786], "properties": {"magmom": 2.67}, "label": "Fe", "xyz": [0.0012814840478984001, -8.945094228905338, 8.08890886250797]}, {"species": [{"element": "Fe", "occu": 1}], "abc": [0.50002218, 0.50002397, 0.49993166], "properties": {"magmom": 2.489}, "label": "Fe", "xyz": [0.0006253486540481722, -5.963267954828073, 4.050290840293916]}]}, "task_ids": null, "uncorrected_energy_per_atom": null, "energy_per_atom": -7.573533245, "formation_energy_per_atom": -0.066423455416665, "energy_above_hull": 0.0, "is_stable": true, "equilibrium_reaction_energy_per_atom": null, "decomposes_to": null, "xas": null, "grain_boundaries": null, "band_gap": 0.0, "cbm": null, "vbm": null, "efermi": 4.41113982, "is_gap_direct": null, "is_metal": null, "es_source_calc_id": null, "bandstructure": null, "dos": null, "dos_energy_up": null, "dos_energy_down": null, "is_magnetic": null, "ordering": null, "total_magnetization": 19.74903, "total_magnetization_normalized_vol": null, "total_magnetization_normalized_formula_units": null, "num_magnetic_sites": null, "num_unique_magnetic_sites": null, "types_of_magnetic_species": null, "bulk_modulus": null, "shear_modulus": null, "universal_anisotropy": null, "homogeneous_poisson": null, "e_total": null, "e_ionic": null, "e_electronic": null, "n": null, "e_ij_max": null, "weighted_surface_energy_EV_PER_ANG2": null, "weighted_surface_energy": null, "weighted_work_function": null, "surface_anisotropy": null, "shape_factor": null, "has_reconstructed": null, "possible_species": null, "has_props": null, "theoretical": null, "database_IDs": null, "fields_not_requested": ["builder_meta", "nsites", "elements", "nelements", "composition", "composition_reduced", "chemsys", "symmetry", "property_name", "deprecated", "deprecation_reasons", "last_updated", "origins", "warnings", "task_ids", "uncorrected_energy_per_atom", "equilibrium_reaction_energy_per_atom", "decomposes_to", "xas", "grain_boundaries", "cbm", "vbm", "is_gap_direct", "is_metal", "es_source_calc_id", "bandstructure", "dos", "dos_energy_up", "dos_energy_down", "is_magnetic", "ordering", "total_magnetization_normalized_vol", "total_magnetization_normalized_formula_units", "num_magnetic_sites", "num_unique_magnetic_sites", "types_of_magnetic_species", "bulk_modulus", "shear_modulus", "universal_anisotropy", "homogeneous_poisson", "e_total", "e_ionic", "e_electronic", "n", "e_ij_max", "weighted_surface_energy_EV_PER_ANG2", "weighted_surface_energy", "weighted_work_function", "surface_anisotropy", "shape_factor", "has_reconstructed", "possible_species", "has_props", "theoretical", "database_IDs"]}