{
  "builder_meta": null,
  "nsites": null,
  "elements": null,
  "nelements": null,
  "composition": null,
  "composition_reduced": null,
  "formula_pretty": "DyGa3",
  "formula_anonymous": "AB3",
  "chemsys": null,
  "volume": 151.7382861717845,
  "density": 8.134675959704063,
  "density_atomic": 18.967285771473062,
  "symmetry": null,
  "property_name": null,
  "material_id": "mp-865103",
  "deprecated": null,
  "deprecation_reasons": null,
  "last_updated": null,
  "origins": null,
  "warnings": null,
  "structure": {
    "@module": "pymatgen.core.structure",
    "@class": "Structure",
    "charge": 0,
    "lattice": {
      "matrix": [
        [6.25339126, 6.161e-5, 0.0],
        [-3.12664177, 5.41562741, 0.0],
        [0.0, 0.0, 4.48051901]
      ],
      "pbc": [true, true, true],
      "a": 6.2533912603034985,
      "b": 6.2533917998036905,
      "c": 4.48051901,
      "alpha": 90.0,
      "beta": 90.0,
      "gamma": 119.99886282698185,
      "volume": 151.7382861717845
    },
    "properties": {},
    "sites": [
      {
        "species": [{ "element": "Dy", "occu": 1 }],
        "abc": [0.333334199999999, 0.66666558, 0.750000999999999],
        "properties": { "magmom": -0.0 },
        "label": "Dy",
        "xyz": [4.4723889809361594e-5, 3.6104329250716094, 3.3603937380190056]
      },
      {
        "species": [{ "element": "Dy", "occu": 1 }],
        "abc": [0.66666548, 0.33333281, 0.250001],
        "properties": { "magmom": -0.0 },
        "label": "Dy",
        "xyz": [3.126707798918231, 1.8052473757485448, 1.1201342330190098]
      },
      {
        "species": [{ "element": "Ga", "occu": 1 }],
        "abc": [0.145376099999999, 0.29075089, 0.250001],
        "properties": { "magmom": 0.0 },
        "label": "Ga",
        "xyz": [1.9755814204547306e-5, 1.5746074459874158, 1.1201342330190098]
      },
      {
        "species": [{ "element": "Ga", "occu": 1 }],
        "abc": [0.70924891, 0.85462351, 0.250001],
        "properties": { "magmom": -0.0 },
        "label": "Ga",
        "xyz": [1.7631093709685133, 4.628366202811754, 1.1201342330190098]
      },
      {
        "species": [{ "element": "Ga", "occu": 1 }],
        "abc": [0.14537475, 0.85462495, 0.250001],
        "properties": { "magmom": -0.0 },
        "label": "Ga",
        "xyz": [-1.7630208752794765, 4.628339261028227, 1.1201342330190098]
      },
      {
        "species": [{ "element": "Ga", "occu": 1 }],
        "abc": [0.85462215, 0.70924617, 0.750000999999999],
        "properties": { "magmom": 0.0 },
        "label": "Ga",
        "xyz": [3.126727983077888, 3.841065651960181, 3.3603937380190056]
      },
      {
        "species": [{ "element": "Ga", "occu": 1 }],
        "abc": [0.29075104, 0.14537571, 0.750000999999999],
        "properties": { "magmom": -0.0 },
        "label": "Ga",
        "xyz": [1.3636422451425039, 0.7873185929957854, 3.3603937380190056]
      },
      {
        "species": [{ "element": "Ga", "occu": 1 }],
        "abc": [0.85462537, 0.14537437, 0.750000999999999],
        "properties": { "magmom": 0.0 },
        "label": "Ga",
        "xyz": [4.889773241802832, 0.7873460763525274, 3.3603937380190056]
      }
    ]
  },
  "task_ids": null,
  "uncorrected_energy_per_atom": null,
  "energy_per_atom": -17.1692309475,
  "formation_energy_per_atom": -0.5916981787500001,
  "energy_above_hull": 0.0,
  "is_stable": true,
  "equilibrium_reaction_energy_per_atom": null,
  "decomposes_to": null,
  "xas": null,
  "grain_boundaries": null,
  "band_gap": 0.0,
  "cbm": null,
  "vbm": null,
  "efermi": 4.01020399,
  "is_gap_direct": null,
  "is_metal": null,
  "es_source_calc_id": null,
  "bandstructure": null,
  "dos": null,
  "dos_energy_up": null,
  "dos_energy_down": null,
  "is_magnetic": null,
  "ordering": null,
  "total_magnetization": 0.0,
  "total_magnetization_normalized_vol": null,
  "total_magnetization_normalized_formula_units": null,
  "num_magnetic_sites": null,
  "num_unique_magnetic_sites": null,
  "types_of_magnetic_species": null,
  "bulk_modulus": null,
  "shear_modulus": null,
  "universal_anisotropy": null,
  "homogeneous_poisson": null,
  "e_total": null,
  "e_ionic": null,
  "e_electronic": null,
  "n": null,
  "e_ij_max": null,
  "weighted_surface_energy_EV_PER_ANG2": null,
  "weighted_surface_energy": null,
  "weighted_work_function": null,
  "surface_anisotropy": null,
  "shape_factor": null,
  "has_reconstructed": null,
  "possible_species": null,
  "has_props": null,
  "theoretical": null,
  "database_IDs": null,
  "fields_not_requested": [
    "builder_meta",
    "nsites",
    "elements",
    "nelements",
    "composition",
    "composition_reduced",
    "chemsys",
    "symmetry",
    "property_name",
    "deprecated",
    "deprecation_reasons",
    "last_updated",
    "origins",
    "warnings",
    "task_ids",
    "uncorrected_energy_per_atom",
    "equilibrium_reaction_energy_per_atom",
    "decomposes_to",
    "xas",
    "grain_boundaries",
    "cbm",
    "vbm",
    "is_gap_direct",
    "is_metal",
    "es_source_calc_id",
    "bandstructure",
    "dos",
    "dos_energy_up",
    "dos_energy_down",
    "is_magnetic",
    "ordering",
    "total_magnetization_normalized_vol",
    "total_magnetization_normalized_formula_units",
    "num_magnetic_sites",
    "num_unique_magnetic_sites",
    "types_of_magnetic_species",
    "bulk_modulus",
    "shear_modulus",
    "universal_anisotropy",
    "homogeneous_poisson",
    "e_total",
    "e_ionic",
    "e_electronic",
    "n",
    "e_ij_max",
    "weighted_surface_energy_EV_PER_ANG2",
    "weighted_surface_energy",
    "weighted_work_function",
    "surface_anisotropy",
    "shape_factor",
    "has_reconstructed",
    "possible_species",
    "has_props",
    "theoretical",
    "database_IDs"
  ]
}
