{"builder_meta": null, "nsites": null, "elements": null, "nelements": null, "composition": null, "composition_reduced": null, "formula_pretty": "DyHg3", "formula_anonymous": "AB3", "chemsys": null, "volume": 186.68102379643608, "density": 13.59645631485561, "density_atomic": 23.33512797455451, "symmetry": null, "property_name": null, "material_id": "mp-864994", "deprecated": null, "deprecation_reasons": null, "last_updated": null, "origins": null, "warnings": null, "structure": {"@module": "pymatgen.core.structure", "@class": "Structure", "charge": 0, "lattice": {"matrix": [[6.60286925, 7.699999999999999e-07, -0.0], [-3.30143382, 5.71825395, 3.0000000000000004e-08], [-0.0, 2e-08, 4.94429083]], "pbc": [true, true, true], "a": 6.602869250000045, "b": 6.6028700959908635, "c": 4.94429083, "alpha": 89.9999995389631, "beta": 89.99999999999997, "gamma": 119.99998101412375, "volume": 186.6810237964361}, "properties": {}, "sites": [{"species": [{"element": "Dy", "occu": 1}], "abc": [0.33333398000000003, 0.66666694, 0.74999944], "properties": {"magmom": 0.0}, "label": "Dy", "xyz": [3.904130204457346e-06, 3.8121711346565665, 3.708215373697143]}, {"species": [{"element": "Dy", "occu": 1}], "abc": [0.666667799999999, 0.33333478, 0.25000056], "properties": {"magmom": -0.0}, "label": "Dy", "xyz": [3.3014376005108836, 1.9060934407415984, 1.2360754863029082]}, {"species": [{"element": "Hg", "occu": 1}], "abc": [0.16593806, 0.33187781, 0.25000073], "properties": {"magmom": -0.0}, "label": "Hg", "xyz": [-5.3122628791424376e-06, 1.8977617307221706, 1.23607632678864]}, {"species": [{"element": "Hg", "occu": 1}], "abc": [0.6681212400000001, 0.8340610900000001, 0.25000075], "properties": {"magmom": 0.0}, "label": "Hg", "xyz": [1.6579197003958064, 4.769373641887175, 1.2360764407399552]}, {"species": [{"element": "Hg", "occu": 1}], "abc": [0.16593895, 0.83406121, 0.25000075], "properties": {"magmom": 0.0}, "label": "Hg", "xyz": [-1.6579246963118346, 4.769373941397285, 1.236076440739959]}, {"species": [{"element": "Hg", "occu": 1}], "abc": [0.83406115, 0.66812041, 0.7499992600000001], "properties": {"magmom": -0.0}, "label": "Hg", "xyz": [3.301441402548371, 3.82048283078519, 3.708214483768398]}, {"species": [{"element": "Hg", "occu": 1}], "abc": [0.33187973, 0.16593893, 0.7499992600000001], "properties": {"magmom": 0.0}, "label": "Hg", "xyz": [1.6435220683586897, 0.948881212478651, 3.708214468702954]}, {"species": [{"element": "Hg", "occu": 1}], "abc": [0.83406208, 0.16593883, 0.74999925], "properties": {"magmom": 0.0}, "label": "Hg", "xyz": [4.95936679520981, 0.9488810273336652, 3.7082144192600426]}]}, "task_ids": null, "uncorrected_energy_per_atom": null, "energy_per_atom": -45.42798627125, "formation_energy_per_atom": -0.40668057312500105, "energy_above_hull": 0.0, "is_stable": true, "equilibrium_reaction_energy_per_atom": null, "decomposes_to": null, "xas": null, "grain_boundaries": null, "band_gap": 0.0, "cbm": null, "vbm": null, "efermi": 3.55220553, "is_gap_direct": null, "is_metal": null, "es_source_calc_id": null, "bandstructure": null, "dos": null, "dos_energy_up": null, "dos_energy_down": null, "is_magnetic": null, "ordering": null, "total_magnetization": 0.0, "total_magnetization_normalized_vol": null, "total_magnetization_normalized_formula_units": null, "num_magnetic_sites": null, "num_unique_magnetic_sites": null, "types_of_magnetic_species": null, "bulk_modulus": null, "shear_modulus": null, "universal_anisotropy": null, "homogeneous_poisson": null, "e_total": null, "e_ionic": null, "e_electronic": null, "n": null, "e_ij_max": null, "weighted_surface_energy_EV_PER_ANG2": null, "weighted_surface_energy": null, "weighted_work_function": null, "surface_anisotropy": null, "shape_factor": null, "has_reconstructed": null, "possible_species": null, "has_props": null, "theoretical": null, "database_IDs": null, "fields_not_requested": ["builder_meta", "nsites", "elements", "nelements", "composition", "composition_reduced", "chemsys", "symmetry", "property_name", "deprecated", "deprecation_reasons", "last_updated", "origins", "warnings", "task_ids", "uncorrected_energy_per_atom", "equilibrium_reaction_energy_per_atom", "decomposes_to", "xas", "grain_boundaries", "cbm", "vbm", "is_gap_direct", "is_metal", "es_source_calc_id", "bandstructure", "dos", "dos_energy_up", "dos_energy_down", "is_magnetic", "ordering", "total_magnetization_normalized_vol", "total_magnetization_normalized_formula_units", "num_magnetic_sites", "num_unique_magnetic_sites", "types_of_magnetic_species", "bulk_modulus", "shear_modulus", "universal_anisotropy", "homogeneous_poisson", "e_total", "e_ionic", "e_electronic", "n", "e_ij_max", "weighted_surface_energy_EV_PER_ANG2", "weighted_surface_energy", "weighted_work_function", "surface_anisotropy", "shape_factor", "has_reconstructed", "possible_species", "has_props", "theoretical", "database_IDs"]}