{"builder_meta": null, "nsites": null, "elements": null, "nelements": null, "composition": null, "composition_reduced": null, "formula_pretty": "DyHo3", "formula_anonymous": "AB3", "chemsys": null, "volume": 252.12423699732727, "density": 8.658091187120485, "density_atomic": 31.51552962466591, "symmetry": null, "property_name": null, "material_id": "mp-1183844", "deprecated": null, "deprecation_reasons": null, "last_updated": null, "origins": null, "warnings": null, "structure": {"@module": "pymatgen.core.structure", "@class": "Structure", "charge": 0, "lattice": {"matrix": [[7.23874105, 8.429999999999999e-06, -0.0], [-3.61936315, 6.26892822, -0.0], [0.0, 0.0, 5.55594537]], "pbc": [true, true, true], "a": 7.238741050004908, "b": 7.238732668022096, "c": 5.55594537, "alpha": 90.0, "beta": 90.0, "gamma": 119.99990417448217, "volume": 252.12423699732727}, "properties": {}, "sites": [{"species": [{"element": "Dy", "occu": 1}], "abc": [0.333333, 0.666667, 0.750002], "properties": {"magmom": -0.0}, "label": "Dy", "xyz": [1.297298600100305e-06, 4.17929037963993, 4.16697013939074]}, {"species": [{"element": "Dy", "occu": 1}], "abc": [0.666666, 0.333333999999999, 0.250001], "properties": {"magmom": -0.0}, "label": "Dy", "xyz": [3.6193657445972036, 2.089652539279854, 1.3889918984453697]}, {"species": [{"element": "Ho", "occu": 1}], "abc": [0.16643798, 0.33287796000000003, 0.250001], "properties": {"magmom": -0.0}, "label": "Ho", "xyz": [-4.783766095028952e-06, 2.0867894403322027, 1.3889918984453697]}, {"species": [{"element": "Ho", "occu": 1}], "abc": [0.66712304, 0.83356302, 0.250001], "properties": {"magmom": -0.0}, "label": "Ho", "xyz": [1.8121636572580786, 5.225552363073652, 1.3889918984453697]}, {"species": [{"element": "Ho", "occu": 1}], "abc": [0.16643798, 0.83356302, 0.250001], "properties": {"magmom": -0.0}, "label": "Ho", "xyz": [-1.8121658396856337, 5.225548142298596, 1.3889918984453697]}, {"species": [{"element": "Ho", "occu": 1}], "abc": [0.83356102, 0.66712104, 0.750002], "properties": {"magmom": -0.0}, "label": "Ho", "xyz": [3.6193790643881942, 4.182140940731148, 4.16697013939074]}, {"species": [{"element": "Ho", "occu": 1}], "abc": [0.33287696, 0.16643798, 0.750002], "properties": {"magmom": -0.0}, "label": "Ho", "xyz": [1.8072106233787708, 1.0433905558545686, 4.16697013939074]}, {"species": [{"element": "Ho", "occu": 1}], "abc": [0.83356102, 0.16643798, 0.750002], "properties": {"magmom": -0.0}, "label": "Ho", "xyz": [5.431532881581433, 1.0433947766211944, 4.16697013939074]}]}, "task_ids": null, "uncorrected_energy_per_atom": null, "energy_per_atom": -32.65341838, "formation_energy_per_atom": 0.0030403625000010003, "energy_above_hull": 0.010391507500003, "is_stable": false, "equilibrium_reaction_energy_per_atom": null, "decomposes_to": null, "xas": null, "grain_boundaries": null, "band_gap": 0.0, "cbm": null, "vbm": null, "efermi": 2.97589008, "is_gap_direct": null, "is_metal": null, "es_source_calc_id": null, "bandstructure": null, "dos": null, "dos_energy_up": null, "dos_energy_down": null, "is_magnetic": null, "ordering": null, "total_magnetization": 6e-07, "total_magnetization_normalized_vol": null, "total_magnetization_normalized_formula_units": null, "num_magnetic_sites": null, "num_unique_magnetic_sites": null, "types_of_magnetic_species": null, "bulk_modulus": null, "shear_modulus": null, "universal_anisotropy": null, "homogeneous_poisson": null, "e_total": null, "e_ionic": null, "e_electronic": null, "n": null, "e_ij_max": null, "weighted_surface_energy_EV_PER_ANG2": null, "weighted_surface_energy": null, "weighted_work_function": null, "surface_anisotropy": null, "shape_factor": null, "has_reconstructed": null, "possible_species": null, "has_props": null, "theoretical": null, "database_IDs": null, "fields_not_requested": ["builder_meta", "nsites", "elements", "nelements", "composition", "composition_reduced", "chemsys", "symmetry", "property_name", "deprecated", "deprecation_reasons", "last_updated", "origins", "warnings", "task_ids", "uncorrected_energy_per_atom", "equilibrium_reaction_energy_per_atom", "decomposes_to", "xas", "grain_boundaries", "cbm", "vbm", "is_gap_direct", "is_metal", "es_source_calc_id", "bandstructure", "dos", "dos_energy_up", "dos_energy_down", "is_magnetic", "ordering", "total_magnetization_normalized_vol", "total_magnetization_normalized_formula_units", "num_magnetic_sites", "num_unique_magnetic_sites", "types_of_magnetic_species", "bulk_modulus", "shear_modulus", "universal_anisotropy", "homogeneous_poisson", "e_total", "e_ionic", "e_electronic", "n", "e_ij_max", "weighted_surface_energy_EV_PER_ANG2", "weighted_surface_energy", "weighted_work_function", "surface_anisotropy", "shape_factor", "has_reconstructed", "possible_species", "has_props", "theoretical", "database_IDs"]}