{
  "builder_meta": null,
  "nsites": null,
  "elements": null,
  "nelements": null,
  "composition": null,
  "composition_reduced": null,
  "formula_pretty": "DyI3",
  "formula_anonymous": "AB3",
  "chemsys": null,
  "volume": 420.1195251213786,
  "density": 4.294145046200338,
  "density_atomic": 52.51494064017233,
  "symmetry": null,
  "property_name": null,
  "material_id": "mp-865005",
  "deprecated": null,
  "deprecation_reasons": null,
  "last_updated": null,
  "origins": null,
  "warnings": null,
  "structure": {
    "@module": "pymatgen.core.structure",
    "@class": "Structure",
    "charge": 0,
    "lattice": {
      "matrix": [
        [11.02195939, -0.0, 0.0],
        [-5.5109802, 9.54529724, 0.0],
        [0.0, -0.0, 3.99323255]
      ],
      "pbc": [true, true, true],
      "a": 11.02195939,
      "b": 11.021959996513491,
      "c": 3.99323255,
      "alpha": 90.0,
      "beta": 90.0,
      "gamma": 120.0000012109667,
      "volume": 420.1195251213786
    },
    "properties": {},
    "sites": [
      {
        "species": [{ "element": "Dy", "occu": 1 }],
        "abc": [0.333331999999999, 0.666667, 0.749999],
        "properties": { "magmom": 0.0 },
        "label": "Dy",
        "xyz": [-1.6869605930835974e-5, 6.36353467509908, 2.99492041926745]
      },
      {
        "species": [{ "element": "Dy", "occu": 1 }],
        "abc": [0.666666, 0.333333, 0.249998],
        "properties": { "magmom": 0.0 },
        "label": "Dy",
        "xyz": [5.51097401568714, 3.18176256490092, 0.9983001510349]
      },
      {
        "species": [{ "element": "I", "occu": 1 }],
        "abc": [0.21245499, 0.42491098, 0.249998],
        "properties": { "magmom": 0.0 },
        "label": "I",
        "xyz": [-5.725559740099584e-6, 4.055901604639695, 0.9983001510349]
      },
      {
        "species": [{ "element": "I", "occu": 1 }],
        "abc": [0.5750890200000001, 0.78754401, 0.249998],
        "properties": { "magmom": 0.0 },
        "label": "I",
        "xyz": [1.9984683783362964, 7.517341665031532, 0.9983001510349]
      },
      {
        "species": [{ "element": "I", "occu": 1 }],
        "abc": [0.21245499, 0.78754401, 0.249998],
        "properties": { "magmom": 0.0 },
        "label": "I",
        "xyz": [-1.9984691737557454, 7.517341665031532, 0.9983001510349]
      },
      {
        "species": [{ "element": "I", "occu": 1 }],
        "abc": [0.78754401, 0.5750890200000001, 0.749999],
        "properties": { "magmom": 0.0 },
        "label": "I",
        "xyz": [5.510973893600349, 5.489395635360306, 2.99492041926745]
      },
      {
        "species": [{ "element": "I", "occu": 1 }],
        "abc": [0.42491098, 0.21245599, 0.749999],
        "properties": { "magmom": 0.0 },
        "label": "I",
        "xyz": [3.5125108116637036, 2.027955574968468, 2.99492041926745]
      },
      {
        "species": [{ "element": "I", "occu": 1 }],
        "abc": [0.78754501, 0.21245599, 0.749999],
        "properties": { "magmom": 0.0 },
        "label": "I",
        "xyz": [7.5094483637557445, 2.027955574968468, 2.99492041926745]
      }
    ]
  },
  "task_ids": null,
  "uncorrected_energy_per_atom": null,
  "energy_per_atom": -3.949390122499998,
  "formation_energy_per_atom": -1.651786779166664,
  "energy_above_hull": 0.0,
  "is_stable": true,
  "equilibrium_reaction_energy_per_atom": null,
  "decomposes_to": null,
  "xas": null,
  "grain_boundaries": null,
  "band_gap": 2.1725,
  "cbm": null,
  "vbm": null,
  "efermi": -0.55330679,
  "is_gap_direct": null,
  "is_metal": null,
  "es_source_calc_id": null,
  "bandstructure": null,
  "dos": null,
  "dos_energy_up": null,
  "dos_energy_down": null,
  "is_magnetic": null,
  "ordering": null,
  "total_magnetization": 1e-7,
  "total_magnetization_normalized_vol": null,
  "total_magnetization_normalized_formula_units": null,
  "num_magnetic_sites": null,
  "num_unique_magnetic_sites": null,
  "types_of_magnetic_species": null,
  "bulk_modulus": null,
  "shear_modulus": null,
  "universal_anisotropy": null,
  "homogeneous_poisson": null,
  "e_total": null,
  "e_ionic": null,
  "e_electronic": null,
  "n": null,
  "e_ij_max": null,
  "weighted_surface_energy_EV_PER_ANG2": null,
  "weighted_surface_energy": null,
  "weighted_work_function": null,
  "surface_anisotropy": null,
  "shape_factor": null,
  "has_reconstructed": null,
  "possible_species": null,
  "has_props": null,
  "theoretical": null,
  "database_IDs": null,
  "fields_not_requested": [
    "builder_meta",
    "nsites",
    "elements",
    "nelements",
    "composition",
    "composition_reduced",
    "chemsys",
    "symmetry",
    "property_name",
    "deprecated",
    "deprecation_reasons",
    "last_updated",
    "origins",
    "warnings",
    "task_ids",
    "uncorrected_energy_per_atom",
    "equilibrium_reaction_energy_per_atom",
    "decomposes_to",
    "xas",
    "grain_boundaries",
    "cbm",
    "vbm",
    "is_gap_direct",
    "is_metal",
    "es_source_calc_id",
    "bandstructure",
    "dos",
    "dos_energy_up",
    "dos_energy_down",
    "is_magnetic",
    "ordering",
    "total_magnetization_normalized_vol",
    "total_magnetization_normalized_formula_units",
    "num_magnetic_sites",
    "num_unique_magnetic_sites",
    "types_of_magnetic_species",
    "bulk_modulus",
    "shear_modulus",
    "universal_anisotropy",
    "homogeneous_poisson",
    "e_total",
    "e_ionic",
    "e_electronic",
    "n",
    "e_ij_max",
    "weighted_surface_energy_EV_PER_ANG2",
    "weighted_surface_energy",
    "weighted_work_function",
    "surface_anisotropy",
    "shape_factor",
    "has_reconstructed",
    "possible_species",
    "has_props",
    "theoretical",
    "database_IDs"
  ]
}
