{
  "builder_meta": null,
  "nsites": null,
  "elements": null,
  "nelements": null,
  "composition": null,
  "composition_reduced": null,
  "formula_pretty": "DyI6",
  "formula_anonymous": "AB6",
  "chemsys": null,
  "volume": 6832.325310734165,
  "density": 0.22455262440140503,
  "density_atomic": 976.0464729620236,
  "symmetry": null,
  "property_name": null,
  "material_id": "mp-1206888",
  "deprecated": null,
  "deprecation_reasons": null,
  "last_updated": null,
  "origins": null,
  "warnings": null,
  "structure": {
    "@module": "pymatgen.core.structure",
    "@class": "Structure",
    "charge": 0,
    "lattice": {
      "matrix": [
        [-7.11895954, -12.33040025, 0.0],
        [-4.04001224, 10.55276933, 0.0],
        [0.0, 0.0, -54.68497997]
      ],
      "pbc": [true, true, true],
      "a": 14.237919625329997,
      "b": 11.29967430643638,
      "c": 54.68497997,
      "alpha": 90.0,
      "beta": 90.0,
      "gamma": 129.05120366136728,
      "volume": 6832.325310734165
    },
    "properties": {},
    "sites": [
      {
        "species": [{ "element": "Dy", "occu": 1 }],
        "abc": [-0.0, 0.0, -0.0],
        "properties": { "magmom": -0.034 },
        "label": "Dy",
        "xyz": [0.0, 0.0, 0.0]
      },
      {
        "species": [{ "element": "I", "occu": 1 }],
        "abc": [0.0, -0.0, 0.75002058],
        "properties": { "magmom": 0.56 },
        "label": "I",
        "xyz": [0.0, 0.0, -41.01486039438779]
      },
      {
        "species": [{ "element": "I", "occu": 1 }],
        "abc": [-0.0, 0.0, 0.24997942],
        "properties": { "magmom": 0.56 },
        "label": "I",
        "xyz": [0.0, 0.0, -13.670119575612217]
      },
      {
        "species": [{ "element": "I", "occu": 1 }],
        "abc": [0.74014578, 0.76150611, -0.0],
        "properties": { "magmom": 0.168 },
        "label": "I",
        "xyz": [-8.345561866756528, -1.090295388532839, 0.0]
      },
      {
        "species": [{ "element": "I", "occu": 1 }],
        "abc": [0.25985422, 0.23849389000000001, 0.0],
        "properties": { "magmom": 0.168 },
        "label": "I",
        "xyz": [-2.8134099132434724, -0.6873355314671614, 0.0]
      },
      {
        "species": [{ "element": "I", "occu": 1 }],
        "abc": [0.9786396700000001, 0.23849389000000001, -0.0],
        "properties": { "magmom": 0.168 },
        "label": "I",
        "xyz": [-7.930414449734166, -9.550247823843526, 0.0]
      },
      {
        "species": [{ "element": "I", "occu": 1 }],
        "abc": [0.02136033, 0.76150611, 0.0],
        "properties": { "magmom": 0.168 },
        "label": "I",
        "xyz": [-3.228557330265835, 7.772616903843524, 0.0]
      }
    ]
  },
  "task_ids": null,
  "uncorrected_energy_per_atom": null,
  "energy_per_atom": -2.380575204285714,
  "formation_energy_per_atom": -0.41451074452380804,
  "energy_above_hull": 0.5293674149999991,
  "is_stable": false,
  "equilibrium_reaction_energy_per_atom": null,
  "decomposes_to": null,
  "xas": null,
  "grain_boundaries": null,
  "band_gap": 0.037799999999999,
  "cbm": null,
  "vbm": null,
  "efermi": -6.24055683,
  "is_gap_direct": null,
  "is_metal": null,
  "es_source_calc_id": null,
  "bandstructure": null,
  "dos": null,
  "dos_energy_up": null,
  "dos_energy_down": null,
  "is_magnetic": null,
  "ordering": null,
  "total_magnetization": 2.9929879,
  "total_magnetization_normalized_vol": null,
  "total_magnetization_normalized_formula_units": null,
  "num_magnetic_sites": null,
  "num_unique_magnetic_sites": null,
  "types_of_magnetic_species": null,
  "bulk_modulus": null,
  "shear_modulus": null,
  "universal_anisotropy": null,
  "homogeneous_poisson": null,
  "e_total": null,
  "e_ionic": null,
  "e_electronic": null,
  "n": null,
  "e_ij_max": null,
  "weighted_surface_energy_EV_PER_ANG2": null,
  "weighted_surface_energy": null,
  "weighted_work_function": null,
  "surface_anisotropy": null,
  "shape_factor": null,
  "has_reconstructed": null,
  "possible_species": null,
  "has_props": null,
  "theoretical": null,
  "database_IDs": null,
  "fields_not_requested": [
    "builder_meta",
    "nsites",
    "elements",
    "nelements",
    "composition",
    "composition_reduced",
    "chemsys",
    "symmetry",
    "property_name",
    "deprecated",
    "deprecation_reasons",
    "last_updated",
    "origins",
    "warnings",
    "task_ids",
    "uncorrected_energy_per_atom",
    "equilibrium_reaction_energy_per_atom",
    "decomposes_to",
    "xas",
    "grain_boundaries",
    "cbm",
    "vbm",
    "is_gap_direct",
    "is_metal",
    "es_source_calc_id",
    "bandstructure",
    "dos",
    "dos_energy_up",
    "dos_energy_down",
    "is_magnetic",
    "ordering",
    "total_magnetization_normalized_vol",
    "total_magnetization_normalized_formula_units",
    "num_magnetic_sites",
    "num_unique_magnetic_sites",
    "types_of_magnetic_species",
    "bulk_modulus",
    "shear_modulus",
    "universal_anisotropy",
    "homogeneous_poisson",
    "e_total",
    "e_ionic",
    "e_electronic",
    "n",
    "e_ij_max",
    "weighted_surface_energy_EV_PER_ANG2",
    "weighted_surface_energy",
    "weighted_work_function",
    "surface_anisotropy",
    "shape_factor",
    "has_reconstructed",
    "possible_species",
    "has_props",
    "theoretical",
    "database_IDs"
  ]
}
