{
  "builder_meta": null,
  "nsites": null,
  "elements": null,
  "nelements": null,
  "composition": null,
  "composition_reduced": null,
  "formula_pretty": "DyLu3",
  "formula_anonymous": "AB3",
  "chemsys": null,
  "volume": 238.91258026468049,
  "density": 9.555429970705926,
  "density_atomic": 29.86407253308506,
  "symmetry": null,
  "property_name": null,
  "material_id": "mp-1183846",
  "deprecated": null,
  "deprecation_reasons": null,
  "last_updated": null,
  "origins": null,
  "warnings": null,
  "structure": {
    "@module": "pymatgen.core.structure",
    "@class": "Structure",
    "charge": 0,
    "lattice": {
      "matrix": [
        [7.09902857, -3.609999999999999e-6, 1.6e-7],
        [-3.54951762, 6.1479373, -1.2e-7],
        [1.2e-7, -4e-8, 5.47407562]
      ],
      "pbc": [true, true, true],
      "a": 7.09902857000092,
      "b": 7.099028692674919,
      "c": 5.474075620000002,
      "alpha": 90.00000195909617,
      "beta": 89.99999745264064,
      "gamma": 120.00005964500072,
      "volume": 238.91258026468049
    },
    "properties": {},
    "sites": [
      {
        "species": [{ "element": "Dy", "occu": 1 }],
        "abc": [0.3333343, 0.6666675200000001, 0.75000101],
        "properties": { "magmom": 0.0 },
        "label": "Dy",
        "xyz": [1.7001393693537858e-6, 4.098628879569633, 4.105562217149761]
      },
      {
        "species": [{ "element": "Dy", "occu": 1 }],
        "abc": [0.66666801, 0.33333353, 0.25000099],
        "properties": { "magmom": 0.0 },
        "label": "Dy",
        "xyz": [3.5495220416233657, 2.0493112257561132, 1.3685243910017217]
      },
      {
        "species": [{ "element": "Lu", "occu": 1 }],
        "abc": [0.16608586, 0.33217238, 0.25000095],
        "properties": { "magmom": 0.0 },
        "label": "Lu",
        "xyz": [-3.420474201380703e-6, 2.042174355461781, 1.368524092084891]
      },
      {
        "species": [{ "element": "Lu", "occu": 1 }],
        "abc": [0.66782896, 0.83391512, 0.25000088],
        "properties": { "magmom": 0.0 },
        "label": "Lu",
        "xyz": [1.780940484889078, 5.126855450419394, 1.3685237289693646]
      },
      {
        "species": [{ "element": "Lu", "occu": 1 }],
        "abc": [0.16608635, 0.8339143800000001, 0.25000098],
        "properties": { "magmom": 0.0 },
        "label": "Lu",
        "xyz": [-1.780942011644239, 5.126852712236611, 1.368524196098198]
      },
      {
        "species": [{ "element": "Lu", "occu": 1 }],
        "abc": [0.83391657, 0.66783191, 0.75000113],
        "properties": { "magmom": 0.0 },
        "label": "Lu",
        "xyz": [3.5495165136832867, 4.1057856691803805, 4.105562953992273]
      },
      {
        "species": [{ "element": "Lu", "occu": 1 }],
        "abc": [0.33216841, 0.16608453, 0.7500010300000001],
        "properties": { "magmom": 0.0 },
        "label": "Lu",
        "xyz": [1.7685531569971784, 1.0210760478119678, 4.10556238651469]
      },
      {
        "species": [{ "element": "Lu", "occu": 1 }],
        "abc": [0.8339155500000001, 0.16608462000000002, 0.75000104],
        "properties": { "magmom": 0.0 },
        "label": "Lu",
        "xyz": [5.330470119316384, 1.021074789819149, 4.105562521534978]
      }
    ]
  },
  "task_ids": null,
  "uncorrected_energy_per_atom": null,
  "energy_per_atom": -36.5540169325,
  "formation_energy_per_atom": 0.0013440112500040001,
  "energy_above_hull": 0.0013440112500040001,
  "is_stable": false,
  "equilibrium_reaction_energy_per_atom": null,
  "decomposes_to": null,
  "xas": null,
  "grain_boundaries": null,
  "band_gap": 0.0,
  "cbm": null,
  "vbm": null,
  "efermi": 2.98371095,
  "is_gap_direct": null,
  "is_metal": null,
  "es_source_calc_id": null,
  "bandstructure": null,
  "dos": null,
  "dos_energy_up": null,
  "dos_energy_down": null,
  "is_magnetic": null,
  "ordering": null,
  "total_magnetization": 0.0002737,
  "total_magnetization_normalized_vol": null,
  "total_magnetization_normalized_formula_units": null,
  "num_magnetic_sites": null,
  "num_unique_magnetic_sites": null,
  "types_of_magnetic_species": null,
  "bulk_modulus": null,
  "shear_modulus": null,
  "universal_anisotropy": null,
  "homogeneous_poisson": null,
  "e_total": null,
  "e_ionic": null,
  "e_electronic": null,
  "n": null,
  "e_ij_max": null,
  "weighted_surface_energy_EV_PER_ANG2": null,
  "weighted_surface_energy": null,
  "weighted_work_function": null,
  "surface_anisotropy": null,
  "shape_factor": null,
  "has_reconstructed": null,
  "possible_species": null,
  "has_props": null,
  "theoretical": null,
  "database_IDs": null,
  "fields_not_requested": [
    "builder_meta",
    "nsites",
    "elements",
    "nelements",
    "composition",
    "composition_reduced",
    "chemsys",
    "symmetry",
    "property_name",
    "deprecated",
    "deprecation_reasons",
    "last_updated",
    "origins",
    "warnings",
    "task_ids",
    "uncorrected_energy_per_atom",
    "equilibrium_reaction_energy_per_atom",
    "decomposes_to",
    "xas",
    "grain_boundaries",
    "cbm",
    "vbm",
    "is_gap_direct",
    "is_metal",
    "es_source_calc_id",
    "bandstructure",
    "dos",
    "dos_energy_up",
    "dos_energy_down",
    "is_magnetic",
    "ordering",
    "total_magnetization_normalized_vol",
    "total_magnetization_normalized_formula_units",
    "num_magnetic_sites",
    "num_unique_magnetic_sites",
    "types_of_magnetic_species",
    "bulk_modulus",
    "shear_modulus",
    "universal_anisotropy",
    "homogeneous_poisson",
    "e_total",
    "e_ionic",
    "e_electronic",
    "n",
    "e_ij_max",
    "weighted_surface_energy_EV_PER_ANG2",
    "weighted_surface_energy",
    "weighted_work_function",
    "surface_anisotropy",
    "shape_factor",
    "has_reconstructed",
    "possible_species",
    "has_props",
    "theoretical",
    "database_IDs"
  ]
}
