{"builder_meta": null, "nsites": null, "elements": null, "nelements": null, "composition": null, "composition_reduced": null, "formula_pretty": "DyMg5", "formula_anonymous": "AB5", "chemsys": null, "volume": 148.27298637898485, "density": 3.180853235029405, "density_atomic": 24.712164396497474, "symmetry": null, "property_name": null, "material_id": "mp-1183839", "deprecated": null, "deprecation_reasons": null, "last_updated": null, "origins": null, "warnings": null, "structure": {"@module": "pymatgen.core.structure", "@class": "Structure", "charge": 0, "lattice": {"matrix": [[3.673993, 0.0, 0.0], [-1.836997, 2.69893, 5.270187], [0.0, -5.061335, 5.069886]], "pbc": [true, true, true], "a": 3.673993, "b": 6.199488054499177, "c": 7.163857622483922, "alpha": 72.89991084175455, "beta": 90.0, "gamma": 107.23636565008859, "volume": 148.27298637898485}, "properties": {}, "sites": [{"species": [{"element": "Dy", "occu": 1}], "abc": [0.361533, 0.723066, 0.777079], "properties": {"magmom": 0.001}, "label": "Dy", "xyz": [-3.615330002038064e-07, -1.9815526210849996, 7.7503949763360005]}, {"species": [{"element": "Mg", "occu": 1}], "abc": [0.036389, 0.072778, 0.949855999999999], "properties": {"magmom": 0.0}, "label": "Mg", "xyz": [-3.638900000768608e-08, -4.611116690219995, 5.199215305901995]}, {"species": [{"element": "Mg", "occu": 1}], "abc": [0.688921, 0.377843, 0.121243999999999], "properties": {"magmom": -0.0}, "label": "Mg", "xyz": [1.836994474082, 0.4061153072500051, 2.605996524824995]}, {"species": [{"element": "Mg", "occu": 1}], "abc": [0.360587999999999, 0.721175999999999, 0.278433], "properties": {"magmom": 0.0}, "label": "Mg", "xyz": [-3.605880019019736e-07, 0.5371608536249974, 5.212355948549995]}, {"species": [{"element": "Mg", "occu": 1}], "abc": [0.034321, 0.068642, 0.432245], "properties": {"magmom": -0.0}, "label": "Mg", "xyz": [-3.4321000014214675e-08, -2.0024767940149997, 2.553189050124]}, {"species": [{"element": "Mg", "occu": 1}], "abc": [0.684914, 0.369828999999999, 0.607808], "properties": {"magmom": 0.0}, "label": "Mg", "xyz": [1.8369944780890015, -2.0781773207100027, 5.030585257910995]}]}, "task_ids": null, "uncorrected_energy_per_atom": null, "energy_per_atom": -2.108056974999999, "formation_energy_per_atom": 0.020397292222223, "energy_above_hull": 0.05306310333333301, "is_stable": false, "equilibrium_reaction_energy_per_atom": null, "decomposes_to": null, "xas": null, "grain_boundaries": null, "band_gap": 0.0, "cbm": null, "vbm": null, "efermi": 3.23194586, "is_gap_direct": null, "is_metal": null, "es_source_calc_id": null, "bandstructure": null, "dos": null, "dos_energy_up": null, "dos_energy_down": null, "is_magnetic": null, "ordering": null, "total_magnetization": 0.0036444, "total_magnetization_normalized_vol": null, "total_magnetization_normalized_formula_units": null, "num_magnetic_sites": null, "num_unique_magnetic_sites": null, "types_of_magnetic_species": null, "bulk_modulus": null, "shear_modulus": null, "universal_anisotropy": null, "homogeneous_poisson": null, "e_total": null, "e_ionic": null, "e_electronic": null, "n": null, "e_ij_max": null, "weighted_surface_energy_EV_PER_ANG2": null, "weighted_surface_energy": null, "weighted_work_function": null, "surface_anisotropy": null, "shape_factor": null, "has_reconstructed": null, "possible_species": null, "has_props": null, "theoretical": null, "database_IDs": null, "fields_not_requested": ["builder_meta", "nsites", "elements", "nelements", "composition", "composition_reduced", "chemsys", "symmetry", "property_name", "deprecated", "deprecation_reasons", "last_updated", "origins", "warnings", "task_ids", "uncorrected_energy_per_atom", "equilibrium_reaction_energy_per_atom", "decomposes_to", "xas", "grain_boundaries", "cbm", "vbm", "is_gap_direct", "is_metal", "es_source_calc_id", "bandstructure", "dos", "dos_energy_up", "dos_energy_down", "is_magnetic", "ordering", "total_magnetization_normalized_vol", "total_magnetization_normalized_formula_units", "num_magnetic_sites", "num_unique_magnetic_sites", "types_of_magnetic_species", "bulk_modulus", "shear_modulus", "universal_anisotropy", "homogeneous_poisson", "e_total", "e_ionic", "e_electronic", "n", "e_ij_max", "weighted_surface_energy_EV_PER_ANG2", "weighted_surface_energy", "weighted_work_function", "surface_anisotropy", "shape_factor", "has_reconstructed", "possible_species", "has_props", "theoretical", "database_IDs"]}