{"builder_meta": null, "nsites": null, "elements": null, "nelements": null, "composition": null, "composition_reduced": null, "formula_pretty": "DyMn2", "formula_anonymous": "AB2", "chemsys": null, "volume": 100.86203837821502, "density": 8.96851076034662, "density_atomic": 16.810339729702502, "symmetry": null, "property_name": null, "material_id": "mp-2876153", "deprecated": null, "deprecation_reasons": null, "last_updated": null, "origins": null, "warnings": null, "structure": {"@module": "pymatgen.core.structure", "@class": "Structure", "charge": 0.0, "lattice": {"matrix": [[0.00219981, 3.80494708, 3.81638878], [3.58487686, 0.22224432, 3.59195089], [3.80716669, 3.80719225, -5.329e-05]], "pbc": [true, true, true], "a": 5.3891047903037155, "b": 5.0796501685950295, "c": 5.384164841156466, "alpha": 57.997430438117966, "beta": 60.030953605492286, "gamma": 57.86322144764464, "volume": 100.86203837821502}, "properties": {}, "sites": [{"species": [{"element": "Dy", "occu": 1}], "abc": [-0.00205379, 0.00628636, -0.002117699999999], "properties": {"magmom": 0.262}, "label": "Dy", "xyz": [0.014468871650440512, -0.014479945487779193, 0.0147423481366172]}, {"species": [{"element": "Dy", "occu": 1}], "abc": [0.25205379, 0.24371364, 0.2521177], "properties": {"magmom": 0.262}, "label": "Dy", "xyz": [1.8340919683495633, 1.9730758579877827, 1.837329246863383]}, {"species": [{"element": "Mn", "occu": 1}], "abc": [0.625, 0.625, 0.625], "properties": {"magmom": -2.2720000000000002}, "label": "Mn", "xyz": [4.621402099999999, 4.89648978125, 4.630178987500001]}, {"species": [{"element": "Mn", "occu": 1}], "abc": [0.125, 0.625, 0.625], "properties": {"magmom": -2.273}, "label": "Mn", "xyz": [4.620302195, 2.9940162412499998, 2.7219845975]}, {"species": [{"element": "Mn", "occu": 1}], "abc": [0.625, 0.125, 0.625], "properties": {"magmom": 2.368999999999999}, "label": "Mn", "xyz": [2.82896367, 4.78536762125, 2.8342035424999996]}, {"species": [{"element": "Mn", "occu": 1}], "abc": [0.625, 0.625, 0.125], "properties": {"magmom": -2.2720000000000002}, "label": "Mn", "xyz": [2.7178187549999997, 2.9928936562499997, 4.630205632500001]}]}, "task_ids": null, "uncorrected_energy_per_atom": null, "energy_per_atom": -20.440872698055554, "formation_energy_per_atom": 0.008618160622605, "energy_above_hull": 0.054406208888892006, "is_stable": false, "equilibrium_reaction_energy_per_atom": null, "decomposes_to": null, "xas": null, "grain_boundaries": null, "band_gap": 0.0, "cbm": null, "vbm": null, "efermi": 4.66022269, "is_gap_direct": null, "is_metal": null, "es_source_calc_id": null, "bandstructure": null, "dos": null, "dos_energy_up": null, "dos_energy_down": null, "is_magnetic": null, "ordering": null, "total_magnetization": 3.63e-05, "total_magnetization_normalized_vol": null, "total_magnetization_normalized_formula_units": null, "num_magnetic_sites": null, "num_unique_magnetic_sites": null, "types_of_magnetic_species": null, "bulk_modulus": null, "shear_modulus": null, "universal_anisotropy": null, "homogeneous_poisson": null, "e_total": null, "e_ionic": null, "e_electronic": null, "n": null, "e_ij_max": null, "weighted_surface_energy_EV_PER_ANG2": null, "weighted_surface_energy": null, "weighted_work_function": null, "surface_anisotropy": null, "shape_factor": null, "has_reconstructed": null, "possible_species": null, "has_props": null, "theoretical": null, "database_IDs": null, "fields_not_requested": ["builder_meta", "nsites", "elements", "nelements", "composition", "composition_reduced", "chemsys", "symmetry", "property_name", "deprecated", "deprecation_reasons", "last_updated", "origins", "warnings", "task_ids", "uncorrected_energy_per_atom", "equilibrium_reaction_energy_per_atom", "decomposes_to", "xas", "grain_boundaries", "cbm", "vbm", "is_gap_direct", "is_metal", "es_source_calc_id", "bandstructure", "dos", "dos_energy_up", "dos_energy_down", "is_magnetic", "ordering", "total_magnetization_normalized_vol", "total_magnetization_normalized_formula_units", "num_magnetic_sites", "num_unique_magnetic_sites", "types_of_magnetic_species", "bulk_modulus", "shear_modulus", "universal_anisotropy", "homogeneous_poisson", "e_total", "e_ionic", "e_electronic", "n", "e_ij_max", "weighted_surface_energy_EV_PER_ANG2", "weighted_surface_energy", "weighted_work_function", "surface_anisotropy", "shape_factor", "has_reconstructed", "possible_species", "has_props", "theoretical", "database_IDs"]}