{"builder_meta": null, "nsites": null, "elements": null, "nelements": null, "composition": null, "composition_reduced": null, "formula_pretty": "DyNi", "formula_anonymous": "AB", "chemsys": null, "volume": 155.5487000100759, "density": 9.44528066001935, "density_atomic": 19.443587501259486, "symmetry": null, "property_name": null, "material_id": "mp-2738", "deprecated": null, "deprecation_reasons": null, "last_updated": null, "origins": null, "warnings": null, "structure": {"@module": "pymatgen.core.structure", "@class": "Structure", "charge": 0, "lattice": {"matrix": [[4.23734872, -0.0, 0.0], [-0.0, 5.30042344, 0.0], [0.0, 0.0, 6.92566712]], "pbc": [true, true, true], "a": 4.23734872, "b": 5.30042344, "c": 6.92566712, "alpha": 90.0, "beta": 90.0, "gamma": 90.0, "volume": 155.5487000100759}, "properties": {}, "sites": [{"species": [{"element": "Dy", "occu": 1}], "abc": [0.25, 0.36675192, 0.6812333700000001], "properties": {"magmom": 0.0}, "label": "Dy", "xyz": [1.05933718, 1.943940473433005, 4.717995551655795]}, {"species": [{"element": "Dy", "occu": 1}], "abc": [0.75, 0.63324808, 0.31876663], "properties": {"magmom": 0.0}, "label": "Dy", "xyz": [3.17801154, 3.3564829665669955, 2.2076715683442054]}, {"species": [{"element": "Dy", "occu": 1}], "abc": [0.75, 0.86675192, 0.81876663], "properties": {"magmom": 0.0}, "label": "Dy", "xyz": [3.17801154, 4.594152193433005, 5.670505128344206]}, {"species": [{"element": "Dy", "occu": 1}], "abc": [0.25, 0.13324808, 0.18123337], "properties": {"magmom": 0.0}, "label": "Dy", "xyz": [1.05933718, 0.7062712465669952, 1.2551619916557943]}, {"species": [{"element": "Ni", "occu": 1}], "abc": [0.25, 0.8745531, 0.5358092600000001], "properties": {"magmom": -0.0}, "label": "Ni", "xyz": [1.05933718, 4.635501750764664, 3.7108365745735314]}, {"species": [{"element": "Ni", "occu": 1}], "abc": [0.75, 0.1254469, 0.46419074], "properties": {"magmom": -0.0}, "label": "Ni", "xyz": [3.17801154, 0.664921689235336, 3.2148305454264685]}, {"species": [{"element": "Ni", "occu": 1}], "abc": [0.75, 0.37455309999999903, 0.96419074], "properties": {"magmom": -0.0}, "label": "Ni", "xyz": [3.17801154, 1.985290030764659, 6.677664105426469]}, {"species": [{"element": "Ni", "occu": 1}], "abc": [0.25, 0.625446899999999, 0.03580926], "properties": {"magmom": -0.0}, "label": "Ni", "xyz": [1.05933718, 3.315133409235331, 0.24800301457353122]}]}, "task_ids": null, "uncorrected_energy_per_atom": null, "energy_per_atom": -5.6476792499999995, "formation_energy_per_atom": -0.44842314583332904, "energy_above_hull": 0.0, "is_stable": true, "equilibrium_reaction_energy_per_atom": null, "decomposes_to": null, "xas": null, "grain_boundaries": null, "band_gap": 0.0, "cbm": null, "vbm": null, "efermi": 4.83623982, "is_gap_direct": null, "is_metal": null, "es_source_calc_id": null, "bandstructure": null, "dos": null, "dos_energy_up": null, "dos_energy_down": null, "is_magnetic": null, "ordering": null, "total_magnetization": 1e-06, "total_magnetization_normalized_vol": null, "total_magnetization_normalized_formula_units": null, "num_magnetic_sites": null, "num_unique_magnetic_sites": null, "types_of_magnetic_species": null, "bulk_modulus": null, "shear_modulus": null, "universal_anisotropy": null, "homogeneous_poisson": null, "e_total": null, "e_ionic": null, "e_electronic": null, "n": null, "e_ij_max": null, "weighted_surface_energy_EV_PER_ANG2": null, "weighted_surface_energy": null, "weighted_work_function": null, "surface_anisotropy": null, "shape_factor": null, "has_reconstructed": null, "possible_species": null, "has_props": null, "theoretical": null, "database_IDs": null, "fields_not_requested": ["builder_meta", "nsites", "elements", "nelements", "composition", "composition_reduced", "chemsys", "symmetry", "property_name", "deprecated", "deprecation_reasons", "last_updated", "origins", "warnings", "task_ids", "uncorrected_energy_per_atom", "equilibrium_reaction_energy_per_atom", "decomposes_to", "xas", "grain_boundaries", "cbm", "vbm", "is_gap_direct", "is_metal", "es_source_calc_id", "bandstructure", "dos", "dos_energy_up", "dos_energy_down", "is_magnetic", "ordering", "total_magnetization_normalized_vol", "total_magnetization_normalized_formula_units", "num_magnetic_sites", "num_unique_magnetic_sites", "types_of_magnetic_species", "bulk_modulus", "shear_modulus", "universal_anisotropy", "homogeneous_poisson", "e_total", "e_ionic", "e_electronic", "n", "e_ij_max", "weighted_surface_energy_EV_PER_ANG2", "weighted_surface_energy", "weighted_work_function", "surface_anisotropy", "shape_factor", "has_reconstructed", "possible_species", "has_props", "theoretical", "database_IDs"]}