{
  "builder_meta": null,
  "nsites": null,
  "elements": null,
  "nelements": null,
  "composition": null,
  "composition_reduced": null,
  "formula_pretty": "DyNp3",
  "formula_anonymous": "AB3",
  "chemsys": null,
  "volume": 94.52934765948888,
  "density": 15.34423870034504,
  "density_atomic": 23.63233691487222,
  "symmetry": null,
  "property_name": null,
  "material_id": "mp-1183869",
  "deprecated": null,
  "deprecation_reasons": null,
  "last_updated": null,
  "origins": null,
  "warnings": null,
  "structure": {
    "@module": "pymatgen.core.structure",
    "@class": "Structure",
    "charge": 0,
    "lattice": {
      "matrix": [
        [-2.267413, 2.267413, 4.596692],
        [2.267413, -2.267413, 4.596692],
        [2.267413, 2.267413, -4.596692]
      ],
      "pbc": [true, true, true],
      "a": 5.604632081412838,
      "b": 5.604632081412838,
      "c": 5.604632081412838,
      "alpha": 132.27281708331813,
      "beta": 132.27281708331813,
      "gamma": 69.79848177222702,
      "volume": 94.52934765948888
    },
    "properties": {},
    "sites": [
      {
        "species": [{ "element": "Dy", "occu": 1 }],
        "abc": [0.0, 0.0, 0.0],
        "properties": { "magmom": 0.048 },
        "label": "Dy",
        "xyz": [0.0, 0.0, 0.0]
      },
      {
        "species": [{ "element": "Np", "occu": 1 }],
        "abc": [0.75, 0.25, 0.5],
        "properties": { "magmom": 3.308 },
        "label": "Np",
        "xyz": [-2.220446049250313e-16, 2.2674130000000003, 2.298346]
      },
      {
        "species": [{ "element": "Np", "occu": 1 }],
        "abc": [0.25, 0.75, 0.5],
        "properties": { "magmom": 3.308 },
        "label": "Np",
        "xyz": [2.2674130000000003, -2.220446049250313e-16, 2.298346]
      },
      {
        "species": [{ "element": "Np", "occu": 1 }],
        "abc": [0.5, 0.5, 0.0],
        "properties": { "magmom": 3.282 },
        "label": "Np",
        "xyz": [0.0, 0.0, 4.596692]
      }
    ]
  },
  "task_ids": null,
  "uncorrected_energy_per_atom": null,
  "energy_per_atom": -69.57019530875002,
  "formation_energy_per_atom": 0.6934141459374951,
  "energy_above_hull": 0.6934141459374951,
  "is_stable": false,
  "equilibrium_reaction_energy_per_atom": null,
  "decomposes_to": null,
  "xas": null,
  "grain_boundaries": null,
  "band_gap": 0.0,
  "cbm": null,
  "vbm": null,
  "efermi": 11.69176866,
  "is_gap_direct": null,
  "is_metal": null,
  "es_source_calc_id": null,
  "bandstructure": null,
  "dos": null,
  "dos_energy_up": null,
  "dos_energy_down": null,
  "is_magnetic": null,
  "ordering": null,
  "total_magnetization": 10.3426775,
  "total_magnetization_normalized_vol": null,
  "total_magnetization_normalized_formula_units": null,
  "num_magnetic_sites": null,
  "num_unique_magnetic_sites": null,
  "types_of_magnetic_species": null,
  "bulk_modulus": null,
  "shear_modulus": null,
  "universal_anisotropy": null,
  "homogeneous_poisson": null,
  "e_total": null,
  "e_ionic": null,
  "e_electronic": null,
  "n": null,
  "e_ij_max": null,
  "weighted_surface_energy_EV_PER_ANG2": null,
  "weighted_surface_energy": null,
  "weighted_work_function": null,
  "surface_anisotropy": null,
  "shape_factor": null,
  "has_reconstructed": null,
  "possible_species": null,
  "has_props": null,
  "theoretical": null,
  "database_IDs": null,
  "fields_not_requested": [
    "builder_meta",
    "nsites",
    "elements",
    "nelements",
    "composition",
    "composition_reduced",
    "chemsys",
    "symmetry",
    "property_name",
    "deprecated",
    "deprecation_reasons",
    "last_updated",
    "origins",
    "warnings",
    "task_ids",
    "uncorrected_energy_per_atom",
    "equilibrium_reaction_energy_per_atom",
    "decomposes_to",
    "xas",
    "grain_boundaries",
    "cbm",
    "vbm",
    "is_gap_direct",
    "is_metal",
    "es_source_calc_id",
    "bandstructure",
    "dos",
    "dos_energy_up",
    "dos_energy_down",
    "is_magnetic",
    "ordering",
    "total_magnetization_normalized_vol",
    "total_magnetization_normalized_formula_units",
    "num_magnetic_sites",
    "num_unique_magnetic_sites",
    "types_of_magnetic_species",
    "bulk_modulus",
    "shear_modulus",
    "universal_anisotropy",
    "homogeneous_poisson",
    "e_total",
    "e_ionic",
    "e_electronic",
    "n",
    "e_ij_max",
    "weighted_surface_energy_EV_PER_ANG2",
    "weighted_surface_energy",
    "weighted_work_function",
    "surface_anisotropy",
    "shape_factor",
    "has_reconstructed",
    "possible_species",
    "has_props",
    "theoretical",
    "database_IDs"
  ]
}
