{"builder_meta": null, "nsites": null, "elements": null, "nelements": null, "composition": null, "composition_reduced": null, "formula_pretty": "DyO2", "formula_anonymous": "AB2", "chemsys": null, "volume": 90.59649751749099, "density": 7.129919249791425, "density_atomic": 15.099416252915164, "symmetry": null, "property_name": null, "material_id": "mp-1206731", "deprecated": null, "deprecation_reasons": null, "last_updated": null, "origins": null, "warnings": null, "structure": {"@module": "pymatgen.core.structure", "@class": "Structure", "charge": 0, "lattice": {"matrix": [[3.654872, 0.0, 0.0], [0.0, 4.189832, 0.0], [0.0, 1.820261, 5.916197]], "pbc": [true, true, true], "a": 3.654872, "b": 4.189832, "c": 6.189889906204311, "alpha": 72.89822038465591, "beta": 90.0, "gamma": 90.0, "volume": 90.59649751749099}, "properties": {}, "sites": [{"species": [{"element": "Dy", "occu": 1}], "abc": [0.25, 0.17105, 0.186551], "properties": {"magmom": -0.004}, "label": "Dy", "xyz": [0.913718, 1.056242273411, 1.1036724665470001]}, {"species": [{"element": "Dy", "occu": 1}], "abc": [0.75, 0.8289500000000001, 0.813449], "properties": {"magmom": -0.004}, "label": "Dy", "xyz": [2.741154, 4.953850726589, 4.812524533453]}, {"species": [{"element": "O", "occu": 1}], "abc": [0.25, 0.816955, 0.552387], "properties": {"magmom": 0.783}, "label": "O", "xyz": [0.913718, 4.428392714567, 3.268030312239]}, {"species": [{"element": "O", "occu": 1}], "abc": [0.75, 0.18304499999999901, 0.447613], "properties": {"magmom": 0.783}, "label": "O", "xyz": [2.741154, 1.581700285432996, 2.648166687761]}, {"species": [{"element": "O", "occu": 1}], "abc": [0.25, 0.734707999999999, 0.043764], "properties": {"magmom": 0.054}, "label": "O", "xyz": [0.913718, 3.157964991459996, 0.258916445508]}, {"species": [{"element": "O", "occu": 1}], "abc": [0.75, 0.265292, 0.956236], "properties": {"magmom": 0.054}, "label": "O", "xyz": [2.741154, 2.85212800854, 5.657280554492]}]}, "task_ids": null, "uncorrected_energy_per_atom": null, "energy_per_atom": -8.002299596666665, "formation_energy_per_atom": -3.16420041722222, "energy_above_hull": 0.173337732500002, "is_stable": false, "equilibrium_reaction_energy_per_atom": null, "decomposes_to": null, "xas": null, "grain_boundaries": null, "band_gap": 0.0, "cbm": null, "vbm": null, "efermi": 0.71340722, "is_gap_direct": null, "is_metal": null, "es_source_calc_id": null, "bandstructure": null, "dos": null, "dos_energy_up": null, "dos_energy_down": null, "is_magnetic": null, "ordering": null, "total_magnetization": 1.9996348, "total_magnetization_normalized_vol": null, "total_magnetization_normalized_formula_units": null, "num_magnetic_sites": null, "num_unique_magnetic_sites": null, "types_of_magnetic_species": null, "bulk_modulus": null, "shear_modulus": null, "universal_anisotropy": null, "homogeneous_poisson": null, "e_total": null, "e_ionic": null, "e_electronic": null, "n": null, "e_ij_max": null, "weighted_surface_energy_EV_PER_ANG2": null, "weighted_surface_energy": null, "weighted_work_function": null, "surface_anisotropy": null, "shape_factor": null, "has_reconstructed": null, "possible_species": null, "has_props": null, "theoretical": null, "database_IDs": null, "fields_not_requested": ["builder_meta", "nsites", "elements", "nelements", "composition", "composition_reduced", "chemsys", "symmetry", "property_name", "deprecated", "deprecation_reasons", "last_updated", "origins", "warnings", "task_ids", "uncorrected_energy_per_atom", "equilibrium_reaction_energy_per_atom", "decomposes_to", "xas", "grain_boundaries", "cbm", "vbm", "is_gap_direct", "is_metal", "es_source_calc_id", "bandstructure", "dos", "dos_energy_up", "dos_energy_down", "is_magnetic", "ordering", "total_magnetization_normalized_vol", "total_magnetization_normalized_formula_units", "num_magnetic_sites", "num_unique_magnetic_sites", "types_of_magnetic_species", "bulk_modulus", "shear_modulus", "universal_anisotropy", "homogeneous_poisson", "e_total", "e_ionic", "e_electronic", "n", "e_ij_max", "weighted_surface_energy_EV_PER_ANG2", "weighted_surface_energy", "weighted_work_function", "surface_anisotropy", "shape_factor", "has_reconstructed", "possible_species", "has_props", "theoretical", "database_IDs"]}