{
  "builder_meta": null,
  "nsites": null,
  "elements": null,
  "nelements": null,
  "composition": null,
  "composition_reduced": null,
  "formula_pretty": "DyO3",
  "formula_anonymous": "AB3",
  "chemsys": null,
  "volume": 87.37181623393734,
  "density": 8.001218232961719,
  "density_atomic": 10.921477029242167,
  "symmetry": null,
  "property_name": null,
  "material_id": "mp-984359",
  "deprecated": null,
  "deprecation_reasons": null,
  "last_updated": null,
  "origins": null,
  "warnings": null,
  "structure": {
    "@module": "pymatgen.core.structure",
    "@class": "Structure",
    "charge": 0,
    "lattice": {
      "matrix": [
        [2.326482, -4.029585, 0.0],
        [2.326482, 4.029585, 0.0],
        [0.0, 0.0, 4.6599509999999995]
      ],
      "pbc": [true, true, true],
      "a": 4.652963976708717,
      "b": 4.652963976708717,
      "c": 4.6599509999999995,
      "alpha": 90.0,
      "beta": 90.0,
      "gamma": 119.99999966882639,
      "volume": 87.37181623393732
    },
    "properties": {},
    "sites": [
      {
        "species": [{ "element": "Dy", "occu": 1 }],
        "abc": [0.333333, 0.666667, 0.75],
        "properties": { "magmom": -0.002 },
        "label": "Dy",
        "xyz": [2.326482, 1.34319768639, 3.4949632499999996]
      },
      {
        "species": [{ "element": "Dy", "occu": 1 }],
        "abc": [0.666667, 0.333333, 0.25],
        "properties": { "magmom": -0.002 },
        "label": "Dy",
        "xyz": [2.326482, -1.34319768639, 1.1649877499999999]
      },
      {
        "species": [{ "element": "O", "occu": 1 }],
        "abc": [0.181022, 0.362044, 0.25],
        "properties": { "magmom": 0.011 },
        "label": "O",
        "xyz": [1.263433273812, 0.72944353587, 1.1649877499999999]
      },
      {
        "species": [{ "element": "O", "occu": 1 }],
        "abc": [0.637956, 0.818978, 0.25],
        "properties": { "magmom": 0.014 },
        "label": "O",
        "xyz": [3.389530726188, 0.7294435358699998, 1.1649877499999999]
      },
      {
        "species": [{ "element": "O", "occu": 1 }],
        "abc": [0.181022, 0.818978, 0.25],
        "properties": { "magmom": 0.01 },
        "label": "O",
        "xyz": [2.326482, 2.5706979282599995, 1.1649877499999999]
      },
      {
        "species": [{ "element": "O", "occu": 1 }],
        "abc": [0.818978, 0.637956, 0.75],
        "properties": { "magmom": 0.011 },
        "label": "O",
        "xyz": [3.389530726188, -0.7294435358699998, 3.4949632499999996]
      },
      {
        "species": [{ "element": "O", "occu": 1 }],
        "abc": [0.362044, 0.181022, 0.75],
        "properties": { "magmom": 0.014 },
        "label": "O",
        "xyz": [1.263433273812, -0.72944353587, 3.4949632499999996]
      },
      {
        "species": [{ "element": "O", "occu": 1 }],
        "abc": [0.818978, 0.181022, 0.75],
        "properties": { "magmom": 0.01 },
        "label": "O",
        "xyz": [2.326482, -2.5706979282599995, 3.4949632499999996]
      }
    ]
  },
  "task_ids": null,
  "uncorrected_energy_per_atom": null,
  "energy_per_atom": -6.85931879,
  "formation_energy_per_atom": -1.9937541541666652,
  "energy_above_hull": 0.5093994581250011,
  "is_stable": false,
  "equilibrium_reaction_energy_per_atom": null,
  "decomposes_to": null,
  "xas": null,
  "grain_boundaries": null,
  "band_gap": 0.0,
  "cbm": null,
  "vbm": null,
  "efermi": 2.66115406,
  "is_gap_direct": null,
  "is_metal": null,
  "es_source_calc_id": null,
  "bandstructure": null,
  "dos": null,
  "dos_energy_up": null,
  "dos_energy_down": null,
  "is_magnetic": null,
  "ordering": null,
  "total_magnetization": 0.0792005,
  "total_magnetization_normalized_vol": null,
  "total_magnetization_normalized_formula_units": null,
  "num_magnetic_sites": null,
  "num_unique_magnetic_sites": null,
  "types_of_magnetic_species": null,
  "bulk_modulus": null,
  "shear_modulus": null,
  "universal_anisotropy": null,
  "homogeneous_poisson": null,
  "e_total": null,
  "e_ionic": null,
  "e_electronic": null,
  "n": null,
  "e_ij_max": null,
  "weighted_surface_energy_EV_PER_ANG2": null,
  "weighted_surface_energy": null,
  "weighted_work_function": null,
  "surface_anisotropy": null,
  "shape_factor": null,
  "has_reconstructed": null,
  "possible_species": null,
  "has_props": null,
  "theoretical": null,
  "database_IDs": null,
  "fields_not_requested": [
    "builder_meta",
    "nsites",
    "elements",
    "nelements",
    "composition",
    "composition_reduced",
    "chemsys",
    "symmetry",
    "property_name",
    "deprecated",
    "deprecation_reasons",
    "last_updated",
    "origins",
    "warnings",
    "task_ids",
    "uncorrected_energy_per_atom",
    "equilibrium_reaction_energy_per_atom",
    "decomposes_to",
    "xas",
    "grain_boundaries",
    "cbm",
    "vbm",
    "is_gap_direct",
    "is_metal",
    "es_source_calc_id",
    "bandstructure",
    "dos",
    "dos_energy_up",
    "dos_energy_down",
    "is_magnetic",
    "ordering",
    "total_magnetization_normalized_vol",
    "total_magnetization_normalized_formula_units",
    "num_magnetic_sites",
    "num_unique_magnetic_sites",
    "types_of_magnetic_species",
    "bulk_modulus",
    "shear_modulus",
    "universal_anisotropy",
    "homogeneous_poisson",
    "e_total",
    "e_ionic",
    "e_electronic",
    "n",
    "e_ij_max",
    "weighted_surface_energy_EV_PER_ANG2",
    "weighted_surface_energy",
    "weighted_work_function",
    "surface_anisotropy",
    "shape_factor",
    "has_reconstructed",
    "possible_species",
    "has_props",
    "theoretical",
    "database_IDs"
  ]
}
