{
  "builder_meta": null,
  "nsites": null,
  "elements": null,
  "nelements": null,
  "composition": null,
  "composition_reduced": null,
  "formula_pretty": "DyOs3",
  "formula_anonymous": "AB3",
  "chemsys": null,
  "volume": 135.96362069474964,
  "density": 17.909064675084345,
  "density_atomic": 16.995452586843705,
  "symmetry": null,
  "property_name": null,
  "material_id": "mp-1183851",
  "deprecated": null,
  "deprecation_reasons": null,
  "last_updated": null,
  "origins": null,
  "warnings": null,
  "structure": {
    "@module": "pymatgen.core.structure",
    "@class": "Structure",
    "charge": 0,
    "lattice": {
      "matrix": [
        [2.918704, -5.055344, 0.0],
        [2.918704, 5.055344, 0.0],
        [0.0, 0.0, 4.607358]
      ],
      "pbc": [true, true, true],
      "a": 5.837408328869242,
      "b": 5.837408328869242,
      "c": 4.607358,
      "alpha": 90.0,
      "beta": 90.0,
      "gamma": 120.00000372730713,
      "volume": 135.96362069474964
    },
    "properties": {},
    "sites": [
      {
        "species": [{ "element": "Dy", "occu": 1 }],
        "abc": [0.333333, 0.666667, 0.75],
        "properties": { "magmom": -0.0 },
        "label": "Dy",
        "xyz": [2.918704, 1.6851180368960001, 3.4555184999999997]
      },
      {
        "species": [{ "element": "Dy", "occu": 1 }],
        "abc": [0.666667, 0.333333, 0.25],
        "properties": { "magmom": -0.0 },
        "label": "Dy",
        "xyz": [2.918704, -1.6851180368960001, 1.1518395]
      },
      {
        "species": [{ "element": "Os", "occu": 1 }],
        "abc": [0.15751199999999901, 0.315023, 0.25],
        "properties": { "magmom": -0.002 },
        "label": "Os",
        "xyz": [1.3791897946399971, 0.7962722887840049, 1.1518395]
      },
      {
        "species": [{ "element": "Os", "occu": 1 }],
        "abc": [0.684977, 0.842488, 0.25],
        "properties": { "magmom": -0.001 },
        "label": "Os",
        "xyz": [4.45821820536, 0.7962722887840004, 1.1518395]
      },
      {
        "species": [{ "element": "Os", "occu": 1 }],
        "abc": [0.15751199999999901, 0.842488, 0.25],
        "properties": { "magmom": -0.002 },
        "label": "Os",
        "xyz": [2.9187039999999973, 3.462789311744005, 1.1518395]
      },
      {
        "species": [{ "element": "Os", "occu": 1 }],
        "abc": [0.842488, 0.684977, 0.75],
        "properties": { "magmom": -0.002 },
        "label": "Os",
        "xyz": [4.45821820536, -0.7962722887840004, 3.4555184999999997]
      },
      {
        "species": [{ "element": "Os", "occu": 1 }],
        "abc": [0.315023, 0.15751199999999901, 0.75],
        "properties": { "magmom": -0.001 },
        "label": "Os",
        "xyz": [1.3791897946399971, -0.7962722887840049, 3.4555184999999997]
      },
      {
        "species": [{ "element": "Os", "occu": 1 }],
        "abc": [0.842488, 0.15751199999999901, 0.75],
        "properties": { "magmom": -0.002 },
        "label": "Os",
        "xyz": [2.9187039999999973, -3.462789311744005, 3.4555184999999997]
      }
    ]
  },
  "task_ids": null,
  "uncorrected_energy_per_atom": null,
  "energy_per_atom": -47.38618416,
  "formation_energy_per_atom": 0.34818828374999805,
  "energy_above_hull": 0.6416625674999991,
  "is_stable": false,
  "equilibrium_reaction_energy_per_atom": null,
  "decomposes_to": null,
  "xas": null,
  "grain_boundaries": null,
  "band_gap": 0.0,
  "cbm": null,
  "vbm": null,
  "efermi": 6.26928277,
  "is_gap_direct": null,
  "is_metal": null,
  "es_source_calc_id": null,
  "bandstructure": null,
  "dos": null,
  "dos_energy_up": null,
  "dos_energy_down": null,
  "is_magnetic": null,
  "ordering": null,
  "total_magnetization": 0.0172554,
  "total_magnetization_normalized_vol": null,
  "total_magnetization_normalized_formula_units": null,
  "num_magnetic_sites": null,
  "num_unique_magnetic_sites": null,
  "types_of_magnetic_species": null,
  "bulk_modulus": null,
  "shear_modulus": null,
  "universal_anisotropy": null,
  "homogeneous_poisson": null,
  "e_total": null,
  "e_ionic": null,
  "e_electronic": null,
  "n": null,
  "e_ij_max": null,
  "weighted_surface_energy_EV_PER_ANG2": null,
  "weighted_surface_energy": null,
  "weighted_work_function": null,
  "surface_anisotropy": null,
  "shape_factor": null,
  "has_reconstructed": null,
  "possible_species": null,
  "has_props": null,
  "theoretical": null,
  "database_IDs": null,
  "fields_not_requested": [
    "builder_meta",
    "nsites",
    "elements",
    "nelements",
    "composition",
    "composition_reduced",
    "chemsys",
    "symmetry",
    "property_name",
    "deprecated",
    "deprecation_reasons",
    "last_updated",
    "origins",
    "warnings",
    "task_ids",
    "uncorrected_energy_per_atom",
    "equilibrium_reaction_energy_per_atom",
    "decomposes_to",
    "xas",
    "grain_boundaries",
    "cbm",
    "vbm",
    "is_gap_direct",
    "is_metal",
    "es_source_calc_id",
    "bandstructure",
    "dos",
    "dos_energy_up",
    "dos_energy_down",
    "is_magnetic",
    "ordering",
    "total_magnetization_normalized_vol",
    "total_magnetization_normalized_formula_units",
    "num_magnetic_sites",
    "num_unique_magnetic_sites",
    "types_of_magnetic_species",
    "bulk_modulus",
    "shear_modulus",
    "universal_anisotropy",
    "homogeneous_poisson",
    "e_total",
    "e_ionic",
    "e_electronic",
    "n",
    "e_ij_max",
    "weighted_surface_energy_EV_PER_ANG2",
    "weighted_surface_energy",
    "weighted_work_function",
    "surface_anisotropy",
    "shape_factor",
    "has_reconstructed",
    "possible_species",
    "has_props",
    "theoretical",
    "database_IDs"
  ]
}
