{"builder_meta": null, "nsites": null, "elements": null, "nelements": null, "composition": null, "composition_reduced": null, "formula_pretty": "DyOs2", "formula_anonymous": "AB2", "chemsys": null, "volume": 214.40805271577906, "density": 16.820381141119025, "density_atomic": 17.867337726314922, "symmetry": null, "property_name": null, "material_id": "mp-1102508", "deprecated": null, "deprecation_reasons": null, "last_updated": null, "origins": null, "warnings": null, "structure": {"@module": "pymatgen.core.structure", "@class": "Structure", "charge": 0, "lattice": {"matrix": [[-2.63403388, -4.56226525, 3.39e-06], [-2.63403388, 4.56226525, -3.39e-06], [0.0, 6.84e-06, -8.92091104]], "pbc": [true, true, true], "a": 5.268054545309579, "b": 5.268054545309579, "c": 8.920911040002622, "alpha": 89.99992508489761, "beta": 90.00007491510237, "gamma": 119.99983404172472, "volume": 214.40805271577906}, "properties": {}, "sites": [{"species": [{"element": "Dy", "occu": 1}], "abc": [0.66666766, 0.33333234, 0.56557365], "properties": {"magmom": 0.0}, "label": "Dy", "xyz": [-2.63403388, -1.5207602785098642, -5.0454310882113615]}, {"species": [{"element": "Dy", "occu": 1}], "abc": [0.33333205, 0.66666795, 0.43442558000000003], "properties": {"magmom": 0.0}, "label": "Dy", "xyz": [-2.63403388, 1.5207697646184424, -3.8754730826891044]}, {"species": [{"element": "Dy", "occu": 1}], "abc": [0.33333211, 0.66666789, 0.06557436], "properties": {"magmom": 0.0}, "label": "Dy", "xyz": [-2.63403388, 1.5207666942042675, -0.5849841620732286]}, {"species": [{"element": "Dy", "occu": 1}], "abc": [0.666667599999999, 0.3333324, 0.93442629], "properties": {"magmom": 0.0}, "label": "Dy", "xyz": [-2.6340338799999974, -1.520757208085972, -8.335932676520914]}, {"species": [{"element": "Os", "occu": 1}], "abc": [-1.3e-07, 1.3e-07, 0.49995641], "properties": {"magmom": 0.0}, "label": "Os", "xyz": [0.0, 4.6058908094e-06, -4.460066657488648]}, {"species": [{"element": "Os", "occu": 1}], "abc": [-1e-07, 1e-07, 4.382e-05], "properties": {"magmom": 0.0}, "label": "Os", "xyz": [0.0, 9.127527787999999e-07, -0.00039091432245079997]}, {"species": [{"element": "Os", "occu": 1}], "abc": [0.17116848, 0.34233992, 0.74998708], "properties": {"magmom": -0.0}, "label": "Os", "xyz": [-1.352598523264592, 0.7809346424160873, -6.690568602100544]}, {"species": [{"element": "Os", "occu": 1}], "abc": [0.17115349, 0.82884651, 0.7499880600000001], "properties": {"magmom": -0.0}, "label": "Os", "xyz": [-2.63403388, 3.0005751402318857, -6.690578993901521]}, {"species": [{"element": "Os", "occu": 1}], "abc": [0.65766008, 0.82883152, 0.74998708], "properties": {"magmom": -0.0}, "label": "Os", "xyz": [-3.915469236735408, 0.7809346424160873, -6.690568602100544]}, {"species": [{"element": "Os", "occu": 1}], "abc": [0.8288407600000001, 0.65767971, 0.25001263], "properties": {"magmom": -0.0}, "label": "Os", "xyz": [-3.9155452812935243, -0.7808804004821235, -2.230339850870476]}, {"species": [{"element": "Os", "occu": 1}], "abc": [0.82885572, 0.17114428, 0.25001241], "properties": {"magmom": 0.0}, "label": "Os", "xyz": [-2.6340338799999996, -3.000652337154576, -2.230336238864225]}, {"species": [{"element": "Os", "occu": 1}], "abc": [0.34232029, 0.17115924, 0.25001263], "properties": {"magmom": -0.0}, "label": "Os", "xyz": [-1.3525224787064765, -0.7808804004821235, -2.230339850870476]}]}, "task_ids": null, "uncorrected_energy_per_atom": null, "energy_per_atom": -46.37538602, "formation_energy_per_atom": -0.391299045000001, "energy_above_hull": 0.0, "is_stable": true, "equilibrium_reaction_energy_per_atom": null, "decomposes_to": null, "xas": null, "grain_boundaries": null, "band_gap": 0.0, "cbm": null, "vbm": null, "efermi": 6.20946435, "is_gap_direct": null, "is_metal": null, "es_source_calc_id": null, "bandstructure": null, "dos": null, "dos_energy_up": null, "dos_energy_down": null, "is_magnetic": null, "ordering": null, "total_magnetization": 9e-07, "total_magnetization_normalized_vol": null, "total_magnetization_normalized_formula_units": null, "num_magnetic_sites": null, "num_unique_magnetic_sites": null, "types_of_magnetic_species": null, "bulk_modulus": null, "shear_modulus": null, "universal_anisotropy": null, "homogeneous_poisson": null, "e_total": null, "e_ionic": null, "e_electronic": null, "n": null, "e_ij_max": null, "weighted_surface_energy_EV_PER_ANG2": null, "weighted_surface_energy": null, "weighted_work_function": null, "surface_anisotropy": null, "shape_factor": null, "has_reconstructed": null, "possible_species": null, "has_props": null, "theoretical": null, "database_IDs": null, "fields_not_requested": ["builder_meta", "nsites", "elements", "nelements", "composition", "composition_reduced", "chemsys", "symmetry", "property_name", "deprecated", "deprecation_reasons", "last_updated", "origins", "warnings", "task_ids", "uncorrected_energy_per_atom", "equilibrium_reaction_energy_per_atom", "decomposes_to", "xas", "grain_boundaries", "cbm", "vbm", "is_gap_direct", "is_metal", "es_source_calc_id", "bandstructure", "dos", "dos_energy_up", "dos_energy_down", "is_magnetic", "ordering", "total_magnetization_normalized_vol", "total_magnetization_normalized_formula_units", "num_magnetic_sites", "num_unique_magnetic_sites", "types_of_magnetic_species", "bulk_modulus", "shear_modulus", "universal_anisotropy", "homogeneous_poisson", "e_total", "e_ionic", "e_electronic", "n", "e_ij_max", "weighted_surface_energy_EV_PER_ANG2", "weighted_surface_energy", "weighted_work_function", "surface_anisotropy", "shape_factor", "has_reconstructed", "possible_species", "has_props", "theoretical", "database_IDs"]}