{
  "builder_meta": null,
  "nsites": null,
  "elements": null,
  "nelements": null,
  "composition": null,
  "composition_reduced": null,
  "formula_pretty": "DyP5",
  "formula_anonymous": "AB5",
  "chemsys": null,
  "volume": 243.33387569866963,
  "density": 4.331524379926144,
  "density_atomic": 20.277822974889137,
  "symmetry": null,
  "property_name": null,
  "material_id": "mp-9850",
  "deprecated": null,
  "deprecation_reasons": null,
  "last_updated": null,
  "origins": null,
  "warnings": null,
  "structure": {
    "@module": "pymatgen.core.structure",
    "@class": "Structure",
    "charge": 0,
    "lattice": {
      "matrix": [
        [4.95821072, 0.01570539, 0.0],
        [-1.15500777, 5.22332507, 0.0],
        [0.0, 0.0, 9.38915383]
      ],
      "pbc": [true, true, true],
      "a": 4.958235593756914,
      "b": 5.3495016343254695,
      "c": 9.38915383,
      "alpha": 90.0,
      "beta": 90.0,
      "gamma": 102.28739940959632,
      "volume": 243.33387569866963
    },
    "properties": {},
    "sites": [
      {
        "species": [{ "element": "Dy", "occu": 1 }],
        "abc": [0.00274023, 0.34748023, 0.25],
        "properties": { "magmom": 0.0 },
        "label": "Dy",
        "xyz": [-0.3877557278101215, 1.8150452330692057, 2.3472884575]
      },
      {
        "species": [{ "element": "Dy", "occu": 1 }],
        "abc": [0.99725977, 0.65251977, 0.75],
        "properties": { "magmom": 0.0 },
        "label": "Dy",
        "xyz": [4.190958677810122, 3.423985226930794, 7.0418653725]
      },
      {
        "species": [{ "element": "P", "occu": 1 }],
        "abc": [0.28057619, 0.89393584, 0.25],
        "properties": { "magmom": -0.0 },
        "label": "P",
        "xyz": [0.3586530319532799, 4.673724042532172, 2.3472884575]
      },
      {
        "species": [{ "element": "P", "occu": 1 }],
        "abc": [0.71942381, 0.10606416, 0.75],
        "properties": { "magmom": -0.0 },
        "label": "P",
        "xyz": [3.4445499180467203, 0.5653064174678271, 7.0418653725]
      },
      {
        "species": [{ "element": "P", "occu": 1 }],
        "abc": [0.61481886, 0.95448077, 0.40794548],
        "properties": { "magmom": -0.0 },
        "label": "P",
        "xyz": [1.9459687568445962, 4.995219304749559, 3.8302628659731885]
      },
      {
        "species": [{ "element": "P", "occu": 1 }],
        "abc": [0.38518114000000003, 0.04551923, 0.90794548],
        "properties": { "magmom": -0.0 },
        "label": "P",
        "xyz": [1.857234193155404, 0.2438111552504407, 8.524839780973188]
      },
      {
        "species": [{ "element": "P", "occu": 1 }],
        "abc": [0.38518114000000003, 0.04551923, 0.59205452],
        "properties": { "magmom": -0.0 },
        "label": "P",
        "xyz": [1.857234193155404, 0.2438111552504407, 5.558890964026812]
      },
      {
        "species": [{ "element": "P", "occu": 1 }],
        "abc": [0.61481886, 0.95448077, 0.09205452],
        "properties": { "magmom": -0.0 },
        "label": "P",
        "xyz": [1.9459687568445962, 4.995219304749559, 0.8643140490268115]
      },
      {
        "species": [{ "element": "P", "occu": 1 }],
        "abc": [0.71174359, 0.59684275, 0.47116115000000003],
        "properties": { "magmom": 0.0 },
        "label": "P",
        "xyz": [2.8396166841111175, 3.128681909583692, 4.423804516069705]
      },
      {
        "species": [{ "element": "P", "occu": 1 }],
        "abc": [0.28825641, 0.40315725, 0.97116115],
        "properties": { "magmom": 0.0 },
        "label": "P",
        "xyz": [0.9635862658888829, 2.1103485504163073, 9.118381431069704]
      },
      {
        "species": [{ "element": "P", "occu": 1 }],
        "abc": [0.28825641, 0.40315725, 0.52883885],
        "properties": { "magmom": 0.0 },
        "label": "P",
        "xyz": [0.9635862658888829, 2.1103485504163073, 4.965349313930295]
      },
      {
        "species": [{ "element": "P", "occu": 1 }],
        "abc": [0.71174359, 0.59684275, 0.02883885],
        "properties": { "magmom": 0.0 },
        "label": "P",
        "xyz": [2.8396166841111175, 3.128681909583692, 0.2707723989302955]
      }
    ]
  },
  "task_ids": null,
  "uncorrected_energy_per_atom": null,
  "energy_per_atom": -13.4690891475,
  "formation_energy_per_atom": -0.6370583499801581,
  "energy_above_hull": 0.0,
  "is_stable": true,
  "equilibrium_reaction_energy_per_atom": null,
  "decomposes_to": null,
  "xas": null,
  "grain_boundaries": null,
  "band_gap": 0.0937,
  "cbm": null,
  "vbm": null,
  "efermi": 5.54363751,
  "is_gap_direct": null,
  "is_metal": null,
  "es_source_calc_id": null,
  "bandstructure": null,
  "dos": null,
  "dos_energy_up": null,
  "dos_energy_down": null,
  "is_magnetic": null,
  "ordering": null,
  "total_magnetization": 0.0,
  "total_magnetization_normalized_vol": null,
  "total_magnetization_normalized_formula_units": null,
  "num_magnetic_sites": null,
  "num_unique_magnetic_sites": null,
  "types_of_magnetic_species": null,
  "bulk_modulus": null,
  "shear_modulus": null,
  "universal_anisotropy": null,
  "homogeneous_poisson": null,
  "e_total": null,
  "e_ionic": null,
  "e_electronic": null,
  "n": null,
  "e_ij_max": null,
  "weighted_surface_energy_EV_PER_ANG2": null,
  "weighted_surface_energy": null,
  "weighted_work_function": null,
  "surface_anisotropy": null,
  "shape_factor": null,
  "has_reconstructed": null,
  "possible_species": null,
  "has_props": null,
  "theoretical": null,
  "database_IDs": null,
  "fields_not_requested": [
    "builder_meta",
    "nsites",
    "elements",
    "nelements",
    "composition",
    "composition_reduced",
    "chemsys",
    "symmetry",
    "property_name",
    "deprecated",
    "deprecation_reasons",
    "last_updated",
    "origins",
    "warnings",
    "task_ids",
    "uncorrected_energy_per_atom",
    "equilibrium_reaction_energy_per_atom",
    "decomposes_to",
    "xas",
    "grain_boundaries",
    "cbm",
    "vbm",
    "is_gap_direct",
    "is_metal",
    "es_source_calc_id",
    "bandstructure",
    "dos",
    "dos_energy_up",
    "dos_energy_down",
    "is_magnetic",
    "ordering",
    "total_magnetization_normalized_vol",
    "total_magnetization_normalized_formula_units",
    "num_magnetic_sites",
    "num_unique_magnetic_sites",
    "types_of_magnetic_species",
    "bulk_modulus",
    "shear_modulus",
    "universal_anisotropy",
    "homogeneous_poisson",
    "e_total",
    "e_ionic",
    "e_electronic",
    "n",
    "e_ij_max",
    "weighted_surface_energy_EV_PER_ANG2",
    "weighted_surface_energy",
    "weighted_work_function",
    "surface_anisotropy",
    "shape_factor",
    "has_reconstructed",
    "possible_species",
    "has_props",
    "theoretical",
    "database_IDs"
  ]
}
