{"builder_meta": null, "nsites": null, "elements": null, "nelements": null, "composition": null, "composition_reduced": null, "formula_pretty": "DyPt", "formula_anonymous": "AB", "chemsys": null, "volume": 174.43082281492352, "density": 13.616451313105724, "density_atomic": 21.80385285186544, "symmetry": null, "property_name": null, "material_id": "mp-1078613", "deprecated": null, "deprecation_reasons": null, "last_updated": null, "origins": null, "warnings": null, "structure": {"@module": "pymatgen.core.structure", "@class": "Structure", "charge": 0, "lattice": {"matrix": [[0.0, 4.50699515, -0.0], [0.0, 0.0, 5.53031266], [6.99820167, 0.0, 0.0]], "pbc": [true, true, true], "a": 4.50699515, "b": 5.53031266, "c": 6.99820167, "alpha": 90.0, "beta": 90.0, "gamma": 90.0, "volume": 174.43082281492352}, "properties": {}, "sites": [{"species": [{"element": "Dy", "occu": 1}], "abc": [0.25, 0.35965951, 0.68215566], "properties": {"magmom": 0.0}, "label": "Dy", "xyz": [4.773862879011952, 1.1267487875, 1.9890295414423966]}, {"species": [{"element": "Dy", "occu": 1}], "abc": [0.25, 0.14034049, 0.18215566], "properties": {"magmom": 0.0}, "label": "Dy", "xyz": [1.2747620440119523, 1.1267487875, 0.7761267885576034]}, {"species": [{"element": "Dy", "occu": 1}], "abc": [0.75, 0.64034049, 0.31784434], "properties": {"magmom": 0.0}, "label": "Dy", "xyz": [2.224338790988048, 3.3802463625, 3.5412831185576037]}, {"species": [{"element": "Dy", "occu": 1}], "abc": [0.75, 0.8596595100000001, 0.8178443400000001], "properties": {"magmom": 0.0}, "label": "Dy", "xyz": [5.723439625988048, 3.3802463625, 4.754185871442397]}, {"species": [{"element": "Pt", "occu": 1}], "abc": [0.25, 0.84477427, 0.54344952], "properties": {"magmom": -0.0}, "label": "Pt", "xyz": [3.8031693384246985, 1.1267487875, 4.6718658402232585]}, {"species": [{"element": "Pt", "occu": 1}], "abc": [0.25, 0.6552257300000001, 0.04344952], "properties": {"magmom": -0.0}, "label": "Pt", "xyz": [0.3040685034246984, 1.1267487875, 3.6236031497767422]}, {"species": [{"element": "Pt", "occu": 1}], "abc": [0.75, 0.15522573, 0.45655048000000004], "properties": {"magmom": -0.0}, "label": "Pt", "xyz": [3.1950323315753018, 3.3802463625, 0.8584468197767419]}, {"species": [{"element": "Pt", "occu": 1}], "abc": [0.75, 0.34477427, 0.95655048], "properties": {"magmom": -0.0}, "label": "Pt", "xyz": [6.694133166575302, 3.3802463625, 1.906709510223258]}]}, "task_ids": null, "uncorrected_energy_per_atom": null, "energy_per_atom": -43.14727538, "formation_energy_per_atom": -1.412515317500002, "energy_above_hull": 0.0, "is_stable": true, "equilibrium_reaction_energy_per_atom": null, "decomposes_to": null, "xas": null, "grain_boundaries": null, "band_gap": 0.0, "cbm": null, "vbm": null, "efermi": 5.01149804, "is_gap_direct": null, "is_metal": null, "es_source_calc_id": null, "bandstructure": null, "dos": null, "dos_energy_up": null, "dos_energy_down": null, "is_magnetic": null, "ordering": null, "total_magnetization": 0.0, "total_magnetization_normalized_vol": null, "total_magnetization_normalized_formula_units": null, "num_magnetic_sites": null, "num_unique_magnetic_sites": null, "types_of_magnetic_species": null, "bulk_modulus": null, "shear_modulus": null, "universal_anisotropy": null, "homogeneous_poisson": null, "e_total": null, "e_ionic": null, "e_electronic": null, "n": null, "e_ij_max": null, "weighted_surface_energy_EV_PER_ANG2": null, "weighted_surface_energy": null, "weighted_work_function": null, "surface_anisotropy": null, "shape_factor": null, "has_reconstructed": null, "possible_species": null, "has_props": null, "theoretical": null, "database_IDs": null, "fields_not_requested": ["builder_meta", "nsites", "elements", "nelements", "composition", "composition_reduced", "chemsys", "symmetry", "property_name", "deprecated", "deprecation_reasons", "last_updated", "origins", "warnings", "task_ids", "uncorrected_energy_per_atom", "equilibrium_reaction_energy_per_atom", "decomposes_to", "xas", "grain_boundaries", "cbm", "vbm", "is_gap_direct", "is_metal", "es_source_calc_id", "bandstructure", "dos", "dos_energy_up", "dos_energy_down", "is_magnetic", "ordering", "total_magnetization_normalized_vol", "total_magnetization_normalized_formula_units", "num_magnetic_sites", "num_unique_magnetic_sites", "types_of_magnetic_species", "bulk_modulus", "shear_modulus", "universal_anisotropy", "homogeneous_poisson", "e_total", "e_ionic", "e_electronic", "n", "e_ij_max", "weighted_surface_energy_EV_PER_ANG2", "weighted_surface_energy", "weighted_work_function", "surface_anisotropy", "shape_factor", "has_reconstructed", "possible_species", "has_props", "theoretical", "database_IDs"]}