{"builder_meta": null, "nsites": null, "elements": null, "nelements": null, "composition": null, "composition_reduced": null, "formula_pretty": "DyRe2", "formula_anonymous": "AB2", "chemsys": null, "volume": 222.79229670305335, "density": 15.947509988734705, "density_atomic": 18.566024725254447, "symmetry": null, "property_name": null, "material_id": "mp-1102210", "deprecated": null, "deprecation_reasons": null, "last_updated": null, "origins": null, "warnings": null, "structure": {"@module": "pymatgen.core.structure", "@class": "Structure", "charge": 0, "lattice": {"matrix": [[-2.70356351, -4.6836276, 0.0], [-2.70356351, 4.6836276, 0.0], [0.0, 0.0, -8.79733727]], "pbc": [true, true, true], "a": 5.407922257955017, "b": 5.407922257955017, "c": 8.79733727, "alpha": 90.0, "beta": 90.0, "gamma": 120.00972854781695, "volume": 222.79229670305335}, "properties": {}, "sites": [{"species": [{"element": "Dy", "occu": 1}], "abc": [0.66665653, 0.33334347000000003, 0.56244019], "properties": {"magmom": -0.0}, "label": "Dy", "xyz": [-2.7035635100000004, -1.5611142472564559, -4.947976045632881]}, {"species": [{"element": "Dy", "occu": 1}], "abc": [0.33334337, 0.66665663, 0.437562199999999], "properties": {"magmom": 0.0}, "label": "Dy", "xyz": [-2.70356351, 1.5611151839819757, -3.849382250003185]}, {"species": [{"element": "Dy", "occu": 1}], "abc": [0.33334437, 0.66665663, 0.062437799999999], "properties": {"magmom": 0.0}, "label": "Dy", "xyz": [-2.70356621356351, 1.5611105003543757, -0.5492863849967972]}, {"species": [{"element": "Dy", "occu": 1}], "abc": [0.66665653, 0.33334347000000003, 0.93755981], "properties": {"magmom": -0.0}, "label": "Dy", "xyz": [-2.7035635100000004, -1.5611142472564559, -8.248029859367119]}, {"species": [{"element": "Re", "occu": 1}], "abc": [3.0000000000000004e-08, -3.0000000000000004e-08, 0.50000124], "properties": {"magmom": -0.0}, "label": "Re", "xyz": [0.0, -2.8101765600000003e-07, -4.398679543698215]}, {"species": [{"element": "Re", "occu": 1}], "abc": [3.0000000000000004e-08, -3.0000000000000004e-08, -1.24e-06], "properties": {"magmom": -0.0}, "label": "Re", "xyz": [0.0, -2.8101765600000003e-07, 1.09086982148e-05]}, {"species": [{"element": "Re", "occu": 1}], "abc": [0.17078715, 0.34159626, 0.75], "properties": {"magmom": -0.0}, "label": "Re", "xyz": [-1.385261090405369, 0.8000062619274361, -6.5980029525]}, {"species": [{"element": "Re", "occu": 1}], "abc": [0.17077994, 0.82922006, 0.75], "properties": {"magmom": -0.0}, "label": "Re", "xyz": [-2.70356351, 3.0838883189793123, -6.5980029525]}, {"species": [{"element": "Re", "occu": 1}], "abc": [0.65840274, 0.82921185, 0.75], "properties": {"magmom": -0.0}, "label": "Re", "xyz": [-4.021860522467611, 0.800006261927436, -6.5980029525]}, {"species": [{"element": "Re", "occu": 1}], "abc": [0.829210599999999, 0.65840089, 0.25], "properties": {"magmom": -0.0}, "label": "Re", "xyz": [-4.0218521414207276, -0.8000090721039914, -2.1993343175]}, {"species": [{"element": "Re", "occu": 1}], "abc": [0.82921859, 0.17078041, 0.25], "properties": {"magmom": 0.0}, "label": "Re", "xyz": [-2.7035608064364895, -3.083879232741768, -2.1993343175]}, {"species": [{"element": "Re", "occu": 1}], "abc": [0.34160011, 0.170789399999999, 0.25], "properties": {"magmom": -0.0}, "label": "Re", "xyz": [-1.3852775821427774, -0.8000137557316008, -2.1993343175]}]}, "task_ids": null, "uncorrected_energy_per_atom": null, "energy_per_atom": -45.880248285, "formation_energy_per_atom": -0.27923740500000305, "energy_above_hull": 0.0, "is_stable": true, "equilibrium_reaction_energy_per_atom": null, "decomposes_to": null, "xas": null, "grain_boundaries": null, "band_gap": 0.0, "cbm": null, "vbm": null, "efermi": 5.65022187, "is_gap_direct": null, "is_metal": null, "es_source_calc_id": null, "bandstructure": null, "dos": null, "dos_energy_up": null, "dos_energy_down": null, "is_magnetic": null, "ordering": null, "total_magnetization": 4.1e-06, "total_magnetization_normalized_vol": null, "total_magnetization_normalized_formula_units": null, "num_magnetic_sites": null, "num_unique_magnetic_sites": null, "types_of_magnetic_species": null, "bulk_modulus": null, "shear_modulus": null, "universal_anisotropy": null, "homogeneous_poisson": null, "e_total": null, "e_ionic": null, "e_electronic": null, "n": null, "e_ij_max": null, "weighted_surface_energy_EV_PER_ANG2": null, "weighted_surface_energy": null, "weighted_work_function": null, "surface_anisotropy": null, "shape_factor": null, "has_reconstructed": null, "possible_species": null, "has_props": null, "theoretical": null, "database_IDs": null, "fields_not_requested": ["builder_meta", "nsites", "elements", "nelements", "composition", "composition_reduced", "chemsys", "symmetry", "property_name", "deprecated", "deprecation_reasons", "last_updated", "origins", "warnings", "task_ids", "uncorrected_energy_per_atom", "equilibrium_reaction_energy_per_atom", "decomposes_to", "xas", "grain_boundaries", "cbm", "vbm", "is_gap_direct", "is_metal", "es_source_calc_id", "bandstructure", "dos", "dos_energy_up", "dos_energy_down", "is_magnetic", "ordering", "total_magnetization_normalized_vol", "total_magnetization_normalized_formula_units", "num_magnetic_sites", "num_unique_magnetic_sites", "types_of_magnetic_species", "bulk_modulus", "shear_modulus", "universal_anisotropy", "homogeneous_poisson", "e_total", "e_ionic", "e_electronic", "n", "e_ij_max", "weighted_surface_energy_EV_PER_ANG2", "weighted_surface_energy", "weighted_work_function", "surface_anisotropy", "shape_factor", "has_reconstructed", "possible_species", "has_props", "theoretical", "database_IDs"]}