{"builder_meta": null, "nsites": null, "elements": null, "nelements": null, "composition": null, "composition_reduced": null, "formula_pretty": "DyRh2", "formula_anonymous": "AB2", "chemsys": null, "volume": 104.9303133398483, "density": 11.65716149493768, "density_atomic": 17.488385556641383, "symmetry": null, "property_name": null, "material_id": "mp-1388", "deprecated": null, "deprecation_reasons": null, "last_updated": null, "origins": null, "warnings": null, "structure": {"@module": "pymatgen.core.structure", "@class": "Structure", "charge": 0, "lattice": {"matrix": [[4.58496425, 1e-08, 2.64713054], [1.52832209, 4.32274544, 2.64713054], [-0.0, -0.0, 5.29426109]], "pbc": [true, true, true], "a": 5.294260785943468, "b": 5.29426072701595, "c": 5.29426109, "alpha": 59.9999977944761, "beta": 59.99999816266854, "gamma": 59.99999101790918, "volume": 104.9303133398483}, "properties": {}, "sites": [{"species": [{"element": "Dy", "occu": 1}], "abc": [0.125, 0.125, 0.125], "properties": {"magmom": -0.0}, "label": "Dy", "xyz": [0.7641607925, 0.54034318125, 1.3235652712500001]}, {"species": [{"element": "Dy", "occu": 1}], "abc": [0.875, 0.875, 0.875], "properties": {"magmom": -0.0}, "label": "Dy", "xyz": [5.3491255475, 3.7824022687500003, 9.26495689875]}, {"species": [{"element": "Rh", "occu": 1}], "abc": [0.5, -0.0, 0.5], "properties": {"magmom": 0.0}, "label": "Rh", "xyz": [2.292482125, 5e-09, 3.970695815]}, {"species": [{"element": "Rh", "occu": 1}], "abc": [-0.0, 0.5, 0.5], "properties": {"magmom": 0.0}, "label": "Rh", "xyz": [0.764161045, 2.16137272, 3.970695815]}, {"species": [{"element": "Rh", "occu": 1}], "abc": [0.5, 0.5, 0.5], "properties": {"magmom": 0.0}, "label": "Rh", "xyz": [3.05664317, 2.161372725, 5.2942610850000005]}, {"species": [{"element": "Rh", "occu": 1}], "abc": [0.5, 0.5, 0.0], "properties": {"magmom": 0.0}, "label": "Rh", "xyz": [3.05664317, 2.161372725, 2.64713054]}]}, "task_ids": null, "uncorrected_energy_per_atom": null, "energy_per_atom": -7.190252449999998, "formation_energy_per_atom": -0.7412553605555511, "energy_above_hull": 0.0, "is_stable": true, "equilibrium_reaction_energy_per_atom": null, "decomposes_to": null, "xas": null, "grain_boundaries": null, "band_gap": 0.0, "cbm": null, "vbm": null, "efermi": 5.43601729, "is_gap_direct": null, "is_metal": null, "es_source_calc_id": null, "bandstructure": null, "dos": null, "dos_energy_up": null, "dos_energy_down": null, "is_magnetic": null, "ordering": null, "total_magnetization": 2.4e-06, "total_magnetization_normalized_vol": null, "total_magnetization_normalized_formula_units": null, "num_magnetic_sites": null, "num_unique_magnetic_sites": null, "types_of_magnetic_species": null, "bulk_modulus": null, "shear_modulus": null, "universal_anisotropy": null, "homogeneous_poisson": null, "e_total": null, "e_ionic": null, "e_electronic": null, "n": null, "e_ij_max": null, "weighted_surface_energy_EV_PER_ANG2": null, "weighted_surface_energy": null, "weighted_work_function": null, "surface_anisotropy": null, "shape_factor": null, "has_reconstructed": null, "possible_species": null, "has_props": null, "theoretical": null, "database_IDs": null, "fields_not_requested": ["builder_meta", "nsites", "elements", "nelements", "composition", "composition_reduced", "chemsys", "symmetry", "property_name", "deprecated", "deprecation_reasons", "last_updated", "origins", "warnings", "task_ids", "uncorrected_energy_per_atom", "equilibrium_reaction_energy_per_atom", "decomposes_to", "xas", "grain_boundaries", "cbm", "vbm", "is_gap_direct", "is_metal", "es_source_calc_id", "bandstructure", "dos", "dos_energy_up", "dos_energy_down", "is_magnetic", "ordering", "total_magnetization_normalized_vol", "total_magnetization_normalized_formula_units", "num_magnetic_sites", "num_unique_magnetic_sites", "types_of_magnetic_species", "bulk_modulus", "shear_modulus", "universal_anisotropy", "homogeneous_poisson", "e_total", "e_ionic", "e_electronic", "n", "e_ij_max", "weighted_surface_energy_EV_PER_ANG2", "weighted_surface_energy", "weighted_work_function", "surface_anisotropy", "shape_factor", "has_reconstructed", "possible_species", "has_props", "theoretical", "database_IDs"]}