{"builder_meta": null, "nsites": null, "elements": null, "nelements": null, "composition": null, "composition_reduced": null, "formula_pretty": "DyRu2", "formula_anonymous": "AB2", "chemsys": null, "volume": 215.06427221327914, "density": 11.261730440183033, "density_atomic": 17.922022684439927, "symmetry": null, "property_name": null, "material_id": "mp-1101878", "deprecated": null, "deprecation_reasons": null, "last_updated": null, "origins": null, "warnings": null, "structure": {"@module": "pymatgen.core.structure", "@class": "Structure", "charge": 0, "lattice": {"matrix": [[-2.633672, -4.5542, 0.0], [-2.633672, 4.5542, 0.0], [0.0, 0.0, -8.965292999999999]], "pbc": [true, true, true], "a": 5.260890213983181, "b": 5.260890213983181, "c": 8.965292999999999, "alpha": 90.0, "beta": 90.0, "gamma": 119.918822404714, "volume": 215.06427221327908}, "properties": {}, "sites": [{"species": [{"element": "Dy", "occu": 1}], "abc": [0.666729, 0.333271, 0.566643999999999], "properties": {"magmom": -0.0}, "label": "Dy", "xyz": [-2.633672, -1.5186344236, -5.080129486691991]}, {"species": [{"element": "Dy", "occu": 1}], "abc": [0.333271, 0.666729, 0.433355999999999], "properties": {"magmom": -0.0}, "label": "Dy", "xyz": [-2.633672, 1.5186344236, -3.8851635133079907]}, {"species": [{"element": "Dy", "occu": 1}], "abc": [0.333271, 0.666729, 0.066644], "properties": {"magmom": -0.0}, "label": "Dy", "xyz": [-2.633672, 1.5186344236, -0.5974829866919998]}, {"species": [{"element": "Dy", "occu": 1}], "abc": [0.666729, 0.333271, 0.933356], "properties": {"magmom": -0.0}, "label": "Dy", "xyz": [-2.633672, -1.5186344236, -8.367810013307999]}, {"species": [{"element": "Ru", "occu": 1}], "abc": [0.0, 0.0, 0.5], "properties": {"magmom": 0.0}, "label": "Ru", "xyz": [0.0, 0.0, -4.4826464999999995]}, {"species": [{"element": "Ru", "occu": 1}], "abc": [0.0, 0.0, 0.0], "properties": {"magmom": 0.0}, "label": "Ru", "xyz": [0.0, 0.0, 0.0]}, {"species": [{"element": "Ru", "occu": 1}], "abc": [0.17127, 0.342275, 0.75], "properties": {"magmom": 0.0}, "label": "Ru", "xyz": [-1.35250908724, 0.7787909709999998, -6.723969749999999]}, {"species": [{"element": "Ru", "occu": 1}], "abc": [0.171002, 0.828998, 0.75], "properties": {"magmom": 0.0}, "label": "Ru", "xyz": [-2.633672, 2.9966453831999997, -6.723969749999999]}, {"species": [{"element": "Ru", "occu": 1}], "abc": [0.657725, 0.8287300000000001, 0.75], "properties": {"magmom": 0.0}, "label": "Ru", "xyz": [-3.91483491276, 0.7787909710000003, -6.723969749999999]}, {"species": [{"element": "Ru", "occu": 1}], "abc": [0.8287300000000001, 0.657725, 0.25], "properties": {"magmom": 0.0}, "label": "Ru", "xyz": [-3.91483491276, -0.7787909710000003, -2.2413232499999998]}, {"species": [{"element": "Ru", "occu": 1}], "abc": [0.828998, 0.171002, 0.25], "properties": {"magmom": 0.0}, "label": "Ru", "xyz": [-2.633672, -2.9966453831999997, -2.2413232499999998]}, {"species": [{"element": "Ru", "occu": 1}], "abc": [0.342275, 0.17127, 0.25], "properties": {"magmom": 0.0}, "label": "Ru", "xyz": [-1.35250908724, -0.7787909709999998, -2.2413232499999998]}]}, "task_ids": null, "uncorrected_energy_per_atom": null, "energy_per_atom": -8.045031029166667, "formation_energy_per_atom": -0.322637493055553, "energy_above_hull": 0.0, "is_stable": true, "equilibrium_reaction_energy_per_atom": null, "decomposes_to": null, "xas": null, "grain_boundaries": null, "band_gap": 0.0, "cbm": null, "vbm": null, "efermi": 5.9319836200000005, "is_gap_direct": null, "is_metal": null, "es_source_calc_id": null, "bandstructure": null, "dos": null, "dos_energy_up": null, "dos_energy_down": null, "is_magnetic": null, "ordering": null, "total_magnetization": 0.0021914, "total_magnetization_normalized_vol": null, "total_magnetization_normalized_formula_units": null, "num_magnetic_sites": null, "num_unique_magnetic_sites": null, "types_of_magnetic_species": null, "bulk_modulus": null, "shear_modulus": null, "universal_anisotropy": null, "homogeneous_poisson": null, "e_total": null, "e_ionic": null, "e_electronic": null, "n": null, "e_ij_max": null, "weighted_surface_energy_EV_PER_ANG2": null, "weighted_surface_energy": null, "weighted_work_function": null, "surface_anisotropy": null, "shape_factor": null, "has_reconstructed": null, "possible_species": null, "has_props": null, "theoretical": null, "database_IDs": null, "fields_not_requested": ["builder_meta", "nsites", "elements", "nelements", "composition", "composition_reduced", "chemsys", "symmetry", "property_name", "deprecated", "deprecation_reasons", "last_updated", "origins", "warnings", "task_ids", "uncorrected_energy_per_atom", "equilibrium_reaction_energy_per_atom", "decomposes_to", "xas", "grain_boundaries", "cbm", "vbm", "is_gap_direct", "is_metal", "es_source_calc_id", "bandstructure", "dos", "dos_energy_up", "dos_energy_down", "is_magnetic", "ordering", "total_magnetization_normalized_vol", "total_magnetization_normalized_formula_units", "num_magnetic_sites", "num_unique_magnetic_sites", "types_of_magnetic_species", "bulk_modulus", "shear_modulus", "universal_anisotropy", "homogeneous_poisson", "e_total", "e_ionic", "e_electronic", "n", "e_ij_max", "weighted_surface_energy_EV_PER_ANG2", "weighted_surface_energy", "weighted_work_function", "surface_anisotropy", "shape_factor", "has_reconstructed", "possible_species", "has_props", "theoretical", "database_IDs"]}