{"builder_meta": null, "nsites": null, "elements": null, "nelements": null, "composition": null, "composition_reduced": null, "formula_pretty": "DySb3", "formula_anonymous": "AB3", "chemsys": null, "volume": 218.58354195768385, "density": 8.018895665436808, "density_atomic": 27.32294274471048, "symmetry": null, "property_name": null, "material_id": "mp-1183836", "deprecated": null, "deprecation_reasons": null, "last_updated": null, "origins": null, "warnings": null, "structure": {"@module": "pymatgen.core.structure", "@class": "Structure", "charge": 0, "lattice": {"matrix": [[3.269427, -5.662813, 0.0], [3.269427, 5.662813, 0.0], [0.0, 0.0, 5.903147]], "pbc": [true, true, true], "a": 6.538853414880777, "b": 6.538853414880777, "c": 5.903147, "alpha": 90.0, "beta": 90.0, "gamma": 119.99999407982192, "volume": 218.58354195768385}, "properties": {}, "sites": [{"species": [{"element": "Dy", "occu": 1}], "abc": [0.333333, 0.666667, 0.75], "properties": {"magmom": 0.0}, "label": "Dy", "xyz": [3.269427, 1.8876081085420002, 4.4273602499999996]}, {"species": [{"element": "Dy", "occu": 1}], "abc": [0.666667, 0.333333, 0.25], "properties": {"magmom": 0.0}, "label": "Dy", "xyz": [3.269427, -1.8876081085420002, 1.47578675]}, {"species": [{"element": "Sb", "occu": 1}], "abc": [0.174128, 0.348255, 0.25], "properties": {"magmom": -0.0}, "label": "Sb", "xyz": [1.7078930845409999, 0.9860486392509997, 1.47578675]}, {"species": [{"element": "Sb", "occu": 1}], "abc": [0.651745, 0.825871999999999, 0.25], "properties": {"magmom": 0.0}, "label": "Sb", "xyz": [4.830960915458997, 0.9860486392509946, 1.47578675]}, {"species": [{"element": "Sb", "occu": 1}], "abc": [0.174128, 0.825871999999999, 0.25], "properties": {"magmom": -0.0}, "label": "Sb", "xyz": [3.2694269999999968, 3.690704395871995, 1.47578675]}, {"species": [{"element": "Sb", "occu": 1}], "abc": [0.825871999999999, 0.651745, 0.75], "properties": {"magmom": -0.0}, "label": "Sb", "xyz": [4.830960915458997, -0.9860486392509946, 4.4273602499999996]}, {"species": [{"element": "Sb", "occu": 1}], "abc": [0.348255, 0.174128, 0.75], "properties": {"magmom": 0.0}, "label": "Sb", "xyz": [1.7078930845409999, -0.9860486392509997, 4.4273602499999996]}, {"species": [{"element": "Sb", "occu": 1}], "abc": [0.825871999999999, 0.174128, 0.75], "properties": {"magmom": -0.0}, "label": "Sb", "xyz": [3.2694269999999968, -3.690704395871995, 4.4273602499999996]}]}, "task_ids": null, "uncorrected_energy_per_atom": null, "energy_per_atom": -4.7905231950000005, "formation_energy_per_atom": -0.5391783829166651, "energy_above_hull": 0.135648181249998, "is_stable": false, "equilibrium_reaction_energy_per_atom": null, "decomposes_to": null, "xas": null, "grain_boundaries": null, "band_gap": 0.0, "cbm": null, "vbm": null, "efermi": 7.39434755, "is_gap_direct": null, "is_metal": null, "es_source_calc_id": null, "bandstructure": null, "dos": null, "dos_energy_up": null, "dos_energy_down": null, "is_magnetic": null, "ordering": null, "total_magnetization": 0.0001279, "total_magnetization_normalized_vol": null, "total_magnetization_normalized_formula_units": null, "num_magnetic_sites": null, "num_unique_magnetic_sites": null, "types_of_magnetic_species": null, "bulk_modulus": null, "shear_modulus": null, "universal_anisotropy": null, "homogeneous_poisson": null, "e_total": null, "e_ionic": null, "e_electronic": null, "n": null, "e_ij_max": null, "weighted_surface_energy_EV_PER_ANG2": null, "weighted_surface_energy": null, "weighted_work_function": null, "surface_anisotropy": null, "shape_factor": null, "has_reconstructed": null, "possible_species": null, "has_props": null, "theoretical": null, "database_IDs": null, "fields_not_requested": ["builder_meta", "nsites", "elements", "nelements", "composition", "composition_reduced", "chemsys", "symmetry", "property_name", "deprecated", "deprecation_reasons", "last_updated", "origins", "warnings", "task_ids", "uncorrected_energy_per_atom", "equilibrium_reaction_energy_per_atom", "decomposes_to", "xas", "grain_boundaries", "cbm", "vbm", "is_gap_direct", "is_metal", "es_source_calc_id", "bandstructure", "dos", "dos_energy_up", "dos_energy_down", "is_magnetic", "ordering", "total_magnetization_normalized_vol", "total_magnetization_normalized_formula_units", "num_magnetic_sites", "num_unique_magnetic_sites", "types_of_magnetic_species", "bulk_modulus", "shear_modulus", "universal_anisotropy", "homogeneous_poisson", "e_total", "e_ionic", "e_electronic", "n", "e_ij_max", "weighted_surface_energy_EV_PER_ANG2", "weighted_surface_energy", "weighted_work_function", "surface_anisotropy", "shape_factor", "has_reconstructed", "possible_species", "has_props", "theoretical", "database_IDs"]}