{
  "builder_meta": null,
  "nsites": null,
  "elements": null,
  "nelements": null,
  "composition": null,
  "composition_reduced": null,
  "formula_pretty": "DySi",
  "formula_anonymous": "AB",
  "chemsys": null,
  "volume": 171.71491499622755,
  "density": 7.37209503983849,
  "density_atomic": 21.464364374528444,
  "symmetry": null,
  "property_name": null,
  "material_id": "mp-1182",
  "deprecated": null,
  "deprecation_reasons": null,
  "last_updated": null,
  "origins": null,
  "warnings": null,
  "structure": {
    "@module": "pymatgen.core.structure",
    "@class": "Structure",
    "charge": 0,
    "lattice": {
      "matrix": [
        [3.82285931, -0.0, 0.0],
        [0.0, 5.68879711, 0.0],
        [0.0, 0.0, 7.89585672]
      ],
      "pbc": [true, true, true],
      "a": 3.82285931,
      "b": 5.68879711,
      "c": 7.89585672,
      "alpha": 90.0,
      "beta": 90.0,
      "gamma": 90.0,
      "volume": 171.71491499622755
    },
    "properties": {},
    "sites": [
      {
        "species": [{ "element": "Dy", "occu": 1 }],
        "abc": [0.25, 0.38502115000000003, 0.67923075],
        "properties": { "magmom": 0.0 },
        "label": "Dy",
        "xyz": [0.9557148275, 2.190307205408877, 5.36310868181814]
      },
      {
        "species": [{ "element": "Dy", "occu": 1 }],
        "abc": [0.75, 0.61497885, 0.32076925],
        "properties": { "magmom": 0.0 },
        "label": "Dy",
        "xyz": [2.8671444825, 3.4984899045911235, 2.53274803818186]
      },
      {
        "species": [{ "element": "Dy", "occu": 1 }],
        "abc": [0.75, 0.88502115, 0.82076925],
        "properties": { "magmom": 0.0 },
        "label": "Dy",
        "xyz": [2.8671444825, 5.034705760408877, 6.480676398181861]
      },
      {
        "species": [{ "element": "Dy", "occu": 1 }],
        "abc": [0.25, 0.11497885000000001, 0.17923075],
        "properties": { "magmom": 0.0 },
        "label": "Dy",
        "xyz": [0.9557148275, 0.6540913495911236, 1.41518032181814]
      },
      {
        "species": [{ "element": "Si", "occu": 1 }],
        "abc": [0.25, 0.87186807, 0.5377174100000001],
        "properties": { "magmom": -0.0 },
        "label": "Si",
        "xyz": [0.9557148275, 4.959880556917278, 4.245739625209496]
      },
      {
        "species": [{ "element": "Si", "occu": 1 }],
        "abc": [0.75, 0.12813193, 0.46228259],
        "properties": { "magmom": -0.0 },
        "label": "Si",
        "xyz": [2.8671444825, 0.7289165530827224, 3.650117094790505]
      },
      {
        "species": [{ "element": "Si", "occu": 1 }],
        "abc": [0.75, 0.37186807, 0.96228259],
        "properties": { "magmom": -0.0 },
        "label": "Si",
        "xyz": [2.8671444825, 2.115482001917278, 7.598045454790506]
      },
      {
        "species": [{ "element": "Si", "occu": 1 }],
        "abc": [0.25, 0.62813193, 0.03771741],
        "properties": { "magmom": -0.0 },
        "label": "Si",
        "xyz": [0.9557148275, 3.5733151080827223, 0.2978112652094952]
      }
    ]
  },
  "task_ids": null,
  "uncorrected_energy_per_atom": null,
  "energy_per_atom": -21.2794107225,
  "formation_energy_per_atom": -0.9016268125000011,
  "energy_above_hull": 0.0,
  "is_stable": true,
  "equilibrium_reaction_energy_per_atom": null,
  "decomposes_to": null,
  "xas": null,
  "grain_boundaries": null,
  "band_gap": 0.0,
  "cbm": null,
  "vbm": null,
  "efermi": 5.39737064,
  "is_gap_direct": null,
  "is_metal": null,
  "es_source_calc_id": null,
  "bandstructure": null,
  "dos": null,
  "dos_energy_up": null,
  "dos_energy_down": null,
  "is_magnetic": null,
  "ordering": null,
  "total_magnetization": 0.0,
  "total_magnetization_normalized_vol": null,
  "total_magnetization_normalized_formula_units": null,
  "num_magnetic_sites": null,
  "num_unique_magnetic_sites": null,
  "types_of_magnetic_species": null,
  "bulk_modulus": null,
  "shear_modulus": null,
  "universal_anisotropy": null,
  "homogeneous_poisson": null,
  "e_total": null,
  "e_ionic": null,
  "e_electronic": null,
  "n": null,
  "e_ij_max": null,
  "weighted_surface_energy_EV_PER_ANG2": null,
  "weighted_surface_energy": null,
  "weighted_work_function": null,
  "surface_anisotropy": null,
  "shape_factor": null,
  "has_reconstructed": null,
  "possible_species": null,
  "has_props": null,
  "theoretical": null,
  "database_IDs": null,
  "fields_not_requested": [
    "builder_meta",
    "nsites",
    "elements",
    "nelements",
    "composition",
    "composition_reduced",
    "chemsys",
    "symmetry",
    "property_name",
    "deprecated",
    "deprecation_reasons",
    "last_updated",
    "origins",
    "warnings",
    "task_ids",
    "uncorrected_energy_per_atom",
    "equilibrium_reaction_energy_per_atom",
    "decomposes_to",
    "xas",
    "grain_boundaries",
    "cbm",
    "vbm",
    "is_gap_direct",
    "is_metal",
    "es_source_calc_id",
    "bandstructure",
    "dos",
    "dos_energy_up",
    "dos_energy_down",
    "is_magnetic",
    "ordering",
    "total_magnetization_normalized_vol",
    "total_magnetization_normalized_formula_units",
    "num_magnetic_sites",
    "num_unique_magnetic_sites",
    "types_of_magnetic_species",
    "bulk_modulus",
    "shear_modulus",
    "universal_anisotropy",
    "homogeneous_poisson",
    "e_total",
    "e_ionic",
    "e_electronic",
    "n",
    "e_ij_max",
    "weighted_surface_energy_EV_PER_ANG2",
    "weighted_surface_energy",
    "weighted_work_function",
    "surface_anisotropy",
    "shape_factor",
    "has_reconstructed",
    "possible_species",
    "has_props",
    "theoretical",
    "database_IDs"
  ]
}
