{
  "builder_meta": null,
  "nsites": null,
  "elements": null,
  "nelements": null,
  "composition": null,
  "composition_reduced": null,
  "formula_pretty": "DySi2",
  "formula_anonymous": "AB2",
  "chemsys": null,
  "volume": 114.15400509091141,
  "density": 6.361787095307063,
  "density_atomic": 19.025667515151902,
  "symmetry": null,
  "property_name": null,
  "material_id": "mp-12770",
  "deprecated": null,
  "deprecation_reasons": null,
  "last_updated": null,
  "origins": null,
  "warnings": null,
  "structure": {
    "@module": "pymatgen.core.structure",
    "@class": "Structure",
    "charge": 0,
    "lattice": {
      "matrix": [
        [3.90626864, 0.0, 0.0],
        [0.0, 3.90626864, 0.0],
        [-1.9531333, -1.9531333, 7.48112548]
      ],
      "pbc": [true, true, true],
      "a": 3.90626864,
      "b": 3.90626864,
      "c": 7.974753778182936,
      "alpha": 104.17678445413766,
      "beta": 104.17678445413766,
      "gamma": 90.0,
      "volume": 114.15400509091141
    },
    "properties": {},
    "sites": [
      {
        "species": [{ "element": "Dy", "occu": 1 }],
        "abc": [0.25, 0.75, 0.5],
        "properties": { "magmom": 0.0 },
        "label": "Dy",
        "xyz": [5.100000000091143e-7, 1.9531348299999998, 3.74056274]
      },
      {
        "species": [{ "element": "Dy", "occu": 1 }],
        "abc": [-0.0, -0.0, -0.0],
        "properties": { "magmom": 0.0 },
        "label": "Dy",
        "xyz": [0.0, 0.0, 0.0]
      },
      {
        "species": [{ "element": "Si", "occu": 1 }],
        "abc": [0.66857733, 0.16857733, 0.33715467],
        "properties": { "magmom": -0.0 },
        "label": "Si",
        "xyz": [1.9531346443664201, 3.2436642027899865e-7, 2.5222963924379918]
      },
      {
        "species": [{ "element": "Si", "occu": 1 }],
        "abc": [0.58142267, 0.58142267, 0.16284533],
        "properties": { "magmom": -0.0 },
        "label": "Si",
        "xyz": [1.9531345056335798, 1.9531345056335798, 1.2182663475620086]
      },
      {
        "species": [{ "element": "Si", "occu": 1 }],
        "abc": [0.83142267, 0.33142267000000003, 0.66284533],
        "properties": { "magmom": -0.0 },
        "label": "Si",
        "xyz": [1.95313501563358, 6.956335798502522e-7, 4.958829087562009]
      },
      {
        "species": [{ "element": "Si", "occu": 1 }],
        "abc": [0.41857733, 0.41857733, 0.83715467],
        "properties": { "magmom": -0.0 },
        "label": "Si",
        "xyz": [8.343664201770906e-7, 8.343664201770906e-7, 6.262859132437992]
      }
    ]
  },
  "task_ids": null,
  "uncorrected_energy_per_atom": null,
  "energy_per_atom": -17.074411571666666,
  "formation_energy_per_atom": -0.564634099999999,
  "energy_above_hull": 0.082550089833336,
  "is_stable": false,
  "equilibrium_reaction_energy_per_atom": null,
  "decomposes_to": null,
  "xas": null,
  "grain_boundaries": null,
  "band_gap": 0.0,
  "cbm": null,
  "vbm": null,
  "efermi": 6.97039949,
  "is_gap_direct": null,
  "is_metal": null,
  "es_source_calc_id": null,
  "bandstructure": null,
  "dos": null,
  "dos_energy_up": null,
  "dos_energy_down": null,
  "is_magnetic": null,
  "ordering": null,
  "total_magnetization": 0.0,
  "total_magnetization_normalized_vol": null,
  "total_magnetization_normalized_formula_units": null,
  "num_magnetic_sites": null,
  "num_unique_magnetic_sites": null,
  "types_of_magnetic_species": null,
  "bulk_modulus": null,
  "shear_modulus": null,
  "universal_anisotropy": null,
  "homogeneous_poisson": null,
  "e_total": null,
  "e_ionic": null,
  "e_electronic": null,
  "n": null,
  "e_ij_max": null,
  "weighted_surface_energy_EV_PER_ANG2": null,
  "weighted_surface_energy": null,
  "weighted_work_function": null,
  "surface_anisotropy": null,
  "shape_factor": null,
  "has_reconstructed": null,
  "possible_species": null,
  "has_props": null,
  "theoretical": null,
  "database_IDs": null,
  "fields_not_requested": [
    "builder_meta",
    "nsites",
    "elements",
    "nelements",
    "composition",
    "composition_reduced",
    "chemsys",
    "symmetry",
    "property_name",
    "deprecated",
    "deprecation_reasons",
    "last_updated",
    "origins",
    "warnings",
    "task_ids",
    "uncorrected_energy_per_atom",
    "equilibrium_reaction_energy_per_atom",
    "decomposes_to",
    "xas",
    "grain_boundaries",
    "cbm",
    "vbm",
    "is_gap_direct",
    "is_metal",
    "es_source_calc_id",
    "bandstructure",
    "dos",
    "dos_energy_up",
    "dos_energy_down",
    "is_magnetic",
    "ordering",
    "total_magnetization_normalized_vol",
    "total_magnetization_normalized_formula_units",
    "num_magnetic_sites",
    "num_unique_magnetic_sites",
    "types_of_magnetic_species",
    "bulk_modulus",
    "shear_modulus",
    "universal_anisotropy",
    "homogeneous_poisson",
    "e_total",
    "e_ionic",
    "e_electronic",
    "n",
    "e_ij_max",
    "weighted_surface_energy_EV_PER_ANG2",
    "weighted_surface_energy",
    "weighted_work_function",
    "surface_anisotropy",
    "shape_factor",
    "has_reconstructed",
    "possible_species",
    "has_props",
    "theoretical",
    "database_IDs"
  ]
}
