{
  "builder_meta": null,
  "nsites": null,
  "elements": null,
  "nelements": null,
  "composition": null,
  "composition_reduced": null,
  "formula_pretty": "DySn2",
  "formula_anonymous": "AB2",
  "chemsys": null,
  "volume": 156.84005206759625,
  "density": 8.468280579611895,
  "density_atomic": 26.14000867793271,
  "symmetry": null,
  "property_name": null,
  "material_id": "mp-20021",
  "deprecated": null,
  "deprecation_reasons": null,
  "last_updated": null,
  "origins": null,
  "warnings": null,
  "structure": {
    "@module": "pymatgen.core.structure",
    "@class": "Structure",
    "charge": 0,
    "lattice": {
      "matrix": [
        [4.31444881, -0.0, -0.0],
        [-0.0, 4.23830811, -1.14634623],
        [0.0, 0.042566, 8.56556057]
      ],
      "pbc": [true, true, true],
      "a": 4.31444881,
      "b": 4.3905996531598035,
      "c": 8.565666333840861,
      "alpha": 104.8500851138318,
      "beta": 90.0,
      "gamma": 90.0,
      "volume": 156.84005206759622
    },
    "properties": {},
    "sites": [
      {
        "species": [{ "element": "Dy", "occu": 1 }],
        "abc": [0.25, 0.89949588, 0.79899076],
        "properties": { "magmom": -0.0 },
        "label": "Dy",
        "xyz": [1.0786122025, 3.846350523805747, 5.8126700387118015]
      },
      {
        "species": [{ "element": "Dy", "occu": 1 }],
        "abc": [0.75, 0.10050412, 0.20100924],
        "properties": { "magmom": -0.0 },
        "label": "Dy",
        "xyz": [3.2358366075, 0.43452358619425324, 1.6065443012881993]
      },
      {
        "species": [{ "element": "Sn", "occu": 1 }],
        "abc": [0.25, 0.25171549, 0.50342997],
        "properties": { "magmom": -0.0 },
        "label": "Sn",
        "xyz": [1.0786122025, 1.088276802782644, 4.023606797794181]
      },
      {
        "species": [{ "element": "Sn", "occu": 1 }],
        "abc": [0.75, 0.7482845100000001, 0.49657003],
        "properties": { "magmom": -0.0 },
        "label": "Sn",
        "xyz": [3.2358366075, 3.1925973072173566, 3.39560754220582]
      },
      {
        "species": [{ "element": "Sn", "occu": 1 }],
        "abc": [0.75, 0.43910876, 0.87821753],
        "properties": { "magmom": 0.0 },
        "label": "Sn",
        "xyz": [3.2358366075, 1.8984604260620237, 7.019054775264818]
      },
      {
        "species": [{ "element": "Sn", "occu": 1 }],
        "abc": [0.25, 0.56089124, 0.12178247],
        "properties": { "magmom": 0.0 },
        "label": "Sn",
        "xyz": [1.0786122025, 2.3824136839379766, 0.4001595647351829]
      }
    ]
  },
  "task_ids": null,
  "uncorrected_energy_per_atom": null,
  "energy_per_atom": -4.797558146666664,
  "formation_energy_per_atom": -0.5850517338888841,
  "energy_above_hull": 0.0,
  "is_stable": true,
  "equilibrium_reaction_energy_per_atom": null,
  "decomposes_to": null,
  "xas": null,
  "grain_boundaries": null,
  "band_gap": 0.0,
  "cbm": null,
  "vbm": null,
  "efermi": 6.88734176,
  "is_gap_direct": null,
  "is_metal": null,
  "es_source_calc_id": null,
  "bandstructure": null,
  "dos": null,
  "dos_energy_up": null,
  "dos_energy_down": null,
  "is_magnetic": null,
  "ordering": null,
  "total_magnetization": 0.0,
  "total_magnetization_normalized_vol": null,
  "total_magnetization_normalized_formula_units": null,
  "num_magnetic_sites": null,
  "num_unique_magnetic_sites": null,
  "types_of_magnetic_species": null,
  "bulk_modulus": null,
  "shear_modulus": null,
  "universal_anisotropy": null,
  "homogeneous_poisson": null,
  "e_total": null,
  "e_ionic": null,
  "e_electronic": null,
  "n": null,
  "e_ij_max": null,
  "weighted_surface_energy_EV_PER_ANG2": null,
  "weighted_surface_energy": null,
  "weighted_work_function": null,
  "surface_anisotropy": null,
  "shape_factor": null,
  "has_reconstructed": null,
  "possible_species": null,
  "has_props": null,
  "theoretical": null,
  "database_IDs": null,
  "fields_not_requested": [
    "builder_meta",
    "nsites",
    "elements",
    "nelements",
    "composition",
    "composition_reduced",
    "chemsys",
    "symmetry",
    "property_name",
    "deprecated",
    "deprecation_reasons",
    "last_updated",
    "origins",
    "warnings",
    "task_ids",
    "uncorrected_energy_per_atom",
    "equilibrium_reaction_energy_per_atom",
    "decomposes_to",
    "xas",
    "grain_boundaries",
    "cbm",
    "vbm",
    "is_gap_direct",
    "is_metal",
    "es_source_calc_id",
    "bandstructure",
    "dos",
    "dos_energy_up",
    "dos_energy_down",
    "is_magnetic",
    "ordering",
    "total_magnetization_normalized_vol",
    "total_magnetization_normalized_formula_units",
    "num_magnetic_sites",
    "num_unique_magnetic_sites",
    "types_of_magnetic_species",
    "bulk_modulus",
    "shear_modulus",
    "universal_anisotropy",
    "homogeneous_poisson",
    "e_total",
    "e_ionic",
    "e_electronic",
    "n",
    "e_ij_max",
    "weighted_surface_energy_EV_PER_ANG2",
    "weighted_surface_energy",
    "weighted_work_function",
    "surface_anisotropy",
    "shape_factor",
    "has_reconstructed",
    "possible_species",
    "has_props",
    "theoretical",
    "database_IDs"
  ]
}
