{"builder_meta": null, "nsites": null, "elements": null, "nelements": null, "composition": null, "composition_reduced": null, "formula_pretty": "DyTc2", "formula_anonymous": "AB2", "chemsys": null, "volume": 218.64459934676924, "density": 10.890792768806548, "density_atomic": 18.220383278897437, "symmetry": null, "property_name": null, "material_id": "mp-1102084", "deprecated": null, "deprecation_reasons": null, "last_updated": null, "origins": null, "warnings": null, "structure": {"@module": "pymatgen.core.structure", "@class": "Structure", "charge": 0, "lattice": {"matrix": [[-2.66966756, -4.62865637, -3.28e-06], [-2.67073789, 4.6292738, -0.00025594], [-0.00043418, 0.0002455, -8.84464948]], "pbc": [true, true, true], "a": 5.343368289054077, "b": 5.344437936579802, "c": 8.844649494064011, "alpha": 89.99447308677225, "beta": 89.99993721064881, "gamma": 120.04329809356477, "volume": 218.64459934676924}, "properties": {}, "sites": [{"species": [{"element": "Dy", "occu": 1}], "abc": [0.66662781, 0.33334792, 0.56272719], "properties": {"magmom": -0.0}, "label": "Dy", "xyz": [-2.670203884338887, -1.5422941173100086, -4.977212252021223]}, {"species": [{"element": "Dy", "occu": 1}], "abc": [0.33337375, 0.66665249, 0.43717995], "properties": {"magmom": -0.0}, "label": "Dy", "xyz": [-2.6706409650270877, 1.5431517018111995, -3.866875133938116]}, {"species": [{"element": "Dy", "occu": 1}], "abc": [0.33337196, 0.66664941, 0.062821], "properties": {"magmom": 0.0}, "label": "Dy", "xyz": [-2.670465421280542, 1.5430538238205727, -0.5558014406931041]}, {"species": [{"element": "Dy", "occu": 1}], "abc": [0.6666279900000001, 0.33334973, 0.93727057], "properties": {"magmom": 0.0}, "label": "Dy", "xyz": [-2.670371818159357, -1.5421946210827877, -8.289917163639506]}, {"species": [{"element": "Tc", "occu": 1}], "abc": [5.9e-07, 1.029999999999998e-06, 0.49990778], "properties": {"magmom": 0.0}, "label": "Tc", "xyz": [-0.0002213759238075, 0.0001247646047457, -4.4215090866905085]}, {"species": [{"element": "Tc", "occu": 1}], "abc": [1.00000013, 0.99999898, 9.173e-05], "properties": {"magmom": 0.0}, "label": "Tc", "xyz": [-5.340403112731466, 0.0006121289351108855, -0.0010705394361679998]}, {"species": [{"element": "Tc", "occu": 1}], "abc": [0.17150068000000002, 0.34296568, 0.75000257], "properties": {"magmom": 0.0}, "label": "Tc", "xyz": [-1.3741468745753986, 0.7940484474127871, -6.633598181907534]}, {"species": [{"element": "Tc", "occu": 1}], "abc": [0.17134995, 0.82866089, 0.74998583], "properties": {"magmom": 0.0}, "label": "Tc", "xyz": [-2.6709090686544132, 3.0431622311162654, -6.6335744308128906]}, {"species": [{"element": "Tc", "occu": 1}], "abc": [0.65694516, 0.828458799999999, 0.74998703], "properties": {"magmom": 0.0}, "label": "Tc", "xyz": [-3.9667471191836245, 0.7945733394606315, -6.633586585421641]}, {"species": [{"element": "Tc", "occu": 1}], "abc": [0.82848204, 0.65699942, 0.24999692], "properties": {"magmom": 0.0}, "label": "Tc", "xyz": [-3.9665534145953716, -0.7932670960115389, -2.211305998332248]}, {"species": [{"element": "Tc", "occu": 1}], "abc": [0.82862922, 0.17136014, 0.25001388], "properties": {"magmom": 0.0}, "label": "Tc", "xyz": [-2.6699311176622262, -3.0421055326472595, -2.2113317095528555]}, {"species": [{"element": "Tc", "occu": 1}], "abc": [0.34309172, 0.17155951, 0.25001256], "properties": {"magmom": 0.0}, "label": "Tc", "xyz": [-1.3742398691887379, -0.7937963524049383, -2.2113184930792995]}]}, "task_ids": null, "uncorrected_energy_per_atom": null, "energy_per_atom": -28.17457256, "formation_energy_per_atom": -0.20419678500000202, "energy_above_hull": 0.0, "is_stable": true, "equilibrium_reaction_energy_per_atom": null, "decomposes_to": null, "xas": null, "grain_boundaries": null, "band_gap": 0.0, "cbm": null, "vbm": null, "efermi": 6.13766381, "is_gap_direct": null, "is_metal": null, "es_source_calc_id": null, "bandstructure": null, "dos": null, "dos_energy_up": null, "dos_energy_down": null, "is_magnetic": null, "ordering": null, "total_magnetization": 0.0002298, "total_magnetization_normalized_vol": null, "total_magnetization_normalized_formula_units": null, "num_magnetic_sites": null, "num_unique_magnetic_sites": null, "types_of_magnetic_species": null, "bulk_modulus": null, "shear_modulus": null, "universal_anisotropy": null, "homogeneous_poisson": null, "e_total": null, "e_ionic": null, "e_electronic": null, "n": null, "e_ij_max": null, "weighted_surface_energy_EV_PER_ANG2": null, "weighted_surface_energy": null, "weighted_work_function": null, "surface_anisotropy": null, "shape_factor": null, "has_reconstructed": null, "possible_species": null, "has_props": null, "theoretical": null, "database_IDs": null, "fields_not_requested": ["builder_meta", "nsites", "elements", "nelements", "composition", "composition_reduced", "chemsys", "symmetry", "property_name", "deprecated", "deprecation_reasons", "last_updated", "origins", "warnings", "task_ids", "uncorrected_energy_per_atom", "equilibrium_reaction_energy_per_atom", "decomposes_to", "xas", "grain_boundaries", "cbm", "vbm", "is_gap_direct", "is_metal", "es_source_calc_id", "bandstructure", "dos", "dos_energy_up", "dos_energy_down", "is_magnetic", "ordering", "total_magnetization_normalized_vol", "total_magnetization_normalized_formula_units", "num_magnetic_sites", "num_unique_magnetic_sites", "types_of_magnetic_species", "bulk_modulus", "shear_modulus", "universal_anisotropy", "homogeneous_poisson", "e_total", "e_ionic", "e_electronic", "n", "e_ij_max", "weighted_surface_energy_EV_PER_ANG2", "weighted_surface_energy", "weighted_work_function", "surface_anisotropy", "shape_factor", "has_reconstructed", "possible_species", "has_props", "theoretical", "database_IDs"]}