{"builder_meta": null, "nsites": null, "elements": null, "nelements": null, "composition": null, "composition_reduced": null, "formula_pretty": "DyTe2", "formula_anonymous": "AB2", "chemsys": null, "volume": 174.85748210760124, "density": 7.933399929572336, "density_atomic": 29.142913684600206, "symmetry": null, "property_name": null, "material_id": "mp-1018679", "deprecated": null, "deprecation_reasons": null, "last_updated": null, "origins": null, "warnings": null, "structure": {"@module": "pymatgen.core.structure", "@class": "Structure", "charge": 0, "lattice": {"matrix": [[4.43656398, 0.0, -0.0], [0.0, 4.43656398, 0.0], [-0.0, -0.0, 8.88363533]], "pbc": [true, true, true], "a": 4.43656398, "b": 4.43656398, "c": 8.88363533, "alpha": 90.0, "beta": 90.0, "gamma": 90.0, "volume": 174.85748210760124}, "properties": {}, "sites": [{"species": [{"element": "Dy", "occu": 1}], "abc": [0.75, 0.75, 0.72887464], "properties": {"magmom": -0.0}, "label": "Dy", "xyz": [3.327422985, 3.327422985, 6.475056503045032]}, {"species": [{"element": "Dy", "occu": 1}], "abc": [0.25, 0.25, 0.27112536], "properties": {"magmom": -0.0}, "label": "Dy", "xyz": [1.109140995, 1.109140995, 2.408578826954969]}, {"species": [{"element": "Te", "occu": 1}], "abc": [0.75, 0.75, 0.37199001], "properties": {"magmom": 0.0}, "label": "Te", "xyz": [3.327422985, 3.327422985, 3.3046235952430534]}, {"species": [{"element": "Te", "occu": 1}], "abc": [0.25, 0.25, 0.62800999], "properties": {"magmom": 0.0}, "label": "Te", "xyz": [1.109140995, 1.109140995, 5.579011734756947]}, {"species": [{"element": "Te", "occu": 1}], "abc": [0.75, 0.25, 0.0], "properties": {"magmom": 0.0}, "label": "Te", "xyz": [3.327422985, 1.109140995, 0.0]}, {"species": [{"element": "Te", "occu": 1}], "abc": [0.25, 0.75, 0.0], "properties": {"magmom": 0.0}, "label": "Te", "xyz": [1.109140995, 3.327422985, 0.0]}]}, "task_ids": null, "uncorrected_energy_per_atom": null, "energy_per_atom": -28.93916757166667, "formation_energy_per_atom": -1.333750290000002, "energy_above_hull": 0.067190283333335, "is_stable": false, "equilibrium_reaction_energy_per_atom": null, "decomposes_to": null, "xas": null, "grain_boundaries": null, "band_gap": 0.0, "cbm": null, "vbm": null, "efermi": 6.91219751, "is_gap_direct": null, "is_metal": null, "es_source_calc_id": null, "bandstructure": null, "dos": null, "dos_energy_up": null, "dos_energy_down": null, "is_magnetic": null, "ordering": null, "total_magnetization": 0.0, "total_magnetization_normalized_vol": null, "total_magnetization_normalized_formula_units": null, "num_magnetic_sites": null, "num_unique_magnetic_sites": null, "types_of_magnetic_species": null, "bulk_modulus": null, "shear_modulus": null, "universal_anisotropy": null, "homogeneous_poisson": null, "e_total": null, "e_ionic": null, "e_electronic": null, "n": null, "e_ij_max": null, "weighted_surface_energy_EV_PER_ANG2": null, "weighted_surface_energy": null, "weighted_work_function": null, "surface_anisotropy": null, "shape_factor": null, "has_reconstructed": null, "possible_species": null, "has_props": null, "theoretical": null, "database_IDs": null, "fields_not_requested": ["builder_meta", "nsites", "elements", "nelements", "composition", "composition_reduced", "chemsys", "symmetry", "property_name", "deprecated", "deprecation_reasons", "last_updated", "origins", "warnings", "task_ids", "uncorrected_energy_per_atom", "equilibrium_reaction_energy_per_atom", "decomposes_to", "xas", "grain_boundaries", "cbm", "vbm", "is_gap_direct", "is_metal", "es_source_calc_id", "bandstructure", "dos", "dos_energy_up", "dos_energy_down", "is_magnetic", "ordering", "total_magnetization_normalized_vol", "total_magnetization_normalized_formula_units", "num_magnetic_sites", "num_unique_magnetic_sites", "types_of_magnetic_species", "bulk_modulus", "shear_modulus", "universal_anisotropy", "homogeneous_poisson", "e_total", "e_ionic", "e_electronic", "n", "e_ij_max", "weighted_surface_energy_EV_PER_ANG2", "weighted_surface_energy", "weighted_work_function", "surface_anisotropy", "shape_factor", "has_reconstructed", "possible_species", "has_props", "theoretical", "database_IDs"]}