{"builder_meta": null, "nsites": null, "elements": null, "nelements": null, "composition": null, "composition_reduced": null, "formula_pretty": "DyTe3", "formula_anonymous": "AB3", "chemsys": null, "volume": 247.70190523354267, "density": 7.3111424166338015, "density_atomic": 30.962738154192834, "symmetry": null, "property_name": null, "material_id": "mp-1086673", "deprecated": null, "deprecation_reasons": null, "last_updated": null, "origins": null, "warnings": null, "structure": {"@module": "pymatgen.core.structure", "@class": "Structure", "charge": 0, "lattice": {"matrix": [[-4.33323876, 0.0, 0.0], [-0.0, -0.0, -4.33584911], [2.166619889999999, -13.18385955, -0.0]], "pbc": [true, true, true], "a": 4.33323876, "b": 4.33584911, "c": 13.36070336404, "alpha": 90.0, "beta": 99.33250225303313, "gamma": 90.0, "volume": 247.70190523354267}, "properties": {}, "sites": [{"species": [{"element": "Dy", "occu": 1}], "abc": [0.17216363, 0.75, 0.34432725000000003], "properties": {"magmom": -0.0}, "label": "Dy", "xyz": [1.5394070329577403e-07, -4.539562103237738, -3.2518868325]}, {"species": [{"element": "Dy", "occu": 1}], "abc": [0.82783637, 0.25, 0.65567275], "properties": {"magmom": -0.0}, "label": "Dy", "xyz": [-2.1666190239407044, -8.644297446762263, -1.0839622775]}, {"species": [{"element": "Te", "occu": 1}], "abc": [0.92340344, 0.75, 0.84680488], "properties": {"magmom": -0.0}, "label": "Te", "xyz": [-2.1666232813682726, -11.164156604174604, -3.2518868325]}, {"species": [{"element": "Te", "occu": 1}], "abc": [0.07659656000000001, 0.25, 0.15319512], "properties": {"magmom": -0.0}, "label": "Te", "xyz": [4.4113682709512325e-06, -2.019702945825396, -1.0839622775]}, {"species": [{"element": "Te", "occu": 1}], "abc": [0.57655416, 0.75, 0.15310933000000002], "properties": {"magmom": -0.0}, "label": "Te", "xyz": [-2.1666171136286683, -2.0185719025146014, -3.2518868325]}, {"species": [{"element": "Te", "occu": 1}], "abc": [0.42344584, 0.25, 0.8468906700000001], "properties": {"magmom": -0.0}, "label": "Te", "xyz": [-1.7563713332613418e-06, -11.165287647485398, -1.0839622775]}, {"species": [{"element": "Te", "occu": 1}], "abc": [0.29296867, 0.75, 0.58593734], "properties": {"magmom": -0.0}, "label": "Te", "xyz": [2.988280425331169e-07, -7.724915595660597, -3.2518868325]}, {"species": [{"element": "Te", "occu": 1}], "abc": [0.7070313300000001, 0.25, 0.41406266], "properties": {"magmom": -0.0}, "label": "Te", "xyz": [-2.1666191688280447, -5.458943954339403, -1.0839622775]}]}, "task_ids": null, "uncorrected_energy_per_atom": null, "energy_per_atom": -28.1081210025, "formation_energy_per_atom": -1.049751963749997, "energy_above_hull": 0.0009534662500030001, "is_stable": false, "equilibrium_reaction_energy_per_atom": null, "decomposes_to": null, "xas": null, "grain_boundaries": null, "band_gap": 0.0, "cbm": null, "vbm": null, "efermi": 5.5719707, "is_gap_direct": null, "is_metal": null, "es_source_calc_id": null, "bandstructure": null, "dos": null, "dos_energy_up": null, "dos_energy_down": null, "is_magnetic": null, "ordering": null, "total_magnetization": 0.0, "total_magnetization_normalized_vol": null, "total_magnetization_normalized_formula_units": null, "num_magnetic_sites": null, "num_unique_magnetic_sites": null, "types_of_magnetic_species": null, "bulk_modulus": null, "shear_modulus": null, "universal_anisotropy": null, "homogeneous_poisson": null, "e_total": null, "e_ionic": null, "e_electronic": null, "n": null, "e_ij_max": null, "weighted_surface_energy_EV_PER_ANG2": null, "weighted_surface_energy": null, "weighted_work_function": null, "surface_anisotropy": null, "shape_factor": null, "has_reconstructed": null, "possible_species": null, "has_props": null, "theoretical": null, "database_IDs": null, "fields_not_requested": ["builder_meta", "nsites", "elements", "nelements", "composition", "composition_reduced", "chemsys", "symmetry", "property_name", "deprecated", "deprecation_reasons", "last_updated", "origins", "warnings", "task_ids", "uncorrected_energy_per_atom", "equilibrium_reaction_energy_per_atom", "decomposes_to", "xas", "grain_boundaries", "cbm", "vbm", "is_gap_direct", "is_metal", "es_source_calc_id", "bandstructure", "dos", "dos_energy_up", "dos_energy_down", "is_magnetic", "ordering", "total_magnetization_normalized_vol", "total_magnetization_normalized_formula_units", "num_magnetic_sites", "num_unique_magnetic_sites", "types_of_magnetic_species", "bulk_modulus", "shear_modulus", "universal_anisotropy", "homogeneous_poisson", "e_total", "e_ionic", "e_electronic", "n", "e_ij_max", "weighted_surface_energy_EV_PER_ANG2", "weighted_surface_energy", "weighted_work_function", "surface_anisotropy", "shape_factor", "has_reconstructed", "possible_species", "has_props", "theoretical", "database_IDs"]}