{"builder_meta": null, "nsites": null, "elements": null, "nelements": null, "composition": null, "composition_reduced": null, "formula_pretty": "DyTm3", "formula_anonymous": "AB3", "chemsys": null, "volume": 244.93598240969357, "density": 9.075050170735063, "density_atomic": 30.616997801211696, "symmetry": null, "property_name": null, "material_id": "mp-1184143", "deprecated": null, "deprecation_reasons": null, "last_updated": null, "origins": null, "warnings": null, "structure": {"@module": "pymatgen.core.structure", "@class": "Structure", "charge": 0, "lattice": {"matrix": [[7.16638667, 1e-08, 0.0], [-3.58319282, 6.20627307, 0.0], [-0.0, -0.0, 5.5070811]], "pbc": [true, true, true], "a": 7.16638667, "b": 7.166386551443257, "c": 5.5070811, "alpha": 90.0, "beta": 90.0, "gamma": 119.9999957128663, "volume": 244.93598240969357}, "properties": {}, "sites": [{"species": [{"element": "Dy", "occu": 1}], "abc": [0.333333, 0.666667, 0.750000999999999], "properties": {"magmom": -0.0}, "label": "Dy", "xyz": [-3.2398598301952575e-06, 4.1375174520910205, 4.130316332081095]}, {"species": [{"element": "Dy", "occu": 1}], "abc": [0.666665, 0.333333, 0.25], "properties": {"magmom": -0.0}, "label": "Dy", "xyz": [3.5831827570864894, 2.06875562790896, 1.376770275]}, {"species": [{"element": "Tm", "occu": 1}], "abc": [0.16614233, 0.33228265, 0.25], "properties": {"magmom": -0.0}, "label": "Tm", "xyz": [7.373344168115636e-06, 2.062236863984659, 1.376770275]}, {"species": [{"element": "Tm", "occu": 1}], "abc": [0.66771535, 0.83385667, 0.25], "properties": {"magmom": -0.0}, "label": "Tm", "xyz": [1.7972371507412754, 5.175142201938031, 1.376770275]}, {"species": [{"element": "Tm", "occu": 1}], "abc": [0.16614233, 0.83385767, 0.25], "properties": {"magmom": -0.0}, "label": "Tm", "xyz": [-1.7972326370111882, 5.17514840319537, 1.376770275]}, {"species": [{"element": "Tm", "occu": 1}], "abc": [0.83385767, 0.66771635, 0.750000999999999], "properties": {"magmom": -0.0}, "label": "Tm", "xyz": [3.583190059848652, 4.144030009742271, 4.130316332081095]}, {"species": [{"element": "Tm", "occu": 1}], "abc": [0.33228465, 0.16614233, 0.750000999999999], "properties": {"magmom": -0.0}, "label": "Tm", "xyz": [1.785960282451545, 1.0311246717888995, 4.130316332081095]}, {"species": [{"element": "Tm", "occu": 1}], "abc": [0.83385767, 0.16614133, 0.750000999999999], "properties": {"magmom": -0.0}, "label": "Tm", "xyz": [5.380430070204008, 1.03111847053156, 4.130316332081095]}]}, "task_ids": null, "uncorrected_energy_per_atom": null, "energy_per_atom": -34.33452182375, "formation_energy_per_atom": 0.0017151999999920002, "energy_above_hull": 0.0017151999999920002, "is_stable": false, "equilibrium_reaction_energy_per_atom": null, "decomposes_to": null, "xas": null, "grain_boundaries": null, "band_gap": 0.0, "cbm": null, "vbm": null, "efermi": 3.02262085, "is_gap_direct": null, "is_metal": null, "es_source_calc_id": null, "bandstructure": null, "dos": null, "dos_energy_up": null, "dos_energy_down": null, "is_magnetic": null, "ordering": null, "total_magnetization": 6e-07, "total_magnetization_normalized_vol": null, "total_magnetization_normalized_formula_units": null, "num_magnetic_sites": null, "num_unique_magnetic_sites": null, "types_of_magnetic_species": null, "bulk_modulus": null, "shear_modulus": null, "universal_anisotropy": null, "homogeneous_poisson": null, "e_total": null, "e_ionic": null, "e_electronic": null, "n": null, "e_ij_max": null, "weighted_surface_energy_EV_PER_ANG2": null, "weighted_surface_energy": null, "weighted_work_function": null, "surface_anisotropy": null, "shape_factor": null, "has_reconstructed": null, "possible_species": null, "has_props": null, "theoretical": null, "database_IDs": null, "fields_not_requested": ["builder_meta", "nsites", "elements", "nelements", "composition", "composition_reduced", "chemsys", "symmetry", "property_name", "deprecated", "deprecation_reasons", "last_updated", "origins", "warnings", "task_ids", "uncorrected_energy_per_atom", "equilibrium_reaction_energy_per_atom", "decomposes_to", "xas", "grain_boundaries", "cbm", "vbm", "is_gap_direct", "is_metal", "es_source_calc_id", "bandstructure", "dos", "dos_energy_up", "dos_energy_down", "is_magnetic", "ordering", "total_magnetization_normalized_vol", "total_magnetization_normalized_formula_units", "num_magnetic_sites", "num_unique_magnetic_sites", "types_of_magnetic_species", "bulk_modulus", "shear_modulus", "universal_anisotropy", "homogeneous_poisson", "e_total", "e_ionic", "e_electronic", "n", "e_ij_max", "weighted_surface_energy_EV_PER_ANG2", "weighted_surface_energy", "weighted_work_function", "surface_anisotropy", "shape_factor", "has_reconstructed", "possible_species", "has_props", "theoretical", "database_IDs"]}