{
  "builder_meta": null,
  "nsites": null,
  "elements": null,
  "nelements": null,
  "composition": null,
  "composition_reduced": null,
  "formula_pretty": "DyZn2",
  "formula_anonymous": "AB2",
  "chemsys": null,
  "volume": 117.18425865482166,
  "density": 8.312822959808654,
  "density_atomic": 19.53070977580361,
  "symmetry": null,
  "property_name": null,
  "material_id": "mp-570093",
  "deprecated": null,
  "deprecation_reasons": null,
  "last_updated": null,
  "origins": null,
  "warnings": null,
  "structure": {
    "@module": "pymatgen.core.structure",
    "@class": "Structure",
    "charge": 0,
    "lattice": {
      "matrix": [
        [4.07790611, -1e-8, 1.75379926],
        [1.90767159, 5.13180263, 1.1821524700000001],
        [0.00723272, -0.0249337, 5.60101897]
      ],
      "pbc": [true, true, true],
      "a": 4.439046078421791,
      "b": 5.6010796808200425,
      "c": 5.601079137446118,
      "alpha": 78.02898220275712,
      "beta": 66.65500005827312,
      "gamma": 66.65498631781479,
      "volume": 117.18425865482165
    },
    "properties": {},
    "sites": [
      {
        "species": [{ "element": "Dy", "occu": 1 }],
        "abc": [0.46954152, 0.28045848, 0.7804584800000001],
        "properties": { "magmom": -0.0 },
        "label": "Dy",
        "xyz": [2.4554137454347362, 1.4197978429716114, 5.526389006957087]
      },
      {
        "species": [{ "element": "Dy", "occu": 1 }],
        "abc": [0.5304584800000001, 0.71954152, 0.21954152000000002],
        "properties": { "magmom": -0.0 },
        "label": "Dy",
        "xyz": [3.5373966745652643, 3.6870710770283894, 3.010581693042914]
      },
      {
        "species": [{ "element": "Zn", "occu": 1 }],
        "abc": [0.83402955, 0.12016674000000001, 0.21177416000000002],
        "properties": { "magmom": 0.0 },
        "label": "Zn",
        "xyz": [3.631864577028982, 0.6113916706570388, 2.7909269036267963]
      },
      {
        "species": [{ "element": "Zn", "occu": 1 }],
        "abc": [0.16597045, 0.28822584, 0.37983326],
        "properties": { "magmom": 0.0 },
        "label": "Zn",
        "xyz": [1.2293993862226025, 1.4696474735313927, 2.7592590357626343]
      },
      {
        "species": [{ "element": "Zn", "occu": 1 }],
        "abc": [0.83402955, 0.71177416, 0.62016674],
        "properties": { "magmom": 0.0 },
        "label": "Zn",
        "xyz": [4.763411033777397, 3.6372214464686077, 5.7777116642373665]
      },
      {
        "species": [{ "element": "Zn", "occu": 1 }],
        "abc": [0.16597045, 0.8798332600000001, 0.7882258400000001],
        "properties": { "magmom": 0.0 },
        "label": "Zn",
        "xyz": [2.360945842971018, 4.4954772493429624, 5.746043796373205]
      }
    ]
  },
  "task_ids": null,
  "uncorrected_energy_per_atom": null,
  "energy_per_atom": -17.048585595000002,
  "formation_energy_per_atom": -0.447582783333335,
  "energy_above_hull": 0.0,
  "is_stable": true,
  "equilibrium_reaction_energy_per_atom": null,
  "decomposes_to": null,
  "xas": null,
  "grain_boundaries": null,
  "band_gap": 0.0,
  "cbm": null,
  "vbm": null,
  "efermi": 2.86012685,
  "is_gap_direct": null,
  "is_metal": null,
  "es_source_calc_id": null,
  "bandstructure": null,
  "dos": null,
  "dos_energy_up": null,
  "dos_energy_down": null,
  "is_magnetic": null,
  "ordering": null,
  "total_magnetization": 0.0,
  "total_magnetization_normalized_vol": null,
  "total_magnetization_normalized_formula_units": null,
  "num_magnetic_sites": null,
  "num_unique_magnetic_sites": null,
  "types_of_magnetic_species": null,
  "bulk_modulus": null,
  "shear_modulus": null,
  "universal_anisotropy": null,
  "homogeneous_poisson": null,
  "e_total": null,
  "e_ionic": null,
  "e_electronic": null,
  "n": null,
  "e_ij_max": null,
  "weighted_surface_energy_EV_PER_ANG2": null,
  "weighted_surface_energy": null,
  "weighted_work_function": null,
  "surface_anisotropy": null,
  "shape_factor": null,
  "has_reconstructed": null,
  "possible_species": null,
  "has_props": null,
  "theoretical": null,
  "database_IDs": null,
  "fields_not_requested": [
    "builder_meta",
    "nsites",
    "elements",
    "nelements",
    "composition",
    "composition_reduced",
    "chemsys",
    "symmetry",
    "property_name",
    "deprecated",
    "deprecation_reasons",
    "last_updated",
    "origins",
    "warnings",
    "task_ids",
    "uncorrected_energy_per_atom",
    "equilibrium_reaction_energy_per_atom",
    "decomposes_to",
    "xas",
    "grain_boundaries",
    "cbm",
    "vbm",
    "is_gap_direct",
    "is_metal",
    "es_source_calc_id",
    "bandstructure",
    "dos",
    "dos_energy_up",
    "dos_energy_down",
    "is_magnetic",
    "ordering",
    "total_magnetization_normalized_vol",
    "total_magnetization_normalized_formula_units",
    "num_magnetic_sites",
    "num_unique_magnetic_sites",
    "types_of_magnetic_species",
    "bulk_modulus",
    "shear_modulus",
    "universal_anisotropy",
    "homogeneous_poisson",
    "e_total",
    "e_ionic",
    "e_electronic",
    "n",
    "e_ij_max",
    "weighted_surface_energy_EV_PER_ANG2",
    "weighted_surface_energy",
    "weighted_work_function",
    "surface_anisotropy",
    "shape_factor",
    "has_reconstructed",
    "possible_species",
    "has_props",
    "theoretical",
    "database_IDs"
  ]
}
