{
  "builder_meta": null,
  "nsites": null,
  "elements": null,
  "nelements": null,
  "composition": null,
  "composition_reduced": null,
  "formula_pretty": "DyZn3",
  "formula_anonymous": "AB3",
  "chemsys": null,
  "volume": 286.37784048502436,
  "density": 8.320199589959103,
  "density_atomic": 17.898615030314023,
  "symmetry": null,
  "property_name": null,
  "material_id": "mp-30626",
  "deprecated": null,
  "deprecation_reasons": null,
  "last_updated": null,
  "origins": null,
  "warnings": null,
  "structure": {
    "@module": "pymatgen.core.structure",
    "@class": "Structure",
    "charge": 0,
    "lattice": {
      "matrix": [
        [4.3394919, 0.0, 0.0],
        [0.0, 6.61114827, 0.0],
        [0.0, 0.0, 9.9821394]
      ],
      "pbc": [true, true, true],
      "a": 4.3394919,
      "b": 6.61114827,
      "c": 9.9821394,
      "alpha": 90.0,
      "beta": 90.0,
      "gamma": 90.0,
      "volume": 286.37784048502436
    },
    "properties": {},
    "sites": [
      {
        "species": [{ "element": "Dy", "occu": 1 }],
        "abc": [0.25, 0.7773241200000001, 0.15980209],
        "properties": { "magmom": 0.0 },
        "label": "Dy",
        "xyz": [1.084872975, 5.139005011167273, 1.595166738791346]
      },
      {
        "species": [{ "element": "Dy", "occu": 1 }],
        "abc": [0.75, 0.22267588, 0.84019791],
        "properties": { "magmom": 0.0 },
        "label": "Dy",
        "xyz": [3.254618925, 1.4721432588327277, 8.386972661208654]
      },
      {
        "species": [{ "element": "Dy", "occu": 1 }],
        "abc": [0.25, 0.27732412, 0.34019791],
        "properties": { "magmom": 0.0 },
        "label": "Dy",
        "xyz": [1.084872975, 1.8334308761672724, 3.3959029612086535]
      },
      {
        "species": [{ "element": "Dy", "occu": 1 }],
        "abc": [0.75, 0.72267588, 0.65980209],
        "properties": { "magmom": 0.0 },
        "label": "Dy",
        "xyz": [3.254618925, 4.777717393832728, 6.586236438791346]
      },
      {
        "species": [{ "element": "Zn", "occu": 1 }],
        "abc": [0.25, 0.03722876, 0.60714453],
        "properties": { "magmom": 0.0 },
        "label": "Zn",
        "xyz": [1.084872975, 0.2461248522682452, 6.060601334407481]
      },
      {
        "species": [{ "element": "Zn", "occu": 1 }],
        "abc": [0.75, 0.96277124, 0.39285547],
        "properties": { "magmom": 0.0 },
        "label": "Zn",
        "xyz": [3.254618925, 6.365023417731755, 3.9215380655925176]
      },
      {
        "species": [{ "element": "Zn", "occu": 1 }],
        "abc": [0.25, 0.53722876, 0.89285547],
        "properties": { "magmom": 0.0 },
        "label": "Zn",
        "xyz": [1.084872975, 3.551698987268245, 8.912607765592517]
      },
      {
        "species": [{ "element": "Zn", "occu": 1 }],
        "abc": [0.75, 0.46277124000000003, 0.10714453],
        "properties": { "magmom": 0.0 },
        "label": "Zn",
        "xyz": [3.254618925, 3.059449282731755, 1.069531634407482]
      },
      {
        "species": [{ "element": "Zn", "occu": 1 }],
        "abc": [0.75, 0.77642834, 0.95462055],
        "properties": { "magmom": 0.0 },
        "label": "Zn",
        "xyz": [3.254618925, 5.133082876769972, 9.529155404204669]
      },
      {
        "species": [{ "element": "Zn", "occu": 1 }],
        "abc": [0.25, 0.22357166, 0.04537945],
        "properties": { "magmom": 0.0 },
        "label": "Zn",
        "xyz": [1.084872975, 1.4780653932300283, 0.45298399579533]
      },
      {
        "species": [{ "element": "Zn", "occu": 1 }],
        "abc": [0.75, 0.27642834, 0.54537945],
        "properties": { "magmom": 0.0 },
        "label": "Zn",
        "xyz": [3.254618925, 1.8275087417699718, 5.444053695795329]
      },
      {
        "species": [{ "element": "Zn", "occu": 1 }],
        "abc": [0.25, 0.7235716600000001, 0.45462055],
        "properties": { "magmom": 0.0 },
        "label": "Zn",
        "xyz": [1.084872975, 4.783639528230029, 4.53808570420467]
      },
      {
        "species": [{ "element": "Zn", "occu": 1 }],
        "abc": [0.75, 0.08139331, 0.14503535],
        "properties": { "magmom": -0.0 },
        "label": "Zn",
        "xyz": [3.254618925, 0.5381032405960737, 1.44776308162779]
      },
      {
        "species": [{ "element": "Zn", "occu": 1 }],
        "abc": [0.25, 0.9186066900000001, 0.85496465],
        "properties": { "magmom": -0.0 },
        "label": "Zn",
        "xyz": [1.084872975, 6.073045029403927, 8.53437631837221]
      },
      {
        "species": [{ "element": "Zn", "occu": 1 }],
        "abc": [0.75, 0.58139331, 0.35496465],
        "properties": { "magmom": -0.0 },
        "label": "Zn",
        "xyz": [3.254618925, 3.8436773755960743, 3.5433066183722097]
      },
      {
        "species": [{ "element": "Zn", "occu": 1 }],
        "abc": [0.25, 0.41860669, 0.64503535],
        "properties": { "magmom": -0.0 },
        "label": "Zn",
        "xyz": [1.084872975, 2.7674708944039264, 6.43883278162779]
      }
    ]
  },
  "task_ids": null,
  "uncorrected_energy_per_atom": null,
  "energy_per_atom": -15.081071844375,
  "formation_energy_per_atom": -0.40266908437500004,
  "energy_above_hull": 0.0,
  "is_stable": true,
  "equilibrium_reaction_energy_per_atom": null,
  "decomposes_to": null,
  "xas": null,
  "grain_boundaries": null,
  "band_gap": 0.0,
  "cbm": null,
  "vbm": null,
  "efermi": 2.9956264900000003,
  "is_gap_direct": null,
  "is_metal": null,
  "es_source_calc_id": null,
  "bandstructure": null,
  "dos": null,
  "dos_energy_up": null,
  "dos_energy_down": null,
  "is_magnetic": null,
  "ordering": null,
  "total_magnetization": 1e-7,
  "total_magnetization_normalized_vol": null,
  "total_magnetization_normalized_formula_units": null,
  "num_magnetic_sites": null,
  "num_unique_magnetic_sites": null,
  "types_of_magnetic_species": null,
  "bulk_modulus": null,
  "shear_modulus": null,
  "universal_anisotropy": null,
  "homogeneous_poisson": null,
  "e_total": null,
  "e_ionic": null,
  "e_electronic": null,
  "n": null,
  "e_ij_max": null,
  "weighted_surface_energy_EV_PER_ANG2": null,
  "weighted_surface_energy": null,
  "weighted_work_function": null,
  "surface_anisotropy": null,
  "shape_factor": null,
  "has_reconstructed": null,
  "possible_species": null,
  "has_props": null,
  "theoretical": null,
  "database_IDs": null,
  "fields_not_requested": [
    "builder_meta",
    "nsites",
    "elements",
    "nelements",
    "composition",
    "composition_reduced",
    "chemsys",
    "symmetry",
    "property_name",
    "deprecated",
    "deprecation_reasons",
    "last_updated",
    "origins",
    "warnings",
    "task_ids",
    "uncorrected_energy_per_atom",
    "equilibrium_reaction_energy_per_atom",
    "decomposes_to",
    "xas",
    "grain_boundaries",
    "cbm",
    "vbm",
    "is_gap_direct",
    "is_metal",
    "es_source_calc_id",
    "bandstructure",
    "dos",
    "dos_energy_up",
    "dos_energy_down",
    "is_magnetic",
    "ordering",
    "total_magnetization_normalized_vol",
    "total_magnetization_normalized_formula_units",
    "num_magnetic_sites",
    "num_unique_magnetic_sites",
    "types_of_magnetic_species",
    "bulk_modulus",
    "shear_modulus",
    "universal_anisotropy",
    "homogeneous_poisson",
    "e_total",
    "e_ionic",
    "e_electronic",
    "n",
    "e_ij_max",
    "weighted_surface_energy_EV_PER_ANG2",
    "weighted_surface_energy",
    "weighted_work_function",
    "surface_anisotropy",
    "shape_factor",
    "has_reconstructed",
    "possible_species",
    "has_props",
    "theoretical",
    "database_IDs"
  ]
}
