{
  "builder_meta": null,
  "nsites": null,
  "elements": null,
  "nelements": null,
  "composition": null,
  "composition_reduced": null,
  "formula_pretty": "Er2Al",
  "formula_anonymous": "AB2",
  "chemsys": null,
  "volume": 303.8219530067821,
  "density": 7.903103781177716,
  "density_atomic": 25.31849608389851,
  "symmetry": null,
  "property_name": null,
  "material_id": "mp-1102875",
  "deprecated": null,
  "deprecation_reasons": null,
  "last_updated": null,
  "origins": null,
  "warnings": null,
  "structure": {
    "@module": "pymatgen.core.structure",
    "@class": "Structure",
    "charge": 0,
    "lattice": {
      "matrix": [
        [-3.609999999999999e-6, -5.02915183, 2.32e-6],
        [-6.48461914, -5.9e-6, -2.069999999999999e-6],
        [-4.64e-6, 1.73e-6, -9.31622417]
      ],
      "pbc": [true, true, true],
      "a": 5.0291518300018305,
      "b": 6.484619140003015,
      "c": 9.316224170001316,
      "alpha": 89.99995317373025,
      "beta": 90.00003707080386,
      "gamma": 89.99990674195202,
      "volume": 303.8219530067821
    },
    "properties": {},
    "sites": [
      {
        "species": [{ "element": "Er", "occu": 1 }],
        "abc": [0.75000001, 0.68860584, 0.57203752],
        "properties": { "magmom": 0.0 },
        "label": "Er",
        "xyz": [-4.465351971733907, -3.771866995941065, -5.329229455384924]
      },
      {
        "species": [{ "element": "Er", "occu": 1 }],
        "abc": [0.7500028200000001, 0.1885947, 0.92799206],
        "properties": { "magmom": 0.0 },
        "label": "Er",
        "xyz": [-1.2229718147158968, -3.771877561990627, -8.645380709324577]
      },
      {
        "species": [{ "element": "Er", "occu": 1 }],
        "abc": [0.24999988, 0.31139994, 0.42790486],
        "properties": { "magmom": 0.0 },
        "label": "Er",
        "xyz": [-2.0193128990969686, -1.2572884509860185, -3.9864576637906204]
      },
      {
        "species": [{ "element": "Er", "occu": 1 }],
        "abc": [0.24999886000000002, 0.81141052, 0.07206549],
        "properties": { "magmom": 0.0 },
        "label": "Er",
        "xyz": [-5.261689425269111, -1.2572868869156844, -0.6713793593833145]
      },
      {
        "species": [{ "element": "Er", "occu": 1 }],
        "abc": [0.74999826, 0.52803903, 0.21009776],
        "properties": { "magmom": 0.0 },
        "label": "Er",
        "xyz": [-3.424135682952359, -3.771857873736968, -1.9573171828196883]
      },
      {
        "species": [{ "element": "Er", "occu": 1 }],
        "abc": [0.75000212, 0.02802657, 0.2898474],
        "properties": { "magmom": 0.0 },
        "label": "Er",
        "xyz": [-0.18174568465013902, -3.7718741982226405, -2.7002816715017395]
      },
      {
        "species": [{ "element": "Er", "occu": 1 }],
        "abc": [0.25000297, 0.47195505, 0.78992092],
        "properties": { "magmom": 0.0 },
        "label": "Er",
        "xyz": [-3.0604533181934475, -1.2573043120525385, -7.3590807642327]
      },
      {
        "species": [{ "element": "Er", "occu": 1 }],
        "abc": [0.24999864, 0.97196711, 0.7101338500000001],
        "properties": { "magmom": 0.0 },
        "label": "Er",
        "xyz": [-6.30284072247264, -1.2572856239278998, -6.615767569280227]
      },
      {
        "species": [{ "element": "Al", "occu": 1 }],
        "abc": [0.74999693, 0.20961921, 0.60406837],
        "properties": { "magmom": -0.0 },
        "label": "Al",
        "xyz": [-1.3593062516438335, -3.771848624718941, -5.62763504284539]
      },
      {
        "species": [{ "element": "Al", "occu": 1 }],
        "abc": [0.74999903, 0.70962837, 0.8959412800000001],
        "properties": { "magmom": -0.0 },
        "label": "Al",
        "xyz": [-4.601676575053039, -3.7718616310516935, -8.346789536569714]
      },
      {
        "species": [{ "element": "Al", "occu": 1 }],
        "abc": [0.25000584, 0.79038301, 0.395901299999999],
        "properties": { "magmom": -0.0 },
        "label": "Al",
        "xyz": [-5.125335534079927, -1.257321306097197, -3.6883063160736937]
      },
      {
        "species": [{ "element": "Al", "occu": 1 }],
        "abc": [0.24999664, 0.29037165, 0.1040902],
        "properties": { "magmom": -0.0 },
        "label": "Al",
        "xyz": [-1.8829509447697794, -1.25727259266654, -0.9697276581772447]
      }
    ]
  },
  "task_ids": null,
  "uncorrected_energy_per_atom": null,
  "energy_per_atom": -25.199148871666665,
  "formation_energy_per_atom": -0.33815931722222103,
  "energy_above_hull": 0.0,
  "is_stable": true,
  "equilibrium_reaction_energy_per_atom": null,
  "decomposes_to": null,
  "xas": null,
  "grain_boundaries": null,
  "band_gap": 0.0,
  "cbm": null,
  "vbm": null,
  "efermi": 3.99994979,
  "is_gap_direct": null,
  "is_metal": null,
  "es_source_calc_id": null,
  "bandstructure": null,
  "dos": null,
  "dos_energy_up": null,
  "dos_energy_down": null,
  "is_magnetic": null,
  "ordering": null,
  "total_magnetization": 0.0006621,
  "total_magnetization_normalized_vol": null,
  "total_magnetization_normalized_formula_units": null,
  "num_magnetic_sites": null,
  "num_unique_magnetic_sites": null,
  "types_of_magnetic_species": null,
  "bulk_modulus": null,
  "shear_modulus": null,
  "universal_anisotropy": null,
  "homogeneous_poisson": null,
  "e_total": null,
  "e_ionic": null,
  "e_electronic": null,
  "n": null,
  "e_ij_max": null,
  "weighted_surface_energy_EV_PER_ANG2": null,
  "weighted_surface_energy": null,
  "weighted_work_function": null,
  "surface_anisotropy": null,
  "shape_factor": null,
  "has_reconstructed": null,
  "possible_species": null,
  "has_props": null,
  "theoretical": null,
  "database_IDs": null,
  "fields_not_requested": [
    "builder_meta",
    "nsites",
    "elements",
    "nelements",
    "composition",
    "composition_reduced",
    "chemsys",
    "symmetry",
    "property_name",
    "deprecated",
    "deprecation_reasons",
    "last_updated",
    "origins",
    "warnings",
    "task_ids",
    "uncorrected_energy_per_atom",
    "equilibrium_reaction_energy_per_atom",
    "decomposes_to",
    "xas",
    "grain_boundaries",
    "cbm",
    "vbm",
    "is_gap_direct",
    "is_metal",
    "es_source_calc_id",
    "bandstructure",
    "dos",
    "dos_energy_up",
    "dos_energy_down",
    "is_magnetic",
    "ordering",
    "total_magnetization_normalized_vol",
    "total_magnetization_normalized_formula_units",
    "num_magnetic_sites",
    "num_unique_magnetic_sites",
    "types_of_magnetic_species",
    "bulk_modulus",
    "shear_modulus",
    "universal_anisotropy",
    "homogeneous_poisson",
    "e_total",
    "e_ionic",
    "e_electronic",
    "n",
    "e_ij_max",
    "weighted_surface_energy_EV_PER_ANG2",
    "weighted_surface_energy",
    "weighted_work_function",
    "surface_anisotropy",
    "shape_factor",
    "has_reconstructed",
    "possible_species",
    "has_props",
    "theoretical",
    "database_IDs"
  ]
}
