{
  "builder_meta": null,
  "nsites": null,
  "elements": null,
  "nelements": null,
  "composition": null,
  "composition_reduced": null,
  "formula_pretty": "Er2Au",
  "formula_anonymous": "AB2",
  "chemsys": null,
  "volume": 301.1959188596647,
  "density": 11.720622157975088,
  "density_atomic": 25.099659904972057,
  "symmetry": null,
  "property_name": null,
  "material_id": "mp-1102972",
  "deprecated": null,
  "deprecation_reasons": null,
  "last_updated": null,
  "origins": null,
  "warnings": null,
  "structure": {
    "@module": "pymatgen.core.structure",
    "@class": "Structure",
    "charge": 0,
    "lattice": {
      "matrix": [
        [0.0, -4.89396479, 0.0],
        [-7.00764436, 0.0, 0.0],
        [0.0, 0.0, -8.78246018]
      ],
      "pbc": [true, true, true],
      "a": 4.89396479,
      "b": 7.00764436,
      "c": 8.78246018,
      "alpha": 90.0,
      "beta": 90.0,
      "gamma": 90.0,
      "volume": 301.1959188596647
    },
    "properties": {},
    "sites": [
      {
        "species": [{ "element": "Er", "occu": 1 }],
        "abc": [0.75, 0.64790779, 0.58159611],
        "properties": { "magmom": 0.0 },
        "label": "Er",
        "xyz": [-4.540307370393564, -3.6704735925, -5.1078446769179]
      },
      {
        "species": [{ "element": "Er", "occu": 1 }],
        "abc": [0.75, 0.14790779, 0.91840389],
        "properties": { "magmom": 0.0 },
        "label": "Er",
        "xyz": [-1.0364851903935643, -3.6704735925, -8.0658455930821]
      },
      {
        "species": [{ "element": "Er", "occu": 1 }],
        "abc": [0.25, 0.35209221, 0.41840389],
        "properties": { "magmom": 0.0 },
        "label": "Er",
        "xyz": [-2.4673369896064354, -1.2234911975, -3.6746155030820997]
      },
      {
        "species": [{ "element": "Er", "occu": 1 }],
        "abc": [0.25, 0.85209221, 0.08159611],
        "properties": { "magmom": 0.0 },
        "label": "Er",
        "xyz": [-5.971159169606436, -1.2234911975, -0.7166145869178997]
      },
      {
        "species": [{ "element": "Er", "occu": 1 }],
        "abc": [0.75, 0.01298119, 0.32418072000000003],
        "properties": { "magmom": -0.0 },
        "label": "Er",
        "xyz": [-0.09096756288958839, -3.6704735925, -2.8471042645237294]
      },
      {
        "species": [{ "element": "Er", "occu": 1 }],
        "abc": [0.75, 0.51298119, 0.17581928],
        "properties": { "magmom": -0.0 },
        "label": "Er",
        "xyz": [-3.594789742889588, -3.6704735925, -1.5441258254762702]
      },
      {
        "species": [{ "element": "Er", "occu": 1 }],
        "abc": [0.25, 0.98701881, 0.67581928],
        "properties": { "magmom": -0.0 },
        "label": "Er",
        "xyz": [-6.916676797110411, -1.2234911975, -5.93535591547627]
      },
      {
        "species": [{ "element": "Er", "occu": 1 }],
        "abc": [0.25, 0.48701881, 0.82418072],
        "properties": { "magmom": -0.0 },
        "label": "Er",
        "xyz": [-3.4128546171104115, -1.2234911975, -7.238334354523729]
      },
      {
        "species": [{ "element": "Au", "occu": 1 }],
        "abc": [0.75, 0.24253978, 0.59732226],
        "properties": { "magmom": -0.0 },
        "label": "Au",
        "xyz": [-1.6996325213926409, -3.6704735925, -5.245958963077606]
      },
      {
        "species": [{ "element": "Au", "occu": 1 }],
        "abc": [0.75, 0.74253978, 0.90267774],
        "properties": { "magmom": -0.0 },
        "label": "Au",
        "xyz": [-5.203454701392641, -3.6704735925, -7.927731306922393]
      },
      {
        "species": [{ "element": "Au", "occu": 1 }],
        "abc": [0.25, 0.75746022, 0.40267774],
        "properties": { "magmom": -0.0 },
        "label": "Au",
        "xyz": [-5.308011838607359, -1.2234911975, -3.536501216922393]
      },
      {
        "species": [{ "element": "Au", "occu": 1 }],
        "abc": [0.25, 0.25746022, 0.09732226000000001],
        "properties": { "magmom": -0.0 },
        "label": "Au",
        "xyz": [-1.8041896586073591, -1.2234911975, -0.8547288730776068]
      }
    ]
  },
  "task_ids": null,
  "uncorrected_energy_per_atom": null,
  "energy_per_atom": -40.22596084416667,
  "formation_energy_per_atom": -0.7473506830555571,
  "energy_above_hull": 0.0,
  "is_stable": true,
  "equilibrium_reaction_energy_per_atom": null,
  "decomposes_to": null,
  "xas": null,
  "grain_boundaries": null,
  "band_gap": 0.0,
  "cbm": null,
  "vbm": null,
  "efermi": 3.89285022,
  "is_gap_direct": null,
  "is_metal": null,
  "es_source_calc_id": null,
  "bandstructure": null,
  "dos": null,
  "dos_energy_up": null,
  "dos_energy_down": null,
  "is_magnetic": null,
  "ordering": null,
  "total_magnetization": 2e-7,
  "total_magnetization_normalized_vol": null,
  "total_magnetization_normalized_formula_units": null,
  "num_magnetic_sites": null,
  "num_unique_magnetic_sites": null,
  "types_of_magnetic_species": null,
  "bulk_modulus": null,
  "shear_modulus": null,
  "universal_anisotropy": null,
  "homogeneous_poisson": null,
  "e_total": null,
  "e_ionic": null,
  "e_electronic": null,
  "n": null,
  "e_ij_max": null,
  "weighted_surface_energy_EV_PER_ANG2": null,
  "weighted_surface_energy": null,
  "weighted_work_function": null,
  "surface_anisotropy": null,
  "shape_factor": null,
  "has_reconstructed": null,
  "possible_species": null,
  "has_props": null,
  "theoretical": null,
  "database_IDs": null,
  "fields_not_requested": [
    "builder_meta",
    "nsites",
    "elements",
    "nelements",
    "composition",
    "composition_reduced",
    "chemsys",
    "symmetry",
    "property_name",
    "deprecated",
    "deprecation_reasons",
    "last_updated",
    "origins",
    "warnings",
    "task_ids",
    "uncorrected_energy_per_atom",
    "equilibrium_reaction_energy_per_atom",
    "decomposes_to",
    "xas",
    "grain_boundaries",
    "cbm",
    "vbm",
    "is_gap_direct",
    "is_metal",
    "es_source_calc_id",
    "bandstructure",
    "dos",
    "dos_energy_up",
    "dos_energy_down",
    "is_magnetic",
    "ordering",
    "total_magnetization_normalized_vol",
    "total_magnetization_normalized_formula_units",
    "num_magnetic_sites",
    "num_unique_magnetic_sites",
    "types_of_magnetic_species",
    "bulk_modulus",
    "shear_modulus",
    "universal_anisotropy",
    "homogeneous_poisson",
    "e_total",
    "e_ionic",
    "e_electronic",
    "n",
    "e_ij_max",
    "weighted_surface_energy_EV_PER_ANG2",
    "weighted_surface_energy",
    "weighted_work_function",
    "surface_anisotropy",
    "shape_factor",
    "has_reconstructed",
    "possible_species",
    "has_props",
    "theoretical",
    "database_IDs"
  ]
}
