{"builder_meta": null, "nsites": null, "elements": null, "nelements": null, "composition": null, "composition_reduced": null, "formula_pretty": "Er2Co7", "formula_anonymous": "A2B7", "chemsys": null, "volume": 253.87465171881036, "density": 9.772589011164962, "density_atomic": 14.104147317711686, "symmetry": null, "property_name": null, "material_id": "mp-569509", "deprecated": null, "deprecation_reasons": null, "last_updated": null, "origins": null, "warnings": null, "structure": {"@module": "pymatgen.core.structure", "@class": "Structure", "charge": 0, "lattice": {"matrix": [[4.850816, 0.007423, 11.358401], [2.329873, 4.254663, 11.358401], [0.012506, 0.007423, 12.350851]], "pbc": [true, true, true], "a": 12.350860060885882, "b": 12.350859837132758, "c": 12.350859562199144, "alpha": 23.067782192043857, "beta": 23.067784964283522, "gamma": 23.067784976375155, "volume": 253.87465171881033}, "properties": {}, "sites": [{"species": [{"element": "Er", "occu": 1}], "abc": [0.948531999999999, 0.948531999999999, 0.948531999999999], "properties": {"magmom": -0.34600000000000003}, "label": "Er", "xyz": [6.822975639739994, 4.049765910787996, 33.26279103539596]}, {"species": [{"element": "Er", "occu": 1}], "abc": [0.148064, 0.148064, 0.148064], "properties": {"magmom": -0.432}, "label": "Er", "xyz": [1.06505322448, 0.632160580576, 5.192256973792]}, {"species": [{"element": "Er", "occu": 1}], "abc": [0.051468, 0.051468, 0.051468], "properties": {"magmom": -0.34600000000000003}, "label": "Er", "xyz": [0.37021936026, 0.21974308921199998, 1.804861964604]}, {"species": [{"element": "Er", "occu": 1}], "abc": [0.851935999999999, 0.851935999999999, 0.851935999999999], "properties": {"magmom": -0.432}, "label": "Er", "xyz": [6.128141775519993, 3.6373484194239962, 29.875396026207966]}, {"species": [{"element": "Co", "occu": 1}], "abc": [0.61121, 0.61121, 0.61121], "properties": {"magmom": 1.521}, "label": "Co", "xyz": [4.3965527159499995, 2.60956659589, 21.433700190130004]}, {"species": [{"element": "Co", "occu": 1}], "abc": [0.38879, 0.38879, 0.38879], "properties": {"magmom": 1.521}, "label": "Co", "xyz": [2.7966422840500003, 1.6599424041100002, 13.633952809870003]}, {"species": [{"element": "Co", "occu": 1}], "abc": [0.108085, 0.610274, 0.610274], "properties": {"magmom": 1.332}, "label": "Co", "xyz": [1.953793449206, 2.601842586519, 15.696812827133002]}, {"species": [{"element": "Co", "occu": 1}], "abc": [0.389725999999999, 0.389725999999999, 0.891915], "properties": {"magmom": 1.332}, "label": "Co", "xyz": [2.8096554902039927, 1.6676664134809955, 19.86923764591698]}, {"species": [{"element": "Co", "occu": 1}], "abc": [0.610274, 0.610274, 0.108085], "properties": {"magmom": 1.332}, "label": "Co", "xyz": [4.383539509796, 2.601842586519, 15.198415354083]}, {"species": [{"element": "Co", "occu": 1}], "abc": [0.610274, 0.108085, 0.610274], "properties": {"magmom": 1.332}, "label": "Co", "xyz": [3.219783293433, 0.468925378159, 15.696812827133002]}, {"species": [{"element": "Co", "occu": 1}], "abc": [0.389725999999999, 0.891915, 0.389725999999999], "properties": {"magmom": 1.332}, "label": "Co", "xyz": [3.973411706566995, 3.800583621841, 19.370840172866977]}, {"species": [{"element": "Co", "occu": 1}], "abc": [0.5, 0.0, 0.5], "properties": {"magmom": 1.5}, "label": "Co", "xyz": [2.431661, 0.007423, 11.854626]}, {"species": [{"element": "Co", "occu": 1}], "abc": [0.721561999999999, 0.721561999999999, 0.721561999999999], "properties": {"magmom": 1.522}, "label": "Co", "xyz": [5.190336170589993, 3.0807154530579957, 25.303485833985967]}, {"species": [{"element": "Co", "occu": 1}], "abc": [0.5, 0.5, 0.5], "properties": {"magmom": 1.267}, "label": "Co", "xyz": [3.5965975, 2.1347545, 17.5338265]}, {"species": [{"element": "Co", "occu": 1}], "abc": [0.891915, 0.389725999999999, 0.389725999999999], "properties": {"magmom": 1.332}, "label": "Co", "xyz": [5.239401550793997, 1.6676664134809955, 19.370840172866977]}, {"species": [{"element": "Co", "occu": 1}], "abc": [0.0, 0.5, 0.5], "properties": {"magmom": 1.5}, "label": "Co", "xyz": [1.1711895, 2.131043, 11.854626]}, {"species": [{"element": "Co", "occu": 1}], "abc": [0.278437999999999, 0.278437999999999, 0.278437999999999], "properties": {"magmom": 1.522}, "label": "Co", "xyz": [2.002858829409993, 1.188793546941996, 9.764167166013966]}, {"species": [{"element": "Co", "occu": 1}], "abc": [0.5, 0.5, 0.0], "properties": {"magmom": 1.5}, "label": "Co", "xyz": [3.5903445, 2.131043, 11.358401]}]}, "task_ids": null, "uncorrected_energy_per_atom": null, "energy_per_atom": -6.72559284, "formation_energy_per_atom": -0.16233121111111, "energy_above_hull": 0.005050067003365, "is_stable": false, "equilibrium_reaction_energy_per_atom": null, "decomposes_to": null, "xas": null, "grain_boundaries": null, "band_gap": 0.0, "cbm": null, "vbm": null, "efermi": 4.37460549, "is_gap_direct": null, "is_metal": null, "es_source_calc_id": null, "bandstructure": null, "dos": null, "dos_energy_up": null, "dos_energy_down": null, "is_magnetic": null, "ordering": null, "total_magnetization": 18.0318614, "total_magnetization_normalized_vol": null, "total_magnetization_normalized_formula_units": null, "num_magnetic_sites": null, "num_unique_magnetic_sites": null, "types_of_magnetic_species": null, "bulk_modulus": null, "shear_modulus": null, "universal_anisotropy": null, "homogeneous_poisson": null, "e_total": null, "e_ionic": null, "e_electronic": null, "n": null, "e_ij_max": null, "weighted_surface_energy_EV_PER_ANG2": null, "weighted_surface_energy": null, "weighted_work_function": null, "surface_anisotropy": null, "shape_factor": null, "has_reconstructed": null, "possible_species": null, "has_props": null, "theoretical": null, "database_IDs": null, "fields_not_requested": ["builder_meta", "nsites", "elements", "nelements", "composition", "composition_reduced", "chemsys", "symmetry", "property_name", "deprecated", "deprecation_reasons", "last_updated", "origins", "warnings", "task_ids", "uncorrected_energy_per_atom", "equilibrium_reaction_energy_per_atom", "decomposes_to", "xas", "grain_boundaries", "cbm", "vbm", "is_gap_direct", "is_metal", "es_source_calc_id", "bandstructure", "dos", "dos_energy_up", "dos_energy_down", "is_magnetic", "ordering", "total_magnetization_normalized_vol", "total_magnetization_normalized_formula_units", "num_magnetic_sites", "num_unique_magnetic_sites", "types_of_magnetic_species", "bulk_modulus", "shear_modulus", "universal_anisotropy", "homogeneous_poisson", "e_total", "e_ionic", "e_electronic", "n", "e_ij_max", "weighted_surface_energy_EV_PER_ANG2", "weighted_surface_energy", "weighted_work_function", "surface_anisotropy", "shape_factor", "has_reconstructed", "possible_species", "has_props", "theoretical", "database_IDs"]}