{"builder_meta": null, "nsites": null, "elements": null, "nelements": null, "composition": null, "composition_reduced": null, "formula_pretty": "Er2C", "formula_anonymous": "AB2", "chemsys": null, "volume": 65.45771192262038, "density": 8.790781515986057, "density_atomic": 21.819237307540124, "symmetry": null, "property_name": null, "material_id": "mp-1225044", "deprecated": null, "deprecation_reasons": null, "last_updated": null, "origins": null, "warnings": null, "structure": {"@module": "pymatgen.core.structure", "@class": "Structure", "charge": 0, "lattice": {"matrix": [[-2.51125366, -2.51125366, 0.0], [0.0, 2.51125366, -2.51125366], [2.62277411, -2.62277411, -5.13402878]], "pbc": [true, true, true], "a": 3.5514489845310733, "b": 3.5514489845310733, "c": 6.3337303051235825, "alpha": 73.7183027506715, "beta": 90.0, "gamma": 120.00000000000001, "volume": 65.45771192262038}, "properties": {}, "sites": [{"species": [{"element": "Er", "occu": 1}], "abc": [0.9900464, 0.98009281, 0.02986079], "properties": {"magmom": 0.095}, "label": "Er", "xyz": [-2.407939538653677, -0.10331409623378637, -2.614567811505721]}, {"species": [{"element": "Er", "occu": 1}], "abc": [0.5099536, 0.01990719, 0.47013921000000003], "properties": {"magmom": 0.095}, "label": "Er", "xyz": [-0.04755389634632268, -2.4636997887662138, -2.4637002384942797]}, {"species": [{"element": "C", "occu": 1}], "abc": [0.25, 0.5, 0.25], "properties": {"magmom": -0.001}, "label": "C", "xyz": [0.0278801125, -0.0278801125, -2.539134025]}]}, "task_ids": null, "uncorrected_energy_per_atom": null, "energy_per_atom": -6.440810429999999, "formation_energy_per_atom": -0.319442725833331, "energy_above_hull": 0.0, "is_stable": true, "equilibrium_reaction_energy_per_atom": null, "decomposes_to": null, "xas": null, "grain_boundaries": null, "band_gap": 0.0, "cbm": null, "vbm": null, "efermi": 3.07417852, "is_gap_direct": null, "is_metal": null, "es_source_calc_id": null, "bandstructure": null, "dos": null, "dos_energy_up": null, "dos_energy_down": null, "is_magnetic": null, "ordering": null, "total_magnetization": 0.2946378, "total_magnetization_normalized_vol": null, "total_magnetization_normalized_formula_units": null, "num_magnetic_sites": null, "num_unique_magnetic_sites": null, "types_of_magnetic_species": null, "bulk_modulus": null, "shear_modulus": null, "universal_anisotropy": null, "homogeneous_poisson": null, "e_total": null, "e_ionic": null, "e_electronic": null, "n": null, "e_ij_max": null, "weighted_surface_energy_EV_PER_ANG2": null, "weighted_surface_energy": null, "weighted_work_function": null, "surface_anisotropy": null, "shape_factor": null, "has_reconstructed": null, "possible_species": null, "has_props": null, "theoretical": null, "database_IDs": null, "fields_not_requested": ["builder_meta", "nsites", "elements", "nelements", "composition", "composition_reduced", "chemsys", "symmetry", "property_name", "deprecated", "deprecation_reasons", "last_updated", "origins", "warnings", "task_ids", "uncorrected_energy_per_atom", "equilibrium_reaction_energy_per_atom", "decomposes_to", "xas", "grain_boundaries", "cbm", "vbm", "is_gap_direct", "is_metal", "es_source_calc_id", "bandstructure", "dos", "dos_energy_up", "dos_energy_down", "is_magnetic", "ordering", "total_magnetization_normalized_vol", "total_magnetization_normalized_formula_units", "num_magnetic_sites", "num_unique_magnetic_sites", "types_of_magnetic_species", "bulk_modulus", "shear_modulus", "universal_anisotropy", "homogeneous_poisson", "e_total", "e_ionic", "e_electronic", "n", "e_ij_max", "weighted_surface_energy_EV_PER_ANG2", "weighted_surface_energy", "weighted_work_function", "surface_anisotropy", "shape_factor", "has_reconstructed", "possible_species", "has_props", "theoretical", "database_IDs"]}