{"builder_meta": null, "nsites": null, "elements": null, "nelements": null, "composition": null, "composition_reduced": null, "formula_pretty": "Er2C3", "formula_anonymous": "A2B3", "chemsys": null, "volume": 269.9802211234865, "density": 9.11641474508013, "density_atomic": 13.499011056174325, "symmetry": null, "property_name": null, "material_id": "mp-9544", "deprecated": null, "deprecation_reasons": null, "last_updated": null, "origins": null, "warnings": null, "structure": {"@module": "pymatgen.core.structure", "@class": "Structure", "charge": 0, "lattice": {"matrix": [[-4.071527, 4.071527, 4.071527], [4.071527, -4.071527, 4.071527], [4.071527, 4.071527, -4.071527]], "pbc": [true, true, true], "a": 7.052091628388488, "b": 7.052091628388488, "c": 7.052091628388488, "alpha": 109.47122063449069, "beta": 109.47122063449069, "gamma": 109.47122063449069, "volume": 269.9802211234865}, "properties": {}, "sites": [{"species": [{"element": "Er", "occu": 1}], "abc": [0.5, 0.0, 0.600787], "properties": {"magmom": -0.0}, "label": "Er", "xyz": [0.410356991749, 4.481883991748999, -0.410356991749]}, {"species": [{"element": "Er", "occu": 1}], "abc": [0.100787, 0.5, 0.0], "properties": {"magmom": -0.0}, "label": "Er", "xyz": [1.6254065082509999, -1.6254065082509999, 2.446120491749]}, {"species": [{"element": "Er", "occu": 1}], "abc": [0.399213, 0.399213, 0.399213], "properties": {"magmom": -0.0}, "label": "Er", "xyz": [1.6254065082509999, 1.6254065082509999, 1.6254065082509999]}, {"species": [{"element": "Er", "occu": 1}], "abc": [0.0, 0.100787, 0.5], "properties": {"magmom": -0.0}, "label": "Er", "xyz": [2.446120491749, 1.6254065082509999, -1.6254065082509999]}, {"species": [{"element": "Er", "occu": 1}], "abc": [0.899212999999999, 0.899212999999999, 0.899212999999999], "properties": {"magmom": -0.0}, "label": "Er", "xyz": [3.6611700082509957, 3.6611700082509957, 3.6611700082509957]}, {"species": [{"element": "Er", "occu": 1}], "abc": [0.0, 0.600787, 0.5], "properties": {"magmom": -0.0}, "label": "Er", "xyz": [4.481883991748999, -0.410356991749, 0.410356991749]}, {"species": [{"element": "Er", "occu": 1}], "abc": [0.600787, 0.5, 0.0], "properties": {"magmom": -0.0}, "label": "Er", "xyz": [-0.410356991749, 0.410356991749, 4.481883991748999]}, {"species": [{"element": "Er", "occu": 1}], "abc": [0.5, 0.0, 0.100787], "properties": {"magmom": -0.0}, "label": "Er", "xyz": [-1.6254065082509999, 2.446120491749, 1.6254065082509999]}, {"species": [{"element": "C", "occu": 1}], "abc": [0.792604, 0.25, 0.042603999999999004], "properties": {"magmom": 0.0}, "label": "C", "xyz": [-2.035763500000004, 2.382690172615996, 4.071527000000004]}, {"species": [{"element": "C", "occu": 1}], "abc": [0.957395999999999, 0.25, 0.207396], "properties": {"magmom": 0.0}, "label": "C", "xyz": [-2.035763499999996, 3.7246003273839956, 4.071526999999995]}, {"species": [{"element": "C", "occu": 1}], "abc": [0.75, 0.292604, 0.542604], "properties": {"magmom": 0.0}, "label": "C", "xyz": [0.34692667261599985, 4.071527, 2.0357635]}, {"species": [{"element": "C", "occu": 1}], "abc": [0.207396, 0.957395999999999, 0.25], "properties": {"magmom": 0.0}, "label": "C", "xyz": [4.071526999999996, -2.035763499999996, 3.724600327383995]}, {"species": [{"element": "C", "occu": 1}], "abc": [0.25, 0.207396, 0.957395999999999], "properties": {"magmom": 0.0}, "label": "C", "xyz": [3.7246003273839956, 4.071526999999996, -2.035763499999996]}, {"species": [{"element": "C", "occu": 1}], "abc": [0.292604, 0.542604, 0.75], "properties": {"magmom": 0.001}, "label": "C", "xyz": [4.071527, 2.0357635, 0.3469266726160001]}, {"species": [{"element": "C", "occu": 1}], "abc": [0.707395999999999, 0.75, 0.457395999999999], "properties": {"magmom": 0.0}, "label": "C", "xyz": [2.0357635, 1.6888368273839918, 4.071527]}, {"species": [{"element": "C", "occu": 1}], "abc": [0.042603999999999004, 0.792604, 0.25], "properties": {"magmom": 0.001}, "label": "C", "xyz": [4.071527000000003, -2.035763500000004, 2.382690172615996]}, {"species": [{"element": "C", "occu": 1}], "abc": [0.542604, 0.75, 0.292604], "properties": {"magmom": 0.0}, "label": "C", "xyz": [2.0357635, 0.34692667261599985, 4.071527]}, {"species": [{"element": "C", "occu": 1}], "abc": [0.75, 0.457395999999999, 0.707395999999999], "properties": {"magmom": 0.0}, "label": "C", "xyz": [1.6888368273839918, 4.071527, 2.0357634999999994]}, {"species": [{"element": "C", "occu": 1}], "abc": [0.25, 0.042603999999999004, 0.792604], "properties": {"magmom": 0.0}, "label": "C", "xyz": [2.382690172615996, 4.071527000000004, -2.035763500000004]}, {"species": [{"element": "C", "occu": 1}], "abc": [0.457395999999999, 0.707395999999999, 0.75], "properties": {"magmom": 0.0}, "label": "C", "xyz": [4.071527, 2.0357635, 1.6888368273839918]}]}, "task_ids": null, "uncorrected_energy_per_atom": null, "energy_per_atom": -7.6336865450000015, "formation_energy_per_atom": -0.269399725499999, "energy_above_hull": 0.057714278599999, "is_stable": false, "equilibrium_reaction_energy_per_atom": null, "decomposes_to": null, "xas": null, "grain_boundaries": null, "band_gap": 0.0, "cbm": null, "vbm": null, "efermi": 5.27140393, "is_gap_direct": null, "is_metal": null, "es_source_calc_id": null, "bandstructure": null, "dos": null, "dos_energy_up": null, "dos_energy_down": null, "is_magnetic": null, "ordering": null, "total_magnetization": 0.0166853, "total_magnetization_normalized_vol": null, "total_magnetization_normalized_formula_units": null, "num_magnetic_sites": null, "num_unique_magnetic_sites": null, "types_of_magnetic_species": null, "bulk_modulus": null, "shear_modulus": null, "universal_anisotropy": null, "homogeneous_poisson": null, "e_total": null, "e_ionic": null, "e_electronic": null, "n": null, "e_ij_max": null, "weighted_surface_energy_EV_PER_ANG2": null, "weighted_surface_energy": null, "weighted_work_function": null, "surface_anisotropy": null, "shape_factor": null, "has_reconstructed": null, "possible_species": null, "has_props": null, "theoretical": null, "database_IDs": null, "fields_not_requested": ["builder_meta", "nsites", "elements", "nelements", "composition", "composition_reduced", "chemsys", "symmetry", "property_name", "deprecated", "deprecation_reasons", "last_updated", "origins", "warnings", "task_ids", "uncorrected_energy_per_atom", "equilibrium_reaction_energy_per_atom", "decomposes_to", "xas", "grain_boundaries", "cbm", "vbm", "is_gap_direct", "is_metal", "es_source_calc_id", "bandstructure", "dos", "dos_energy_up", "dos_energy_down", "is_magnetic", "ordering", "total_magnetization_normalized_vol", "total_magnetization_normalized_formula_units", "num_magnetic_sites", "num_unique_magnetic_sites", "types_of_magnetic_species", "bulk_modulus", "shear_modulus", "universal_anisotropy", "homogeneous_poisson", "e_total", "e_ionic", "e_electronic", "n", "e_ij_max", "weighted_surface_energy_EV_PER_ANG2", "weighted_surface_energy", "weighted_work_function", "surface_anisotropy", "shape_factor", "has_reconstructed", "possible_species", "has_props", "theoretical", "database_IDs"]}