{
  "builder_meta": null,
  "nsites": null,
  "elements": null,
  "nelements": null,
  "composition": null,
  "composition_reduced": null,
  "formula_pretty": "Er2Ge3",
  "formula_anonymous": "A2B3",
  "chemsys": null,
  "volume": 116.33701947794545,
  "density": 7.885236229971286,
  "density_atomic": 23.26740389558909,
  "symmetry": null,
  "property_name": null,
  "material_id": "mp-1225617",
  "deprecated": null,
  "deprecation_reasons": null,
  "last_updated": null,
  "origins": null,
  "warnings": null,
  "structure": {
    "@module": "pymatgen.core.structure",
    "@class": "Structure",
    "charge": 0,
    "lattice": {
      "matrix": [
        [-2.201302, -3.802343, 0.0],
        [-4.392586, -0.005782, 0.0],
        [0.0, 0.0, -6.970717]
      ],
      "pbc": [true, true, true],
      "a": 4.393579723284079,
      "b": 4.392589805447351,
      "c": 6.970717,
      "alpha": 90.0,
      "beta": 90.0,
      "gamma": 59.85661305951704,
      "volume": 116.33701947794545
    },
    "properties": {},
    "sites": [
      {
        "species": [{ "element": "Er", "occu": 1 }],
        "abc": [0.000133, 0.000214, 0.020935],
        "properties": { "magmom": 0.0 },
        "label": "Er",
        "xyz": [-0.00123278657, -0.000506948967, -0.14593196039499998]
      },
      {
        "species": [{ "element": "Er", "occu": 1 }],
        "abc": [0.000133, 0.000214, 0.479064999999999],
        "properties": { "magmom": 0.0 },
        "label": "Er",
        "xyz": [-0.00123278657, -0.000506948967, -3.339426539604993]
      },
      {
        "species": [{ "element": "Ge", "occu": 1 }],
        "abc": [0.666477, 0.66634, 0.75],
        "properties": { "magmom": -0.0 },
        "label": "Ge",
        "xyz": [-4.3940729082939995, -2.538026933491, -5.2280377499999995]
      },
      {
        "species": [{ "element": "Ge", "occu": 1 }],
        "abc": [0.33296000000000003, 0.332868, 0.25],
        "properties": { "magmom": -0.0 },
        "label": "Ge",
        "xyz": [-2.1950968305679996, -1.267952768056, -1.74267925]
      },
      {
        "species": [{ "element": "Ge", "occu": 1 }],
        "abc": [0.333497, 0.333665, 0.75],
        "properties": { "magmom": -0.0 },
        "label": "Ge",
        "xyz": [-2.199779820784, -1.2699992345009998, -5.2280377499999995]
      }
    ]
  },
  "task_ids": null,
  "uncorrected_energy_per_atom": null,
  "energy_per_atom": -5.060987936,
  "formation_energy_per_atom": -0.460083698999999,
  "energy_above_hull": 0.256952274333334,
  "is_stable": false,
  "equilibrium_reaction_energy_per_atom": null,
  "decomposes_to": null,
  "xas": null,
  "grain_boundaries": null,
  "band_gap": 0.0,
  "cbm": null,
  "vbm": null,
  "efermi": 3.44591625,
  "is_gap_direct": null,
  "is_metal": null,
  "es_source_calc_id": null,
  "bandstructure": null,
  "dos": null,
  "dos_energy_up": null,
  "dos_energy_down": null,
  "is_magnetic": null,
  "ordering": null,
  "total_magnetization": 0.0008206999999990001,
  "total_magnetization_normalized_vol": null,
  "total_magnetization_normalized_formula_units": null,
  "num_magnetic_sites": null,
  "num_unique_magnetic_sites": null,
  "types_of_magnetic_species": null,
  "bulk_modulus": null,
  "shear_modulus": null,
  "universal_anisotropy": null,
  "homogeneous_poisson": null,
  "e_total": null,
  "e_ionic": null,
  "e_electronic": null,
  "n": null,
  "e_ij_max": null,
  "weighted_surface_energy_EV_PER_ANG2": null,
  "weighted_surface_energy": null,
  "weighted_work_function": null,
  "surface_anisotropy": null,
  "shape_factor": null,
  "has_reconstructed": null,
  "possible_species": null,
  "has_props": null,
  "theoretical": null,
  "database_IDs": null,
  "fields_not_requested": [
    "builder_meta",
    "nsites",
    "elements",
    "nelements",
    "composition",
    "composition_reduced",
    "chemsys",
    "symmetry",
    "property_name",
    "deprecated",
    "deprecation_reasons",
    "last_updated",
    "origins",
    "warnings",
    "task_ids",
    "uncorrected_energy_per_atom",
    "equilibrium_reaction_energy_per_atom",
    "decomposes_to",
    "xas",
    "grain_boundaries",
    "cbm",
    "vbm",
    "is_gap_direct",
    "is_metal",
    "es_source_calc_id",
    "bandstructure",
    "dos",
    "dos_energy_up",
    "dos_energy_down",
    "is_magnetic",
    "ordering",
    "total_magnetization_normalized_vol",
    "total_magnetization_normalized_formula_units",
    "num_magnetic_sites",
    "num_unique_magnetic_sites",
    "types_of_magnetic_species",
    "bulk_modulus",
    "shear_modulus",
    "universal_anisotropy",
    "homogeneous_poisson",
    "e_total",
    "e_ionic",
    "e_electronic",
    "n",
    "e_ij_max",
    "weighted_surface_energy_EV_PER_ANG2",
    "weighted_surface_energy",
    "weighted_work_function",
    "surface_anisotropy",
    "shape_factor",
    "has_reconstructed",
    "possible_species",
    "has_props",
    "theoretical",
    "database_IDs"
  ]
}
