{"builder_meta": null, "nsites": null, "elements": null, "nelements": null, "composition": null, "composition_reduced": null, "formula_pretty": "Er2Ge5", "formula_anonymous": "A2B5", "chemsys": null, "volume": 284.7810374364926, "density": 8.136693418208287, "density_atomic": 20.341502674035187, "symmetry": null, "property_name": null, "material_id": "mp-29777", "deprecated": null, "deprecation_reasons": null, "last_updated": null, "origins": null, "warnings": null, "structure": {"@module": "pymatgen.core.structure", "@class": "Structure", "charge": 0, "lattice": {"matrix": [[3.88453755, 0.0, 0.0], [-0.0, 3.97106473, 0.0], [0.0, 0.0, 18.46140618]], "pbc": [true, true, true], "a": 3.88453755, "b": 3.97106473, "c": 18.46140618, "alpha": 90.0, "beta": 90.0, "gamma": 90.0, "volume": 284.7810374364926}, "properties": {}, "sites": [{"species": [{"element": "Er", "occu": 1}], "abc": [0.75, 0.75, 0.62580079], "properties": {"magmom": 0.0}, "label": "Er", "xyz": [2.9134031625, 2.9782985475, 11.553162571954882]}, {"species": [{"element": "Er", "occu": 1}], "abc": [0.25, 0.25, 0.37419921], "properties": {"magmom": 0.0}, "label": "Er", "xyz": [0.9711343875, 0.9927661825, 6.908243608045118]}, {"species": [{"element": "Er", "occu": 1}], "abc": [0.75, 0.25, 0.18786984], "properties": {"magmom": -0.0}, "label": "Er", "xyz": [2.9134031625, 0.9927661825, 3.4683414252116114]}, {"species": [{"element": "Er", "occu": 1}], "abc": [0.25, 0.75, 0.81213016], "properties": {"magmom": -0.0}, "label": "Er", "xyz": [0.9711343875, 2.9782985475, 14.99306475478839]}, {"species": [{"element": "Ge", "occu": 1}], "abc": [0.75, 0.25, 0.50394451], "properties": {"magmom": 0.0}, "label": "Ge", "xyz": [2.9134031625, 0.9927661825, 9.30352429129107]}, {"species": [{"element": "Ge", "occu": 1}], "abc": [0.25, 0.75, 0.49605549], "properties": {"magmom": 0.0}, "label": "Ge", "xyz": [0.9711343875, 2.9782985475, 9.157881888708928]}, {"species": [{"element": "Ge", "occu": 1}], "abc": [0.75, 0.75, 0.32631942], "properties": {"magmom": 0.0}, "label": "Ge", "xyz": [2.9134031625, 2.9782985475, 6.024315357042016]}, {"species": [{"element": "Ge", "occu": 1}], "abc": [0.25, 0.25, 0.67368058], "properties": {"magmom": 0.0}, "label": "Ge", "xyz": [0.9711343875, 0.9927661825, 12.437090822957984]}, {"species": [{"element": "Ge", "occu": 1}], "abc": [0.25, 0.25, 0.06603813], "properties": {"magmom": 0.0}, "label": "Ge", "xyz": [0.9711343875, 0.9927661825, 1.2191567412976434]}, {"species": [{"element": "Ge", "occu": 1}], "abc": [0.75, 0.75, 0.93396187], "properties": {"magmom": 0.0}, "label": "Ge", "xyz": [2.9134031625, 2.9782985475, 17.242249438702355]}, {"species": [{"element": "Ge", "occu": 1}], "abc": [0.25, 0.25, 0.9320773800000001], "properties": {"magmom": -0.0}, "label": "Ge", "xyz": [0.9711343875, 0.9927661825, 17.207459103370212]}, {"species": [{"element": "Ge", "occu": 1}], "abc": [0.75, 0.75, 0.06792262], "properties": {"magmom": -0.0}, "label": "Ge", "xyz": [2.9134031625, 2.9782985475, 1.2539470766297918]}, {"species": [{"element": "Ge", "occu": 1}], "abc": [0.25, 0.75, 0.23904791], "properties": {"magmom": -0.0}, "label": "Ge", "xyz": [0.9711343875, 2.9782985475, 4.413160562990084]}, {"species": [{"element": "Ge", "occu": 1}], "abc": [0.75, 0.25, 0.76095209], "properties": {"magmom": -0.0}, "label": "Ge", "xyz": [2.9134031625, 0.9927661825, 14.048245617009917]}]}, "task_ids": null, "uncorrected_energy_per_atom": null, "energy_per_atom": -5.115993652857142, "formation_energy_per_atom": -0.508768382142855, "energy_above_hull": 0.003400170238096, "is_stable": false, "equilibrium_reaction_energy_per_atom": null, "decomposes_to": null, "xas": null, "grain_boundaries": null, "band_gap": 0.0, "cbm": null, "vbm": null, "efermi": 5.46753969, "is_gap_direct": null, "is_metal": null, "es_source_calc_id": null, "bandstructure": null, "dos": null, "dos_energy_up": null, "dos_energy_down": null, "is_magnetic": null, "ordering": null, "total_magnetization": 1e-07, "total_magnetization_normalized_vol": null, "total_magnetization_normalized_formula_units": null, "num_magnetic_sites": null, "num_unique_magnetic_sites": null, "types_of_magnetic_species": null, "bulk_modulus": null, "shear_modulus": null, "universal_anisotropy": null, "homogeneous_poisson": null, "e_total": null, "e_ionic": null, "e_electronic": null, "n": null, "e_ij_max": null, "weighted_surface_energy_EV_PER_ANG2": null, "weighted_surface_energy": null, "weighted_work_function": null, "surface_anisotropy": null, "shape_factor": null, "has_reconstructed": null, "possible_species": null, "has_props": null, "theoretical": null, "database_IDs": null, "fields_not_requested": ["builder_meta", "nsites", "elements", "nelements", "composition", "composition_reduced", "chemsys", "symmetry", "property_name", "deprecated", "deprecation_reasons", "last_updated", "origins", "warnings", "task_ids", "uncorrected_energy_per_atom", "equilibrium_reaction_energy_per_atom", "decomposes_to", "xas", "grain_boundaries", "cbm", "vbm", "is_gap_direct", "is_metal", "es_source_calc_id", "bandstructure", "dos", "dos_energy_up", "dos_energy_down", "is_magnetic", "ordering", "total_magnetization_normalized_vol", "total_magnetization_normalized_formula_units", "num_magnetic_sites", "num_unique_magnetic_sites", "types_of_magnetic_species", "bulk_modulus", "shear_modulus", "universal_anisotropy", "homogeneous_poisson", "e_total", "e_ionic", "e_electronic", "n", "e_ij_max", "weighted_surface_energy_EV_PER_ANG2", "weighted_surface_energy", "weighted_work_function", "surface_anisotropy", "shape_factor", "has_reconstructed", "possible_species", "has_props", "theoretical", "database_IDs"]}