{"builder_meta": null, "nsites": null, "elements": null, "nelements": null, "composition": null, "composition_reduced": null, "formula_pretty": "Er2In", "formula_anonymous": "AB2", "chemsys": null, "volume": 162.17337655041777, "density": 9.201756760584082, "density_atomic": 27.028896091736296, "symmetry": null, "property_name": null, "material_id": "mp-877", "deprecated": null, "deprecation_reasons": null, "last_updated": null, "origins": null, "warnings": null, "structure": {"@module": "pymatgen.core.structure", "@class": "Structure", "charge": 0, "lattice": {"matrix": [[5.308392879999999, -1e-08, 0.0], [-2.65419746, 4.59720308, -0.0], [0.0, 0.0, 6.64542579]], "pbc": [true, true, true], "a": 5.308392879999999, "b": 5.3083933836361386, "c": 6.64542579, "alpha": 90.0, "beta": 90.0, "gamma": 120.00000968192523, "volume": 162.1733765504177}, "properties": {}, "sites": [{"species": [{"element": "Er", "occu": 1}], "abc": [0.333333, 0.666667, 0.75000043], "properties": {"magmom": 0.294}, "label": "Er", "xyz": [-3.3341967802247297e-06, 3.06480358240103, 4.98407220003309]}, {"species": [{"element": "Er", "occu": 1}], "abc": [0.666667, 0.333333, 0.24999957], "properties": {"magmom": 0.294}, "label": "Er", "xyz": [2.6541987541967793, 1.5323994875989697, 1.6613535899669103]}, {"species": [{"element": "Er", "occu": 1}], "abc": [0.0, -0.0, 0.5], "properties": {"magmom": 0.363}, "label": "Er", "xyz": [0.0, 0.0, 3.322712895]}, {"species": [{"element": "Er", "occu": 1}], "abc": [0.0, -0.0, 0.0], "properties": {"magmom": 0.363}, "label": "Er", "xyz": [0.0, 0.0, 0.0]}, {"species": [{"element": "In", "occu": 1}], "abc": [0.666667, 0.333333, 0.75000353], "properties": {"magmom": -0.042}, "label": "In", "xyz": [2.6541987541967793, 1.5323994875989697, 4.9840928008530385]}, {"species": [{"element": "In", "occu": 1}], "abc": [0.333333, 0.666667, 0.24999647], "properties": {"magmom": -0.042}, "label": "In", "xyz": [-3.3341967802247297e-06, 3.06480358240103, 1.6613329891469613]}]}, "task_ids": null, "uncorrected_energy_per_atom": null, "energy_per_atom": -30.602589138333332, "formation_energy_per_atom": -0.45943556722222406, "energy_above_hull": 0.0, "is_stable": true, "equilibrium_reaction_energy_per_atom": null, "decomposes_to": null, "xas": null, "grain_boundaries": null, "band_gap": 0.0, "cbm": null, "vbm": null, "efermi": 4.77039316, "is_gap_direct": null, "is_metal": null, "es_source_calc_id": null, "bandstructure": null, "dos": null, "dos_energy_up": null, "dos_energy_down": null, "is_magnetic": null, "ordering": null, "total_magnetization": 1.5109965, "total_magnetization_normalized_vol": null, "total_magnetization_normalized_formula_units": null, "num_magnetic_sites": null, "num_unique_magnetic_sites": null, "types_of_magnetic_species": null, "bulk_modulus": null, "shear_modulus": null, "universal_anisotropy": null, "homogeneous_poisson": null, "e_total": null, "e_ionic": null, "e_electronic": null, "n": null, "e_ij_max": null, "weighted_surface_energy_EV_PER_ANG2": null, "weighted_surface_energy": null, "weighted_work_function": null, "surface_anisotropy": null, "shape_factor": null, "has_reconstructed": null, "possible_species": null, "has_props": null, "theoretical": null, "database_IDs": null, "fields_not_requested": ["builder_meta", "nsites", "elements", "nelements", "composition", "composition_reduced", "chemsys", "symmetry", "property_name", "deprecated", "deprecation_reasons", "last_updated", "origins", "warnings", "task_ids", "uncorrected_energy_per_atom", "equilibrium_reaction_energy_per_atom", "decomposes_to", "xas", "grain_boundaries", "cbm", "vbm", "is_gap_direct", "is_metal", "es_source_calc_id", "bandstructure", "dos", "dos_energy_up", "dos_energy_down", "is_magnetic", "ordering", "total_magnetization_normalized_vol", "total_magnetization_normalized_formula_units", "num_magnetic_sites", "num_unique_magnetic_sites", "types_of_magnetic_species", "bulk_modulus", "shear_modulus", "universal_anisotropy", "homogeneous_poisson", "e_total", "e_ionic", "e_electronic", "n", "e_ij_max", "weighted_surface_energy_EV_PER_ANG2", "weighted_surface_energy", "weighted_work_function", "surface_anisotropy", "shape_factor", "has_reconstructed", "possible_species", "has_props", "theoretical", "database_IDs"]}