{
  "builder_meta": null,
  "nsites": null,
  "elements": null,
  "nelements": null,
  "composition": null,
  "composition_reduced": null,
  "formula_pretty": "Er2Mg",
  "formula_anonymous": "AB2",
  "chemsys": null,
  "volume": 167.12749459685506,
  "density": 7.130360099418662,
  "density_atomic": 27.854582432809178,
  "symmetry": null,
  "property_name": null,
  "material_id": "mp-862915",
  "deprecated": null,
  "deprecation_reasons": null,
  "last_updated": null,
  "origins": null,
  "warnings": null,
  "structure": {
    "@module": "pymatgen.core.structure",
    "@class": "Structure",
    "charge": 0,
    "lattice": {
      "matrix": [
        [3.65151986, 0.00064249, 0.0],
        [1.82751173, 8.49630451, 0.0],
        [0.0, 0.0, 5.38716904]
      ],
      "pbc": [true, true, true],
      "a": 3.651519916523504,
      "b": 8.690626528043529,
      "c": 5.38716904,
      "alpha": 90.0,
      "beta": 90.0,
      "gamma": 77.85084177770118,
      "volume": 167.12749459685506
    },
    "properties": {},
    "sites": [
      {
        "species": [{ "element": "Er", "occu": 1 }],
        "abc": [0.98117641, 0.03789301, -0.0],
        "properties": { "magmom": 0.0 },
        "label": "Er",
        "xyz": [3.65203506753851, 0.322580947792136, 0.0]
      },
      {
        "species": [{ "element": "Er", "occu": 1 }],
        "abc": [0.660120399999999, 0.67770542, -0.0],
        "properties": { "magmom": -0.0 },
        "label": "Er",
        "xyz": [3.648957355125717, 5.75841573715324, 0.0]
      },
      {
        "species": [{ "element": "Er", "occu": 1 }],
        "abc": [0.7961849400000001, 0.40659089, 0.5],
        "properties": { "magmom": 0.0 },
        "label": "Er",
        "xyz": [3.650334741429049, 3.4550315532940146, 2.69358452]
      },
      {
        "species": [{ "element": "Er", "occu": 1 }],
        "abc": [0.11543051, 0.7666726500000001, 0.5],
        "properties": { "magmom": 0.0 },
        "label": "Er",
        "xyz": [1.8226000606601132, 6.513958456837022, 2.69358452]
      },
      {
        "species": [{ "element": "Mg", "occu": 1 }],
        "abc": [0.32286966, 0.355470399999999, 0.0],
        "properties": { "magmom": 0.0 },
        "label": "Mg",
        "xyz": [1.8285913013492379, 3.020392203219349, 0.0]
      },
      {
        "species": [{ "element": "Mg", "occu": 1 }],
        "abc": [0.45755008, 0.08900063, 0.5],
        "properties": { "magmom": -0.0 },
        "label": "Mg",
        "xyz": [1.8334028993669789, 0.7564704254127405, 2.69358452]
      }
    ]
  },
  "task_ids": null,
  "uncorrected_energy_per_atom": null,
  "energy_per_atom": -3.6226919183333353,
  "formation_energy_per_atom": -0.03405604,
  "energy_above_hull": 0.000513674999997,
  "is_stable": false,
  "equilibrium_reaction_energy_per_atom": null,
  "decomposes_to": null,
  "xas": null,
  "grain_boundaries": null,
  "band_gap": 0.0,
  "cbm": null,
  "vbm": null,
  "efermi": 3.01990766,
  "is_gap_direct": null,
  "is_metal": null,
  "es_source_calc_id": null,
  "bandstructure": null,
  "dos": null,
  "dos_energy_up": null,
  "dos_energy_down": null,
  "is_magnetic": null,
  "ordering": null,
  "total_magnetization": 2e-7,
  "total_magnetization_normalized_vol": null,
  "total_magnetization_normalized_formula_units": null,
  "num_magnetic_sites": null,
  "num_unique_magnetic_sites": null,
  "types_of_magnetic_species": null,
  "bulk_modulus": null,
  "shear_modulus": null,
  "universal_anisotropy": null,
  "homogeneous_poisson": null,
  "e_total": null,
  "e_ionic": null,
  "e_electronic": null,
  "n": null,
  "e_ij_max": null,
  "weighted_surface_energy_EV_PER_ANG2": null,
  "weighted_surface_energy": null,
  "weighted_work_function": null,
  "surface_anisotropy": null,
  "shape_factor": null,
  "has_reconstructed": null,
  "possible_species": null,
  "has_props": null,
  "theoretical": null,
  "database_IDs": null,
  "fields_not_requested": [
    "builder_meta",
    "nsites",
    "elements",
    "nelements",
    "composition",
    "composition_reduced",
    "chemsys",
    "symmetry",
    "property_name",
    "deprecated",
    "deprecation_reasons",
    "last_updated",
    "origins",
    "warnings",
    "task_ids",
    "uncorrected_energy_per_atom",
    "equilibrium_reaction_energy_per_atom",
    "decomposes_to",
    "xas",
    "grain_boundaries",
    "cbm",
    "vbm",
    "is_gap_direct",
    "is_metal",
    "es_source_calc_id",
    "bandstructure",
    "dos",
    "dos_energy_up",
    "dos_energy_down",
    "is_magnetic",
    "ordering",
    "total_magnetization_normalized_vol",
    "total_magnetization_normalized_formula_units",
    "num_magnetic_sites",
    "num_unique_magnetic_sites",
    "types_of_magnetic_species",
    "bulk_modulus",
    "shear_modulus",
    "universal_anisotropy",
    "homogeneous_poisson",
    "e_total",
    "e_ionic",
    "e_electronic",
    "n",
    "e_ij_max",
    "weighted_surface_energy_EV_PER_ANG2",
    "weighted_surface_energy",
    "weighted_work_function",
    "surface_anisotropy",
    "shape_factor",
    "has_reconstructed",
    "possible_species",
    "has_props",
    "theoretical",
    "database_IDs"
  ]
}
