{"builder_meta": null, "nsites": null, "elements": null, "nelements": null, "composition": null, "composition_reduced": null, "formula_pretty": "Er2Ni7", "formula_anonymous": "A2B7", "chemsys": null, "volume": 250.68917964850422, "density": 9.874530642107405, "density_atomic": 13.927176647139124, "symmetry": null, "property_name": null, "material_id": "mp-1188219", "deprecated": null, "deprecation_reasons": null, "last_updated": null, "origins": null, "warnings": null, "structure": {"@module": "pymatgen.core.structure", "@class": "Structure", "charge": 0, "lattice": {"matrix": [[-2.456012, -4.253938, 0.0], [-4.912024, 0.0, 0.0], [-2.456012, -1.417978999999999, -11.997312]], "pbc": [true, true, true], "a": 4.9120243741239715, "b": 4.912024, "c": 12.327942026710259, "alpha": 78.50846271697274, "beta": 78.50846379034762, "gamma": 60.00000251951543, "volume": 250.68917964850422}, "properties": {}, "sites": [{"species": [{"element": "Er", "occu": 1}], "abc": [0.949311999999999, 0.949311999999999, 0.152064], "properties": {"magmom": 0.064}, "label": "Er", "xyz": [-7.368035999999993, -4.253937949311995, -1.824359251968]}, {"species": [{"element": "Er", "occu": 1}], "abc": [0.050688, 0.050688, 0.847935999999999], "properties": {"magmom": 0.064}, "label": "Er", "xyz": [-2.4560119999999976, -1.417979050687998, -10.172952748031989]}, {"species": [{"element": "Er", "occu": 1}], "abc": [0.852688999999999, 0.852688999999999, 0.441932999999999], "properties": {"magmom": 0.051000000000000004}, "label": "Er", "xyz": [-7.36803599999999, -4.253937852688994, -5.302008084095989]}, {"species": [{"element": "Er", "occu": 1}], "abc": [0.147311, 0.147311, 0.558067], "properties": {"magmom": 0.051000000000000004}, "label": "Er", "xyz": [-2.456012, -1.4179791473109993, -6.695303915904001]}, {"species": [{"element": "Ni", "occu": 1}], "abc": [0.5, 0.5, 0.5], "properties": {"magmom": -0.10400000000000001}, "label": "Ni", "xyz": [-4.912024, -2.8359584999999994, -5.998656]}, {"species": [{"element": "Ni", "occu": 1}], "abc": [0.721831, 0.721831, 0.834507999999999], "properties": {"magmom": -0.22}, "label": "Ni", "xyz": [-7.368038456011997, -4.253939139809997, -10.011852842495989]}, {"species": [{"element": "Ni", "occu": 1}], "abc": [0.278169, 0.278169, 0.165492], "properties": {"magmom": -0.22}, "label": "Ni", "xyz": [-2.456009543988, -1.4179778601899997, -1.9854591575040001]}, {"species": [{"element": "Ni", "occu": 1}], "abc": [0.611599, 0.611599, 0.165202], "properties": {"magmom": -0.23600000000000002}, "label": "Ni", "xyz": [-4.912021543988, -2.83595719362, -1.981979937024]}, {"species": [{"element": "Ni", "occu": 1}], "abc": [0.388401, 0.388401, 0.834797999999999], "properties": {"magmom": -0.23600000000000002}, "label": "Ni", "xyz": [-4.912026456011997, -2.835959806379998, -10.01533206297599]}, {"species": [{"element": "Ni", "occu": 1}], "abc": [0.0, 0.5, 0.0], "properties": {"magmom": -0.337}, "label": "Ni", "xyz": [-2.456012, 0.0, 0.0]}, {"species": [{"element": "Ni", "occu": 1}], "abc": [0.5, 0.0, 0.0], "properties": {"magmom": -0.337}, "label": "Ni", "xyz": [-1.228006, -2.126969, 0.0]}, {"species": [{"element": "Ni", "occu": 1}], "abc": [0.5, 0.5, 0.0], "properties": {"magmom": -0.337}, "label": "Ni", "xyz": [-3.684018, -2.126969, 0.0]}, {"species": [{"element": "Ni", "occu": 1}], "abc": [0.38945, 0.38945, 0.32978], "properties": {"magmom": -0.17500000000000002}, "label": "Ni", "xyz": [-3.67942525756, -2.1243172687199996, -3.9564735513600007]}, {"species": [{"element": "Ni", "occu": 1}], "abc": [0.891319, 0.38945, 0.32978], "properties": {"magmom": -0.17500000000000002}, "label": "Ni", "xyz": [-4.912021543988, -4.259236878842, -3.9564735513600007]}, {"species": [{"element": "Ni", "occu": 1}], "abc": [0.38945, 0.891319, 0.32978], "properties": {"magmom": -0.17500000000000002}, "label": "Ni", "xyz": [-6.144617830416, -2.1243172687199996, -3.9564735513600007]}, {"species": [{"element": "Ni", "occu": 1}], "abc": [0.61055, 0.61055, 0.67022], "properties": {"magmom": -0.17500000000000002}, "label": "Ni", "xyz": [-6.144622742439999, -3.5475997312799996, -8.04083844864]}, {"species": [{"element": "Ni", "occu": 1}], "abc": [0.108681, 0.61055, 0.67022], "properties": {"magmom": -0.17500000000000002}, "label": "Ni", "xyz": [-4.912026456012, -1.4126801211579993, -8.04083844864]}, {"species": [{"element": "Ni", "occu": 1}], "abc": [0.61055, 0.108681, 0.67022], "properties": {"magmom": -0.17500000000000002}, "label": "Ni", "xyz": [-3.6794301695839997, -3.5475997312799996, -8.04083844864]}]}, "task_ids": null, "uncorrected_energy_per_atom": null, "energy_per_atom": -5.920312796666667, "formation_energy_per_atom": -0.409602309999998, "energy_above_hull": 0.0, "is_stable": true, "equilibrium_reaction_energy_per_atom": null, "decomposes_to": null, "xas": null, "grain_boundaries": null, "band_gap": 0.0, "cbm": null, "vbm": null, "efermi": 6.24264293, "is_gap_direct": null, "is_metal": null, "es_source_calc_id": null, "bandstructure": null, "dos": null, "dos_energy_up": null, "dos_energy_down": null, "is_magnetic": null, "ordering": null, "total_magnetization": 2.6636244, "total_magnetization_normalized_vol": null, "total_magnetization_normalized_formula_units": null, "num_magnetic_sites": null, "num_unique_magnetic_sites": null, "types_of_magnetic_species": null, "bulk_modulus": null, "shear_modulus": null, "universal_anisotropy": null, "homogeneous_poisson": null, "e_total": null, "e_ionic": null, "e_electronic": null, "n": null, "e_ij_max": null, "weighted_surface_energy_EV_PER_ANG2": null, "weighted_surface_energy": null, "weighted_work_function": null, "surface_anisotropy": null, "shape_factor": null, "has_reconstructed": null, "possible_species": null, "has_props": null, "theoretical": null, "database_IDs": null, "fields_not_requested": ["builder_meta", "nsites", "elements", "nelements", "composition", "composition_reduced", "chemsys", "symmetry", "property_name", "deprecated", "deprecation_reasons", "last_updated", "origins", "warnings", "task_ids", "uncorrected_energy_per_atom", "equilibrium_reaction_energy_per_atom", "decomposes_to", "xas", "grain_boundaries", "cbm", "vbm", "is_gap_direct", "is_metal", "es_source_calc_id", "bandstructure", "dos", "dos_energy_up", "dos_energy_down", "is_magnetic", "ordering", "total_magnetization_normalized_vol", "total_magnetization_normalized_formula_units", "num_magnetic_sites", "num_unique_magnetic_sites", "types_of_magnetic_species", "bulk_modulus", "shear_modulus", "universal_anisotropy", "homogeneous_poisson", "e_total", "e_ionic", "e_electronic", "n", "e_ij_max", "weighted_surface_energy_EV_PER_ANG2", "weighted_surface_energy", "weighted_work_function", "surface_anisotropy", "shape_factor", "has_reconstructed", "possible_species", "has_props", "theoretical", "database_IDs"]}