{"builder_meta": null, "nsites": null, "elements": null, "nelements": null, "composition": null, "composition_reduced": null, "formula_pretty": "Er2O3", "formula_anonymous": "A2B3", "chemsys": null, "volume": 571.3227771258436, "density": 8.894209986204963, "density_atomic": 14.283069428146089, "symmetry": null, "property_name": null, "material_id": "mp-679", "deprecated": null, "deprecation_reasons": null, "last_updated": null, "origins": null, "warnings": null, "structure": {"@module": "pymatgen.core.structure", "@class": "Structure", "charge": 0, "lattice": {"matrix": [[8.53607467, -0.0, -3.01795856], [-4.26803784, 7.39245782, -3.01795856], [-0.0, -0.0, 9.05387466]], "pbc": [true, true, true], "a": 9.053874565162303, "b": 9.053875054032295, "c": 9.05387466, "alpha": 109.47122203502927, "beta": 109.4712231288259, "gamma": 109.47122024215838, "volume": 571.3227771258436}, "properties": {}, "sites": [{"species": [{"element": "Er", "occu": 1}], "abc": [0.25, 0.03250711, 0.7825071100000001], "properties": {"magmom": 0.0}, "label": "Er", "xyz": [1.9952770919509575, 0.24030743952510017, 6.232126543613472]}, {"species": [{"element": "Er", "occu": 1}], "abc": [0.71749289, 0.75, 0.46749289], "properties": {"magmom": 0.0}, "label": "Er", "xyz": [2.9235445042340964, 5.544343365, -0.19621069861347173]}, {"species": [{"element": "Er", "occu": 1}], "abc": [0.46749289, 0.71749289, 0.75], "properties": {"magmom": 0.0}, "label": "Er", "xyz": [0.9282674122831382, 5.3040359254749, 3.2141680167707234]}, {"species": [{"element": "Er", "occu": 1}], "abc": [0.7825071100000001, 0.25, 0.03250711], "properties": {"magmom": 0.0}, "label": "Er", "xyz": [5.6125296607659045, 1.848114455, -2.8217483713865295]}, {"species": [{"element": "Er", "occu": 1}], "abc": [0.03250711, 0.7825071100000001, 0.25], "properties": {"magmom": 0.0}, "label": "Er", "xyz": [-3.062286837283139, 5.784650804525101, -0.19621047677072356]}, {"species": [{"element": "Er", "occu": 1}], "abc": [0.75, 0.46749289, 0.71749289], "properties": {"magmom": 0.0}, "label": "Er", "xyz": [4.406778658049043, 3.4559214704748995, 2.8217476063865297]}, {"species": [{"element": "Er", "occu": 1}], "abc": [0.75, 0.96749289, 0.21749289], "properties": {"magmom": 0.0}, "label": "Er", "xyz": [2.272759738049042, 7.1521503804749, -3.2141690036134705]}, {"species": [{"element": "Er", "occu": 1}], "abc": [0.28250711, 0.25, 0.5325071100000001], "properties": {"magmom": 0.0}, "label": "Er", "xyz": [1.3444923257659038, 1.848114455, 3.2141682386134716]}, {"species": [{"element": "Er", "occu": 1}], "abc": [0.5325071100000001, 0.28250711, 0.25], "properties": {"magmom": 0.0}, "label": "Er", "xyz": [3.3397694177168615, 2.0884218945251, -0.19621047677072356]}, {"species": [{"element": "Er", "occu": 1}], "abc": [0.21749289, 0.75, 0.96749289], "properties": {"magmom": 0.0}, "label": "Er", "xyz": [-1.3444928307659036, 5.544343365, 5.839705911386529]}, {"species": [{"element": "Er", "occu": 1}], "abc": [0.96749289, 0.21749289, 0.75], "properties": {"magmom": 0.0}, "label": "Er", "xyz": [7.330323667283138, 1.6078070154748998, 3.2141680167707234]}, {"species": [{"element": "Er", "occu": 1}], "abc": [0.25, 0.5325071100000001, 0.28250711], "properties": {"magmom": 0.0}, "label": "Er", "xyz": [-0.13874182804904267, 3.9365363495251007, 0.1962099336134706]}, {"species": [{"element": "Er", "occu": 1}], "abc": [0.5, 0.5, 0.0], "properties": {"magmom": 0.0}, "label": "Er", "xyz": [2.134018415, 3.69622891, -3.01795856]}, {"species": [{"element": "Er", "occu": 1}], "abc": [0.5, 0.0, 0.5], "properties": {"magmom": 0.0}, "label": "Er", "xyz": [4.268037335, 0.0, 3.01795805]}, {"species": [{"element": "Er", "occu": 1}], "abc": [0.0, 0.5, 0.5], "properties": {"magmom": 0.0}, "label": "Er", "xyz": [-2.13401892, 3.69622891, 3.01795805]}, {"species": [{"element": "Er", "occu": 1}], "abc": [0.0, 0.0, 0.0], "properties": {"magmom": 0.0}, "label": "Er", "xyz": [0.0, 0.0, 0.0]}, {"species": [{"element": "O", "occu": 1}], "abc": [0.012026460000000001, 0.46873172, 0.7397172200000001], "properties": {"magmom": -0.0}, "label": "O", "xyz": [-1.8979059571925163, 3.4650794689960502, 5.246398729102625]}, {"species": [{"element": "O", "occu": 1}], "abc": [0.229013499999999, 0.27231224, 0.76028278], "properties": {"magmom": -0.0}, "label": "O", "xyz": [0.7926373918228748, 2.0130567480697166, 5.370524687895024]}, {"species": [{"element": "O", "occu": 1}], "abc": [0.270986499999999, 0.03126828, 0.04329674], "properties": {"magmom": -0.0}, "label": "O", "xyz": [2.179706796330231, 0.2311494410039496, -0.5201891434553054]}, {"species": [{"element": "O", "occu": 1}], "abc": [0.22768776000000002, 0.45670326, 0.48797354], "properties": {"magmom": -0.0}, "label": "O", "xyz": [-0.0056670745263189826, 3.376159585806493, 2.3525875313603652]}, {"species": [{"element": "O", "occu": 1}], "abc": [0.45670326, 0.48797354, 0.22768776000000002], "properties": {"magmom": -0.0}, "label": "O", "xyz": [1.8157635957536704, 3.6073238117260824, -0.7895389943372457]}, {"species": [{"element": "O", "occu": 1}], "abc": [0.7397172200000001, 0.012026460000000001, 0.46873172], "properties": {"magmom": -0.0}, "label": "O", "xyz": [6.262952038243571, 0.08890509827391721, 1.9751069680643147]}, {"species": [{"element": "O", "occu": 1}], "abc": [0.27231224, 0.76028278, 0.229013499999999], "properties": {"magmom": -0.0}, "label": "O", "xyz": [-0.9204380599454347, 5.6203583824223395, -1.0428694551744702]}, {"species": [{"element": "O", "occu": 1}], "abc": [0.04329674, 0.270986499999999, 0.03126828], "properties": {"magmom": -0.0}, "label": "O", "xyz": [-0.78699643052158, 2.003256271039423, -0.6653947064687465]}, {"species": [{"element": "O", "occu": 1}], "abc": [0.46873172, 0.7397172200000001, 0.012026460000000001], "properties": {"magmom": -0.0}, "label": "O", "xyz": [0.8439878762579278, 5.4683283475776605, -3.5381627613524227]}, {"species": [{"element": "O", "occu": 1}], "abc": [0.76028278, 0.229013499999999, 0.27231224], "properties": {"magmom": -0.0}, "label": "O", "xyz": [5.5123922965243475, 1.6929726389605626, -0.5201742872583157]}, {"species": [{"element": "O", "occu": 1}], "abc": [0.03126828, 0.04329674, 0.270986499999999], "properties": {"magmom": -0.0}, "label": "O", "xyz": [0.08211624821382602, 0.3200693241935068, 2.22844366516651]}, {"species": [{"element": "O", "occu": 1}], "abc": [0.48797354, 0.22768776000000002, 0.45670326], "properties": {"magmom": -0.0}, "label": "O", "xyz": [3.193598599039393, 1.6831721619302833, 1.9750979264576634]}, {"species": [{"element": "O", "occu": 1}], "abc": [0.98797354, 0.53126828, 0.26028278], "properties": {"magmom": -0.0}, "label": "O", "xyz": [6.165942787192517, 3.92737835100395, -2.228441189102625]}, {"species": [{"element": "O", "occu": 1}], "abc": [0.7709865, 0.72768776, 0.23971722], "properties": {"magmom": -0.0}, "label": "O", "xyz": [3.4753994381771163, 5.379401071930283, -2.35256714789502]}, {"species": [{"element": "O", "occu": 1}], "abc": [0.7290135, 0.9687317200000001, 0.95670326], "properties": {"magmom": -0.0}, "label": "O", "xyz": [2.0883300336697594, 7.1613083789960505, 3.5381466834553077]}, {"species": [{"element": "O", "occu": 1}], "abc": [0.77231224, 0.5432967400000001, 0.51202646], "properties": {"magmom": -0.0}, "label": "O", "xyz": [4.273703904526318, 4.016298234193507, 0.665370008639635]}, {"species": [{"element": "O", "occu": 1}], "abc": [0.51202646, 0.77231224, 0.5432967400000001], "properties": {"magmom": -0.0}, "label": "O", "xyz": [1.074438230960606, 5.709285658069716, 1.042859613542337]}, {"species": [{"element": "O", "occu": 1}], "abc": [0.9687317200000001, 0.95670326, 0.7290135], "properties": {"magmom": -0.0}, "label": "O", "xyz": [4.185920581786174, 7.072388495806494, 0.7895138748334807]}, {"species": [{"element": "O", "occu": 1}], "abc": [0.23971722, 0.7709865, 0.72768776], "properties": {"magmom": -0.0}, "label": "O", "xyz": [-1.2443554665243424, 5.69948518103943, 3.5381318272583187]}, {"species": [{"element": "O", "occu": 1}], "abc": [0.53126828, 0.26028278, 0.98797354], "properties": {"magmom": -0.0}, "label": "O", "xyz": [3.424048953742073, 1.9241294724223394, 6.556120301352424]}, {"species": [{"element": "O", "occu": 1}], "abc": [0.95670326, 0.7290135, 0.9687317200000001], "properties": {"magmom": -0.0}, "label": "O", "xyz": [5.055033260521585, 5.389201548960569, 3.6833522464687505]}, {"species": [{"element": "O", "occu": 1}], "abc": [0.72768776, 0.23971722, 0.7709865], "properties": {"magmom": -0.0}, "label": "O", "xyz": [5.188474889945434, 1.7720994375776604, 4.0608269951744616]}, {"species": [{"element": "O", "occu": 1}], "abc": [0.26028278, 0.98797354, 0.53126828], "properties": {"magmom": -0.0}, "label": "O", "xyz": [-1.9949152082435715, 7.303552721726083, 1.0428505719356864]}, {"species": [{"element": "O", "occu": 1}], "abc": [0.5432967400000001, 0.51202646, 0.77231224], "properties": {"magmom": -0.0}, "label": "O", "xyz": [2.45227323424633, 3.785134008273917, 3.807496534337246]}]}, "task_ids": null, "uncorrected_energy_per_atom": null, "energy_per_atom": -8.852958224, "formation_energy_per_atom": -4.057094096999998, "energy_above_hull": 0.0, "is_stable": true, "equilibrium_reaction_energy_per_atom": null, "decomposes_to": null, "xas": null, "grain_boundaries": null, "band_gap": 3.9629000000000003, "cbm": null, "vbm": null, "efermi": 1.34341556, "is_gap_direct": null, "is_metal": null, "es_source_calc_id": null, "bandstructure": null, "dos": null, "dos_energy_up": null, "dos_energy_down": null, "is_magnetic": null, "ordering": null, "total_magnetization": 0.0, "total_magnetization_normalized_vol": null, "total_magnetization_normalized_formula_units": null, "num_magnetic_sites": null, "num_unique_magnetic_sites": null, "types_of_magnetic_species": null, "bulk_modulus": null, "shear_modulus": null, "universal_anisotropy": null, "homogeneous_poisson": null, "e_total": null, "e_ionic": null, "e_electronic": null, "n": null, "e_ij_max": null, "weighted_surface_energy_EV_PER_ANG2": null, "weighted_surface_energy": null, "weighted_work_function": null, "surface_anisotropy": null, "shape_factor": null, "has_reconstructed": null, "possible_species": null, "has_props": null, "theoretical": null, "database_IDs": null, "fields_not_requested": ["builder_meta", "nsites", "elements", "nelements", "composition", "composition_reduced", "chemsys", "symmetry", "property_name", "deprecated", "deprecation_reasons", "last_updated", "origins", "warnings", "task_ids", "uncorrected_energy_per_atom", "equilibrium_reaction_energy_per_atom", "decomposes_to", "xas", "grain_boundaries", "cbm", "vbm", "is_gap_direct", "is_metal", "es_source_calc_id", "bandstructure", "dos", "dos_energy_up", "dos_energy_down", "is_magnetic", "ordering", "total_magnetization_normalized_vol", "total_magnetization_normalized_formula_units", "num_magnetic_sites", "num_unique_magnetic_sites", "types_of_magnetic_species", "bulk_modulus", "shear_modulus", "universal_anisotropy", "homogeneous_poisson", "e_total", "e_ionic", "e_electronic", "n", "e_ij_max", "weighted_surface_energy_EV_PER_ANG2", "weighted_surface_energy", "weighted_work_function", "surface_anisotropy", "shape_factor", "has_reconstructed", "possible_species", "has_props", "theoretical", "database_IDs"]}