{"builder_meta": null, "nsites": null, "elements": null, "nelements": null, "composition": null, "composition_reduced": null, "formula_pretty": "Er2Pt", "formula_anonymous": "AB2", "chemsys": null, "volume": 287.3403098141022, "density": 12.24227552783591, "density_atomic": 23.945025817841852, "symmetry": null, "property_name": null, "material_id": "mp-30610", "deprecated": null, "deprecation_reasons": null, "last_updated": null, "origins": null, "warnings": null, "structure": {"@module": "pymatgen.core.structure", "@class": "Structure", "charge": 0, "lattice": {"matrix": [[4.7072886, 0.0, 0.0], [0.0, 7.04075291, 0.0], [0.0, 0.0, 8.66975105]], "pbc": [true, true, true], "a": 4.7072886, "b": 7.04075291, "c": 8.66975105, "alpha": 90.0, "beta": 90.0, "gamma": 90.0, "volume": 287.3403098141022}, "properties": {}, "sites": [{"species": [{"element": "Er", "occu": 1}], "abc": [0.75, 0.14334247, 0.91933077], "properties": {"magmom": -0.0}, "label": "Er", "xyz": [3.53046645, 1.0092389127790877, 7.970368908504809]}, {"species": [{"element": "Er", "occu": 1}], "abc": [0.25, 0.8567305900000001, 0.08066363], "properties": {"magmom": -0.0}, "label": "Er", "xyz": [1.17682215, 6.032028394628518, 0.6993335908893116]}, {"species": [{"element": "Er", "occu": 1}], "abc": [0.75, 0.64326941, 0.58066263], "properties": {"magmom": -0.0}, "label": "Er", "xyz": [3.53046645, 4.529100970371483, 5.034200446138262]}, {"species": [{"element": "Er", "occu": 1}], "abc": [0.25, 0.35665753, 0.41932977], "properties": {"magmom": -0.0}, "label": "Er", "xyz": [1.17682215, 2.5111375422209123, 3.6354847137537587]}, {"species": [{"element": "Er", "occu": 1}], "abc": [0.750002, 0.00919868, 0.33301376], "properties": {"magmom": -0.0}, "label": "Er", "xyz": [3.5304758645771996, 0.06476563297815881, 2.887146395424448]}, {"species": [{"element": "Er", "occu": 1}], "abc": [0.250002, 0.99094246, 0.6669814900000001], "properties": {"magmom": 0.0}, "label": "Er", "xyz": [1.1768315645772, 6.976981008887559, 5.782563473258065]}, {"species": [{"element": "Er", "occu": 1}], "abc": [0.750002, 0.50905754, 0.16698249], "properties": {"magmom": 0.0}, "label": "Er", "xyz": [3.5304758645771996, 3.5841483561124416, 1.4476966180091146]}, {"species": [{"element": "Er", "occu": 1}], "abc": [0.250002, 0.49080132, 0.83301476], "properties": {"magmom": -0.0}, "label": "Er", "xyz": [1.1768315645772, 3.4556108220218413, 7.222030590175498]}, {"species": [{"element": "Pt", "occu": 1}], "abc": [0.749997999999999, 0.7412168, 0.9074175], "properties": {"magmom": 0.0}, "label": "Pt", "xyz": [3.5304570354227955, 5.218724341540888, 7.867083823413375]}, {"species": [{"element": "Pt", "occu": 1}], "abc": [0.249998, 0.25877395000000003, 0.09259585000000001], "properties": {"magmom": -0.0}, "label": "Pt", "xyz": [1.1768127354228, 1.8219634414946948, 0.8027829677631426]}, {"species": [{"element": "Pt", "occu": 1}], "abc": [0.749997999999999, 0.24122605, 0.59259485], "properties": {"magmom": -0.0}, "label": "Pt", "xyz": [3.5304570354227955, 1.6984130135053055, 5.137649823012093]}, {"species": [{"element": "Pt", "occu": 1}], "abc": [0.249998, 0.7587832, 0.407416499999999], "properties": {"magmom": 0.0}, "label": "Pt", "xyz": [1.1768127354228, 5.342405023459112, 3.5321996286623167]}]}, "task_ids": null, "uncorrected_energy_per_atom": null, "energy_per_atom": -40.85954983916667, "formation_energy_per_atom": -1.080020761388889, "energy_above_hull": 0.0, "is_stable": true, "equilibrium_reaction_energy_per_atom": null, "decomposes_to": null, "xas": null, "grain_boundaries": null, "band_gap": 0.0, "cbm": null, "vbm": null, "efermi": 4.24412759, "is_gap_direct": null, "is_metal": null, "es_source_calc_id": null, "bandstructure": null, "dos": null, "dos_energy_up": null, "dos_energy_down": null, "is_magnetic": null, "ordering": null, "total_magnetization": 2e-07, "total_magnetization_normalized_vol": null, "total_magnetization_normalized_formula_units": null, "num_magnetic_sites": null, "num_unique_magnetic_sites": null, "types_of_magnetic_species": null, "bulk_modulus": null, "shear_modulus": null, "universal_anisotropy": null, "homogeneous_poisson": null, "e_total": null, "e_ionic": null, "e_electronic": null, "n": null, "e_ij_max": null, "weighted_surface_energy_EV_PER_ANG2": null, "weighted_surface_energy": null, "weighted_work_function": null, "surface_anisotropy": null, "shape_factor": null, "has_reconstructed": null, "possible_species": null, "has_props": null, "theoretical": null, "database_IDs": null, "fields_not_requested": ["builder_meta", "nsites", "elements", "nelements", "composition", "composition_reduced", "chemsys", "symmetry", "property_name", "deprecated", "deprecation_reasons", "last_updated", "origins", "warnings", "task_ids", "uncorrected_energy_per_atom", "equilibrium_reaction_energy_per_atom", "decomposes_to", "xas", "grain_boundaries", "cbm", "vbm", "is_gap_direct", "is_metal", "es_source_calc_id", "bandstructure", "dos", "dos_energy_up", "dos_energy_down", "is_magnetic", "ordering", "total_magnetization_normalized_vol", "total_magnetization_normalized_formula_units", "num_magnetic_sites", "num_unique_magnetic_sites", "types_of_magnetic_species", "bulk_modulus", "shear_modulus", "universal_anisotropy", "homogeneous_poisson", "e_total", "e_ionic", "e_electronic", "n", "e_ij_max", "weighted_surface_energy_EV_PER_ANG2", "weighted_surface_energy", "weighted_work_function", "surface_anisotropy", "shape_factor", "has_reconstructed", "possible_species", "has_props", "theoretical", "database_IDs"]}