{"builder_meta": null, "nsites": null, "elements": null, "nelements": null, "composition": null, "composition_reduced": null, "formula_pretty": "Er2Sn5", "formula_anonymous": "A2B5", "chemsys": null, "volume": 362.4284857197819, "density": 8.50426073657385, "density_atomic": 25.887748979984423, "symmetry": null, "property_name": null, "material_id": "mp-1105178", "deprecated": null, "deprecation_reasons": null, "last_updated": null, "origins": null, "warnings": null, "structure": {"@module": "pymatgen.core.structure", "@class": "Structure", "charge": 0, "lattice": {"matrix": [[4.32240718, 0.0, 0.0], [0.0, 4.38729669, 0.0], [0.0, 0.0, 19.11171428]], "pbc": [true, true, true], "a": 4.32240718, "b": 4.38729669, "c": 19.11171428, "alpha": 90.0, "beta": 90.0, "gamma": 90.0, "volume": 362.4284857197819}, "properties": {}, "sites": [{"species": [{"element": "Er", "occu": 1}], "abc": [0.5, 0.0, 0.19966246], "properties": {"magmom": -0.0}, "label": "Er", "xyz": [2.16120359, 0.0, 3.8158918879619295]}, {"species": [{"element": "Er", "occu": 1}], "abc": [0.0, 0.5, 0.80033754], "properties": {"magmom": -0.0}, "label": "Er", "xyz": [0.0, 2.193648345, 15.295822392038072]}, {"species": [{"element": "Er", "occu": 1}], "abc": [0.5, 0.5, 0.6278599], "properties": {"magmom": -0.0}, "label": "Er", "xyz": [2.16120359, 2.193648345, 11.999479016669373]}, {"species": [{"element": "Er", "occu": 1}], "abc": [0.0, 0.0, 0.3721401], "properties": {"magmom": -0.0}, "label": "Er", "xyz": [0.0, 0.0, 7.112235263330628]}, {"species": [{"element": "Sn", "occu": 1}], "abc": [0.5, 0.5, 0.92460569], "properties": {"magmom": -0.0}, "label": "Sn", "xyz": [2.16120359, 2.193648345, 17.670799768942256]}, {"species": [{"element": "Sn", "occu": 1}], "abc": [0.0, -0.0, 0.07539431], "properties": {"magmom": -0.0}, "label": "Sn", "xyz": [0.0, 0.0, 1.440914511057747]}, {"species": [{"element": "Sn", "occu": 1}], "abc": [0.5, 0.5, 0.07644623], "properties": {"magmom": 0.0}, "label": "Sn", "xyz": [2.16120359, 2.193648345, 1.4610185055431646]}, {"species": [{"element": "Sn", "occu": 1}], "abc": [-0.0, 0.0, 0.92355377], "properties": {"magmom": 0.0}, "label": "Sn", "xyz": [0.0, 0.0, 17.65069577445684]}, {"species": [{"element": "Sn", "occu": 1}], "abc": [0.5, -0.0, 0.76349468], "properties": {"magmom": 0.0}, "label": "Sn", "xyz": [2.16120359, 0.0, 14.59169217846003]}, {"species": [{"element": "Sn", "occu": 1}], "abc": [0.0, 0.5, 0.23650532], "properties": {"magmom": 0.0}, "label": "Sn", "xyz": [0.0, 2.193648345, 4.520022101539969]}, {"species": [{"element": "Sn", "occu": 1}], "abc": [0.5, 0.5, 0.34281848], "properties": {"magmom": -0.0}, "label": "Sn", "xyz": [2.16120359, 2.193648345, 6.5518488396638945]}, {"species": [{"element": "Sn", "occu": 1}], "abc": [0.0, 0.0, 0.65718152], "properties": {"magmom": -0.0}, "label": "Sn", "xyz": [0.0, 0.0, 12.559865440336106]}, {"species": [{"element": "Sn", "occu": 1}], "abc": [0.5, 0.0, 0.50223496], "properties": {"magmom": 0.0}, "label": "Sn", "xyz": [2.16120359, 0.0, 9.598571056947229]}, {"species": [{"element": "Sn", "occu": 1}], "abc": [-0.0, 0.5, 0.49776504], "properties": {"magmom": 0.0}, "label": "Sn", "xyz": [0.0, 2.193648345, 9.513143223052772]}]}, "task_ids": null, "uncorrected_energy_per_atom": null, "energy_per_atom": -4.644648490000001, "formation_energy_per_atom": -0.47560607642857006, "energy_above_hull": 0.004368243095234, "is_stable": false, "equilibrium_reaction_energy_per_atom": null, "decomposes_to": null, "xas": null, "grain_boundaries": null, "band_gap": 0.0, "cbm": null, "vbm": null, "efermi": 6.97677859, "is_gap_direct": null, "is_metal": null, "es_source_calc_id": null, "bandstructure": null, "dos": null, "dos_energy_up": null, "dos_energy_down": null, "is_magnetic": null, "ordering": null, "total_magnetization": 3e-07, "total_magnetization_normalized_vol": null, "total_magnetization_normalized_formula_units": null, "num_magnetic_sites": null, "num_unique_magnetic_sites": null, "types_of_magnetic_species": null, "bulk_modulus": null, "shear_modulus": null, "universal_anisotropy": null, "homogeneous_poisson": null, "e_total": null, "e_ionic": null, "e_electronic": null, "n": null, "e_ij_max": null, "weighted_surface_energy_EV_PER_ANG2": null, "weighted_surface_energy": null, "weighted_work_function": null, "surface_anisotropy": null, "shape_factor": null, "has_reconstructed": null, "possible_species": null, "has_props": null, "theoretical": null, "database_IDs": null, "fields_not_requested": ["builder_meta", "nsites", "elements", "nelements", "composition", "composition_reduced", "chemsys", "symmetry", "property_name", "deprecated", "deprecation_reasons", "last_updated", "origins", "warnings", "task_ids", "uncorrected_energy_per_atom", "equilibrium_reaction_energy_per_atom", "decomposes_to", "xas", "grain_boundaries", "cbm", "vbm", "is_gap_direct", "is_metal", "es_source_calc_id", "bandstructure", "dos", "dos_energy_up", "dos_energy_down", "is_magnetic", "ordering", "total_magnetization_normalized_vol", "total_magnetization_normalized_formula_units", "num_magnetic_sites", "num_unique_magnetic_sites", "types_of_magnetic_species", "bulk_modulus", "shear_modulus", "universal_anisotropy", "homogeneous_poisson", "e_total", "e_ionic", "e_electronic", "n", "e_ij_max", "weighted_surface_energy_EV_PER_ANG2", "weighted_surface_energy", "weighted_work_function", "surface_anisotropy", "shape_factor", "has_reconstructed", "possible_species", "has_props", "theoretical", "database_IDs"]}