{"builder_meta": null, "nsites": null, "elements": null, "nelements": null, "composition": null, "composition_reduced": null, "formula_pretty": "Er2Se3", "formula_anonymous": "A2B3", "chemsys": null, "volume": 559.6653396140929, "density": 6.781400486450379, "density_atomic": 27.983266980704645, "symmetry": null, "property_name": null, "material_id": "mp-209", "deprecated": null, "deprecation_reasons": null, "last_updated": null, "origins": null, "warnings": null, "structure": {"@module": "pymatgen.core.structure", "@class": "Structure", "charge": 0, "lattice": {"matrix": [[6.87214184, 0.00233205, -1.2881760500000001], [-2.56112545, 6.37706588, -1.2881760500000001], [-0.00406681, -0.00601809, 12.77141048]], "pbc": [true, true, true], "a": 6.99183355374893, "b": 6.991833117594518, "c": 12.771412545407992, "alpha": 100.63508492688884, "beta": 100.63508398404338, "gamma": 109.01302860744987, "volume": 559.6653396140929}, "properties": {}, "sites": [{"species": [{"element": "Er", "occu": 1}], "abc": [0.12762126000000001, 0.37762126, 0.75524052], "properties": {"magmom": -0.0}, "label": "Er", "xyz": [-0.09317543862668969, 2.403868166446985, 8.994645378343003]}, {"species": [{"element": "Er", "occu": 1}], "abc": [0.62237874, 0.87237874, 0.74475948], "properties": {"magmom": -0.0}, "label": "Er", "xyz": [2.0397747911266904, 5.560186086053015, 7.5861182416569966]}, {"species": [{"element": "Er", "occu": 1}], "abc": [0.87237874, 0.62237874, 0.24475948], "properties": {"magmom": -0.0}, "label": "Er", "xyz": [4.40012501862669, 3.9695116735530154, 1.2004130016569965]}, {"species": [{"element": "Er", "occu": 1}], "abc": [0.37762126, 0.12762126000000001, 0.25524052], "properties": {"magmom": -0.0}, "label": "Er", "xyz": [2.26717478887331, 0.813193753946985, 2.6089401383430038]}, {"species": [{"element": "Er", "occu": 1}], "abc": [0.79104049, 0.04104049, 0.08207998], "properties": {"magmom": 0.0}, "label": "Er", "xyz": [5.330698801360167, 0.2630686897453475, -0.023589673326338767]}, {"species": [{"element": "Er", "occu": 1}], "abc": [0.95895951, 0.20895951000000001, 0.41792002], "properties": {"magmom": 0.0}, "label": "Er", "xyz": [6.0532346511398325, 1.3322698227546528, 3.8329428133263383]}, {"species": [{"element": "Er", "occu": 1}], "abc": [0.20895951000000001, 0.95895951, 0.9179200200000001], "properties": {"magmom": 0.0}, "label": "Er", "xyz": [-1.0237492213601673, 6.1103111502546525, 10.218648053326339]}, {"species": [{"element": "Er", "occu": 1}], "abc": [0.04104049, 0.79104049, 0.58207998], "properties": {"magmom": 0.0}, "label": "Er", "xyz": [-1.7462850711398326, 5.041110017245347, 6.362115566673662]}, {"species": [{"element": "Se", "occu": 1}], "abc": [0.53918268, 0.2834276, 0.08813326], "properties": {"magmom": -0.0}, "label": "Se", "xyz": [2.9790877938158107, 1.8081634844885086, 0.06591917922077073]}, {"species": [{"element": "Se", "occu": 1}], "abc": [0.19529433000000002, 0.95105141, 0.41186674], "properties": {"magmom": -0.0}, "label": "Se", "xyz": [-1.0953466178785167, 6.062894281869841, 3.783424072311908]}, {"species": [{"element": "Se", "occu": 1}], "abc": [0.7165724, 0.46081732000000003, 0.41186674], "properties": {"magmom": -0.0}, "label": "Se", "xyz": [3.7425012215995226, 2.937854839841135, 3.743433960779229]}, {"species": [{"element": "Se", "occu": 1}], "abc": [0.04894859, 0.80470567, 0.08813326], "properties": {"magmom": -0.0}, "label": "Se", "xyz": [-1.7249289390713964, 5.131244828268176, 0.025929067688091667]}, {"species": [{"element": "Se", "occu": 1}], "abc": [0.46081732000000003, 0.7165724, 0.91186674], "properties": {"magmom": -0.0}, "label": "Se", "xyz": [1.32786178618419, 4.565216355511492, 10.129139200779228]}, {"species": [{"element": "Se", "occu": 1}], "abc": [0.80470567, 0.04894859, 0.58813326], "properties": {"magmom": -0.0}, "label": "Se", "xyz": [5.402296197878517, 0.3104855581301593, 6.411634307688091]}, {"species": [{"element": "Se", "occu": 1}], "abc": [0.2834276, 0.53918268, 0.58813326], "properties": {"magmom": -0.0}, "label": "Se", "xyz": [0.5644483584004774, 3.435525000158865, 6.451624419220771]}, {"species": [{"element": "Se", "occu": 1}], "abc": [0.95105141, 0.19529433000000002, 0.91186674], "properties": {"magmom": -0.0}, "label": "Se", "xyz": [6.031878519071397, 1.2421350117318244, 10.169129312311908]}, {"species": [{"element": "Se", "occu": 1}], "abc": [0.88301503, 0.63301503, 0.75], "properties": {"magmom": 0.0}, "label": "Se", "xyz": [4.443923521946342, 4.034324217040888, 7.625644245627937]}, {"species": [{"element": "Se", "occu": 1}], "abc": [0.36698497, 0.11698497000000001, 0.75], "properties": {"magmom": 0.0}, "label": "Se", "xyz": [2.219309475553658, 0.7423631204591121, 8.955119374372064]}, {"species": [{"element": "Se", "occu": 1}], "abc": [0.11698497000000001, 0.36698497, 0.25], "properties": {"magmom": 0.0}, "label": "Se", "xyz": [-0.13697394194634163, 2.339055622959112, 2.569414134372063]}, {"species": [{"element": "Se", "occu": 1}], "abc": [0.63301503, 0.88301503, 0.25], "properties": {"magmom": 0.0}, "label": "Se", "xyz": [2.0876401044463417, 5.631016719540888, 1.239939005627937]}]}, "task_ids": null, "uncorrected_energy_per_atom": null, "energy_per_atom": -24.3309633985, "formation_energy_per_atom": -2.173853193270832, "energy_above_hull": 0.0, "is_stable": true, "equilibrium_reaction_energy_per_atom": null, "decomposes_to": null, "xas": null, "grain_boundaries": null, "band_gap": 0.7923, "cbm": null, "vbm": null, "efermi": 1.60386282, "is_gap_direct": null, "is_metal": null, "es_source_calc_id": null, "bandstructure": null, "dos": null, "dos_energy_up": null, "dos_energy_down": null, "is_magnetic": null, "ordering": null, "total_magnetization": 0.0, "total_magnetization_normalized_vol": null, "total_magnetization_normalized_formula_units": null, "num_magnetic_sites": null, "num_unique_magnetic_sites": null, "types_of_magnetic_species": null, "bulk_modulus": null, "shear_modulus": null, "universal_anisotropy": null, "homogeneous_poisson": null, "e_total": null, "e_ionic": null, "e_electronic": null, "n": null, "e_ij_max": null, "weighted_surface_energy_EV_PER_ANG2": null, "weighted_surface_energy": null, "weighted_work_function": null, "surface_anisotropy": null, "shape_factor": null, "has_reconstructed": null, "possible_species": null, "has_props": null, "theoretical": null, "database_IDs": null, "fields_not_requested": ["builder_meta", "nsites", "elements", "nelements", "composition", "composition_reduced", "chemsys", "symmetry", "property_name", "deprecated", "deprecation_reasons", "last_updated", "origins", "warnings", "task_ids", "uncorrected_energy_per_atom", "equilibrium_reaction_energy_per_atom", "decomposes_to", "xas", "grain_boundaries", "cbm", "vbm", "is_gap_direct", "is_metal", "es_source_calc_id", "bandstructure", "dos", "dos_energy_up", "dos_energy_down", "is_magnetic", "ordering", "total_magnetization_normalized_vol", "total_magnetization_normalized_formula_units", "num_magnetic_sites", "num_unique_magnetic_sites", "types_of_magnetic_species", "bulk_modulus", "shear_modulus", "universal_anisotropy", "homogeneous_poisson", "e_total", "e_ionic", "e_electronic", "n", "e_ij_max", "weighted_surface_energy_EV_PER_ANG2", "weighted_surface_energy", "weighted_work_function", "surface_anisotropy", "shape_factor", "has_reconstructed", "possible_species", "has_props", "theoretical", "database_IDs"]}