{"builder_meta": null, "nsites": null, "elements": null, "nelements": null, "composition": null, "composition_reduced": null, "formula_pretty": "Er2Si3", "formula_anonymous": "A2B3", "chemsys": null, "volume": 102.58798483928571, "density": 6.7784879334093695, "density_atomic": 20.51759696785714, "symmetry": null, "property_name": null, "material_id": "mp-1225750", "deprecated": null, "deprecation_reasons": null, "last_updated": null, "origins": null, "warnings": null, "structure": {"@module": "pymatgen.core.structure", "@class": "Structure", "charge": 0, "lattice": {"matrix": [[3.86688316, 0.0, 0.0], [0.0, 3.92287791, 0.0], [0.0, 0.0, 6.76286405]], "pbc": [true, true, true], "a": 3.86688316, "b": 3.92287791, "c": 6.76286405, "alpha": 90.0, "beta": 90.0, "gamma": 90.0, "volume": 102.58798483928571}, "properties": {}, "sites": [{"species": [{"element": "Er", "occu": 1}], "abc": [0.0, 0.5, 0.0034513], "properties": {"magmom": 0.0}, "label": "Er", "xyz": [0.0, 1.961438955, 0.023340672695765]}, {"species": [{"element": "Er", "occu": 1}], "abc": [0.5, 0.5, 0.49502575], "properties": {"magmom": 0.0}, "label": "Er", "xyz": [1.93344158, 1.961438955, 3.3477918484992877]}, {"species": [{"element": "Si", "occu": 1}], "abc": [0.5, 0.0, 0.81419683], "properties": {"magmom": 0.0}, "label": "Si", "xyz": [1.93344158, 0.0, 5.506302471230962]}, {"species": [{"element": "Si", "occu": 1}], "abc": [0.5, 0.0, 0.15643397], "properties": {"magmom": -0.0}, "label": "Si", "xyz": [1.93344158, 0.0, 1.0579416719117785]}, {"species": [{"element": "Si", "occu": 1}], "abc": [0.0, 0.0, 0.35889215], "properties": {"magmom": 0.0}, "label": "Si", "xyz": [0.0, 0.0, 2.4271388190622076]}]}, "task_ids": null, "uncorrected_energy_per_atom": null, "energy_per_atom": -19.481815026, "formation_energy_per_atom": -0.6473822023333351, "energy_above_hull": 0.062314606999997, "is_stable": false, "equilibrium_reaction_energy_per_atom": null, "decomposes_to": null, "xas": null, "grain_boundaries": null, "band_gap": 0.0, "cbm": null, "vbm": null, "efermi": 5.63845573, "is_gap_direct": null, "is_metal": null, "es_source_calc_id": null, "bandstructure": null, "dos": null, "dos_energy_up": null, "dos_energy_down": null, "is_magnetic": null, "ordering": null, "total_magnetization": 0.0, "total_magnetization_normalized_vol": null, "total_magnetization_normalized_formula_units": null, "num_magnetic_sites": null, "num_unique_magnetic_sites": null, "types_of_magnetic_species": null, "bulk_modulus": null, "shear_modulus": null, "universal_anisotropy": null, "homogeneous_poisson": null, "e_total": null, "e_ionic": null, "e_electronic": null, "n": null, "e_ij_max": null, "weighted_surface_energy_EV_PER_ANG2": null, "weighted_surface_energy": null, "weighted_work_function": null, "surface_anisotropy": null, "shape_factor": null, "has_reconstructed": null, "possible_species": null, "has_props": null, "theoretical": null, "database_IDs": null, "fields_not_requested": ["builder_meta", "nsites", "elements", "nelements", "composition", "composition_reduced", "chemsys", "symmetry", "property_name", "deprecated", "deprecation_reasons", "last_updated", "origins", "warnings", "task_ids", "uncorrected_energy_per_atom", "equilibrium_reaction_energy_per_atom", "decomposes_to", "xas", "grain_boundaries", "cbm", "vbm", "is_gap_direct", "is_metal", "es_source_calc_id", "bandstructure", "dos", "dos_energy_up", "dos_energy_down", "is_magnetic", "ordering", "total_magnetization_normalized_vol", "total_magnetization_normalized_formula_units", "num_magnetic_sites", "num_unique_magnetic_sites", "types_of_magnetic_species", "bulk_modulus", "shear_modulus", "universal_anisotropy", "homogeneous_poisson", "e_total", "e_ionic", "e_electronic", "n", "e_ij_max", "weighted_surface_energy_EV_PER_ANG2", "weighted_surface_energy", "weighted_work_function", "surface_anisotropy", "shape_factor", "has_reconstructed", "possible_species", "has_props", "theoretical", "database_IDs"]}