{"builder_meta": null, "nsites": null, "elements": null, "nelements": null, "composition": null, "composition_reduced": null, "formula_pretty": "Er2S3", "formula_anonymous": "A2B3", "chemsys": null, "volume": 691.5920547737513, "density": 6.204950661786847, "density_atomic": 23.053068492458376, "symmetry": null, "property_name": null, "material_id": "mp-2234", "deprecated": null, "deprecation_reasons": null, "last_updated": null, "origins": null, "warnings": null, "structure": {"@module": "pymatgen.core.structure", "@class": "Structure", "charge": 0, "lattice": {"matrix": [[3.973211339999999, 0.0, 0.0], [0.0, 9.95564922, -1.52360058], [0.0, 0.0178524, 17.48118516]], "pbc": [true, true, true], "a": 3.973211339999999, "b": 10.071559468079556, "c": 17.481194275746436, "alpha": 98.64245575964966, "beta": 90.0, "gamma": 90.0, "volume": 691.5920547737511}, "properties": {}, "sites": [{"species": [{"element": "Er", "occu": 1}], "abc": [0.75, 0.12385431000000001, 0.43003078], "properties": {"magmom": -0.0}, "label": "Er", "xyz": [2.979908504999999, 1.2407271462420104, 7.3287431911277245]}, {"species": [{"element": "Er", "occu": 1}], "abc": [0.25, 0.87614569, 0.56996922], "properties": {"magmom": -0.0}, "label": "Er", "xyz": [0.9933028349999997, 8.73277447375799, 8.628841388872276]}, {"species": [{"element": "Er", "occu": 1}], "abc": [0.75, 0.54889318, 0.11457709], "properties": {"magmom": 0.0}, "label": "Er", "xyz": [2.979908504999999, 5.466633435371835, 1.1666493579779398]}, {"species": [{"element": "Er", "occu": 1}], "abc": [0.25, 0.45110682, 0.8854229100000001], "properties": {"magmom": 0.0}, "label": "Er", "xyz": [0.9933028349999997, 4.506868184628165, 14.79093522202206]}, {"species": [{"element": "Er", "occu": 1}], "abc": [0.75, 0.18860373, 0.020546560000000002], "properties": {"magmom": 0.0}, "label": "Er", "xyz": [2.979908504999999, 1.8780393828713344, 0.07182146734288625]}, {"species": [{"element": "Er", "occu": 1}], "abc": [0.25, 0.81139627, 0.97945344], "properties": {"magmom": 0.0}, "label": "Er", "xyz": [0.9933028349999997, 8.095462237128665, 15.885763112657113]}, {"species": [{"element": "Er", "occu": 1}], "abc": [0.75, 0.48687371, 0.399507799999999], "properties": {"magmom": -0.0}, "label": "Er", "xyz": [2.979908504999999, 4.854276044248726, 6.242068757721479]}, {"species": [{"element": "Er", "occu": 1}], "abc": [0.25, 0.51312629, 0.600492199999999], "properties": {"magmom": -0.0}, "label": "Er", "xyz": [0.9933028349999997, 5.1192255757512735, 9.715515822278487]}, {"species": [{"element": "Er", "occu": 1}], "abc": [0.25, 0.17029945, 0.21835781], "properties": {"magmom": 0.0}, "label": "Er", "xyz": [0.9933028349999997, 1.699339797526173, 3.5576849669484187]}, {"species": [{"element": "Er", "occu": 1}], "abc": [0.75, 0.82970055, 0.78164219], "properties": {"magmom": 0.0}, "label": "Er", "xyz": [2.979908504999999, 8.274161822473827, 12.39989961305158]}, {"species": [{"element": "Er", "occu": 1}], "abc": [0.25, 0.8121044, 0.27924309], "properties": {"magmom": 0.0}, "label": "Er", "xyz": [0.9933028349999997, 8.090011695758484, 3.6441774260799926]}, {"species": [{"element": "Er", "occu": 1}], "abc": [0.75, 0.1878956, 0.72075691], "properties": {"magmom": 0.0}, "label": "Er", "xyz": [2.979908504999999, 1.883489924241516, 12.313407153920005]}, {"species": [{"element": "S", "occu": 1}], "abc": [0.75, 0.61569205, 0.96755762], "properties": {"magmom": -0.0}, "label": "S", "xyz": [2.979908504999999, 6.146887302997989, 15.975985143707529]}, {"species": [{"element": "S", "occu": 1}], "abc": [0.25, 0.38430795, 0.03244238], "properties": {"magmom": -0.0}, "label": "S", "xyz": [0.9933028349999997, 3.826614317002011, -0.018400563707530182]}, {"species": [{"element": "S", "occu": 1}], "abc": [0.25, 0.28967603000000003, 0.36820086], "properties": {"magmom": 0.0}, "label": "S", "xyz": [0.9933028349999997, 2.890486211155261, 5.99523684241114]}, {"species": [{"element": "S", "occu": 1}], "abc": [0.75, 0.71032397, 0.63179914], "properties": {"magmom": 0.0}, "label": "S", "xyz": [2.979908504999999, 7.08301540884474, 9.96234773758886]}, {"species": [{"element": "S", "occu": 1}], "abc": [0.25, 0.99288494, 0.73210032], "properties": {"magmom": 0.0}, "label": "S", "xyz": [0.9933028349999997, 9.897883926213515, 11.285221179157986]}, {"species": [{"element": "S", "occu": 1}], "abc": [0.75, 0.00711506, 0.26789968000000003], "properties": {"magmom": 0.0}, "label": "S", "xyz": [2.979908504999999, 0.0756176937864852, 4.672363400842014]}, {"species": [{"element": "S", "occu": 1}], "abc": [0.25, 0.63261167, 0.46891036], "properties": {"magmom": 0.0}, "label": "S", "xyz": [0.9933028349999997, 6.306431054309261, 7.233261319275488]}, {"species": [{"element": "S", "occu": 1}], "abc": [0.75, 0.36738833, 0.53108964], "properties": {"magmom": 0.0}, "label": "S", "xyz": [2.979908504999999, 3.667070565690738, 8.72432326072451]}, {"species": [{"element": "S", "occu": 1}], "abc": [0.75, 0.63781208, 0.2827824], "properties": {"magmom": 0.0}, "label": "S", "xyz": [2.979908504999999, 6.354881681276337, 3.9716006393701773]}, {"species": [{"element": "S", "occu": 1}], "abc": [0.25, 0.36218792, 0.7172176], "properties": {"magmom": 0.0}, "label": "S", "xyz": [0.9933028349999997, 3.6186199387236626, 11.985983940629822]}, {"species": [{"element": "S", "occu": 1}], "abc": [0.25, 0.73096365, 0.12724106], "properties": {"magmom": -0.0}, "label": "S", "xyz": [0.9933028349999997, 7.279489250270396, 1.1106278887157521]}, {"species": [{"element": "S", "occu": 1}], "abc": [0.75, 0.26903635, 0.87275894], "properties": {"magmom": -0.0}, "label": "S", "xyz": [2.979908504999999, 2.694012369729603, 14.846956691284246]}, {"species": [{"element": "S", "occu": 1}], "abc": [0.75, 0.95127969, 0.92405188], "properties": {"magmom": 0.0}, "label": "S", "xyz": [2.979908504999999, 9.487103447532855, 14.70415172429988]}, {"species": [{"element": "S", "occu": 1}], "abc": [0.25, 0.04872031, 0.07594812000000001], "properties": {"magmom": 0.0}, "label": "S", "xyz": [0.9933028349999997, 0.48639817246714623, 1.2534328557001193]}, {"species": [{"element": "S", "occu": 1}], "abc": [0.75, 0.05232191, 0.57537917], "properties": {"magmom": -0.0}, "label": "S", "xyz": [2.979908504999999, 0.5311704815749182, 9.97859211555441]}, {"species": [{"element": "S", "occu": 1}], "abc": [0.25, 0.94767809, 0.42462083], "properties": {"magmom": -0.0}, "label": "S", "xyz": [0.9933028349999997, 9.442331138425082, 5.978992464445589]}, {"species": [{"element": "S", "occu": 1}], "abc": [0.25, 0.68110758, 0.8184024], "properties": {"magmom": -0.0}, "label": "S", "xyz": [0.9933028349999997, 6.795478594568848, 13.268907985857986]}, {"species": [{"element": "S", "occu": 1}], "abc": [0.75, 0.31889242, 0.1815976], "properties": {"magmom": -0.0}, "label": "S", "xyz": [2.979908504999999, 3.1780230254311523, 2.688676594142012]}]}, "task_ids": null, "uncorrected_energy_per_atom": null, "energy_per_atom": -20.756785843666666, "formation_energy_per_atom": -2.365612327687499, "energy_above_hull": 0.0, "is_stable": true, "equilibrium_reaction_energy_per_atom": null, "decomposes_to": null, "xas": null, "grain_boundaries": null, "band_gap": 1.4691, "cbm": null, "vbm": null, "efermi": 3.24441903, "is_gap_direct": null, "is_metal": null, "es_source_calc_id": null, "bandstructure": null, "dos": null, "dos_energy_up": null, "dos_energy_down": null, "is_magnetic": null, "ordering": null, "total_magnetization": 0.0, "total_magnetization_normalized_vol": null, "total_magnetization_normalized_formula_units": null, "num_magnetic_sites": null, "num_unique_magnetic_sites": null, "types_of_magnetic_species": null, "bulk_modulus": null, "shear_modulus": null, "universal_anisotropy": null, "homogeneous_poisson": null, "e_total": null, "e_ionic": null, "e_electronic": null, "n": null, "e_ij_max": null, "weighted_surface_energy_EV_PER_ANG2": null, "weighted_surface_energy": null, "weighted_work_function": null, "surface_anisotropy": null, "shape_factor": null, "has_reconstructed": null, "possible_species": null, "has_props": null, "theoretical": null, "database_IDs": null, "fields_not_requested": ["builder_meta", "nsites", "elements", "nelements", "composition", "composition_reduced", "chemsys", "symmetry", "property_name", "deprecated", "deprecation_reasons", "last_updated", "origins", "warnings", "task_ids", "uncorrected_energy_per_atom", "equilibrium_reaction_energy_per_atom", "decomposes_to", "xas", "grain_boundaries", "cbm", "vbm", "is_gap_direct", "is_metal", "es_source_calc_id", "bandstructure", "dos", "dos_energy_up", "dos_energy_down", "is_magnetic", "ordering", "total_magnetization_normalized_vol", "total_magnetization_normalized_formula_units", "num_magnetic_sites", "num_unique_magnetic_sites", "types_of_magnetic_species", "bulk_modulus", "shear_modulus", "universal_anisotropy", "homogeneous_poisson", "e_total", "e_ionic", "e_electronic", "n", "e_ij_max", "weighted_surface_energy_EV_PER_ANG2", "weighted_surface_energy", "weighted_work_function", "surface_anisotropy", "shape_factor", "has_reconstructed", "possible_species", "has_props", "theoretical", "database_IDs"]}