{"builder_meta": null, "nsites": null, "elements": null, "nelements": null, "composition": null, "composition_reduced": null, "formula_pretty": "Er2Te3", "formula_anonymous": "A2B3", "chemsys": null, "volume": 685.6202869916305, "density": 6.94923755772658, "density_atomic": 34.281014349581525, "symmetry": null, "property_name": null, "material_id": "mp-14643", "deprecated": null, "deprecation_reasons": null, "last_updated": null, "origins": null, "warnings": null, "structure": {"@module": "pymatgen.core.structure", "@class": "Structure", "charge": 0, "lattice": {"matrix": [[7.35895631, 0.00916633, -1.37066138], [-2.77886792, 6.81411769, -1.37066137], [-0.00442589, -0.00659282, 13.6685178]], "pbc": [true, true, true], "a": 7.485521666037577, "b": 7.485520649973943, "c": 13.668520106532918, "alpha": 100.56944804451106, "beta": 100.56944956246048, "gamma": 109.28772816258169, "volume": 685.6202869916305}, "properties": {}, "sites": [{"species": [{"element": "Er", "occu": 1}], "abc": [0.37573246, 0.12557958, 0.25146321], "properties": {"magmom": 0.0}, "label": "Er", "xyz": [2.414916742613242, 0.8575002736206897, 2.7500003106289186]}, {"species": [{"element": "Er", "occu": 1}], "abc": [0.87442042, 0.6242675400000001, 0.24853679], "properties": {"magmom": 0.0}, "label": "Er", "xyz": [4.698964630455039, 4.260209155415393, 1.3429358368695525]}, {"species": [{"element": "Er", "occu": 1}], "abc": [0.6242675400000001, 0.87442042, 0.7485367900000001], "properties": {"magmom": 0.0}, "label": "Er", "xyz": [2.160745757386758, 5.95919092637931, 8.177194739371082]}, {"species": [{"element": "Er", "occu": 1}], "abc": [0.12557958, 0.37573246, 0.75146321], "properties": {"magmom": 0.0}, "label": "Er", "xyz": [-0.12330213045504022, 2.556482044584606, 9.584259213130448]}, {"species": [{"element": "Er", "occu": 1}], "abc": [0.0419123, 0.79218641, 0.58397262], "properties": {"magmom": -0.0}, "label": "Er", "xyz": [-1.8955352154364862, 5.394585585762864, 6.838773270199681]}, {"species": [{"element": "Er", "occu": 1}], "abc": [0.20781359, 0.9580877, 0.9160273800000001], "properties": {"magmom": -0.0}, "label": "Er", "xyz": [-1.1371622810631994, 6.524388029454426, 10.92268068730306]}, {"species": [{"element": "Er", "occu": 1}], "abc": [0.9580877, 0.20781359, 0.41602738], "properties": {"magmom": -0.0}, "label": "Er", "xyz": [6.471197715436485, 1.4221056142371367, 4.08842177980032]}, {"species": [{"element": "Er", "occu": 1}], "abc": [0.79218641, 0.0419123, 0.08397262], "properties": {"magmom": -0.0}, "label": "Er", "xyz": [5.712824781063199, 0.29230317054557386, 0.004514362696939056]}, {"species": [{"element": "Te", "occu": 1}], "abc": [0.54100243, 0.28903873, 0.08505968], "properties": {"magmom": 0.0}, "label": "Te", "xyz": [3.1776363267521766, 1.973942146832818, 0.024934391210290396]}, {"species": [{"element": "Te", "occu": 1}], "abc": [0.20498105, 0.9561456700000001, 0.41523809], "properties": {"magmom": -0.0}, "label": "Te", "xyz": [-1.1503937359921315, 6.5144304581274355, 4.084177681574385]}, {"species": [{"element": "Te", "occu": 1}], "abc": [0.71096127, 0.45899757, 0.41494032000000003], "properties": {"magmom": 0.0}, "label": "Te", "xyz": [3.9546028211882738, 3.13144474018155, 4.068001756270073]}, {"species": [{"element": "Te", "occu": 1}], "abc": [0.043854330000000004, 0.79501895, 0.08476191], "properties": {"magmom": -0.0}, "label": "Te", "xyz": [-1.8869057043626116, 5.417195854325447, 0.008758475937260979]}, {"species": [{"element": "Te", "occu": 1}], "abc": [0.45899757, 0.71096127, 0.91494032], "properties": {"magmom": 0.0}, "label": "Te", "xyz": [1.3980261732478234, 4.842749053167181, 10.902260658789709]}, {"species": [{"element": "Te", "occu": 1}], "abc": [0.79501895, 0.043854330000000004, 0.58476191], "properties": {"magmom": -0.0}, "label": "Te", "xyz": [5.726056235992131, 0.302260741872565, 6.843017368425615]}, {"species": [{"element": "Te", "occu": 1}], "abc": [0.28903873, 0.54100243, 0.58505968], "properties": {"magmom": 0.0}, "label": "Te", "xyz": [0.6210596788117254, 3.6852464598184502, 6.859193293729927]}, {"species": [{"element": "Te", "occu": 1}], "abc": [0.9561456700000001, 0.20498105, 0.91523809], "properties": {"magmom": -0.0}, "label": "Te", "xyz": [6.462568204362612, 1.3994953456745516, 10.918436574062738]}, {"species": [{"element": "Te", "occu": 1}], "abc": [0.62531951, 0.87521178, 0.24994004], "properties": {"magmom": 0.0}, "label": "Te", "xyz": [2.168494808108875, 5.967880147883974, 1.3595896057402497]}, {"species": [{"element": "Te", "occu": 1}], "abc": [0.12478822, 0.37468049000000003, 0.25005996], "properties": {"magmom": 0.0}, "label": "Te", "xyz": [-0.12398327280457722, 2.552612204706014, 2.7333465467586735]}, {"species": [{"element": "Te", "occu": 1}], "abc": [0.37468049000000003, 0.12478822, 0.75005996], "properties": {"magmom": 0.0}, "label": "Te", "xyz": [2.4071676918911256, 0.8488110521160264, 9.567605444259751]}, {"species": [{"element": "Te", "occu": 1}], "abc": [0.87521178, 0.62531951, 0.74994004], "properties": {"magmom": 0.0}, "label": "Te", "xyz": [4.699645772804576, 4.264078995293986, 8.193848503241327]}]}, "task_ids": null, "uncorrected_energy_per_atom": null, "energy_per_atom": -30.465381566, "formation_energy_per_atom": -1.644872913333336, "energy_above_hull": 0.0, "is_stable": true, "equilibrium_reaction_energy_per_atom": null, "decomposes_to": null, "xas": null, "grain_boundaries": null, "band_gap": 0.05210000000000001, "cbm": null, "vbm": null, "efermi": 3.5167289, "is_gap_direct": null, "is_metal": null, "es_source_calc_id": null, "bandstructure": null, "dos": null, "dos_energy_up": null, "dos_energy_down": null, "is_magnetic": null, "ordering": null, "total_magnetization": 0.0, "total_magnetization_normalized_vol": null, "total_magnetization_normalized_formula_units": null, "num_magnetic_sites": null, "num_unique_magnetic_sites": null, "types_of_magnetic_species": null, "bulk_modulus": null, "shear_modulus": null, "universal_anisotropy": null, "homogeneous_poisson": null, "e_total": null, "e_ionic": null, "e_electronic": null, "n": null, "e_ij_max": null, "weighted_surface_energy_EV_PER_ANG2": null, "weighted_surface_energy": null, "weighted_work_function": null, "surface_anisotropy": null, "shape_factor": null, "has_reconstructed": null, "possible_species": null, "has_props": null, "theoretical": null, "database_IDs": null, "fields_not_requested": ["builder_meta", "nsites", "elements", "nelements", "composition", "composition_reduced", "chemsys", "symmetry", "property_name", "deprecated", "deprecation_reasons", "last_updated", "origins", "warnings", "task_ids", "uncorrected_energy_per_atom", "equilibrium_reaction_energy_per_atom", "decomposes_to", "xas", "grain_boundaries", "cbm", "vbm", "is_gap_direct", "is_metal", "es_source_calc_id", "bandstructure", "dos", "dos_energy_up", "dos_energy_down", "is_magnetic", "ordering", "total_magnetization_normalized_vol", "total_magnetization_normalized_formula_units", "num_magnetic_sites", "num_unique_magnetic_sites", "types_of_magnetic_species", "bulk_modulus", "shear_modulus", "universal_anisotropy", "homogeneous_poisson", "e_total", "e_ionic", "e_electronic", "n", "e_ij_max", "weighted_surface_energy_EV_PER_ANG2", "weighted_surface_energy", "weighted_work_function", "surface_anisotropy", "shape_factor", "has_reconstructed", "possible_species", "has_props", "theoretical", "database_IDs"]}