{
  "builder_meta": null,
  "nsites": null,
  "elements": null,
  "nelements": null,
  "composition": null,
  "composition_reduced": null,
  "formula_pretty": "Er3Al2",
  "formula_anonymous": "A2B3",
  "chemsys": null,
  "volume": 496.35763979863606,
  "density": 7.436799880346564,
  "density_atomic": 24.817881989931802,
  "symmetry": null,
  "property_name": null,
  "material_id": "mp-31181",
  "deprecated": null,
  "deprecation_reasons": null,
  "last_updated": null,
  "origins": null,
  "warnings": null,
  "structure": {
    "@module": "pymatgen.core.structure",
    "@class": "Structure",
    "charge": 0,
    "lattice": {
      "matrix": [
        [7.54089724, 0.0, 0.0],
        [0.0, 8.1130816, 0.0],
        [0.0, 0.0, 8.1130816]
      ],
      "pbc": [true, true, true],
      "a": 7.54089724,
      "b": 8.1130816,
      "c": 8.1130816,
      "alpha": 90.0,
      "beta": 90.0,
      "gamma": 90.0,
      "volume": 496.35763979863606
    },
    "properties": {},
    "sites": [
      {
        "species": [{ "element": "Er", "occu": 1 }],
        "abc": [0.250001, 0.0, 0.5],
        "properties": { "magmom": -0.0 },
        "label": "Er",
        "xyz": [1.8852318508972397, 0.0, 4.0565408]
      },
      {
        "species": [{ "element": "Er", "occu": 1 }],
        "abc": [0.749999, 0.0, 0.5],
        "properties": { "magmom": -0.0 },
        "label": "Er",
        "xyz": [5.65566538910276, 0.0, 4.0565408]
      },
      {
        "species": [{ "element": "Er", "occu": 1 }],
        "abc": [0.250001, 0.5, -0.0],
        "properties": { "magmom": -0.0 },
        "label": "Er",
        "xyz": [1.8852318508972397, 4.0565408, 0.0]
      },
      {
        "species": [{ "element": "Er", "occu": 1 }],
        "abc": [0.749999, 0.5, -0.0],
        "properties": { "magmom": -0.0 },
        "label": "Er",
        "xyz": [5.65566538910276, 4.0565408, 0.0]
      },
      {
        "species": [{ "element": "Er", "occu": 1 }],
        "abc": [-0.0, 0.15151927, 0.15151927],
        "properties": { "magmom": 0.0 },
        "label": "Er",
        "xyz": [0.0, 1.229288201482432, 1.229288201482432]
      },
      {
        "species": [{ "element": "Er", "occu": 1 }],
        "abc": [0.5, 0.34848073, 0.65151927],
        "properties": { "magmom": 0.0 },
        "label": "Er",
        "xyz": [3.77044862, 2.827252598517568, 5.285829001482432]
      },
      {
        "species": [{ "element": "Er", "occu": 1 }],
        "abc": [0.5, 0.65151927, 0.34848073],
        "properties": { "magmom": 0.0 },
        "label": "Er",
        "xyz": [3.77044862, 5.285829001482432, 2.827252598517568]
      },
      {
        "species": [{ "element": "Er", "occu": 1 }],
        "abc": [-0.0, 0.84848073, 0.84848073],
        "properties": { "magmom": 0.0 },
        "label": "Er",
        "xyz": [0.0, 6.883793398517567, 6.883793398517567]
      },
      {
        "species": [{ "element": "Er", "occu": 1 }],
        "abc": [-0.0, 0.70142097, 0.29857903],
        "properties": { "magmom": 0.0 },
        "label": "Er",
        "xyz": [0.0, 5.690685565561152, 2.4223960344388478]
      },
      {
        "species": [{ "element": "Er", "occu": 1 }],
        "abc": [0.5, 0.20141997, 0.20141997],
        "properties": { "magmom": 0.0 },
        "label": "Er",
        "xyz": [3.77044862, 1.634136652479552, 1.634136652479552]
      },
      {
        "species": [{ "element": "Er", "occu": 1 }],
        "abc": [0.5, 0.79858003, 0.79858003],
        "properties": { "magmom": 0.0 },
        "label": "Er",
        "xyz": [3.77044862, 6.478944947520447, 6.478944947520447]
      },
      {
        "species": [{ "element": "Er", "occu": 1 }],
        "abc": [-0.0, 0.29857903, 0.70142097],
        "properties": { "magmom": 0.0 },
        "label": "Er",
        "xyz": [0.0, 2.4223960344388478, 5.690685565561152]
      },
      {
        "species": [{ "element": "Al", "occu": 1 }],
        "abc": [0.19741462, 0.38134604, 0.38134604],
        "properties": { "magmom": 0.0 },
        "label": "Al",
        "xyz": [1.488683363093649, 3.093891540356864, 3.093891540356864]
      },
      {
        "species": [{ "element": "Al", "occu": 1 }],
        "abc": [0.6974136200000001, 0.11865396, 0.88134604],
        "properties": { "magmom": 0.0 },
        "label": "Al",
        "xyz": [5.259124442196409, 0.962649259643136, 7.150432340356864]
      },
      {
        "species": [{ "element": "Al", "occu": 1 }],
        "abc": [0.6974136200000001, 0.88134604, 0.11865396],
        "properties": { "magmom": 0.0 },
        "label": "Al",
        "xyz": [5.259124442196409, 7.150432340356864, 0.962649259643136]
      },
      {
        "species": [{ "element": "Al", "occu": 1 }],
        "abc": [0.19741462, 0.6186539600000001, 0.6186539600000001],
        "properties": { "magmom": 0.0 },
        "label": "Al",
        "xyz": [1.488683363093649, 5.019190059643136, 5.019190059643136]
      },
      {
        "species": [{ "element": "Al", "occu": 1 }],
        "abc": [0.30258638, 0.88134604, 0.11865396],
        "properties": { "magmom": 0.0 },
        "label": "Al",
        "xyz": [2.281772797803591, 7.150432340356864, 0.962649259643136]
      },
      {
        "species": [{ "element": "Al", "occu": 1 }],
        "abc": [0.30258638, 0.11865396, 0.88134604],
        "properties": { "magmom": 0.0 },
        "label": "Al",
        "xyz": [2.281772797803591, 0.962649259643136, 7.150432340356864]
      },
      {
        "species": [{ "element": "Al", "occu": 1 }],
        "abc": [0.80258538, 0.38134604, 0.38134604],
        "properties": { "magmom": 0.0 },
        "label": "Al",
        "xyz": [6.052213876906351, 3.093891540356864, 3.093891540356864]
      },
      {
        "species": [{ "element": "Al", "occu": 1 }],
        "abc": [0.80258538, 0.6186539600000001, 0.6186539600000001],
        "properties": { "magmom": 0.0 },
        "label": "Al",
        "xyz": [6.052213876906351, 5.019190059643136, 5.019190059643136]
      }
    ]
  },
  "task_ids": null,
  "uncorrected_energy_per_atom": null,
  "energy_per_atom": -23.4216218215,
  "formation_energy_per_atom": -0.373521389499998,
  "energy_above_hull": 0.016946609499999002,
  "is_stable": false,
  "equilibrium_reaction_energy_per_atom": null,
  "decomposes_to": null,
  "xas": null,
  "grain_boundaries": null,
  "band_gap": 0.0,
  "cbm": null,
  "vbm": null,
  "efermi": 4.01459981,
  "is_gap_direct": null,
  "is_metal": null,
  "es_source_calc_id": null,
  "bandstructure": null,
  "dos": null,
  "dos_energy_up": null,
  "dos_energy_down": null,
  "is_magnetic": null,
  "ordering": null,
  "total_magnetization": 4e-7,
  "total_magnetization_normalized_vol": null,
  "total_magnetization_normalized_formula_units": null,
  "num_magnetic_sites": null,
  "num_unique_magnetic_sites": null,
  "types_of_magnetic_species": null,
  "bulk_modulus": null,
  "shear_modulus": null,
  "universal_anisotropy": null,
  "homogeneous_poisson": null,
  "e_total": null,
  "e_ionic": null,
  "e_electronic": null,
  "n": null,
  "e_ij_max": null,
  "weighted_surface_energy_EV_PER_ANG2": null,
  "weighted_surface_energy": null,
  "weighted_work_function": null,
  "surface_anisotropy": null,
  "shape_factor": null,
  "has_reconstructed": null,
  "possible_species": null,
  "has_props": null,
  "theoretical": null,
  "database_IDs": null,
  "fields_not_requested": [
    "builder_meta",
    "nsites",
    "elements",
    "nelements",
    "composition",
    "composition_reduced",
    "chemsys",
    "symmetry",
    "property_name",
    "deprecated",
    "deprecation_reasons",
    "last_updated",
    "origins",
    "warnings",
    "task_ids",
    "uncorrected_energy_per_atom",
    "equilibrium_reaction_energy_per_atom",
    "decomposes_to",
    "xas",
    "grain_boundaries",
    "cbm",
    "vbm",
    "is_gap_direct",
    "is_metal",
    "es_source_calc_id",
    "bandstructure",
    "dos",
    "dos_energy_up",
    "dos_energy_down",
    "is_magnetic",
    "ordering",
    "total_magnetization_normalized_vol",
    "total_magnetization_normalized_formula_units",
    "num_magnetic_sites",
    "num_unique_magnetic_sites",
    "types_of_magnetic_species",
    "bulk_modulus",
    "shear_modulus",
    "universal_anisotropy",
    "homogeneous_poisson",
    "e_total",
    "e_ionic",
    "e_electronic",
    "n",
    "e_ij_max",
    "weighted_surface_energy_EV_PER_ANG2",
    "weighted_surface_energy",
    "weighted_work_function",
    "surface_anisotropy",
    "shape_factor",
    "has_reconstructed",
    "possible_species",
    "has_props",
    "theoretical",
    "database_IDs"
  ]
}
