{
  "builder_meta": null,
  "nsites": null,
  "elements": null,
  "nelements": null,
  "composition": null,
  "composition_reduced": null,
  "formula_pretty": "Er3Co",
  "formula_anonymous": "AB3",
  "chemsys": null,
  "volume": 387.67921161387915,
  "density": 9.60671767735374,
  "density_atomic": 24.229950725867447,
  "symmetry": null,
  "property_name": null,
  "material_id": "mp-1188770",
  "deprecated": null,
  "deprecation_reasons": null,
  "last_updated": null,
  "origins": null,
  "warnings": null,
  "structure": {
    "@module": "pymatgen.core.structure",
    "@class": "Structure",
    "charge": 0,
    "lattice": {
      "matrix": [
        [0.0, 0.0, 6.104596],
        [6.838953, 0.0, 0.0],
        [0.0, 9.285942, 0.0]
      ],
      "pbc": [true, true, true],
      "a": 6.104596,
      "b": 6.838953,
      "c": 9.285942,
      "alpha": 90.0,
      "beta": 90.0,
      "gamma": 90.0,
      "volume": 387.67921161387915
    },
    "properties": {},
    "sites": [
      {
        "species": [{ "element": "Er", "occu": 1 }],
        "abc": [0.323283, 0.675758, 0.065673],
        "properties": { "magmom": 0.0 },
        "label": "Er",
        "xyz": [4.621477201374, 0.6098356689659999, 1.9735121086679999]
      },
      {
        "species": [{ "element": "Er", "occu": 1 }],
        "abc": [0.176716999999999, 0.175758, 0.434326999999999],
        "properties": { "magmom": 0.0 },
        "label": "Er",
        "xyz": [1.202000701374, 4.033135331033991, 1.0787858913319939]
      },
      {
        "species": [{ "element": "Er", "occu": 1 }],
        "abc": [0.676717, 0.324242, 0.565673],
        "properties": { "magmom": 0.0 },
        "label": "Er",
        "xyz": [2.217475798626, 5.2528066689660005, 4.131083891332]
      },
      {
        "species": [{ "element": "Er", "occu": 1 }],
        "abc": [0.823283, 0.824241999999999, 0.934326999999999],
        "properties": { "magmom": 0.0 },
        "label": "Er",
        "xyz": [5.636952298625993, 8.676106331033992, 5.025810108668]
      },
      {
        "species": [{ "element": "Er", "occu": 1 }],
        "abc": [0.676717, 0.324242, 0.934326999999999],
        "properties": { "magmom": 0.0 },
        "label": "Er",
        "xyz": [2.217475798626, 8.676106331033992, 4.131083891332]
      },
      {
        "species": [{ "element": "Er", "occu": 1 }],
        "abc": [0.823283, 0.824241999999999, 0.565673],
        "properties": { "magmom": 0.0 },
        "label": "Er",
        "xyz": [5.636952298625993, 5.2528066689660005, 5.025810108668]
      },
      {
        "species": [{ "element": "Er", "occu": 1 }],
        "abc": [0.323283, 0.675758, 0.434326999999999],
        "properties": { "magmom": 0.0 },
        "label": "Er",
        "xyz": [4.621477201374, 4.033135331033991, 1.9735121086679999]
      },
      {
        "species": [{ "element": "Er", "occu": 1 }],
        "abc": [0.176716999999999, 0.175758, 0.065673],
        "properties": { "magmom": 0.0 },
        "label": "Er",
        "xyz": [1.202000701374, 0.6098356689659999, 1.0787858913319939]
      },
      {
        "species": [{ "element": "Er", "occu": 1 }],
        "abc": [0.865682, 0.540168, 0.25],
        "properties": { "magmom": 0.001 },
        "label": "Er",
        "xyz": [3.6941835641039997, 2.3214855, 5.284638874472]
      },
      {
        "species": [{ "element": "Er", "occu": 1 }],
        "abc": [0.634317999999999, 0.040167999999999, 0.25],
        "properties": { "magmom": 0.001 },
        "label": "Er",
        "xyz": [0.2747070641039932, 2.3214855, 3.8722551255279942]
      },
      {
        "species": [{ "element": "Er", "occu": 1 }],
        "abc": [0.134318, 0.459831999999999, 0.75],
        "properties": { "magmom": 0.001 },
        "label": "Er",
        "xyz": [3.1447694358959932, 6.964456500000001, 0.8199571255279999]
      },
      {
        "species": [{ "element": "Er", "occu": 1 }],
        "abc": [0.365682, 0.959831999999999, 0.75],
        "properties": { "magmom": 0.001 },
        "label": "Er",
        "xyz": [6.564245935895993, 6.964456500000001, 2.232340874472]
      },
      {
        "species": [{ "element": "Co", "occu": 1 }],
        "abc": [0.053543999999999, 0.888730999999999, 0.25],
        "properties": { "magmom": -0.002 },
        "label": "Co",
        "xyz": [6.077989538642994, 2.3214855, 0.3268644882239939]
      },
      {
        "species": [{ "element": "Co", "occu": 1 }],
        "abc": [0.446455999999999, 0.388731, 0.25],
        "properties": { "magmom": -0.002 },
        "label": "Co",
        "xyz": [2.658513038643, 2.3214855, 2.725433511775994]
      },
      {
        "species": [{ "element": "Co", "occu": 1 }],
        "abc": [0.946456, 0.11126899999999901, 0.75],
        "properties": { "magmom": -0.002 },
        "label": "Co",
        "xyz": [0.7609634613569932, 6.964456500000001, 5.7777315117759995]
      },
      {
        "species": [{ "element": "Co", "occu": 1 }],
        "abc": [0.553543999999999, 0.611269, 0.75],
        "properties": { "magmom": -0.002 },
        "label": "Co",
        "xyz": [4.180439961357, 6.964456500000001, 3.379162488223994]
      }
    ]
  },
  "task_ids": null,
  "uncorrected_energy_per_atom": null,
  "energy_per_atom": -5.383504798125,
  "formation_energy_per_atom": -0.17436151062499802,
  "energy_above_hull": 0.0,
  "is_stable": true,
  "equilibrium_reaction_energy_per_atom": null,
  "decomposes_to": null,
  "xas": null,
  "grain_boundaries": null,
  "band_gap": 0.0,
  "cbm": null,
  "vbm": null,
  "efermi": 3.5125565,
  "is_gap_direct": null,
  "is_metal": null,
  "es_source_calc_id": null,
  "bandstructure": null,
  "dos": null,
  "dos_energy_up": null,
  "dos_energy_down": null,
  "is_magnetic": null,
  "ordering": null,
  "total_magnetization": 0.004423,
  "total_magnetization_normalized_vol": null,
  "total_magnetization_normalized_formula_units": null,
  "num_magnetic_sites": null,
  "num_unique_magnetic_sites": null,
  "types_of_magnetic_species": null,
  "bulk_modulus": null,
  "shear_modulus": null,
  "universal_anisotropy": null,
  "homogeneous_poisson": null,
  "e_total": null,
  "e_ionic": null,
  "e_electronic": null,
  "n": null,
  "e_ij_max": null,
  "weighted_surface_energy_EV_PER_ANG2": null,
  "weighted_surface_energy": null,
  "weighted_work_function": null,
  "surface_anisotropy": null,
  "shape_factor": null,
  "has_reconstructed": null,
  "possible_species": null,
  "has_props": null,
  "theoretical": null,
  "database_IDs": null,
  "fields_not_requested": [
    "builder_meta",
    "nsites",
    "elements",
    "nelements",
    "composition",
    "composition_reduced",
    "chemsys",
    "symmetry",
    "property_name",
    "deprecated",
    "deprecation_reasons",
    "last_updated",
    "origins",
    "warnings",
    "task_ids",
    "uncorrected_energy_per_atom",
    "equilibrium_reaction_energy_per_atom",
    "decomposes_to",
    "xas",
    "grain_boundaries",
    "cbm",
    "vbm",
    "is_gap_direct",
    "is_metal",
    "es_source_calc_id",
    "bandstructure",
    "dos",
    "dos_energy_up",
    "dos_energy_down",
    "is_magnetic",
    "ordering",
    "total_magnetization_normalized_vol",
    "total_magnetization_normalized_formula_units",
    "num_magnetic_sites",
    "num_unique_magnetic_sites",
    "types_of_magnetic_species",
    "bulk_modulus",
    "shear_modulus",
    "universal_anisotropy",
    "homogeneous_poisson",
    "e_total",
    "e_ionic",
    "e_electronic",
    "n",
    "e_ij_max",
    "weighted_surface_energy_EV_PER_ANG2",
    "weighted_surface_energy",
    "weighted_work_function",
    "surface_anisotropy",
    "shape_factor",
    "has_reconstructed",
    "possible_species",
    "has_props",
    "theoretical",
    "database_IDs"
  ]
}
