{"builder_meta": null, "nsites": null, "elements": null, "nelements": null, "composition": null, "composition_reduced": null, "formula_pretty": "Er3C4", "formula_anonymous": "A3B4", "chemsys": null, "volume": 991.8048117488704, "density": 9.20541266461786, "density_atomic": 14.168640167841005, "symmetry": null, "property_name": null, "material_id": "mp-1203719", "deprecated": null, "deprecation_reasons": null, "last_updated": null, "origins": null, "warnings": null, "structure": {"@module": "pymatgen.core.structure", "@class": "Structure", "charge": 0, "lattice": {"matrix": [[7.94628896, -0.0, 0.0], [0.0, 7.94628896, -0.0], [-0.0, -0.0, 15.70715406]], "pbc": [true, true, true], "a": 7.94628896, "b": 7.94628896, "c": 15.70715406, "alpha": 90.0, "beta": 90.0, "gamma": 90.0, "volume": 991.8048117488704}, "properties": {}, "sites": [{"species": [{"element": "Er", "occu": 1}], "abc": [0.5, 0.5, 0.5], "properties": {"magmom": 0.0}, "label": "Er", "xyz": [3.97314448, 3.97314448, 7.85357703]}, {"species": [{"element": "Er", "occu": 1}], "abc": [0.0, -0.0, 0.0], "properties": {"magmom": 0.0}, "label": "Er", "xyz": [0.0, 0.0, 0.0]}, {"species": [{"element": "Er", "occu": 1}], "abc": [0.5, 0.5, 0.18725472], "properties": {"magmom": 0.0}, "label": "Er", "xyz": [3.97314448, 3.97314448, 2.9412387355021634]}, {"species": [{"element": "Er", "occu": 1}], "abc": [0.0, -0.0, 0.68725472], "properties": {"magmom": 0.0}, "label": "Er", "xyz": [0.0, 0.0, 10.794815765502163]}, {"species": [{"element": "Er", "occu": 1}], "abc": [0.5, 0.5, 0.81274528], "properties": {"magmom": 0.0}, "label": "Er", "xyz": [3.97314448, 3.97314448, 12.765915324497838]}, {"species": [{"element": "Er", "occu": 1}], "abc": [0.0, -0.0, 0.31274528], "properties": {"magmom": 0.0}, "label": "Er", "xyz": [0.0, 0.0, 4.912338294497837]}, {"species": [{"element": "Er", "occu": 1}], "abc": [0.70278635, 0.9045507700000001, 0.5], "properties": {"magmom": 0.0}, "label": "Er", "xyz": [5.584543414243696, 7.1878217974105, 7.85357703]}, {"species": [{"element": "Er", "occu": 1}], "abc": [0.29721265, 0.09544923, 0.5], "properties": {"magmom": 0.0}, "label": "Er", "xyz": [2.3617375994673444, 0.7584671625895008, 7.85357703]}, {"species": [{"element": "Er", "occu": 1}], "abc": [0.79721365, 0.40455077, 0.0], "properties": {"magmom": 0.0}, "label": "Er", "xyz": [6.334890025756304, 3.2146773174104992, 0.0]}, {"species": [{"element": "Er", "occu": 1}], "abc": [0.20278635, 0.59544923, 0.0], "properties": {"magmom": 0.0}, "label": "Er", "xyz": [1.611398934243696, 4.731611642589502, 0.0]}, {"species": [{"element": "Er", "occu": 1}], "abc": [0.9045507700000001, 0.29721265, 0.5], "properties": {"magmom": 0.0}, "label": "Er", "xyz": [7.1878217974105, 2.3617375994673444, 7.85357703]}, {"species": [{"element": "Er", "occu": 1}], "abc": [0.09544923, 0.70278635, 0.5], "properties": {"magmom": 0.0}, "label": "Er", "xyz": [0.7584671625895008, 5.584543414243696, 7.85357703]}, {"species": [{"element": "Er", "occu": 1}], "abc": [0.40455077, 0.20278635, 0.0], "properties": {"magmom": 0.0}, "label": "Er", "xyz": [3.2146773174104992, 1.611398934243696, 0.0]}, {"species": [{"element": "Er", "occu": 1}], "abc": [0.59544923, 0.79721365, 0.0], "properties": {"magmom": 0.0}, "label": "Er", "xyz": [4.731611642589502, 6.334890025756304, 0.0]}, {"species": [{"element": "Er", "occu": 1}], "abc": [0.78815081, 0.6000893700000001, 0.35429231], "properties": {"magmom": 0.0}, "label": "Er", "xyz": [6.262874080318058, 4.768483535844356, 5.564923895443279]}, {"species": [{"element": "Er", "occu": 1}], "abc": [0.21184919, 0.39991063, 0.35429231], "properties": {"magmom": 0.0}, "label": "Er", "xyz": [1.6834148796819424, 3.177805424155645, 5.564923895443279]}, {"species": [{"element": "Er", "occu": 1}], "abc": [0.71184919, 0.10008937, 0.85429231], "properties": {"magmom": 0.0}, "label": "Er", "xyz": [5.656559359681943, 0.7953390558443553, 13.41850092544328]}, {"species": [{"element": "Er", "occu": 1}], "abc": [0.28815081, 0.89991063, 0.85429231], "properties": {"magmom": 0.0}, "label": "Er", "xyz": [2.2897296003180574, 7.150949904155645, 13.41850092544328]}, {"species": [{"element": "Er", "occu": 1}], "abc": [0.6000893700000001, 0.21184919, 0.35429231], "properties": {"magmom": 0.0}, "label": "Er", "xyz": [4.768483535844356, 1.6834148796819424, 5.564923895443279]}, {"species": [{"element": "Er", "occu": 1}], "abc": [0.39991063, 0.78815081, 0.35429231], "properties": {"magmom": 0.0}, "label": "Er", "xyz": [3.177805424155645, 6.262874080318058, 5.564923895443279]}, {"species": [{"element": "Er", "occu": 1}], "abc": [0.10008937, 0.28815081, 0.85429231], "properties": {"magmom": 0.0}, "label": "Er", "xyz": [0.7953390558443553, 2.2897296003180574, 13.41850092544328]}, {"species": [{"element": "Er", "occu": 1}], "abc": [0.89991063, 0.71184919, 0.85429231], "properties": {"magmom": 0.0}, "label": "Er", "xyz": [7.150949904155645, 5.656559359681943, 13.41850092544328]}, {"species": [{"element": "Er", "occu": 1}], "abc": [0.21184919, 0.39991063, 0.6457076900000001], "properties": {"magmom": 0.0}, "label": "Er", "xyz": [1.6834148796819424, 3.177805424155645, 10.142230164556723]}, {"species": [{"element": "Er", "occu": 1}], "abc": [0.78815081, 0.6000893700000001, 0.6457076900000001], "properties": {"magmom": 0.0}, "label": "Er", "xyz": [6.262874080318058, 4.768483535844356, 10.142230164556723]}, {"species": [{"element": "Er", "occu": 1}], "abc": [0.28815081, 0.89991063, 0.14570769], "properties": {"magmom": 0.0}, "label": "Er", "xyz": [2.2897296003180574, 7.150949904155645, 2.2886531345567214]}, {"species": [{"element": "Er", "occu": 1}], "abc": [0.71184919, 0.10008937, 0.14570769], "properties": {"magmom": 0.0}, "label": "Er", "xyz": [5.656559359681943, 0.7953390558443553, 2.2886531345567214]}, {"species": [{"element": "Er", "occu": 1}], "abc": [0.39991063, 0.78815081, 0.6457076900000001], "properties": {"magmom": 0.0}, "label": "Er", "xyz": [3.177805424155645, 6.262874080318058, 10.142230164556723]}, {"species": [{"element": "Er", "occu": 1}], "abc": [0.6000893700000001, 0.21184919, 0.6457076900000001], "properties": {"magmom": 0.0}, "label": "Er", "xyz": [4.768483535844356, 1.6834148796819424, 10.142230164556723]}, {"species": [{"element": "Er", "occu": 1}], "abc": [0.89991063, 0.71184919, 0.14570769], "properties": {"magmom": 0.0}, "label": "Er", "xyz": [7.150949904155645, 5.656559359681943, 2.2886531345567214]}, {"species": [{"element": "Er", "occu": 1}], "abc": [0.10008937, 0.28815081, 0.14570769], "properties": {"magmom": 0.0}, "label": "Er", "xyz": [0.7953390558443553, 2.2897296003180574, 2.2886531345567214]}, {"species": [{"element": "C", "occu": 1}], "abc": [0.5, 0.5, 0.958623], "properties": {"magmom": -0.0}, "label": "C", "xyz": [3.97314448, 3.97314448, 15.05723914645938]}, {"species": [{"element": "C", "occu": 1}], "abc": [0.0, -0.0, 0.458623], "properties": {"magmom": -0.0}, "label": "C", "xyz": [0.0, 0.0, 7.20366211645938]}, {"species": [{"element": "C", "occu": 1}], "abc": [0.5, 0.5, 0.041377], "properties": {"magmom": -0.0}, "label": "C", "xyz": [3.97314448, 3.97314448, 0.64991491354062]}, {"species": [{"element": "C", "occu": 1}], "abc": [0.0, -0.0, 0.541377], "properties": {"magmom": -0.0}, "label": "C", "xyz": [0.0, 0.0, 8.50349194354062]}, {"species": [{"element": "C", "occu": 1}], "abc": [0.5, 0.5, 0.34308238], "properties": {"magmom": 0.0}, "label": "C", "xyz": [3.97314448, 3.97314448, 5.388847797931463]}, {"species": [{"element": "C", "occu": 1}], "abc": [0.0, -0.0, 0.84308238], "properties": {"magmom": 0.0}, "label": "C", "xyz": [0.0, 0.0, 13.242424827931464]}, {"species": [{"element": "C", "occu": 1}], "abc": [0.5, 0.5, 0.65691762], "properties": {"magmom": 0.0}, "label": "C", "xyz": [3.97314448, 3.97314448, 10.318306262068537]}, {"species": [{"element": "C", "occu": 1}], "abc": [0.0, -0.0, 0.15691762], "properties": {"magmom": 0.0}, "label": "C", "xyz": [0.0, 0.0, 2.4647292320685374]}, {"species": [{"element": "C", "occu": 1}], "abc": [0.60605116, 0.19601293, 0.5], "properties": {"magmom": 0.0}, "label": "C", "xyz": [4.815857641903194, 1.557575381676253, 7.85357703]}, {"species": [{"element": "C", "occu": 1}], "abc": [0.39394884, 0.80398707, 0.5], "properties": {"magmom": 0.0}, "label": "C", "xyz": [3.130431318096807, 6.388713578323748, 7.85357703]}, {"species": [{"element": "C", "occu": 1}], "abc": [0.89394884, 0.69601293, 0.0], "properties": {"magmom": 0.0}, "label": "C", "xyz": [7.103575798096807, 5.5307198616762525, 0.0]}, {"species": [{"element": "C", "occu": 1}], "abc": [0.10605116, 0.30398707, 0.0], "properties": {"magmom": 0.0}, "label": "C", "xyz": [0.8427131619031937, 2.4155690983237474, 0.0]}, {"species": [{"element": "C", "occu": 1}], "abc": [0.19601293, 0.39394884, 0.5], "properties": {"magmom": 0.0}, "label": "C", "xyz": [1.557575381676253, 3.130431318096807, 7.85357703]}, {"species": [{"element": "C", "occu": 1}], "abc": [0.80398707, 0.60605116, 0.5], "properties": {"magmom": 0.0}, "label": "C", "xyz": [6.388713578323748, 4.815857641903194, 7.85357703]}, {"species": [{"element": "C", "occu": 1}], "abc": [0.69601293, 0.10605116, 0.0], "properties": {"magmom": 0.0}, "label": "C", "xyz": [5.5307198616762525, 0.8427131619031937, 0.0]}, {"species": [{"element": "C", "occu": 1}], "abc": [0.30398707, 0.89394884, 0.0], "properties": {"magmom": 0.0}, "label": "C", "xyz": [2.4155690983237474, 7.103575798096807, 0.0]}, {"species": [{"element": "C", "occu": 1}], "abc": [0.69359636, 0.9016324800000001, 0.32805377], "properties": {"magmom": -0.0}, "label": "C", "xyz": [5.511517098164186, 7.164632221801422, 5.152791105353807]}, {"species": [{"element": "C", "occu": 1}], "abc": [0.30640364000000003, 0.09836752, 0.32805377], "properties": {"magmom": -0.0}, "label": "C", "xyz": [2.4347718618358147, 0.7816567381985793, 5.152791105353807]}, {"species": [{"element": "C", "occu": 1}], "abc": [0.80640364, 0.40163248, 0.82805377], "properties": {"magmom": -0.0}, "label": "C", "xyz": [6.407916341835815, 3.191487741801421, 13.006368135353807]}, {"species": [{"element": "C", "occu": 1}], "abc": [0.19359636, 0.59836752, 0.82805377], "properties": {"magmom": -0.0}, "label": "C", "xyz": [1.5383726181641857, 4.75480121819858, 13.006368135353807]}, {"species": [{"element": "C", "occu": 1}], "abc": [0.9016324800000001, 0.30640364000000003, 0.32805377], "properties": {"magmom": -0.0}, "label": "C", "xyz": [7.164632221801422, 2.4347718618358147, 5.152791105353807]}, {"species": [{"element": "C", "occu": 1}], "abc": [0.09836752, 0.69359636, 0.32805377], "properties": {"magmom": -0.0}, "label": "C", "xyz": [0.7816567381985793, 5.511517098164186, 5.152791105353807]}, {"species": [{"element": "C", "occu": 1}], "abc": [0.40163248, 0.19359636, 0.82805377], "properties": {"magmom": -0.0}, "label": "C", "xyz": [3.191487741801421, 1.5383726181641857, 13.006368135353807]}, {"species": [{"element": "C", "occu": 1}], "abc": [0.59836752, 0.80640364, 0.82805377], "properties": {"magmom": -0.0}, "label": "C", "xyz": [4.75480121819858, 6.407916341835815, 13.006368135353807]}, {"species": [{"element": "C", "occu": 1}], "abc": [0.30640364000000003, 0.09836752, 0.67194623], "properties": {"magmom": -0.0}, "label": "C", "xyz": [2.4347718618358147, 0.7816567381985793, 10.554362954646194]}, {"species": [{"element": "C", "occu": 1}], "abc": [0.69359636, 0.9016324800000001, 0.67194623], "properties": {"magmom": -0.0}, "label": "C", "xyz": [5.511517098164186, 7.164632221801422, 10.554362954646194]}, {"species": [{"element": "C", "occu": 1}], "abc": [0.19359636, 0.59836752, 0.17194623], "properties": {"magmom": -0.0}, "label": "C", "xyz": [1.5383726181641857, 4.75480121819858, 2.700785924646194]}, {"species": [{"element": "C", "occu": 1}], "abc": [0.80640364, 0.40163248, 0.17194623], "properties": {"magmom": -0.0}, "label": "C", "xyz": [6.407916341835815, 3.191487741801421, 2.700785924646194]}, {"species": [{"element": "C", "occu": 1}], "abc": [0.09836752, 0.69359636, 0.67194623], "properties": {"magmom": -0.0}, "label": "C", "xyz": [0.7816567381985793, 5.511517098164186, 10.554362954646194]}, {"species": [{"element": "C", "occu": 1}], "abc": [0.9016324800000001, 0.30640364000000003, 0.67194623], "properties": {"magmom": -0.0}, "label": "C", "xyz": [7.164632221801422, 2.4347718618358147, 10.554362954646194]}, {"species": [{"element": "C", "occu": 1}], "abc": [0.59836752, 0.80640364, 0.17194623], "properties": {"magmom": -0.0}, "label": "C", "xyz": [4.75480121819858, 6.407916341835815, 2.700785924646194]}, {"species": [{"element": "C", "occu": 1}], "abc": [0.40163248, 0.19359636, 0.17194623], "properties": {"magmom": -0.0}, "label": "C", "xyz": [3.191487741801421, 1.5383726181641857, 2.700785924646194]}, {"species": [{"element": "C", "occu": 1}], "abc": [0.64992141, 0.85007859, 0.25], "properties": {"magmom": 0.0}, "label": "C", "xyz": [5.164463325150634, 6.754970114849367, 3.926788515]}, {"species": [{"element": "C", "occu": 1}], "abc": [0.35007859, 0.14992141, 0.25], "properties": {"magmom": 0.0}, "label": "C", "xyz": [2.781825634849367, 1.1913188451506338, 3.926788515]}, {"species": [{"element": "C", "occu": 1}], "abc": [0.85007859, 0.35007859, 0.75], "properties": {"magmom": 0.0}, "label": "C", "xyz": [6.754970114849367, 2.781825634849367, 11.780365545]}, {"species": [{"element": "C", "occu": 1}], "abc": [0.14992141, 0.64992141, 0.75], "properties": {"magmom": 0.0}, "label": "C", "xyz": [1.1913188451506338, 5.164463325150634, 11.780365545]}, {"species": [{"element": "C", "occu": 1}], "abc": [0.85007859, 0.35007859, 0.25], "properties": {"magmom": 0.0}, "label": "C", "xyz": [6.754970114849367, 2.781825634849367, 3.926788515]}, {"species": [{"element": "C", "occu": 1}], "abc": [0.14992141, 0.64992141, 0.25], "properties": {"magmom": 0.0}, "label": "C", "xyz": [1.1913188451506338, 5.164463325150634, 3.926788515]}, {"species": [{"element": "C", "occu": 1}], "abc": [0.35007859, 0.14992141, 0.75], "properties": {"magmom": 0.0}, "label": "C", "xyz": [2.781825634849367, 1.1913188451506338, 11.780365545]}, {"species": [{"element": "C", "occu": 1}], "abc": [0.64992141, 0.85007859, 0.75], "properties": {"magmom": 0.0}, "label": "C", "xyz": [5.164463325150634, 6.754970114849367, 11.780365545]}]}, "task_ids": null, "uncorrected_energy_per_atom": null, "energy_per_atom": -7.578835797857143, "formation_energy_per_atom": -0.34771888357142705, "energy_above_hull": 0.0, "is_stable": true, "equilibrium_reaction_energy_per_atom": null, "decomposes_to": null, "xas": null, "grain_boundaries": null, "band_gap": 0.0, "cbm": null, "vbm": null, "efermi": 4.36326579, "is_gap_direct": null, "is_metal": null, "es_source_calc_id": null, "bandstructure": null, "dos": null, "dos_energy_up": null, "dos_energy_down": null, "is_magnetic": null, "ordering": null, "total_magnetization": 7e-07, "total_magnetization_normalized_vol": null, "total_magnetization_normalized_formula_units": null, "num_magnetic_sites": null, "num_unique_magnetic_sites": null, "types_of_magnetic_species": null, "bulk_modulus": null, "shear_modulus": null, "universal_anisotropy": null, "homogeneous_poisson": null, "e_total": null, "e_ionic": null, "e_electronic": null, "n": null, "e_ij_max": null, "weighted_surface_energy_EV_PER_ANG2": null, "weighted_surface_energy": null, "weighted_work_function": null, "surface_anisotropy": null, "shape_factor": null, "has_reconstructed": null, "possible_species": null, "has_props": null, "theoretical": null, "database_IDs": null, "fields_not_requested": ["builder_meta", "nsites", "elements", "nelements", "composition", "composition_reduced", "chemsys", "symmetry", "property_name", "deprecated", "deprecation_reasons", "last_updated", "origins", "warnings", "task_ids", "uncorrected_energy_per_atom", "equilibrium_reaction_energy_per_atom", "decomposes_to", "xas", "grain_boundaries", "cbm", "vbm", "is_gap_direct", "is_metal", "es_source_calc_id", "bandstructure", "dos", "dos_energy_up", "dos_energy_down", "is_magnetic", "ordering", "total_magnetization_normalized_vol", "total_magnetization_normalized_formula_units", "num_magnetic_sites", "num_unique_magnetic_sites", "types_of_magnetic_species", "bulk_modulus", "shear_modulus", "universal_anisotropy", "homogeneous_poisson", "e_total", "e_ionic", "e_electronic", "n", "e_ij_max", "weighted_surface_energy_EV_PER_ANG2", "weighted_surface_energy", "weighted_work_function", "surface_anisotropy", "shape_factor", "has_reconstructed", "possible_species", "has_props", "theoretical", "database_IDs"]}