{
  "builder_meta": null,
  "nsites": null,
  "elements": null,
  "nelements": null,
  "composition": null,
  "composition_reduced": null,
  "formula_pretty": "Er3Ga5",
  "formula_anonymous": "A3B5",
  "chemsys": null,
  "volume": 649.2535812890376,
  "density": 8.699892791475927,
  "density_atomic": 20.289174415282424,
  "symmetry": null,
  "property_name": null,
  "material_id": "mp-1197972",
  "deprecated": null,
  "deprecation_reasons": null,
  "last_updated": null,
  "origins": null,
  "warnings": null,
  "structure": {
    "@module": "pymatgen.core.structure",
    "@class": "Structure",
    "charge": 0,
    "lattice": {
      "matrix": [
        [7.635e-5, -2.1240000000000003e-5, -6.03808248],
        [7.999e-5, -9.52351222, -3.2090000000000006e-5],
        [-11.29062984, 9.437e-5, 0.00014222]
      ],
      "pbc": [true, true, true],
      "a": 6.03808248052007,
      "b": 9.523512220389991,
      "c": 11.290629841290105,
      "alpha": 90.00096013476366,
      "beta": 90.00144620609247,
      "gamma": 89.9996053848045,
      "volume": 649.2535812890376
    },
    "properties": {},
    "sites": [
      {
        "species": [{ "element": "Er", "occu": 1 }],
        "abc": [0.65096231, 0.75000134, 0.42331801],
        "properties": { "magmom": 0.0 },
        "label": "Er",
        "xyz": [-4.779417261935864, -7.142620804425236, -3.930527982406948]
      },
      {
        "species": [{ "element": "Er", "occu": 1 }],
        "abc": [0.84897982, 0.750009399999999, 0.92330979],
        "properties": { "magmom": -0.0 },
        "label": "Er",
        "xyz": [-10.42462425367697, -7.1426545856013535, -5.126102931698866]
      },
      {
        "species": [{ "element": "Er", "occu": 1 }],
        "abc": [0.34903114, 0.24999324, 0.57667413],
        "properties": { "magmom": -0.0 },
        "label": "Er",
        "xyz": [-6.5109674946472325, -2.3807666687411584, -2.1074048190967303]
      },
      {
        "species": [{ "element": "Er", "occu": 1 }],
        "abc": [0.15101853, 0.24999576, 0.07670362],
        "properties": { "magmom": -0.0 },
        "label": "Er",
        "xyz": [-0.8660006533824129, -2.3808336444211458, -0.9118594537234564]
      },
      {
        "species": [{ "element": "Er", "occu": 1 }],
        "abc": [0.61064931, 0.98932534, 0.148418],
        "properties": { "magmom": -0.0 },
        "label": "Er",
        "xyz": [-1.6756069403843548, -9.42185092903034, -3.687161539577289]
      },
      {
        "species": [{ "element": "Er", "occu": 1 }],
        "abc": [0.88932458, 0.51067471, 0.64837581],
        "properties": { "magmom": 0.0 },
        "label": "Er",
        "xyz": [-7.320462519118434, -4.863374543158845, -5.369739341075104]
      },
      {
        "species": [{ "element": "Er", "occu": 1 }],
        "abc": [0.38934102, 0.48929245, 0.85158556],
        "properties": { "magmom": -0.0 },
        "label": "Er",
        "xyz": [-9.614868470359157, -4.659710532202706, -2.350767780503707]
      },
      {
        "species": [{ "element": "Er", "occu": 1 }],
        "abc": [0.11066747, 0.01065333, 0.351619399999999],
        "properties": { "magmom": 0.0 },
        "label": "Er",
        "xyz": [-3.9699951883416835, -0.1014262866929774, -0.6681696462672173]
      },
      {
        "species": [{ "element": "Er", "occu": 1 }],
        "abc": [0.38935082, 0.01070891, 0.85158403],
        "properties": { "magmom": -0.0 },
        "label": "Er",
        "xyz": [-9.614889476844636, -0.10191434107438592, -2.3508115961838087]
      },
      {
        "species": [{ "element": "Er", "occu": 1 }],
        "abc": [0.11066388, 0.48934135, 0.35162018],
        "properties": { "magmom": 0.0 },
        "label": "Er",
        "xyz": [-3.969965705052347, -4.660217494580722, -0.6681633305387443]
      },
      {
        "species": [{ "element": "Er", "occu": 1 }],
        "abc": [0.61065163, 0.51067334, 0.14841753],
        "properties": { "magmom": -0.0 },
        "label": "Er",
        "xyz": [-1.675639920984678, -4.863402757996529, -3.687160188052806]
      },
      {
        "species": [{ "element": "Er", "occu": 1 }],
        "abc": [0.88932711, 0.9893263800000001, 0.64838014],
        "properties": { "magmom": -0.0 },
        "label": "Er",
        "xyz": [-7.320473120005392, -9.42181957117237, -5.369769976740056]
      },
      {
        "species": [{ "element": "Ga", "occu": 1 }],
        "abc": [0.62711003, 0.44659151, 0.41003521],
        "properties": { "magmom": -0.0 },
        "label": "Ga",
        "xyz": [-4.62947217477099, -4.253094327627522, -3.7864981010892635]
      },
      {
        "species": [{ "element": "Ga", "occu": 1 }],
        "abc": [0.87291366, 0.05341447, 0.90998704],
        "properties": { "magmom": 0.0 },
        "label": "Ga",
        "xyz": [-10.274255908255876, -0.508626022978997, -5.270596972712191]
      },
      {
        "species": [{ "element": "Ga", "occu": 1 }],
        "abc": [0.37289207, 0.94660827, 0.58996637],
        "properties": { "magmom": -0.0 },
        "label": "Ga",
        "xyz": [-6.6609877122134185, -9.014987671999291, -2.2514995464401766]
      },
      {
        "species": [{ "element": "Ga", "occu": 1 }],
        "abc": [0.12710631, 0.55341158, 0.09001032],
        "properties": { "magmom": 0.0 },
        "label": "Ga",
        "xyz": [-1.0162192329408961, -5.2704161502836335, -0.7674833412183405]
      },
      {
        "species": [{ "element": "Ga", "occu": 1 }],
        "abc": [0.372898, 0.55338722, 0.5899713],
        "properties": { "magmom": -0.0 },
        "label": "Ga",
        "xyz": [-6.661074828317563, -5.270142196823768, -2.2515227331046437]
      },
      {
        "species": [{ "element": "Ga", "occu": 1 }],
        "abc": [0.12710689, 0.9465864700000001, 0.09001535000000001],
        "properties": { "magmom": 0.0 },
        "label": "Ga",
        "xyz": [-1.0162445747052573, -9.014822019333428, -0.7674994595730324]
      },
      {
        "species": [{ "element": "Ga", "occu": 1 }],
        "abc": [0.62711276, 0.0534052, 0.41003356],
        "properties": { "magmom": -0.0 },
        "label": "Ga",
        "xyz": [-4.629484995996257, -0.5085796998195092, -3.78650196794041]
      },
      {
        "species": [{ "element": "Ga", "occu": 1 }],
        "abc": [0.872906299999999, 0.44659764, 0.9099856900000001],
        "properties": { "magmom": 0.0 },
        "label": "Ga",
        "xyz": [-10.274209215745762, -4.253110747143407, -5.270565149865053]
      },
      {
        "species": [{ "element": "Ga", "occu": 1 }],
        "abc": [0.32265513, 0.75000369, 0.24767308000000002],
        "properties": { "magmom": 0.0 },
        "label": "Ga",
        "xyz": [-2.796300440098369, -7.142652787046494, -1.9482071310880968]
      },
      {
        "species": [{ "element": "Ga", "occu": 1 }],
        "abc": [0.17727942, 0.75000414, 0.74764069],
        "properties": { "magmom": 0.0 },
        "label": "Ga",
        "xyz": [-8.441260755997314, -7.142606802903558, -1.0703454981404823]
      },
      {
        "species": [{ "element": "Ga", "occu": 1 }],
        "abc": [0.6773372, 0.24999226, 0.7523075300000001],
        "properties": { "magmom": -0.0 },
        "label": "Ga",
        "xyz": [-8.493954135498598, -2.380747734395939, -4.089718909446963]
      },
      {
        "species": [{ "element": "Ga", "occu": 1 }],
        "abc": [0.822721199999999, 0.24999582, 0.25238024],
        "properties": { "magmom": 0.0 },
        "label": "Ga",
        "xyz": [-2.8494490568410993, -2.38083190419396, -4.967630592492701]
      },
      {
        "species": [{ "element": "Ga", "occu": 1 }],
        "abc": [0.12686192, 0.75000562, 0.49466894],
        "properties": { "magmom": 0.0 },
        "label": "Ga",
        "xyz": [-5.585054216028033, -7.14264369977799, -0.7659564523948605]
      },
      {
        "species": [{ "element": "Ga", "occu": 1 }],
        "abc": [0.37311145, 0.75000192, 0.994565599999999],
        "properties": { "magmom": -0.0 },
        "label": "Ga",
        "xyz": [-11.229183561484705, -7.142566517874989, -2.252760329774377]
      },
      {
        "species": [{ "element": "Ga", "occu": 1 }],
        "abc": [0.8731565800000001, 0.24999429999999903, 0.50537897],
        "properties": { "magmom": -0.0 },
        "label": "Ga",
        "xyz": [-5.705960216641524, -2.380794624212697, -5.272127595314693]
      },
      {
        "species": [{ "element": "Ga", "occu": 1 }],
        "abc": [0.62688795, 0.24999359000000002, 0.00537147],
        "properties": { "magmom": -0.0 },
        "label": "Ga",
        "xyz": [-0.0605794195844182, -2.3808298174811044, -3.7852084061819555]
      },
      {
        "species": [{ "element": "Ga", "occu": 1 }],
        "abc": [0.9008813, 0.75000406, 0.19853409],
        "properties": { "magmom": -0.0 },
        "label": "Ga",
        "xyz": [-2.241446145699231, -7.142673229516352, -5.43959142620163]
      },
      {
        "species": [{ "element": "Ga", "occu": 1 }],
        "abc": [0.59914299, 0.75000559, 0.69847927],
        "properties": { "magmom": -0.0 },
        "label": "Ga",
        "xyz": [-7.886165150968986, -7.142634211741708, -3.617599520891419]
      },
      {
        "species": [{ "element": "Ga", "occu": 1 }],
        "abc": [0.09910297, 0.25000078, 0.80146684],
        "properties": { "magmom": -0.0 },
        "label": "Ga",
        "xyz": [-9.049037855400353, -2.3808119538609236, -0.598285944784011]
      },
      {
        "species": [{ "element": "Ga", "occu": 1 }],
        "abc": [0.40084626, 0.24999432, 0.30152124],
        "properties": { "magmom": 0.0 },
        "label": "Ga",
        "xyz": [-3.404314108080194, -2.380804020865734, -2.4203079196465005]
      }
    ]
  },
  "task_ids": null,
  "uncorrected_energy_per_atom": null,
  "energy_per_atom": -20.5938646453125,
  "formation_energy_per_atom": -0.7200914890625001,
  "energy_above_hull": 0.0054825328125000005,
  "is_stable": false,
  "equilibrium_reaction_energy_per_atom": null,
  "decomposes_to": null,
  "xas": null,
  "grain_boundaries": null,
  "band_gap": 0.0,
  "cbm": null,
  "vbm": null,
  "efermi": 3.62074335,
  "is_gap_direct": null,
  "is_metal": null,
  "es_source_calc_id": null,
  "bandstructure": null,
  "dos": null,
  "dos_energy_up": null,
  "dos_energy_down": null,
  "is_magnetic": null,
  "ordering": null,
  "total_magnetization": 0.0,
  "total_magnetization_normalized_vol": null,
  "total_magnetization_normalized_formula_units": null,
  "num_magnetic_sites": null,
  "num_unique_magnetic_sites": null,
  "types_of_magnetic_species": null,
  "bulk_modulus": null,
  "shear_modulus": null,
  "universal_anisotropy": null,
  "homogeneous_poisson": null,
  "e_total": null,
  "e_ionic": null,
  "e_electronic": null,
  "n": null,
  "e_ij_max": null,
  "weighted_surface_energy_EV_PER_ANG2": null,
  "weighted_surface_energy": null,
  "weighted_work_function": null,
  "surface_anisotropy": null,
  "shape_factor": null,
  "has_reconstructed": null,
  "possible_species": null,
  "has_props": null,
  "theoretical": null,
  "database_IDs": null,
  "fields_not_requested": [
    "builder_meta",
    "nsites",
    "elements",
    "nelements",
    "composition",
    "composition_reduced",
    "chemsys",
    "symmetry",
    "property_name",
    "deprecated",
    "deprecation_reasons",
    "last_updated",
    "origins",
    "warnings",
    "task_ids",
    "uncorrected_energy_per_atom",
    "equilibrium_reaction_energy_per_atom",
    "decomposes_to",
    "xas",
    "grain_boundaries",
    "cbm",
    "vbm",
    "is_gap_direct",
    "is_metal",
    "es_source_calc_id",
    "bandstructure",
    "dos",
    "dos_energy_up",
    "dos_energy_down",
    "is_magnetic",
    "ordering",
    "total_magnetization_normalized_vol",
    "total_magnetization_normalized_formula_units",
    "num_magnetic_sites",
    "num_unique_magnetic_sites",
    "types_of_magnetic_species",
    "bulk_modulus",
    "shear_modulus",
    "universal_anisotropy",
    "homogeneous_poisson",
    "e_total",
    "e_ionic",
    "e_electronic",
    "n",
    "e_ij_max",
    "weighted_surface_energy_EV_PER_ANG2",
    "weighted_surface_energy",
    "weighted_work_function",
    "surface_anisotropy",
    "shape_factor",
    "has_reconstructed",
    "possible_species",
    "has_props",
    "theoretical",
    "database_IDs"
  ]
}
