{"builder_meta": null, "nsites": null, "elements": null, "nelements": null, "composition": null, "composition_reduced": null, "formula_pretty": "Er3Ge4", "formula_anonymous": "A3B4", "chemsys": null, "volume": 298.4593706388535, "density": 8.81665427087358, "density_atomic": 21.31852647420382, "symmetry": null, "property_name": null, "material_id": "mp-1711", "deprecated": null, "deprecation_reasons": null, "last_updated": null, "origins": null, "warnings": null, "structure": {"@module": "pymatgen.core.structure", "@class": "Structure", "charge": 0, "lattice": {"matrix": [[4.01528955, -0.0, -0.0], [-2.00764529, 5.26764478, 0.0], [-0.0, 0.0, 14.11080757]], "pbc": [true, true, true], "a": 4.01528955, "b": 5.637261847627839, "c": 14.11080757, "alpha": 90.0, "beta": 90.0, "gamma": 110.8632290651122, "volume": 298.4593706388535}, "properties": {}, "sites": [{"species": [{"element": "Er", "occu": 1}], "abc": [0.33124021, 0.66248142, 0.59668056], "properties": {"magmom": 0.0}, "label": "Er", "xyz": [-2.3488227063328537e-06, 3.4897167939099876, 8.41964456291984]}, {"species": [{"element": "Er", "occu": 1}], "abc": [0.66875979, 0.33751858, 0.40331944000000003], "properties": {"magmom": 0.0}, "label": "Er", "xyz": [2.0076466088227063, 1.7779279860900126, 5.691163007080162]}, {"species": [{"element": "Er", "occu": 1}], "abc": [0.66875979, 0.33751858, 0.09668056], "properties": {"magmom": 0.0}, "label": "Er", "xyz": [2.0076466088227063, 1.7779279860900126, 1.3642407779198393]}, {"species": [{"element": "Er", "occu": 1}], "abc": [0.33124021, 0.66248142, 0.90331944], "properties": {"magmom": 0.0}, "label": "Er", "xyz": [-2.3488227063328537e-06, 3.4897167939099876, 12.746566792080161]}, {"species": [{"element": "Er", "occu": 1}], "abc": [0.95252523, 0.90505046, 0.25], "properties": {"magmom": -0.0}, "label": "Er", "xyz": [2.007644308899013, 4.7674843312555995, 3.5277018925]}, {"species": [{"element": "Er", "occu": 1}], "abc": [0.04747477, 0.09494954, 0.75], "properties": {"magmom": -0.0}, "label": "Er", "xyz": [-4.889901311644351e-08, 0.5001604487444012, 10.5831056775]}, {"species": [{"element": "Ge", "occu": 1}], "abc": [0.37907041, 0.75814182, 0.39110955000000003], "properties": {"magmom": -0.0}, "label": "Ge", "xyz": [-2.398087812105487e-06, 3.9936218006227, 5.5188715988392945]}, {"species": [{"element": "Ge", "occu": 1}], "abc": [0.62092959, 0.24185818, 0.60889045], "properties": {"magmom": -0.0}, "label": "Ge", "xyz": [2.0076466580878125, 1.2740229793773006, 8.591935971160707]}, {"species": [{"element": "Ge", "occu": 1}], "abc": [0.62092959, 0.24185818, 0.89110955], "properties": {"magmom": -0.0}, "label": "Ge", "xyz": [2.0076466580878125, 1.2740229793773006, 12.574275383839295]}, {"species": [{"element": "Ge", "occu": 1}], "abc": [0.37907041, 0.75814182, 0.10889045], "properties": {"magmom": -0.0}, "label": "Ge", "xyz": [-2.398087812105487e-06, 3.9936218006227, 1.5365321861607066]}, {"species": [{"element": "Ge", "occu": 1}], "abc": [0.22368764, 0.44737527, 0.25], "properties": {"magmom": -0.0}, "label": "Ge", "xyz": [-2.1032181629632163e-07, 2.3566140057165907, 3.5277018925]}, {"species": [{"element": "Ge", "occu": 1}], "abc": [0.77631236, 0.55262473, 0.75], "properties": {"magmom": -0.0}, "label": "Ge", "xyz": [2.0076444703218166, 2.9110307742834096, 10.5831056775]}, {"species": [{"element": "Ge", "occu": 1}], "abc": [0.0, 0.0, 0.0], "properties": {"magmom": 0.0}, "label": "Ge", "xyz": [0.0, 0.0, 0.0]}, {"species": [{"element": "Ge", "occu": 1}], "abc": [0.0, 0.0, 0.5], "properties": {"magmom": 0.0}, "label": "Ge", "xyz": [0.0, 0.0, 7.055403785]}]}, "task_ids": null, "uncorrected_energy_per_atom": null, "energy_per_atom": -5.367576807142858, "formation_energy_per_atom": -0.7682528285714281, "energy_above_hull": 0.0, "is_stable": true, "equilibrium_reaction_energy_per_atom": null, "decomposes_to": null, "xas": null, "grain_boundaries": null, "band_gap": 0.0, "cbm": null, "vbm": null, "efermi": 5.13417996, "is_gap_direct": null, "is_metal": null, "es_source_calc_id": null, "bandstructure": null, "dos": null, "dos_energy_up": null, "dos_energy_down": null, "is_magnetic": null, "ordering": null, "total_magnetization": 0.0, "total_magnetization_normalized_vol": null, "total_magnetization_normalized_formula_units": null, "num_magnetic_sites": null, "num_unique_magnetic_sites": null, "types_of_magnetic_species": null, "bulk_modulus": null, "shear_modulus": null, "universal_anisotropy": null, "homogeneous_poisson": null, "e_total": null, "e_ionic": null, "e_electronic": null, "n": null, "e_ij_max": null, "weighted_surface_energy_EV_PER_ANG2": null, "weighted_surface_energy": null, "weighted_work_function": null, "surface_anisotropy": null, "shape_factor": null, "has_reconstructed": null, "possible_species": null, "has_props": null, "theoretical": null, "database_IDs": null, "fields_not_requested": ["builder_meta", "nsites", "elements", "nelements", "composition", "composition_reduced", "chemsys", "symmetry", "property_name", "deprecated", "deprecation_reasons", "last_updated", "origins", "warnings", "task_ids", "uncorrected_energy_per_atom", "equilibrium_reaction_energy_per_atom", "decomposes_to", "xas", "grain_boundaries", "cbm", "vbm", "is_gap_direct", "is_metal", "es_source_calc_id", "bandstructure", "dos", "dos_energy_up", "dos_energy_down", "is_magnetic", "ordering", "total_magnetization_normalized_vol", "total_magnetization_normalized_formula_units", "num_magnetic_sites", "num_unique_magnetic_sites", "types_of_magnetic_species", "bulk_modulus", "shear_modulus", "universal_anisotropy", "homogeneous_poisson", "e_total", "e_ionic", "e_electronic", "n", "e_ij_max", "weighted_surface_energy_EV_PER_ANG2", "weighted_surface_energy", "weighted_work_function", "surface_anisotropy", "shape_factor", "has_reconstructed", "possible_species", "has_props", "theoretical", "database_IDs"]}