{
  "builder_meta": null,
  "nsites": null,
  "elements": null,
  "nelements": null,
  "composition": null,
  "composition_reduced": null,
  "formula_pretty": "Er3Ga2",
  "formula_anonymous": "A2B3",
  "chemsys": null,
  "volume": 960.2269108822682,
  "density": 8.871035209160073,
  "density_atomic": 24.005672772056705,
  "symmetry": null,
  "property_name": null,
  "material_id": "mp-1198546",
  "deprecated": null,
  "deprecation_reasons": null,
  "last_updated": null,
  "origins": null,
  "warnings": null,
  "structure": {
    "@module": "pymatgen.core.structure",
    "@class": "Structure",
    "charge": 0,
    "lattice": {
      "matrix": [
        [-5.73107014, 5.73106597, 7.30874417],
        [5.73106808, -5.73106906, 7.30874519],
        [5.73106906, 5.73106805, -7.30874622]
      ],
      "pbc": [true, true, true],
      "a": 10.913662237974961,
      "b": 10.913663461937624,
      "c": 10.913664135962055,
      "alpha": 116.64630201440775,
      "beta": 116.64631729649659,
      "gamma": 95.91408361792472,
      "volume": 960.2269108822682
    },
    "properties": {},
    "sites": [
      {
        "species": [{ "element": "Er", "occu": 1 }],
        "abc": [0.14644473, 0.64644473, 0.500001],
        "properties": { "magmom": 0.0 },
        "label": "Er",
        "xyz": [5.731073999392917, 4.773553834436228e-6, 2.140646458856853]
      },
      {
        "species": [{ "element": "Er", "occu": 1 }],
        "abc": [0.64644473, 0.14644373, 0.499998999999999],
        "properties": { "magmom": 0.0 },
        "label": "Er",
        "xyz": [-1.2303813289538112e-5, 5.731066557486789, 2.14065325760411]
      },
      {
        "species": [{ "element": "Er", "occu": 1 }],
        "abc": [0.85355627, 0.35355627, 0.500001],
        "properties": { "magmom": 0.0 },
        "label": "Er",
        "xyz": [4.462743144362236e-6, 5.731071648579176, 5.168096681140067]
      },
      {
        "species": [{ "element": "Er", "occu": 1 }],
        "abc": [0.35355527000000003, 0.85355527, 0.5],
        "properties": { "magmom": 0.0 },
        "label": "Er",
        "xyz": [5.731067841676143, -1.5974857840994616e-6, 5.168089882396927]
      },
      {
        "species": [{ "element": "Er", "occu": 1 }],
        "abc": [0.66812028, 0.16811777, 0.8362380500000001],
        "properties": { "magmom": -0.0 },
        "label": "Er",
        "xyz": [1.9269882138410757, 7.658084021040979, -1.5428078770085563e-6]
      },
      {
        "species": [{ "element": "Er", "occu": 1 }],
        "abc": [0.33187872, 0.8318822300000001, 0.16376095000000002],
        "properties": { "magmom": -0.0 },
        "label": "Er",
        "xyz": [3.804078786160005, -1.9270305231749982, 7.308744682809927]
      },
      {
        "species": [{ "element": "Er", "occu": 1 }],
        "abc": [0.16811877, 0.33187972, 0.499998499999999],
        "properties": { "magmom": -0.0 },
        "label": "Er",
        "xyz": [3.8040507403672144, 1.926999595129713, -7.595670452609227e-7]
      },
      {
        "species": [{ "element": "Er", "occu": 1 }],
        "abc": [0.8318822300000001, 0.66812128, 0.5000025],
        "properties": { "magmom": -0.0 },
        "label": "Er",
        "xyz": [1.9270219906997803, 3.804071095935242, 7.308751208310193]
      },
      {
        "species": [{ "element": "Er", "occu": 1 }],
        "abc": [0.06694349000000001, 0.93181121, 0.27028736000000003],
        "properties": { "magmom": -0.064 },
        "label": "Er",
        "xyz": [6.50565117181587, -3.4075815847252793, 5.324181820618754]
      },
      {
        "species": [{ "element": "Er", "occu": 1 }],
        "abc": [0.66152285, 0.7966541300000001, 0.72971164],
        "properties": { "magmom": -0.064 },
        "label": "Er",
        "xyz": [4.956473005406331, 3.407578323765298, 5.32416612345042]
      },
      {
        "species": [{ "element": "Er", "occu": 1 }],
        "abc": [0.56694309, 0.29665643, 0.13513377000000001],
        "properties": { "magmom": 0.064 },
        "label": "Er",
        "xyz": [-0.7745714492704218, 2.32349059432564, 5.324169828922507]
      },
      {
        "species": [{ "element": "Er", "occu": 1 }],
        "abc": [0.16152366, 0.43181032, 0.86486723],
        "properties": { "magmom": 0.064 },
        "label": "Er",
        "xyz": [6.505644739697978, 3.4075809357801523, -1.9845683904299474]
      },
      {
        "species": [{ "element": "Er", "occu": 1 }],
        "abc": [0.79665513, 0.06694349000000001, 0.13513228],
        "properties": { "magmom": -0.064 },
        "label": "Er",
        "xyz": [-3.4075762998027623, 4.956477633493161, 5.324173906777423]
      },
      {
        "species": [{ "element": "Er", "occu": 1 }],
        "abc": [0.93181221, 0.66152385, 0.86486872],
        "properties": { "magmom": -0.064 },
        "label": "Er",
        "xyz": [3.4075794502291017, 6.505659866610809, 5.324180326033858]
      },
      {
        "species": [{ "element": "Er", "occu": 1 }],
        "abc": [0.43181032, 0.56694309, 0.27028666],
        "properties": { "magmom": 0.064 },
        "label": "Er",
        "xyz": [2.3234857296364617, 0.7745746700342284, 5.3241771362956465]
      },
      {
        "species": [{ "element": "Er", "occu": 1 }],
        "abc": [0.29665543, 0.16152266, 0.7297123400000001],
        "properties": { "magmom": 0.064 },
        "label": "Er",
        "xyz": [3.407576098655034, 4.956485397938555, -1.9845756978000062]
      },
      {
        "species": [{ "element": "Er", "occu": 1 }],
        "abc": [0.93305651, 0.06818779, 0.72971164],
        "properties": { "magmom": -0.064 },
        "label": "Er",
        "xyz": [-0.7745956339530089, 9.138646544726289, 1.9845613193822755]
      },
      {
        "species": [{ "element": "Er", "occu": 1 }],
        "abc": [0.33847715, 0.20334387, 0.27028736000000003],
        "properties": { "magmom": -0.064 },
        "label": "Er",
        "xyz": [0.7745768013884506, 2.3234923673047714, 1.984569707805421]
      },
      {
        "species": [{ "element": "Er", "occu": 1 }],
        "abc": [0.43305691, 0.70334357, 0.86486723],
        "properties": { "magmom": 0.064 },
        "label": "Er",
        "xyz": [6.505644180339482, 3.40758009674241, 1.9845660023312721]
      },
      {
        "species": [{ "element": "Er", "occu": 1 }],
        "abc": [0.8384773400000001, 0.56818968, 0.13513377000000001],
        "properties": { "magmom": 0.064 },
        "label": "Er",
        "xyz": [-0.7745777396990569, 2.323495486353868, 9.293311530427898]
      },
      {
        "species": [{ "element": "Er", "occu": 1 }],
        "abc": [0.20334487, 0.93305651, 0.86486872],
        "properties": { "magmom": -0.064 },
        "label": "Er",
        "xyz": [9.138649030871822, 0.7745930575748892, 1.9845619244763562]
      },
      {
        "species": [{ "element": "Er", "occu": 1 }],
        "abc": [0.06818879, 0.33847715, 0.13513228],
        "properties": { "magmom": -0.064 },
        "label": "Er",
        "xyz": [2.3234932808378983, -0.7745891755458488, 1.9845701227092811]
      },
      {
        "species": [{ "element": "Er", "occu": 1 }],
        "abc": [0.56818968, 0.43305691, 0.7297123400000001],
        "properties": { "magmom": 0.064 },
        "label": "Er",
        "xyz": [3.407575539294479, 4.956484558897722, 1.9845733124505731]
      },
      {
        "species": [{ "element": "Er", "occu": 1 }],
        "abc": [0.70334357, 0.83847634, 0.27028666],
        "properties": { "magmom": 0.064 },
        "label": "Er",
        "xyz": [2.3234851702779666, 0.7745738309964856, 9.293311529056865]
      },
      {
        "species": [{ "element": "Ga", "occu": 1 }],
        "abc": [0.7500013600000001, 0.7500013600000001, -0.0],
        "properties": { "magmom": 0.0 },
        "label": "Ga",
        "xyz": [
          -1.5450028012509165e-6, -2.3175042018763747e-6, 10.96313689978553
        ]
      },
      {
        "species": [{ "element": "Ga", "occu": 1 }],
        "abc": [0.24999864, 0.24999864, 0.0],
        "properties": { "magmom": 0.0 },
        "label": "Ga",
        "xyz": [
          -5.149971984419466e-7, -7.724957975518976e-7, 3.6543524602144704
        ]
      },
      {
        "species": [{ "element": "Ga", "occu": 1 }],
        "abc": [1e-6, 0.999999, -0.0],
        "properties": { "magmom": 0.057 },
        "label": "Ga",
        "xyz": [5.731056617861779, -5.73105759786497, 7.308745189998979]
      },
      {
        "species": [{ "element": "Ga", "occu": 1 }],
        "abc": [0.499998999999999, 0.500001, 0.0],
        "properties": { "magmom": -0.057 },
        "label": "Ga",
        "xyz": [
          1.0432138225713317e-5, -1.3007135035714157e-5, 7.308744680001013
        ]
      },
      {
        "species": [{ "element": "Ga", "occu": 1 }],
        "abc": [0.11735987, 0.61735834, 0.73471721],
        "properties": { "magmom": -0.0 },
        "label": "Ga",
        "xyz": [7.0762400997850285, 1.345188203909804, 6.432279396229035e-6]
      },
      {
        "species": [{ "element": "Ga", "occu": 1 }],
        "abc": [0.88264113, 0.38264366, 0.26528379],
        "properties": { "magmom": -0.0 },
        "label": "Ga",
        "xyz": [-1.3451616376499473, 4.385876756086096, 7.308751325208934]
      },
      {
        "species": [{ "element": "Ga", "occu": 1 }],
        "abc": [0.61735734, 0.88264013, 0.49999747],
        "properties": { "magmom": -0.0 },
        "label": "Ga",
        "xyz": [4.3858724885815015, 1.345163627844176, 7.308744045298119]
      },
      {
        "species": [{ "element": "Ga", "occu": 1 }],
        "abc": [0.38264266, 0.11735887, 0.50000153],
        "properties": { "magmom": -0.0 },
        "label": "Ga",
        "xyz": [1.345183049281359, 4.385901332156835, -9.052970888490108e-7]
      },
      {
        "species": [{ "element": "Ga", "occu": 1 }],
        "abc": [0.878463, 0.37846364, 0.85543945],
        "properties": { "magmom": -0.0 },
        "label": "Ga",
        "xyz": [2.0370503828482085, 7.768109848269704, 2.9343657916242227]
      },
      {
        "species": [{ "element": "Ga", "occu": 1 }],
        "abc": [0.52302219, 0.02302155, 0.14455955],
        "properties": { "magmom": -0.0 },
        "label": "Ga",
        "xyz": [-2.03705802097676, 3.6940172000730094, 2.9343449601445766]
      },
      {
        "species": [{ "element": "Ga", "occu": 1 }],
        "abc": [0.37846264, 0.52302319, 0.49999964],
        "properties": { "magmom": -0.0 },
        "label": "Ga",
        "xyz": [3.694018040914344, 2.037044296964362, 2.934359358982403]
      },
      {
        "species": [{ "element": "Ga", "occu": 1 }],
        "abc": [0.02302255, 0.878463, 0.49999936],
        "properties": { "magmom": -0.0 },
        "label": "Ga",
        "xyz": [7.768118272025184, -2.0370580096907087, 2.934359721531584]
      },
      {
        "species": [{ "element": "Ga", "occu": 1 }],
        "abc": [0.121536999999999, 0.62153636, 0.14455855],
        "properties": { "magmom": -0.0 },
        "label": "Ga",
        "xyz": [3.6940051550136777, -2.03705635040581, 4.37439196586821]
      },
      {
        "species": [{ "element": "Ga", "occu": 1 }],
        "abc": [0.47697581, 0.97697645, 0.85543945],
        "properties": { "magmom": -0.0 },
        "label": "Ga",
        "xyz": [7.76811928991182, 2.037042028865121, 4.374376253622924]
      },
      {
        "species": [{ "element": "Ga", "occu": 1 }],
        "abc": [0.62153736, 0.47697681000000003, 0.49999936],
        "properties": { "magmom": -0.0 },
        "label": "Ga",
        "xyz": [2.037043228016596, 3.6940149319675886, 4.374391089763817]
      },
      {
        "species": [{ "element": "Ga", "occu": 1 }],
        "abc": [0.97697745, 0.121536999999999, 0.50000064],
        "properties": { "magmom": -0.0 },
        "label": "Ga",
        "xyz": [-2.03705127202519, 7.768122969690715, 4.374383418468408]
      }
    ]
  },
  "task_ids": null,
  "uncorrected_energy_per_atom": null,
  "energy_per_atom": -25.57414098125,
  "formation_energy_per_atom": -0.6417695012499991,
  "energy_above_hull": 0.0,
  "is_stable": true,
  "equilibrium_reaction_energy_per_atom": null,
  "decomposes_to": null,
  "xas": null,
  "grain_boundaries": null,
  "band_gap": 0.002499999999999,
  "cbm": null,
  "vbm": null,
  "efermi": 3.19025925,
  "is_gap_direct": null,
  "is_metal": null,
  "es_source_calc_id": null,
  "bandstructure": null,
  "dos": null,
  "dos_energy_up": null,
  "dos_energy_down": null,
  "is_magnetic": null,
  "ordering": null,
  "total_magnetization": 1.3e-6,
  "total_magnetization_normalized_vol": null,
  "total_magnetization_normalized_formula_units": null,
  "num_magnetic_sites": null,
  "num_unique_magnetic_sites": null,
  "types_of_magnetic_species": null,
  "bulk_modulus": null,
  "shear_modulus": null,
  "universal_anisotropy": null,
  "homogeneous_poisson": null,
  "e_total": null,
  "e_ionic": null,
  "e_electronic": null,
  "n": null,
  "e_ij_max": null,
  "weighted_surface_energy_EV_PER_ANG2": null,
  "weighted_surface_energy": null,
  "weighted_work_function": null,
  "surface_anisotropy": null,
  "shape_factor": null,
  "has_reconstructed": null,
  "possible_species": null,
  "has_props": null,
  "theoretical": null,
  "database_IDs": null,
  "fields_not_requested": [
    "builder_meta",
    "nsites",
    "elements",
    "nelements",
    "composition",
    "composition_reduced",
    "chemsys",
    "symmetry",
    "property_name",
    "deprecated",
    "deprecation_reasons",
    "last_updated",
    "origins",
    "warnings",
    "task_ids",
    "uncorrected_energy_per_atom",
    "equilibrium_reaction_energy_per_atom",
    "decomposes_to",
    "xas",
    "grain_boundaries",
    "cbm",
    "vbm",
    "is_gap_direct",
    "is_metal",
    "es_source_calc_id",
    "bandstructure",
    "dos",
    "dos_energy_up",
    "dos_energy_down",
    "is_magnetic",
    "ordering",
    "total_magnetization_normalized_vol",
    "total_magnetization_normalized_formula_units",
    "num_magnetic_sites",
    "num_unique_magnetic_sites",
    "types_of_magnetic_species",
    "bulk_modulus",
    "shear_modulus",
    "universal_anisotropy",
    "homogeneous_poisson",
    "e_total",
    "e_ionic",
    "e_electronic",
    "n",
    "e_ij_max",
    "weighted_surface_energy_EV_PER_ANG2",
    "weighted_surface_energy",
    "weighted_work_function",
    "surface_anisotropy",
    "shape_factor",
    "has_reconstructed",
    "possible_species",
    "has_props",
    "theoretical",
    "database_IDs"
  ]
}
