{
  "builder_meta": null,
  "nsites": null,
  "elements": null,
  "nelements": null,
  "composition": null,
  "composition_reduced": null,
  "formula_pretty": "Er3Ir",
  "formula_anonymous": "AB3",
  "chemsys": null,
  "volume": 410.1546537856842,
  "density": 11.238728010026769,
  "density_atomic": 25.634665861605264,
  "symmetry": null,
  "property_name": null,
  "material_id": "mp-1189478",
  "deprecated": null,
  "deprecation_reasons": null,
  "last_updated": null,
  "origins": null,
  "warnings": null,
  "structure": {
    "@module": "pymatgen.core.structure",
    "@class": "Structure",
    "charge": 0,
    "lattice": {
      "matrix": [
        [0.0, 0.0, 6.36514217],
        [7.14463464, 0.0, 0.0],
        [0.0, 9.01902333, 0.0]
      ],
      "pbc": [true, true, true],
      "a": 6.36514217,
      "b": 7.14463464,
      "c": 9.01902333,
      "alpha": 90.0,
      "beta": 90.0,
      "gamma": 90.0,
      "volume": 410.1546537856842
    },
    "properties": {},
    "sites": [
      {
        "species": [{ "element": "Er", "occu": 1 }],
        "abc": [0.32254416, 0.67592385, 0.06216109],
        "properties": { "magmom": -0.0 },
        "label": "Er",
        "xyz": [4.829228952712164, 0.5606323209282297, 2.0530394345032277]
      },
      {
        "species": [{ "element": "Er", "occu": 1 }],
        "abc": [0.17745484, 0.17592385, 0.43783891],
        "properties": { "magmom": -0.0 },
        "label": "Er",
        "xyz": [1.2569116327121639, 3.9488793440717704, 1.129525285354603]
      },
      {
        "species": [{ "element": "Er", "occu": 1 }],
        "abc": [0.67745484, 0.32407615, 0.56216109],
        "properties": { "magmom": -0.0 },
        "label": "Er",
        "xyz": [2.315405687287836, 5.07014398592823, 4.312096370354603]
      },
      {
        "species": [{ "element": "Er", "occu": 1 }],
        "abc": [0.82254416, 0.82407615, 0.93783791],
        "properties": { "magmom": -0.0 },
        "label": "Er",
        "xyz": [5.8877230072878355, 8.45838199004844, 5.235610519503227]
      },
      {
        "species": [{ "element": "Er", "occu": 1 }],
        "abc": [0.67745484, 0.32407615, 0.93783791],
        "properties": { "magmom": -0.0 },
        "label": "Er",
        "xyz": [2.315405687287836, 8.45838199004844, 4.312096370354603]
      },
      {
        "species": [{ "element": "Er", "occu": 1 }],
        "abc": [0.82254516, 0.82407615, 0.5621620900000001],
        "properties": { "magmom": -0.0 },
        "label": "Er",
        "xyz": [5.8877230072878355, 5.07015300495156, 5.235616884645397]
      },
      {
        "species": [{ "element": "Er", "occu": 1 }],
        "abc": [0.32254516, 0.67592385, 0.43783891],
        "properties": { "magmom": -0.0 },
        "label": "Er",
        "xyz": [4.829228952712164, 3.9488793440717704, 2.0530457996453975]
      },
      {
        "species": [{ "element": "Er", "occu": 1 }],
        "abc": [0.17745484, 0.17592385, 0.06216109],
        "properties": { "magmom": -0.0 },
        "label": "Er",
        "xyz": [1.2569116327121639, 0.5606323209282297, 1.129525285354603]
      },
      {
        "species": [{ "element": "Er", "occu": 1 }],
        "abc": [0.8758374600000001, 0.5357195, 0.250001],
        "properties": { "magmom": 0.0 },
        "label": "Er",
        "xyz": [3.8275200970234797, 2.25476485152333, 5.574829950711689]
      },
      {
        "species": [{ "element": "Er", "occu": 1 }],
        "abc": [0.62416254, 0.0357185, 0.250001],
        "properties": { "magmom": 0.0 },
        "label": "Er",
        "xyz": [0.25519563238883997, 2.25476485152333, 3.9728833042883123]
      },
      {
        "species": [{ "element": "Er", "occu": 1 }],
        "abc": [0.12416154, 0.4642805, 0.75],
        "properties": { "magmom": 0.0 },
        "label": "Er",
        "xyz": [3.31711454297652, 6.7642674975, 0.7903058541461419]
      },
      {
        "species": [{ "element": "Er", "occu": 1 }],
        "abc": [0.37583846, 0.9642805, 0.749999],
        "properties": { "magmom": 0.0 },
        "label": "Er",
        "xyz": [6.88943186297652, 6.76425847847667, 2.3922652308538583]
      },
      {
        "species": [{ "element": "Ir", "occu": 1 }],
        "abc": [0.03550244, 0.88754295, 0.250001],
        "properties": { "magmom": -0.0 },
        "label": "Ir",
        "xyz": [6.341170105057788, 2.25476485152333, 0.22597807798189484]
      },
      {
        "species": [{ "element": "Ir", "occu": 1 }],
        "abc": [0.46449756000000003, 0.38754295, 0.250001],
        "properties": { "magmom": -0.0 },
        "label": "Ir",
        "xyz": [2.768852785057788, 2.25476485152333, 2.9565930070181055]
      },
      {
        "species": [{ "element": "Ir", "occu": 1 }],
        "abc": [0.96449756, 0.11245705, 0.749999],
        "properties": { "magmom": -0.0 },
        "label": "Ir",
        "xyz": [0.8034645349422119, 6.76425847847667, 6.139164092018105]
      },
      {
        "species": [{ "element": "Ir", "occu": 1 }],
        "abc": [0.53550244, 0.6124570500000001, 0.75],
        "properties": { "magmom": -0.0 },
        "label": "Ir",
        "xyz": [4.375781854942212, 6.7642674975, 3.4085491629818954]
      }
    ]
  },
  "task_ids": null,
  "uncorrected_energy_per_atom": null,
  "energy_per_atom": -6.251398336249998,
  "formation_energy_per_atom": -0.6160006837499961,
  "energy_above_hull": 0.0,
  "is_stable": true,
  "equilibrium_reaction_energy_per_atom": null,
  "decomposes_to": null,
  "xas": null,
  "grain_boundaries": null,
  "band_gap": 0.0,
  "cbm": null,
  "vbm": null,
  "efermi": 4.01668222,
  "is_gap_direct": null,
  "is_metal": null,
  "es_source_calc_id": null,
  "bandstructure": null,
  "dos": null,
  "dos_energy_up": null,
  "dos_energy_down": null,
  "is_magnetic": null,
  "ordering": null,
  "total_magnetization": 0.0,
  "total_magnetization_normalized_vol": null,
  "total_magnetization_normalized_formula_units": null,
  "num_magnetic_sites": null,
  "num_unique_magnetic_sites": null,
  "types_of_magnetic_species": null,
  "bulk_modulus": null,
  "shear_modulus": null,
  "universal_anisotropy": null,
  "homogeneous_poisson": null,
  "e_total": null,
  "e_ionic": null,
  "e_electronic": null,
  "n": null,
  "e_ij_max": null,
  "weighted_surface_energy_EV_PER_ANG2": null,
  "weighted_surface_energy": null,
  "weighted_work_function": null,
  "surface_anisotropy": null,
  "shape_factor": null,
  "has_reconstructed": null,
  "possible_species": null,
  "has_props": null,
  "theoretical": null,
  "database_IDs": null,
  "fields_not_requested": [
    "builder_meta",
    "nsites",
    "elements",
    "nelements",
    "composition",
    "composition_reduced",
    "chemsys",
    "symmetry",
    "property_name",
    "deprecated",
    "deprecation_reasons",
    "last_updated",
    "origins",
    "warnings",
    "task_ids",
    "uncorrected_energy_per_atom",
    "equilibrium_reaction_energy_per_atom",
    "decomposes_to",
    "xas",
    "grain_boundaries",
    "cbm",
    "vbm",
    "is_gap_direct",
    "is_metal",
    "es_source_calc_id",
    "bandstructure",
    "dos",
    "dos_energy_up",
    "dos_energy_down",
    "is_magnetic",
    "ordering",
    "total_magnetization_normalized_vol",
    "total_magnetization_normalized_formula_units",
    "num_magnetic_sites",
    "num_unique_magnetic_sites",
    "types_of_magnetic_species",
    "bulk_modulus",
    "shear_modulus",
    "universal_anisotropy",
    "homogeneous_poisson",
    "e_total",
    "e_ionic",
    "e_electronic",
    "n",
    "e_ij_max",
    "weighted_surface_energy_EV_PER_ANG2",
    "weighted_surface_energy",
    "weighted_work_function",
    "surface_anisotropy",
    "shape_factor",
    "has_reconstructed",
    "possible_species",
    "has_props",
    "theoretical",
    "database_IDs"
  ]
}
