{"builder_meta": null, "nsites": null, "elements": null, "nelements": null, "composition": null, "composition_reduced": null, "formula_pretty": "Er3In5", "formula_anonymous": "A3B5", "chemsys": null, "volume": 400.45521999679397, "density": 8.922441735083613, "density_atomic": 25.028451249799623, "symmetry": null, "property_name": null, "material_id": "mp-1106153", "deprecated": null, "deprecation_reasons": null, "last_updated": null, "origins": null, "warnings": null, "structure": {"@module": "pymatgen.core.structure", "@class": "Structure", "charge": 0, "lattice": {"matrix": [[4.87274195, 3.9953225100000003, -1.8120000000000003e-05], [-4.8727434, 3.9953223700000002, 7.82e-06], [-2.7000000000000002e-05, -1.5430000000000003e-05, 10.28486633]], "pbc": [true, true, true], "a": 6.301286858295759, "b": 6.301287890782894, "c": 10.284866330047015, "alpha": 89.99986708301624, "beta": 90.00033557590574, "gamma": 101.30108680816498, "volume": 400.455219996794}, "properties": {}, "sites": [{"species": [{"element": "Er", "occu": 1}], "abc": [0.61980216, 0.61980159, 0.25000581], "properties": {"magmom": 0.0}, "label": "Er", "xyz": [-4.87140626424507e-06, 4.952612821493542, 2.571269953606672]}, {"species": [{"element": "Er", "occu": 1}], "abc": [0.38019671, 0.38019678, 0.7499941999999991], "properties": {"magmom": 0.0}, "label": "Er", "xyz": [-2.1142220667636113e-05, 3.038005601416405, 7.7135861792497105]}, {"species": [{"element": "Er", "occu": 1}], "abc": [0.79620439, 0.20379671, 0.50000038], "properties": {"magmom": -0.0}, "label": "Er", "xyz": [2.8866359583226866, 3.9953191613173584, 5.142424239715932]}, {"species": [{"element": "Er", "occu": 1}], "abc": [0.7962021300000001, 0.20379732, -3.299999999999998e-07], "properties": {"magmom": 0.0}, "label": "Er", "xyz": [2.8866354735715762, 3.995320284046087, -1.62274934421e-05]}, {"species": [{"element": "Er", "occu": 1}], "abc": [0.20379467, 0.79620401, 0.50000088], "properties": {"magmom": -0.0}, "label": "Er", "xyz": [-2.8866724971093873, 3.9953094096921475, 5.142444749238307]}, {"species": [{"element": "Er", "occu": 1}], "abc": [0.20379788000000001, 0.79620343, -3.799999999999998e-07], "properties": {"magmom": 0.0}, "label": "Er", "xyz": [-2.8866405293825363, 3.9953276324098717, -1.3747559683999985e-06]}, {"species": [{"element": "In", "occu": 1}], "abc": [0.0060075, 0.00600792, 0.2499998], "properties": {"magmom": 0.0}, "label": "In", "xyz": [-8.805257703001999e-06, 0.0480016196550814, 2.5712144636527685]}, {"species": [{"element": "In", "occu": 1}], "abc": [0.99399169, 0.9939925900000001, 0.75000024], "properties": {"magmom": 0.0}, "label": "In", "xyz": [-2.6076763491107022e-05, 7.942626631747478, 7.71364197776055]}, {"species": [{"element": "In", "occu": 1}], "abc": [0.30774153, 0.30774156, 0.04403083], "properties": {"magmom": 0.0}, "label": "In", "xyz": [-1.7812399305943071e-06, 2.4590527215218305, 0.45284803121142947]}, {"species": [{"element": "In", "occu": 1}], "abc": [0.6922586, 0.69225822, 0.95596843], "properties": {"magmom": 0.0}, "label": "In", "xyz": [-2.49632800884749e-05, 5.531576368910592, 9.83200038798341]}, {"species": [{"element": "In", "occu": 1}], "abc": [0.30774473, 0.30774443, 0.45597018], "properties": {"magmom": -0.0}, "label": "In", "xyz": [-1.1295601698431483e-05, 2.4590706169048944, 4.689589181992974]}, {"species": [{"element": "In", "occu": 1}], "abc": [0.69225465, 0.69225537, 0.54402925], "properties": {"magmom": -0.0}, "label": "In", "xyz": [-1.9200934240931292e-05, 5.531555556939471, 5.595260985642888]}, {"species": [{"element": "In", "occu": 1}], "abc": [0.07418131, 0.50977562, 0.25000008], "properties": {"magmom": -0.0}, "label": "In", "xyz": [-2.122546156695113, 2.333092338429673, 2.5712200475693177]}, {"species": [{"element": "In", "occu": 1}], "abc": [0.49022414000000003, 0.92581906, 0.749999899999999], "properties": {"magmom": -0.0}, "label": "In", "xyz": [-2.1225632323258314, 5.657537569979307, 7.71364707605699]}, {"species": [{"element": "In", "occu": 1}], "abc": [0.92581813, 0.49022384, 0.74999978], "properties": {"magmom": -0.0}, "label": "In", "xyz": [2.1225176092448375, 5.657532716717802, 7.7136345425553206]}, {"species": [{"element": "In", "occu": 1}], "abc": [0.5097757900000001, 0.07418154, 0.24999996], "properties": {"magmom": 0.0}, "label": "In", "xyz": [2.1225315175916353, 2.333093997543701, 2.5712075140676744]}]}, "task_ids": null, "uncorrected_energy_per_atom": null, "energy_per_atom": -27.390615519375, "formation_energy_per_atom": -0.556958344374997, "energy_above_hull": 0.0, "is_stable": true, "equilibrium_reaction_energy_per_atom": null, "decomposes_to": null, "xas": null, "grain_boundaries": null, "band_gap": 0.0, "cbm": null, "vbm": null, "efermi": 6.36040237, "is_gap_direct": null, "is_metal": null, "es_source_calc_id": null, "bandstructure": null, "dos": null, "dos_energy_up": null, "dos_energy_down": null, "is_magnetic": null, "ordering": null, "total_magnetization": 1e-07, "total_magnetization_normalized_vol": null, "total_magnetization_normalized_formula_units": null, "num_magnetic_sites": null, "num_unique_magnetic_sites": null, "types_of_magnetic_species": null, "bulk_modulus": null, "shear_modulus": null, "universal_anisotropy": null, "homogeneous_poisson": null, "e_total": null, "e_ionic": null, "e_electronic": null, "n": null, "e_ij_max": null, "weighted_surface_energy_EV_PER_ANG2": null, "weighted_surface_energy": null, "weighted_work_function": null, "surface_anisotropy": null, "shape_factor": null, "has_reconstructed": null, "possible_species": null, "has_props": null, "theoretical": null, "database_IDs": null, "fields_not_requested": ["builder_meta", "nsites", "elements", "nelements", "composition", "composition_reduced", "chemsys", "symmetry", "property_name", "deprecated", "deprecation_reasons", "last_updated", "origins", "warnings", "task_ids", "uncorrected_energy_per_atom", "equilibrium_reaction_energy_per_atom", "decomposes_to", "xas", "grain_boundaries", "cbm", "vbm", "is_gap_direct", "is_metal", "es_source_calc_id", "bandstructure", "dos", "dos_energy_up", "dos_energy_down", "is_magnetic", "ordering", "total_magnetization_normalized_vol", "total_magnetization_normalized_formula_units", "num_magnetic_sites", "num_unique_magnetic_sites", "types_of_magnetic_species", "bulk_modulus", "shear_modulus", "universal_anisotropy", "homogeneous_poisson", "e_total", "e_ionic", "e_electronic", "n", "e_ij_max", "weighted_surface_energy_EV_PER_ANG2", "weighted_surface_energy", "weighted_work_function", "surface_anisotropy", "shape_factor", "has_reconstructed", "possible_species", "has_props", "theoretical", "database_IDs"]}