{"builder_meta": null, "nsites": null, "elements": null, "nelements": null, "composition": null, "composition_reduced": null, "formula_pretty": "Er3In", "formula_anonymous": "AB3", "chemsys": null, "volume": 220.0462235912521, "density": 9.306045512256915, "density_atomic": 27.505777948906513, "symmetry": null, "property_name": null, "material_id": "mp-1184184", "deprecated": null, "deprecation_reasons": null, "last_updated": null, "origins": null, "warnings": null, "structure": {"@module": "pymatgen.core.structure", "@class": "Structure", "charge": 0, "lattice": {"matrix": [[3.37607312, -5.84753317, -0.0], [3.37607212, 5.84753216, -0.0], [0.0, 0.0, 5.57313403]], "pbc": [true, true, true], "a": 6.752148834692315, "b": 6.752147460006747, "c": 5.57313403, "alpha": 90.0, "beta": 90.0, "gamma": 120.00002848703562, "volume": 220.0462235912521}, "properties": {}, "sites": [{"species": [{"element": "Er", "occu": 1}], "abc": [0.82943292, 0.17056608, 0.75], "properties": {"magmom": 0.41500000000000004}, "label": "Er", "xyz": [3.3760695733608, -3.8527458737848232, 4.179850522500001]}, {"species": [{"element": "Er", "occu": 1}], "abc": [0.34113317, 0.17056708, 0.75], "properties": {"magmom": 0.41500000000000004}, "label": "Er", "xyz": [1.7275372889552, -0.9973910412249559, 4.179850522500001]}, {"species": [{"element": "Er", "occu": 1}], "abc": [0.82943292, 0.65886683, 0.75], "properties": {"magmom": 0.41500000000000004}, "label": "Er", "xyz": [5.02460812161089, -0.9973915344077033, 4.179850522500001]}, {"species": [{"element": "Er", "occu": 1}], "abc": [0.17056708, 0.82943392, 0.25], "properties": {"magmom": 0.41500000000000004}, "label": "Er", "xyz": [3.3760756666392, 3.8527448637848236, 1.3932835075]}, {"species": [{"element": "Er", "occu": 1}], "abc": [0.65886683, 0.82943292, 0.25], "properties": {"magmom": 0.41500000000000004}, "label": "Er", "xyz": [5.0246079510448, 0.9973900312249566, 1.3932835075]}, {"species": [{"element": "Er", "occu": 1}], "abc": [0.17056708, 0.34113317, 0.25], "properties": {"magmom": 0.41500000000000004}, "label": "Er", "xyz": [1.72753711838911, 0.9973905244077035, 1.3932835075]}, {"species": [{"element": "In", "occu": 1}], "abc": [0.666666, 0.333333, 0.25], "properties": {"magmom": -0.055}, "label": "In", "xyz": [3.37606941059388, -1.9491761108219399, 1.3932835075]}, {"species": [{"element": "In", "occu": 1}], "abc": [0.333333999999999, 0.666667, 0.75], "properties": {"magmom": -0.055}, "label": "In", "xyz": [3.376075829406117, 1.949175100821946, 4.179850522500001]}]}, "task_ids": null, "uncorrected_energy_per_atom": null, "energy_per_atom": -31.420880835, "formation_energy_per_atom": -0.33215686499999403, "energy_above_hull": 0.012419810416666, "is_stable": false, "equilibrium_reaction_energy_per_atom": null, "decomposes_to": null, "xas": null, "grain_boundaries": null, "band_gap": 0.0, "cbm": null, "vbm": null, "efermi": 4.33042674, "is_gap_direct": null, "is_metal": null, "es_source_calc_id": null, "bandstructure": null, "dos": null, "dos_energy_up": null, "dos_energy_down": null, "is_magnetic": null, "ordering": null, "total_magnetization": 2.7258841, "total_magnetization_normalized_vol": null, "total_magnetization_normalized_formula_units": null, "num_magnetic_sites": null, "num_unique_magnetic_sites": null, "types_of_magnetic_species": null, "bulk_modulus": null, "shear_modulus": null, "universal_anisotropy": null, "homogeneous_poisson": null, "e_total": null, "e_ionic": null, "e_electronic": null, "n": null, "e_ij_max": null, "weighted_surface_energy_EV_PER_ANG2": null, "weighted_surface_energy": null, "weighted_work_function": null, "surface_anisotropy": null, "shape_factor": null, "has_reconstructed": null, "possible_species": null, "has_props": null, "theoretical": null, "database_IDs": null, "fields_not_requested": ["builder_meta", "nsites", "elements", "nelements", "composition", "composition_reduced", "chemsys", "symmetry", "property_name", "deprecated", "deprecation_reasons", "last_updated", "origins", "warnings", "task_ids", "uncorrected_energy_per_atom", "equilibrium_reaction_energy_per_atom", "decomposes_to", "xas", "grain_boundaries", "cbm", "vbm", "is_gap_direct", "is_metal", "es_source_calc_id", "bandstructure", "dos", "dos_energy_up", "dos_energy_down", "is_magnetic", "ordering", "total_magnetization_normalized_vol", "total_magnetization_normalized_formula_units", "num_magnetic_sites", "num_unique_magnetic_sites", "types_of_magnetic_species", "bulk_modulus", "shear_modulus", "universal_anisotropy", "homogeneous_poisson", "e_total", "e_ionic", "e_electronic", "n", "e_ij_max", "weighted_surface_energy_EV_PER_ANG2", "weighted_surface_energy", "weighted_work_function", "surface_anisotropy", "shape_factor", "has_reconstructed", "possible_species", "has_props", "theoretical", "database_IDs"]}