{"builder_meta": null, "nsites": null, "elements": null, "nelements": null, "composition": null, "composition_reduced": null, "formula_pretty": "Er3Lu", "formula_anonymous": "AB3", "chemsys": null, "volume": 242.64117864256556, "density": 9.262729899136861, "density_atomic": 30.330147330320695, "symmetry": null, "property_name": null, "material_id": "mp-1184196", "deprecated": null, "deprecation_reasons": null, "last_updated": null, "origins": null, "warnings": null, "structure": {"@module": "pymatgen.core.structure", "@class": "Structure", "charge": 0, "lattice": {"matrix": [[7.14180886, 0.00010772, 5.269999999999999e-06], [-3.57080763, 6.18504186, -1.27e-06], [1.4240000000000001e-05, -3.88e-06, 5.49300329]], "pbc": [true, true, true], "a": 7.141808860814316, "b": 7.141807190089921, "c": 5.493003290019828, "alpha": 90.00011950243243, "beta": 89.99980918864453, "gamma": 119.99824682080794, "volume": 242.64117864256556}, "properties": {}, "sites": [{"species": [{"element": "Er", "occu": 1}], "abc": [0.8328040800000001, 0.16716977, 0.74999294], "properties": {"magmom": 0.0}, "label": "Er", "xyz": [5.35080714686627, 1.0340388248594627, 4.119717863468667]}, {"species": [{"element": "Er", "occu": 1}], "abc": [0.33437444, 0.16715685, 0.75000826], "properties": {"magmom": 0.0}, "label": "Er", "xyz": [1.7911640628803955, 1.033905223218369, 4.119799389571274]}, {"species": [{"element": "Er", "occu": 1}], "abc": [0.832832199999999, 0.66564069, 0.7500196], "properties": {"magmom": 0.0}, "label": "Er", "xyz": [3.571064210441924, 4.1171023339778205, 4.119863674026502]}, {"species": [{"element": "Er", "occu": 1}], "abc": [0.16716815000000002, 0.83281989, 0.25000963], "properties": {"magmom": -0.0}, "label": "Er", "xyz": [-1.7799530827108205, 5.15104291880635, 1.3733035434165728]}, {"species": [{"element": "Er", "occu": 1}], "abc": [0.66563553, 0.8328026900000001, 0.2499902], "properties": {"magmom": -0.0}, "label": "Er", "xyz": [1.7800670858087193, 5.15099023106792, 1.3731994413075848]}, {"species": [{"element": "Er", "occu": 1}], "abc": [0.16718535, 0.33436535, 0.24998419], "properties": {"magmom": -0.0}, "label": "Er", "xyz": [5.503067944628604e-05, 2.0680807255507956, 1.373164434540785]}, {"species": [{"element": "Lu", "occu": 1}], "abc": [0.66667931, 0.33339356000000003, 0.25002097], "properties": {"magmom": -0.0}, "label": "Lu", "xyz": [3.5708154953944367, 2.0621239690683315, 1.3733691007691338]}, {"species": [{"element": "Lu", "occu": 1}], "abc": [0.33332393, 0.6666532, 0.74998321], "properties": {"magmom": 0.0}, "label": "Lu", "xyz": [5.614316101409576e-05, 4.123310943821837, 4.119661149942308]}]}, "task_ids": null, "uncorrected_energy_per_atom": null, "energy_per_atom": -34.95314925, "formation_energy_per_atom": 0.010897170833331, "energy_above_hull": 0.010897170833331, "is_stable": false, "equilibrium_reaction_energy_per_atom": null, "decomposes_to": null, "xas": null, "grain_boundaries": null, "band_gap": 0.0, "cbm": null, "vbm": null, "efermi": 2.94790791, "is_gap_direct": null, "is_metal": null, "es_source_calc_id": null, "bandstructure": null, "dos": null, "dos_energy_up": null, "dos_energy_down": null, "is_magnetic": null, "ordering": null, "total_magnetization": 4.5e-06, "total_magnetization_normalized_vol": null, "total_magnetization_normalized_formula_units": null, "num_magnetic_sites": null, "num_unique_magnetic_sites": null, "types_of_magnetic_species": null, "bulk_modulus": null, "shear_modulus": null, "universal_anisotropy": null, "homogeneous_poisson": null, "e_total": null, "e_ionic": null, "e_electronic": null, "n": null, "e_ij_max": null, "weighted_surface_energy_EV_PER_ANG2": null, "weighted_surface_energy": null, "weighted_work_function": null, "surface_anisotropy": null, "shape_factor": null, "has_reconstructed": null, "possible_species": null, "has_props": null, "theoretical": null, "database_IDs": null, "fields_not_requested": ["builder_meta", "nsites", "elements", "nelements", "composition", "composition_reduced", "chemsys", "symmetry", "property_name", "deprecated", "deprecation_reasons", "last_updated", "origins", "warnings", "task_ids", "uncorrected_energy_per_atom", "equilibrium_reaction_energy_per_atom", "decomposes_to", "xas", "grain_boundaries", "cbm", "vbm", "is_gap_direct", "is_metal", "es_source_calc_id", "bandstructure", "dos", "dos_energy_up", "dos_energy_down", "is_magnetic", "ordering", "total_magnetization_normalized_vol", "total_magnetization_normalized_formula_units", "num_magnetic_sites", "num_unique_magnetic_sites", "types_of_magnetic_species", "bulk_modulus", "shear_modulus", "universal_anisotropy", "homogeneous_poisson", "e_total", "e_ionic", "e_electronic", "n", "e_ij_max", "weighted_surface_energy_EV_PER_ANG2", "weighted_surface_energy", "weighted_work_function", "surface_anisotropy", "shape_factor", "has_reconstructed", "possible_species", "has_props", "theoretical", "database_IDs"]}