{"builder_meta": null, "nsites": null, "elements": null, "nelements": null, "composition": null, "composition_reduced": null, "formula_pretty": "Er3Ni", "formula_anonymous": "AB3", "chemsys": null, "volume": 400.5111756659285, "density": 9.294951566087864, "density_atomic": 25.03194847912053, "symmetry": null, "property_name": null, "material_id": "mp-1105907", "deprecated": null, "deprecation_reasons": null, "last_updated": null, "origins": null, "warnings": null, "structure": {"@module": "pymatgen.core.structure", "@class": "Structure", "charge": 0, "lattice": {"matrix": [[0.0, 0.0, 6.271036], [6.754259, 0.0, 0.0], [0.0, 9.455786, 0.0]], "pbc": [true, true, true], "a": 6.271036, "b": 6.754259, "c": 9.455786, "alpha": 90.0, "beta": 90.0, "gamma": 90.0, "volume": 400.5111756659285}, "properties": {}, "sites": [{"species": [{"element": "Er", "occu": 1}], "abc": [0.320733, 0.678501, 0.0655], "properties": {"magmom": -0.0}, "label": "Er", "xyz": [4.582771485759, 0.619353983, 2.0113281893879997]}, {"species": [{"element": "Er", "occu": 1}], "abc": [0.179266999999999, 0.178501, 0.4345], "properties": {"magmom": -0.0}, "label": "Er", "xyz": [1.205641985759, 4.108539017, 1.1241898106119936]}, {"species": [{"element": "Er", "occu": 1}], "abc": [0.679267, 0.321499, 0.5655], "properties": {"magmom": -0.0}, "label": "Er", "xyz": [2.171487514241, 5.347246983, 4.259707810611999]}, {"species": [{"element": "Er", "occu": 1}], "abc": [0.820732999999999, 0.821499, 0.9345], "properties": {"magmom": -0.0}, "label": "Er", "xyz": [5.548617014241, 8.836432017, 5.146846189387993]}, {"species": [{"element": "Er", "occu": 1}], "abc": [0.679267, 0.321499, 0.9345], "properties": {"magmom": -0.0}, "label": "Er", "xyz": [2.171487514241, 8.836432017, 4.259707810611999]}, {"species": [{"element": "Er", "occu": 1}], "abc": [0.820732999999999, 0.821499, 0.5655], "properties": {"magmom": -0.0}, "label": "Er", "xyz": [5.548617014241, 5.347246983, 5.146846189387993]}, {"species": [{"element": "Er", "occu": 1}], "abc": [0.320733, 0.678501, 0.4345], "properties": {"magmom": -0.0}, "label": "Er", "xyz": [4.582771485759, 4.108539017, 2.0113281893879997]}, {"species": [{"element": "Er", "occu": 1}], "abc": [0.179266999999999, 0.178501, 0.0655], "properties": {"magmom": -0.0}, "label": "Er", "xyz": [1.205641985759, 0.619353983, 1.1241898106119936]}, {"species": [{"element": "Er", "occu": 1}], "abc": [0.861274, 0.532716, 0.25], "properties": {"magmom": 0.0}, "label": "Er", "xyz": [3.5981018374439997, 2.3639465, 5.401080259864]}, {"species": [{"element": "Er", "occu": 1}], "abc": [0.638726, 0.032715999999999, 0.25], "properties": {"magmom": 0.0}, "label": "Er", "xyz": [0.22097233744399328, 2.3639465, 4.005473740136]}, {"species": [{"element": "Er", "occu": 1}], "abc": [0.138726, 0.467284, 0.75], "properties": {"magmom": 0.0}, "label": "Er", "xyz": [3.156157162556, 7.0918395, 0.8699557401359999]}, {"species": [{"element": "Er", "occu": 1}], "abc": [0.361274, 0.967283999999999, 0.75], "properties": {"magmom": 0.0}, "label": "Er", "xyz": [6.5332866625559936, 7.0918395, 2.2655622598639997]}, {"species": [{"element": "Ni", "occu": 1}], "abc": [0.056523, 0.891768, 0.25], "properties": {"magmom": -0.0}, "label": "Ni", "xyz": [6.023232039912, 2.3639465, 0.354457767828]}, {"species": [{"element": "Ni", "occu": 1}], "abc": [0.443476999999999, 0.391768, 0.25], "properties": {"magmom": -0.0}, "label": "Ni", "xyz": [2.646102539912, 2.3639465, 2.7810602321719937]}, {"species": [{"element": "Ni", "occu": 1}], "abc": [0.943477, 0.108232, 0.75], "properties": {"magmom": -0.0}, "label": "Ni", "xyz": [0.7310269600879999, 7.0918395, 5.916578232171999]}, {"species": [{"element": "Ni", "occu": 1}], "abc": [0.556523, 0.608232, 0.75], "properties": {"magmom": -0.0}, "label": "Ni", "xyz": [4.108156460088, 7.0918395, 3.4899757678279997]}]}, "task_ids": null, "uncorrected_energy_per_atom": null, "energy_per_atom": -5.136399309375, "formation_energy_per_atom": -0.265576031874998, "energy_above_hull": 0.0, "is_stable": true, "equilibrium_reaction_energy_per_atom": null, "decomposes_to": null, "xas": null, "grain_boundaries": null, "band_gap": 0.0, "cbm": null, "vbm": null, "efermi": 3.6542707500000002, "is_gap_direct": null, "is_metal": null, "es_source_calc_id": null, "bandstructure": null, "dos": null, "dos_energy_up": null, "dos_energy_down": null, "is_magnetic": null, "ordering": null, "total_magnetization": 0.0019282, "total_magnetization_normalized_vol": null, "total_magnetization_normalized_formula_units": null, "num_magnetic_sites": null, "num_unique_magnetic_sites": null, "types_of_magnetic_species": null, "bulk_modulus": null, "shear_modulus": null, "universal_anisotropy": null, "homogeneous_poisson": null, "e_total": null, "e_ionic": null, "e_electronic": null, "n": null, "e_ij_max": null, "weighted_surface_energy_EV_PER_ANG2": null, "weighted_surface_energy": null, "weighted_work_function": null, "surface_anisotropy": null, "shape_factor": null, "has_reconstructed": null, "possible_species": null, "has_props": null, "theoretical": null, "database_IDs": null, "fields_not_requested": ["builder_meta", "nsites", "elements", "nelements", "composition", "composition_reduced", "chemsys", "symmetry", "property_name", "deprecated", "deprecation_reasons", "last_updated", "origins", "warnings", "task_ids", "uncorrected_energy_per_atom", "equilibrium_reaction_energy_per_atom", "decomposes_to", "xas", "grain_boundaries", "cbm", "vbm", "is_gap_direct", "is_metal", "es_source_calc_id", "bandstructure", "dos", "dos_energy_up", "dos_energy_down", "is_magnetic", "ordering", "total_magnetization_normalized_vol", "total_magnetization_normalized_formula_units", "num_magnetic_sites", "num_unique_magnetic_sites", "types_of_magnetic_species", "bulk_modulus", "shear_modulus", "universal_anisotropy", "homogeneous_poisson", "e_total", "e_ionic", "e_electronic", "n", "e_ij_max", "weighted_surface_energy_EV_PER_ANG2", "weighted_surface_energy", "weighted_work_function", "surface_anisotropy", "shape_factor", "has_reconstructed", "possible_species", "has_props", "theoretical", "database_IDs"]}