{
  "builder_meta": null,
  "nsites": null,
  "elements": null,
  "nelements": null,
  "composition": null,
  "composition_reduced": null,
  "formula_pretty": "Er3Ni2",
  "formula_anonymous": "A2B3",
  "chemsys": null,
  "volume": 318.39400814891115,
  "density": 9.687484552570325,
  "density_atomic": 21.22626720992741,
  "symmetry": null,
  "property_name": null,
  "material_id": "mp-540546",
  "deprecated": null,
  "deprecation_reasons": null,
  "last_updated": null,
  "origins": null,
  "warnings": null,
  "structure": {
    "@module": "pymatgen.core.structure",
    "@class": "Structure",
    "charge": 0,
    "lattice": {
      "matrix": [
        [6.78191577, -0.00707861, 2.11911555],
        [1.55522976, 6.60092431, 2.12030287],
        [-0.00939241, -0.00863668, 7.10543824]
      ],
      "pbc": [true, true, true],
      "a": 7.105285520818009,
      "b": 7.105394120896382,
      "c": 7.105449696680804,
      "alpha": 72.72318606088906,
      "beta": 72.72345612223991,
      "gamma": 72.72299419940607,
      "volume": 318.39400814891115
    },
    "properties": {},
    "sites": [
      {
        "species": [{ "element": "Er", "occu": 1 }],
        "abc": [0.5, 0.5, 0.5],
        "properties": { "magmom": -0.0 },
        "label": "Er",
        "xyz": [4.16387656, 3.29260451, 5.67242833]
      },
      {
        "species": [{ "element": "Er", "occu": 1 }],
        "abc": [0.293205, 0.29319292, 0.29320131],
        "properties": { "magmom": -0.0 },
        "label": "Er",
        "xyz": [2.4417201010320926, 1.9307365034127846, 3.3263168646695247]
      },
      {
        "species": [{ "element": "Er", "occu": 1 }],
        "abc": [0.706795, 0.70680708, 0.7067986900000001],
        "properties": { "magmom": -0.0 },
        "label": "Er",
        "xyz": [5.886033018967908, 4.654472516587216, 8.018539795330476]
      },
      {
        "species": [{ "element": "Er", "occu": 1 }],
        "abc": [0.32956068, 0.83594938, 0.11280645],
        "properties": { "magmom": -0.0 },
        "label": "Er",
        "xyz": [3.534086602064428, 5.5147314796357865, 3.2723822947939425]
      },
      {
        "species": [{ "element": "Er", "occu": 1 }],
        "abc": [0.11280412000000001, 0.32956053, 0.83595283],
        "properties": { "magmom": -0.0 },
        "label": "Er",
        "xyz": [1.269718772606325, 2.167385760633807, 6.877624307512006]
      },
      {
        "species": [{ "element": "Er", "occu": 1 }],
        "abc": [0.83594479, 0.1128057, 0.32956161],
        "properties": { "magmom": -0.0 },
        "label": "Er",
        "xyz": [5.84165055812659, 0.7358582421207703, 4.35232551902281]
      },
      {
        "species": [{ "element": "Er", "occu": 1 }],
        "abc": [0.6704393200000001, 0.16405062, 0.88719355],
        "properties": { "magmom": -0.0 },
        "label": "Er",
        "xyz": [4.793666517935573, 1.070477540364213, 8.072474365206057]
      },
      {
        "species": [{ "element": "Er", "occu": 1 }],
        "abc": [0.88719588, 0.67043947, 0.16404717],
        "properties": { "magmom": -0.0 },
        "label": "Er",
        "xyz": [7.058034347393676, 4.417823259366193, 4.4672323524879936]
      },
      {
        "species": [{ "element": "Er", "occu": 1 }],
        "abc": [0.16405521, 0.8871943, 0.67043839],
        "properties": { "magmom": -0.0 },
        "label": "Er",
        "xyz": [2.48610256187341, 5.84935077787923, 6.99253114097719]
      },
      {
        "species": [{ "element": "Ni", "occu": 1 }],
        "abc": [0.64436116, 0.46091163, 0.08608818],
        "properties": { "magmom": -0.0 },
        "label": "Ni",
        "xyz": [5.086018020802888, 3.0371380858154953, 2.954442252061419]
      },
      {
        "species": [{ "element": "Ni", "occu": 1 }],
        "abc": [0.08608749, 0.64435361, 0.4609107],
        "properties": { "magmom": -0.0 },
        "label": "Ni",
        "xyz": [1.581626953998364, 4.248739290493194, 4.823626660302498]
      },
      {
        "species": [{ "element": "Ni", "occu": 1 }],
        "abc": [0.4609063, 0.08609842, 0.64436718],
        "properties": { "magmom": -0.0 },
        "label": "Ni",
        "xyz": [3.2536783687902266, 0.5595013845501847, 5.737779635824394]
      },
      {
        "species": [{ "element": "Ni", "occu": 1 }],
        "abc": [0.35563884, 0.53908837, 0.91391182],
        "properties": { "magmom": -0.0 },
        "label": "Ni",
        "xyz": [3.241735099197112, 3.548070934184505, 8.39041440793858]
      },
      {
        "species": [{ "element": "Ni", "occu": 1 }],
        "abc": [0.9139125100000001, 0.35564639000000003, 0.5390893],
        "properties": { "magmom": -0.0 },
        "label": "Ni",
        "xyz": [6.746126166001638, 2.336469729506806, 6.521229999697502]
      },
      {
        "species": [{ "element": "Ni", "occu": 1 }],
        "abc": [0.5390937, 0.91390158, 0.35563282],
        "properties": { "magmom": -0.0 },
        "label": "Ni",
        "xyz": [5.074074751209774, 6.025707635449815, 5.607077024175606]
      }
    ]
  },
  "task_ids": null,
  "uncorrected_energy_per_atom": null,
  "energy_per_atom": -5.4356488693333365,
  "formation_energy_per_atom": -0.38296291133333404,
  "energy_above_hull": 0.012651877666664,
  "is_stable": false,
  "equilibrium_reaction_energy_per_atom": null,
  "decomposes_to": null,
  "xas": null,
  "grain_boundaries": null,
  "band_gap": 0.0,
  "cbm": null,
  "vbm": null,
  "efermi": 4.27105413,
  "is_gap_direct": null,
  "is_metal": null,
  "es_source_calc_id": null,
  "bandstructure": null,
  "dos": null,
  "dos_energy_up": null,
  "dos_energy_down": null,
  "is_magnetic": null,
  "ordering": null,
  "total_magnetization": 1.5e-6,
  "total_magnetization_normalized_vol": null,
  "total_magnetization_normalized_formula_units": null,
  "num_magnetic_sites": null,
  "num_unique_magnetic_sites": null,
  "types_of_magnetic_species": null,
  "bulk_modulus": null,
  "shear_modulus": null,
  "universal_anisotropy": null,
  "homogeneous_poisson": null,
  "e_total": null,
  "e_ionic": null,
  "e_electronic": null,
  "n": null,
  "e_ij_max": null,
  "weighted_surface_energy_EV_PER_ANG2": null,
  "weighted_surface_energy": null,
  "weighted_work_function": null,
  "surface_anisotropy": null,
  "shape_factor": null,
  "has_reconstructed": null,
  "possible_species": null,
  "has_props": null,
  "theoretical": null,
  "database_IDs": null,
  "fields_not_requested": [
    "builder_meta",
    "nsites",
    "elements",
    "nelements",
    "composition",
    "composition_reduced",
    "chemsys",
    "symmetry",
    "property_name",
    "deprecated",
    "deprecation_reasons",
    "last_updated",
    "origins",
    "warnings",
    "task_ids",
    "uncorrected_energy_per_atom",
    "equilibrium_reaction_energy_per_atom",
    "decomposes_to",
    "xas",
    "grain_boundaries",
    "cbm",
    "vbm",
    "is_gap_direct",
    "is_metal",
    "es_source_calc_id",
    "bandstructure",
    "dos",
    "dos_energy_up",
    "dos_energy_down",
    "is_magnetic",
    "ordering",
    "total_magnetization_normalized_vol",
    "total_magnetization_normalized_formula_units",
    "num_magnetic_sites",
    "num_unique_magnetic_sites",
    "types_of_magnetic_species",
    "bulk_modulus",
    "shear_modulus",
    "universal_anisotropy",
    "homogeneous_poisson",
    "e_total",
    "e_ionic",
    "e_electronic",
    "n",
    "e_ij_max",
    "weighted_surface_energy_EV_PER_ANG2",
    "weighted_surface_energy",
    "weighted_work_function",
    "surface_anisotropy",
    "shape_factor",
    "has_reconstructed",
    "possible_species",
    "has_props",
    "theoretical",
    "database_IDs"
  ]
}
