{
  "builder_meta": null,
  "nsites": null,
  "elements": null,
  "nelements": null,
  "composition": null,
  "composition_reduced": null,
  "formula_pretty": "Er3Os",
  "formula_anonymous": "AB3",
  "chemsys": null,
  "volume": 410.93426728299517,
  "density": 11.185289223585926,
  "density_atomic": 25.683391705187198,
  "symmetry": null,
  "property_name": null,
  "material_id": "mp-1188131",
  "deprecated": null,
  "deprecation_reasons": null,
  "last_updated": null,
  "origins": null,
  "warnings": null,
  "structure": {
    "@module": "pymatgen.core.structure",
    "@class": "Structure",
    "charge": 0,
    "lattice": {
      "matrix": [
        [0.0, 0.0, 6.237195],
        [7.329011, 0.0, 0.0],
        [0.0, 8.989544, 0.0]
      ],
      "pbc": [true, true, true],
      "a": 6.237195,
      "b": 7.329011,
      "c": 8.989544,
      "alpha": 90.0,
      "beta": 90.0,
      "gamma": 90.0,
      "volume": 410.93426728299517
    },
    "properties": {},
    "sites": [
      {
        "species": [{ "element": "Er", "occu": 1 }],
        "abc": [0.332631, 0.676474999999999, 0.06225000000000001],
        "properties": { "magmom": 0.0 },
        "label": "Er",
        "xyz": [4.957892716224993, 0.5595991140000001, 2.074684410045]
      },
      {
        "species": [{ "element": "Er", "occu": 1 }],
        "abc": [0.167369, 0.176475, 0.43775000000000003],
        "properties": { "magmom": 0.0 },
        "label": "Er",
        "xyz": [1.293387216225, 3.9351728860000006, 1.043913089955]
      },
      {
        "species": [{ "element": "Er", "occu": 1 }],
        "abc": [0.667369, 0.323525, 0.56225],
        "properties": { "magmom": 0.0 },
        "label": "Er",
        "xyz": [2.371118283775, 5.054371114, 4.162510589955]
      },
      {
        "species": [{ "element": "Er", "occu": 1 }],
        "abc": [0.832631, 0.823525, 0.9377500000000001],
        "properties": { "magmom": 0.0 },
        "label": "Er",
        "xyz": [6.035623783775, 8.429944886000001, 5.193281910045]
      },
      {
        "species": [{ "element": "Er", "occu": 1 }],
        "abc": [0.667369, 0.323525, 0.9377500000000001],
        "properties": { "magmom": 0.0 },
        "label": "Er",
        "xyz": [2.371118283775, 8.429944886000001, 4.162510589955]
      },
      {
        "species": [{ "element": "Er", "occu": 1 }],
        "abc": [0.832631, 0.823525, 0.56225],
        "properties": { "magmom": 0.0 },
        "label": "Er",
        "xyz": [6.035623783775, 5.054371114, 5.193281910045]
      },
      {
        "species": [{ "element": "Er", "occu": 1 }],
        "abc": [0.332631, 0.676474999999999, 0.43775000000000003],
        "properties": { "magmom": 0.0 },
        "label": "Er",
        "xyz": [4.957892716224993, 3.9351728860000006, 2.074684410045]
      },
      {
        "species": [{ "element": "Er", "occu": 1 }],
        "abc": [0.167369, 0.176475, 0.06225000000000001],
        "properties": { "magmom": 0.0 },
        "label": "Er",
        "xyz": [1.293387216225, 0.5595991140000001, 1.043913089955]
      },
      {
        "species": [{ "element": "Er", "occu": 1 }],
        "abc": [0.869225999999999, 0.536512, 0.25],
        "properties": { "magmom": 0.0 },
        "label": "Er",
        "xyz": [3.9321023496320002, 2.247386, 5.4215320610699935]
      },
      {
        "species": [{ "element": "Er", "occu": 1 }],
        "abc": [0.630774, 0.036511999999999004, 0.25],
        "properties": { "magmom": 0.0 },
        "label": "Er",
        "xyz": [0.2675968496319927, 2.247386, 3.9342604389299995]
      },
      {
        "species": [{ "element": "Er", "occu": 1 }],
        "abc": [0.130774, 0.463487999999999, 0.75],
        "properties": { "magmom": 0.0 },
        "label": "Er",
        "xyz": [3.396908650367993, 6.742158, 0.81566293893]
      },
      {
        "species": [{ "element": "Er", "occu": 1 }],
        "abc": [0.369226, 0.963488, 0.75],
        "properties": { "magmom": 0.0 },
        "label": "Er",
        "xyz": [7.061414150368001, 6.742158, 2.30293456107]
      },
      {
        "species": [{ "element": "Os", "occu": 1 }],
        "abc": [0.043216, 0.882456999999999, 0.25],
        "properties": { "magmom": -0.0 },
        "label": "Os",
        "xyz": [6.467537060026993, 2.247386, 0.26954661912]
      },
      {
        "species": [{ "element": "Os", "occu": 1 }],
        "abc": [0.456783999999999, 0.382457, 0.25],
        "properties": { "magmom": -0.0 },
        "label": "Os",
        "xyz": [2.803031560027, 2.247386, 2.849050880879994]
      },
      {
        "species": [{ "element": "Os", "occu": 1 }],
        "abc": [0.956784, 0.117543, 0.75],
        "properties": { "magmom": -0.0 },
        "label": "Os",
        "xyz": [0.861473939973, 6.742158, 5.96764838088]
      },
      {
        "species": [{ "element": "Os", "occu": 1 }],
        "abc": [0.543215999999999, 0.617543, 0.75],
        "properties": { "magmom": -0.0 },
        "label": "Os",
        "xyz": [4.525979439973, 6.742158, 3.388144119119994]
      }
    ]
  },
  "task_ids": null,
  "uncorrected_energy_per_atom": null,
  "energy_per_atom": -6.5251249175,
  "formation_energy_per_atom": -0.29249395249999804,
  "energy_above_hull": 0.0,
  "is_stable": true,
  "equilibrium_reaction_energy_per_atom": null,
  "decomposes_to": null,
  "xas": null,
  "grain_boundaries": null,
  "band_gap": 0.0,
  "cbm": null,
  "vbm": null,
  "efermi": 3.82747531,
  "is_gap_direct": null,
  "is_metal": null,
  "es_source_calc_id": null,
  "bandstructure": null,
  "dos": null,
  "dos_energy_up": null,
  "dos_energy_down": null,
  "is_magnetic": null,
  "ordering": null,
  "total_magnetization": 3.24e-5,
  "total_magnetization_normalized_vol": null,
  "total_magnetization_normalized_formula_units": null,
  "num_magnetic_sites": null,
  "num_unique_magnetic_sites": null,
  "types_of_magnetic_species": null,
  "bulk_modulus": null,
  "shear_modulus": null,
  "universal_anisotropy": null,
  "homogeneous_poisson": null,
  "e_total": null,
  "e_ionic": null,
  "e_electronic": null,
  "n": null,
  "e_ij_max": null,
  "weighted_surface_energy_EV_PER_ANG2": null,
  "weighted_surface_energy": null,
  "weighted_work_function": null,
  "surface_anisotropy": null,
  "shape_factor": null,
  "has_reconstructed": null,
  "possible_species": null,
  "has_props": null,
  "theoretical": null,
  "database_IDs": null,
  "fields_not_requested": [
    "builder_meta",
    "nsites",
    "elements",
    "nelements",
    "composition",
    "composition_reduced",
    "chemsys",
    "symmetry",
    "property_name",
    "deprecated",
    "deprecation_reasons",
    "last_updated",
    "origins",
    "warnings",
    "task_ids",
    "uncorrected_energy_per_atom",
    "equilibrium_reaction_energy_per_atom",
    "decomposes_to",
    "xas",
    "grain_boundaries",
    "cbm",
    "vbm",
    "is_gap_direct",
    "is_metal",
    "es_source_calc_id",
    "bandstructure",
    "dos",
    "dos_energy_up",
    "dos_energy_down",
    "is_magnetic",
    "ordering",
    "total_magnetization_normalized_vol",
    "total_magnetization_normalized_formula_units",
    "num_magnetic_sites",
    "num_unique_magnetic_sites",
    "types_of_magnetic_species",
    "bulk_modulus",
    "shear_modulus",
    "universal_anisotropy",
    "homogeneous_poisson",
    "e_total",
    "e_ionic",
    "e_electronic",
    "n",
    "e_ij_max",
    "weighted_surface_energy_EV_PER_ANG2",
    "weighted_surface_energy",
    "weighted_work_function",
    "surface_anisotropy",
    "shape_factor",
    "has_reconstructed",
    "possible_species",
    "has_props",
    "theoretical",
    "database_IDs"
  ]
}
