{
  "builder_meta": null,
  "nsites": null,
  "elements": null,
  "nelements": null,
  "composition": null,
  "composition_reduced": null,
  "formula_pretty": "Er3Pd4",
  "formula_anonymous": "A3B4",
  "chemsys": null,
  "volume": 277.8587714409413,
  "density": 11.085333553480988,
  "density_atomic": 19.84705510292438,
  "symmetry": null,
  "property_name": null,
  "material_id": "mp-1104774",
  "deprecated": null,
  "deprecation_reasons": null,
  "last_updated": null,
  "origins": null,
  "warnings": null,
  "structure": {
    "@module": "pymatgen.core.structure",
    "@class": "Structure",
    "charge": 0,
    "lattice": {
      "matrix": [
        [2e-8, 1e-8, -5.68100705],
        [-9.850000000000002e-5, -7.5150887, 1.89367072],
        [-6.50820743, 3.75762926, 1.89367072]
      ],
      "pbc": [true, true, true],
      "a": 5.68100705,
      "b": 7.750003030602972,
      "c": 7.7500019615030205,
      "alpha": 114.23270696222245,
      "beta": 104.14310194841948,
      "gamma": 104.14309993338733,
      "volume": 277.8587714409413
    },
    "properties": {},
    "sites": [
      {
        "species": [{ "element": "Er", "occu": 1 }],
        "abc": [0.40552003000000003, 0.12928956, 0.38097447],
        "properties": { "magmom": 0.0 },
        "label": "Er",
        "xyz": [-2.4794736032055718, 0.4599383084562205, -1.33749009626601]
      },
      {
        "species": [{ "element": "Er", "occu": 1 }],
        "abc": [0.02454456, 0.61902553, 0.74831509],
        "properties": { "magmom": 0.0 },
        "label": "Er",
        "xyz": [-4.870250802242932, -1.8401410873855326, 2.4498550779614985]
      },
      {
        "species": [{ "element": "Er", "occu": 1 }],
        "abc": [0.27622947000000003, 0.25168491, 0.87071044],
        "properties": { "magmom": 0.0 },
        "label": "Er",
        "xyz": [-5.666788940425614, 1.380372605992252, 0.5561856440713882]
      },
      {
        "species": [{ "element": "Er", "occu": 1 }],
        "abc": [0.59447997, 0.87071044, 0.61902553],
        "properties": { "magmom": 0.0 },
        "label": "Er",
        "xyz": [-4.028832306794429, -4.217397738456221, -0.5561755137339897]
      },
      {
        "species": [{ "element": "Er", "occu": 1 }],
        "abc": [0.9754554400000001, 0.38097447, 0.25168491],
        "properties": { "magmom": 0.0 },
        "label": "Er",
        "xyz": [-1.6380551077570673, -1.9173183426144678, -4.343520687961499]
      },
      {
        "species": [{ "element": "Er", "occu": 1 }],
        "abc": [0.72377053, 0.74831509, 0.12928956],
        "properties": { "magmom": 0.0 },
        "label": "Er",
        "xyz": [-0.8415169695743852, -5.137832035992251, -2.4498512540713886]
      },
      {
        "species": [{ "element": "Pd", "occu": 1 }],
        "abc": [-0.0, -0.0, -0.0],
        "properties": { "magmom": 0.0 },
        "label": "Pd",
        "xyz": [0.0, 0.0, 0.0]
      },
      {
        "species": [{ "element": "Pd", "occu": 1 }],
        "abc": [0.5, -0.0, -0.0],
        "properties": { "magmom": 0.0 },
        "label": "Pd",
        "xyz": [1e-8, 5e-9, -2.840503525]
      },
      {
        "species": [{ "element": "Pd", "occu": 1 }],
        "abc": [0.22813904000000002, 0.68043262, 0.16545584],
        "properties": { "magmom": -0.0 },
        "label": "Pd",
        "xyz": [-1.0768879452751805, -4.491789785770126, 0.30577471446765936]
      },
      {
        "species": [{ "element": "Pd", "occu": 1 }],
        "abc": [0.0626842, 0.83454416, 0.51497678],
        "properties": { "magmom": -0.0 },
        "label": "Pd",
        "xyz": [-3.3516579072195514, -4.3365815690915674, 2.199438907981267]
      },
      {
        "species": [{ "element": "Pd", "occu": 1 }],
        "abc": [0.5477074200000001, 0.48502322000000003, 0.31956738],
        "properties": { "magmom": -0.0 },
        "label": "Pd",
        "xyz": [-2.079858560734655, -2.444176776753001, -1.587900053550079]
      },
      {
        "species": [{ "element": "Pd", "occu": 1 }],
        "abc": [0.77186096, 0.31956738, 0.83454416],
        "properties": { "magmom": -0.0 },
        "label": "Pd",
        "xyz": [-5.431417964724819, 0.7343303557701248, -2.1994403244676595]
      },
      {
        "species": [{ "element": "Pd", "occu": 1 }],
        "abc": [0.937315799999999, 0.16545584, 0.48502322000000003],
        "properties": { "magmom": -0.0 },
        "label": "Pd",
        "xyz": [-3.1566480027804484, 0.5791221390915673, -4.093104517981261]
      },
      {
        "species": [{ "element": "Pd", "occu": 1 }],
        "abc": [0.45229258, 0.51497678, 0.68043262],
        "properties": { "magmom": -0.0 },
        "label": "Pd",
        "xyz": [-4.428447349265345, -1.3132826532469992, -0.30576555644992043]
      }
    ]
  },
  "task_ids": null,
  "uncorrected_energy_per_atom": null,
  "energy_per_atom": -28.65281684642857,
  "formation_energy_per_atom": -0.9930854264285681,
  "energy_above_hull": 0.0,
  "is_stable": true,
  "equilibrium_reaction_energy_per_atom": null,
  "decomposes_to": null,
  "xas": null,
  "grain_boundaries": null,
  "band_gap": 0.0,
  "cbm": null,
  "vbm": null,
  "efermi": 4.50239323,
  "is_gap_direct": null,
  "is_metal": null,
  "es_source_calc_id": null,
  "bandstructure": null,
  "dos": null,
  "dos_energy_up": null,
  "dos_energy_down": null,
  "is_magnetic": null,
  "ordering": null,
  "total_magnetization": 0.0,
  "total_magnetization_normalized_vol": null,
  "total_magnetization_normalized_formula_units": null,
  "num_magnetic_sites": null,
  "num_unique_magnetic_sites": null,
  "types_of_magnetic_species": null,
  "bulk_modulus": null,
  "shear_modulus": null,
  "universal_anisotropy": null,
  "homogeneous_poisson": null,
  "e_total": null,
  "e_ionic": null,
  "e_electronic": null,
  "n": null,
  "e_ij_max": null,
  "weighted_surface_energy_EV_PER_ANG2": null,
  "weighted_surface_energy": null,
  "weighted_work_function": null,
  "surface_anisotropy": null,
  "shape_factor": null,
  "has_reconstructed": null,
  "possible_species": null,
  "has_props": null,
  "theoretical": null,
  "database_IDs": null,
  "fields_not_requested": [
    "builder_meta",
    "nsites",
    "elements",
    "nelements",
    "composition",
    "composition_reduced",
    "chemsys",
    "symmetry",
    "property_name",
    "deprecated",
    "deprecation_reasons",
    "last_updated",
    "origins",
    "warnings",
    "task_ids",
    "uncorrected_energy_per_atom",
    "equilibrium_reaction_energy_per_atom",
    "decomposes_to",
    "xas",
    "grain_boundaries",
    "cbm",
    "vbm",
    "is_gap_direct",
    "is_metal",
    "es_source_calc_id",
    "bandstructure",
    "dos",
    "dos_energy_up",
    "dos_energy_down",
    "is_magnetic",
    "ordering",
    "total_magnetization_normalized_vol",
    "total_magnetization_normalized_formula_units",
    "num_magnetic_sites",
    "num_unique_magnetic_sites",
    "types_of_magnetic_species",
    "bulk_modulus",
    "shear_modulus",
    "universal_anisotropy",
    "homogeneous_poisson",
    "e_total",
    "e_ionic",
    "e_electronic",
    "n",
    "e_ij_max",
    "weighted_surface_energy_EV_PER_ANG2",
    "weighted_surface_energy",
    "weighted_work_function",
    "surface_anisotropy",
    "shape_factor",
    "has_reconstructed",
    "possible_species",
    "has_props",
    "theoretical",
    "database_IDs"
  ]
}
