{
  "builder_meta": null,
  "nsites": null,
  "elements": null,
  "nelements": null,
  "composition": null,
  "composition_reduced": null,
  "formula_pretty": "Er3Pt4",
  "formula_anonymous": "A3B4",
  "chemsys": null,
  "volume": 277.55573698975394,
  "density": 15.341053637628956,
  "density_atomic": 19.825409784982423,
  "symmetry": null,
  "property_name": null,
  "material_id": "mp-1104136",
  "deprecated": null,
  "deprecation_reasons": null,
  "last_updated": null,
  "origins": null,
  "warnings": null,
  "structure": {
    "@module": "pymatgen.core.structure",
    "@class": "Structure",
    "charge": 0,
    "lattice": {
      "matrix": [
        [0.00167299, 7.435e-5, -5.66989558],
        [0.0058245, -7.52008334, 1.890055939999999],
        [-6.51334837, 3.76556355, 1.89183699]
      ],
      "pbc": [true, true, true],
      "a": 5.669895827308205,
      "b": 7.753966650797196,
      "c": 7.75772022148276,
      "alpha": 114.32690872844842,
      "beta": 104.12903271436286,
      "gamma": 104.10891468420994,
      "volume": 277.55573698975394
    },
    "properties": {},
    "sites": [
      {
        "species": [{ "element": "Er", "occu": 1 }],
        "abc": [0.40539679, 0.12593395, 0.37781735],
        "properties": { "magmom": 0.0 },
        "label": "Er",
        "xyz": [-2.4594442937127425, 0.4756915836335359, -1.3457664193282488]
      },
      {
        "species": [{ "element": "Er", "occu": 1 }],
        "abc": [0.02739385, 0.6220311900000001, 0.7483117300000001],
        "properties": { "magmom": -0.0 },
        "label": "Er",
        "xyz": [-4.870346136544114, -1.8599089776211861, 2.436037287355478]
      },
      {
        "species": [{ "element": "Er", "occu": 1 }],
        "abc": [0.27908984000000003, 0.2517109, 0.87386016],
        "properties": { "magmom": 0.0 },
        "label": "Er",
        "xyz": [-5.689822644095467, 1.397709771036366, 0.5465384062441567]
      },
      {
        "species": [{ "element": "Er", "occu": 1 }],
        "abc": [0.59460321, 0.8740670500000001, 0.6221826500000001],
        "properties": { "magmom": 0.0 },
        "label": "Er",
        "xyz": [-4.046406580462758, -4.230144543716876, -0.5422343406158123]
      },
      {
        "species": [{ "element": "Er", "occu": 1 }],
        "abc": [0.9726061500000001, 0.37796881, 0.25168827],
        "properties": { "magmom": -0.0 },
        "label": "Er",
        "xyz": [-1.6355047434558863, -1.8945364623788146, -4.3240399373554785]
      },
      {
        "species": [{ "element": "Er", "occu": 1 }],
        "abc": [0.72091016, 0.7482901, 0.12613984],
        "properties": { "magmom": 0.0 },
        "label": "Er",
        "xyz": [-0.8160282300800324, -5.152162731119706, -2.4345391661882183]
      },
      {
        "species": [{ "element": "Pt", "occu": 1 }],
        "abc": [0.0, -0.0, 0.0],
        "properties": { "magmom": -0.0 },
        "label": "Pt",
        "xyz": [0.0, 0.0, 0.0]
      },
      {
        "species": [{ "element": "Pt", "occu": 1 }],
        "abc": [0.5, -0.0, 0.0],
        "properties": { "magmom": -0.0 },
        "label": "Pt",
        "xyz": [0.000836495, 3.7175e-5, -2.83494779]
      },
      {
        "species": [{ "element": "Pt", "occu": 1 }],
        "abc": [0.22814503, 0.67555908, 0.16595486],
        "properties": { "magmom": 0.0 },
        "label": "Pt",
        "xyz": [-1.0766053386593786, -4.455330048349393, 0.2972454975972384]
      },
      {
        "species": [{ "element": "Pt", "occu": 1 }],
        "abc": [0.06179034, 0.8339295600000001, 0.50976949],
        "properties": { "magmom": -0.0 },
        "label": "Pt",
        "xyz": [-3.315345679424095, -4.351645786331662, 2.190229520322324]
      },
      {
        "species": [{ "element": "Pt", "occu": 1 }],
        "abc": [0.55210992, 0.49001197, 0.32439616],
        "properties": { "magmom": 0.0 },
        "label": "Pt",
        "xyz": [-2.1091274508759335, -2.4633554467690604, -1.5905509056105944]
      },
      {
        "species": [{ "element": "Pt", "occu": 1 }],
        "abc": [0.77185497, 0.32444092, 0.83404514],
        "properties": { "magmom": 0.0 },
        "label": "Pt",
        "xyz": [-5.429245541340621, 0.7008846083493929, -2.1852481475972403]
      },
      {
        "species": [{ "element": "Pt", "occu": 1 }],
        "abc": [0.9382096600000001, 0.16607044, 0.49023051],
        "properties": { "magmom": -0.0 },
        "label": "Pt",
        "xyz": [-3.1905052005759056, 0.5972003463316617, -4.078232170322325]
      },
      {
        "species": [{ "element": "Pt", "occu": 1 }],
        "abc": [0.44789108, 0.50998803, 0.6756038400000001],
        "properties": { "magmom": 0.0 },
        "label": "Pt",
        "xyz": [-4.396723427451077, -1.2910899931565907, -0.29745741428498707]
      }
    ]
  },
  "task_ids": null,
  "uncorrected_energy_per_atom": null,
  "energy_per_atom": -45.33443764,
  "formation_energy_per_atom": -1.3734129114285691,
  "energy_above_hull": 0.0,
  "is_stable": true,
  "equilibrium_reaction_energy_per_atom": null,
  "decomposes_to": null,
  "xas": null,
  "grain_boundaries": null,
  "band_gap": 0.0,
  "cbm": null,
  "vbm": null,
  "efermi": 5.25278982,
  "is_gap_direct": null,
  "is_metal": null,
  "es_source_calc_id": null,
  "bandstructure": null,
  "dos": null,
  "dos_energy_up": null,
  "dos_energy_down": null,
  "is_magnetic": null,
  "ordering": null,
  "total_magnetization": 0.0,
  "total_magnetization_normalized_vol": null,
  "total_magnetization_normalized_formula_units": null,
  "num_magnetic_sites": null,
  "num_unique_magnetic_sites": null,
  "types_of_magnetic_species": null,
  "bulk_modulus": null,
  "shear_modulus": null,
  "universal_anisotropy": null,
  "homogeneous_poisson": null,
  "e_total": null,
  "e_ionic": null,
  "e_electronic": null,
  "n": null,
  "e_ij_max": null,
  "weighted_surface_energy_EV_PER_ANG2": null,
  "weighted_surface_energy": null,
  "weighted_work_function": null,
  "surface_anisotropy": null,
  "shape_factor": null,
  "has_reconstructed": null,
  "possible_species": null,
  "has_props": null,
  "theoretical": null,
  "database_IDs": null,
  "fields_not_requested": [
    "builder_meta",
    "nsites",
    "elements",
    "nelements",
    "composition",
    "composition_reduced",
    "chemsys",
    "symmetry",
    "property_name",
    "deprecated",
    "deprecation_reasons",
    "last_updated",
    "origins",
    "warnings",
    "task_ids",
    "uncorrected_energy_per_atom",
    "equilibrium_reaction_energy_per_atom",
    "decomposes_to",
    "xas",
    "grain_boundaries",
    "cbm",
    "vbm",
    "is_gap_direct",
    "is_metal",
    "es_source_calc_id",
    "bandstructure",
    "dos",
    "dos_energy_up",
    "dos_energy_down",
    "is_magnetic",
    "ordering",
    "total_magnetization_normalized_vol",
    "total_magnetization_normalized_formula_units",
    "num_magnetic_sites",
    "num_unique_magnetic_sites",
    "types_of_magnetic_species",
    "bulk_modulus",
    "shear_modulus",
    "universal_anisotropy",
    "homogeneous_poisson",
    "e_total",
    "e_ionic",
    "e_electronic",
    "n",
    "e_ij_max",
    "weighted_surface_energy_EV_PER_ANG2",
    "weighted_surface_energy",
    "weighted_work_function",
    "surface_anisotropy",
    "shape_factor",
    "has_reconstructed",
    "possible_species",
    "has_props",
    "theoretical",
    "database_IDs"
  ]
}
