{"builder_meta": null, "nsites": null, "elements": null, "nelements": null, "composition": null, "composition_reduced": null, "formula_pretty": "Er3Pd2", "formula_anonymous": "A2B3", "chemsys": null, "volume": 230.29012697612703, "density": 10.305691014530604, "density_atomic": 23.029012697612703, "symmetry": null, "property_name": null, "material_id": "mp-12545", "deprecated": null, "deprecation_reasons": null, "last_updated": null, "origins": null, "warnings": null, "structure": {"@module": "pymatgen.core.structure", "@class": "Structure", "charge": 0, "lattice": {"matrix": [[3.928810399999999, 0.0, 0.0], [0.0, 7.6560916599999995, 0.0], [0.0, 0.0, 7.6560916599999995]], "pbc": [true, true, true], "a": 3.928810399999999, "b": 7.6560916599999995, "c": 7.6560916599999995, "alpha": 90.0, "beta": 90.0, "gamma": 90.0, "volume": 230.29012697612688}, "properties": {}, "sites": [{"species": [{"element": "Er", "occu": 1}], "abc": [0.5, 0.66362259, 0.83637741], "properties": {"magmom": -0.0}, "label": "Er", "xyz": [1.9644051999999994, 5.080755376686599, 6.4033821133134]}, {"species": [{"element": "Er", "occu": 1}], "abc": [0.5, 0.83637741, 0.33637741], "properties": {"magmom": -0.0}, "label": "Er", "xyz": [1.9644051999999994, 6.4033821133134, 2.5753362833134004]}, {"species": [{"element": "Er", "occu": 1}], "abc": [0.5, 0.33637741, 0.16362259], "properties": {"magmom": -0.0}, "label": "Er", "xyz": [1.9644051999999994, 2.5753362833134004, 1.2527095466865994]}, {"species": [{"element": "Er", "occu": 1}], "abc": [0.5, 0.16362259, 0.66362259], "properties": {"magmom": -0.0}, "label": "Er", "xyz": [1.9644051999999994, 1.2527095466865994, 5.080755376686599]}, {"species": [{"element": "Er", "occu": 1}], "abc": [-0.0, 0.5, 0.5], "properties": {"magmom": -0.0}, "label": "Er", "xyz": [0.0, 3.8280458299999998, 3.8280458299999998]}, {"species": [{"element": "Er", "occu": 1}], "abc": [-0.0, 0.0, -0.0], "properties": {"magmom": -0.0}, "label": "Er", "xyz": [0.0, 0.0, 0.0]}, {"species": [{"element": "Pd", "occu": 1}], "abc": [-0.0, 0.63446925, 0.13446925], "properties": {"magmom": 0.0}, "label": "Pd", "xyz": [0.0, 4.857554733451455, 1.029508903451455]}, {"species": [{"element": "Pd", "occu": 1}], "abc": [0.0, 0.86553075, 0.63446925], "properties": {"magmom": 0.0}, "label": "Pd", "xyz": [0.0, 6.626582756548545, 4.857554733451455]}, {"species": [{"element": "Pd", "occu": 1}], "abc": [0.0, 0.13446925, 0.36553075], "properties": {"magmom": 0.0}, "label": "Pd", "xyz": [0.0, 1.029508903451455, 2.798536926548545]}, {"species": [{"element": "Pd", "occu": 1}], "abc": [-0.0, 0.36553075, 0.86553075], "properties": {"magmom": 0.0}, "label": "Pd", "xyz": [0.0, 2.798536926548545, 6.626582756548545]}]}, "task_ids": null, "uncorrected_energy_per_atom": null, "energy_per_atom": -30.320555997999996, "formation_energy_per_atom": -0.7811134539999951, "energy_above_hull": 0.0, "is_stable": true, "equilibrium_reaction_energy_per_atom": null, "decomposes_to": null, "xas": null, "grain_boundaries": null, "band_gap": 0.0, "cbm": null, "vbm": null, "efermi": 4.14495326, "is_gap_direct": null, "is_metal": null, "es_source_calc_id": null, "bandstructure": null, "dos": null, "dos_energy_up": null, "dos_energy_down": null, "is_magnetic": null, "ordering": null, "total_magnetization": 3.6e-06, "total_magnetization_normalized_vol": null, "total_magnetization_normalized_formula_units": null, "num_magnetic_sites": null, "num_unique_magnetic_sites": null, "types_of_magnetic_species": null, "bulk_modulus": null, "shear_modulus": null, "universal_anisotropy": null, "homogeneous_poisson": null, "e_total": null, "e_ionic": null, "e_electronic": null, "n": null, "e_ij_max": null, "weighted_surface_energy_EV_PER_ANG2": null, "weighted_surface_energy": null, "weighted_work_function": null, "surface_anisotropy": null, "shape_factor": null, "has_reconstructed": null, "possible_species": null, "has_props": null, "theoretical": null, "database_IDs": null, "fields_not_requested": ["builder_meta", "nsites", "elements", "nelements", "composition", "composition_reduced", "chemsys", "symmetry", "property_name", "deprecated", "deprecation_reasons", "last_updated", "origins", "warnings", "task_ids", "uncorrected_energy_per_atom", "equilibrium_reaction_energy_per_atom", "decomposes_to", "xas", "grain_boundaries", "cbm", "vbm", "is_gap_direct", "is_metal", "es_source_calc_id", "bandstructure", "dos", "dos_energy_up", "dos_energy_down", "is_magnetic", "ordering", "total_magnetization_normalized_vol", "total_magnetization_normalized_formula_units", "num_magnetic_sites", "num_unique_magnetic_sites", "types_of_magnetic_species", "bulk_modulus", "shear_modulus", "universal_anisotropy", "homogeneous_poisson", "e_total", "e_ionic", "e_electronic", "n", "e_ij_max", "weighted_surface_energy_EV_PER_ANG2", "weighted_surface_energy", "weighted_work_function", "surface_anisotropy", "shape_factor", "has_reconstructed", "possible_species", "has_props", "theoretical", "database_IDs"]}