{
  "builder_meta": null,
  "nsites": null,
  "elements": null,
  "nelements": null,
  "composition": null,
  "composition_reduced": null,
  "formula_pretty": "Er3Pt",
  "formula_anonymous": "AB3",
  "chemsys": null,
  "volume": 423.0877507260797,
  "density": 10.940188294310863,
  "density_atomic": 26.442984420379982,
  "symmetry": null,
  "property_name": null,
  "material_id": "mp-1189835",
  "deprecated": null,
  "deprecation_reasons": null,
  "last_updated": null,
  "origins": null,
  "warnings": null,
  "structure": {
    "@module": "pymatgen.core.structure",
    "@class": "Structure",
    "charge": 0,
    "lattice": {
      "matrix": [
        [6.39339733, -2.64e-6, -0.00037511],
        [-3.66e-6, 6.96291519, 0.00015452],
        [-0.00055395, 0.0002106, 9.50402681]
      ],
      "pbc": [true, true, true],
      "a": 6.393397341004672,
      "b": 6.962915191715505,
      "c": 9.504026828477059,
      "alpha": 89.99745887984798,
      "beta": 90.00670115946379,
      "gamma": 90.00005385058047,
      "volume": 423.0877507260797
    },
    "properties": {},
    "sites": [
      {
        "species": [{ "element": "Er", "occu": 1 }],
        "abc": [0.31861201, 0.67635374, 0.06198712],
        "properties": { "magmom": 0.08600000000000001 },
        "label": "Er",
        "xyz": [2.0369763608201206, 4.7094059434110775, 0.5891122459835209]
      },
      {
        "species": [{ "element": "Er", "occu": 1 }],
        "abc": [0.18137562000000002, 0.17641022, 0.4380667],
        "properties": { "magmom": 0.08600000000000001 },
        "label": "Er",
        "xyz": [1.1593630919252245, 1.2284211785246253, 4.1633568844666025]
      },
      {
        "species": [{ "element": "Er", "occu": 1 }],
        "abc": [0.681401199999999, 0.32358128, 0.56192621],
        "properties": { "magmom": 0.085 },
        "label": "Er",
        "xyz": [4.356156149407275, 2.2531855524723015, 5.340356164456943]
      },
      {
        "species": [{ "element": "Er", "occu": 1 }],
        "abc": [0.8185978700000001, 0.82363418, 0.93800216],
        "properties": { "magmom": 0.08600000000000001 },
        "label": "Er",
        "xyz": [5.233098815604057, 5.735090325081714, 8.914617880184386]
      },
      {
        "species": [{ "element": "Er", "occu": 1 }],
        "abc": [0.6813808, 0.32361575, 0.9379982],
        "properties": { "magmom": 0.08600000000000001 },
        "label": "Er",
        "xyz": [4.355817398896728, 2.253504764973851, 8.914554452885543]
      },
      {
        "species": [{ "element": "Er", "occu": 1 }],
        "abc": [0.81860718, 0.82362919, 0.56194897],
        "properties": { "magmom": 0.085 },
        "label": "Er",
        "xyz": [5.233366652816062, 5.734976383308523, 5.340598276175034]
      },
      {
        "species": [{ "element": "Er", "occu": 1 }],
        "abc": [0.3185985, 0.67638654, 0.43808888],
        "properties": { "magmom": 0.085 },
        "label": "Er",
        "xyz": [2.036681644332193, 4.70971353409563, 4.163593466447698]
      },
      {
        "species": [{ "element": "Er", "occu": 1 }],
        "abc": [0.1813762, 0.17639883, 0.06198305],
        "properties": { "magmom": 0.08600000000000001 },
        "label": "Er",
        "xyz": [1.1595751316752805, 1.2282626677023898, 0.5890477900864]
      },
      {
        "species": [{ "element": "Er", "occu": 1 }],
        "abc": [0.86820244, 0.52713372, 0.24998393],
        "properties": { "magmom": 0.085 },
        "label": "Er",
        "xyz": [5.550622753888047, 3.6704377407104234, 2.375609754074309]
      },
      {
        "species": [{ "element": "Er", "occu": 1 }],
        "abc": [0.63185225, 0.02722443, 0.24998982],
        "properties": { "magmom": 0.085 },
        "label": "Er",
        "xyz": [4.039543906602289, 0.1896123769522437, 2.3756771441285003]
      },
      {
        "species": [{ "element": "Er", "occu": 1 }],
        "abc": [0.13182949, 0.47279418, 0.75001546],
        "properties": { "magmom": 0.085 },
        "label": "Er",
        "xyz": [0.8424211078904958, 3.292183382891617, 7.128190645351181]
      },
      {
        "species": [{ "element": "Er", "occu": 1 }],
        "abc": [0.36818136, 0.97283592, 0.75001007],
        "properties": { "magmom": 0.085 },
        "label": "Er",
        "xyz": [2.3535106953220253, 6.773930984867576, 7.128128027146385]
      },
      {
        "species": [{ "element": "Pt", "occu": 1 }],
        "abc": [0.0491915, 0.88635328, 0.25001344000000003],
        "properties": { "magmom": 0.001 },
        "label": "Pt",
        "xyz": [0.31435906576060224, 6.171655239983227, 2.376252943705587]
      },
      {
        "species": [{ "element": "Pt", "occu": 1 }],
        "abc": [0.45080815, 0.38637037, 0.25006495],
        "properties": { "magmom": 0.001 },
        "label": "Pt",
        "xyz": [2.8820556849576335, 2.6903155917838744, 2.376514588345735]
      },
      {
        "species": [{ "element": "Pt", "occu": 1 }],
        "abc": [0.95075411, 0.113635599999999, 0.7499874],
        "properties": { "magmom": 0.001 },
        "label": "Pt",
        "xyz": [6.078132916934, 0.7913904827203467, 7.127561278360903]
      },
      {
        "species": [{ "element": "Pt", "occu": 1 }],
        "abc": [0.54922933, 0.61364177, 0.74993265],
        "properties": { "magmom": 0.001 },
        "label": "Pt",
        "xyz": [3.511023660859343, 4.272892087402146, 7.12726880980667]
      }
    ]
  },
  "task_ids": null,
  "uncorrected_energy_per_atom": null,
  "energy_per_atom": -39.1218535375,
  "formation_energy_per_atom": -0.8058479374999971,
  "energy_above_hull": 0.004167633541662,
  "is_stable": false,
  "equilibrium_reaction_energy_per_atom": null,
  "decomposes_to": null,
  "xas": null,
  "grain_boundaries": null,
  "band_gap": 0.0,
  "cbm": null,
  "vbm": null,
  "efermi": 3.83961139,
  "is_gap_direct": null,
  "is_metal": null,
  "es_source_calc_id": null,
  "bandstructure": null,
  "dos": null,
  "dos_energy_up": null,
  "dos_energy_down": null,
  "is_magnetic": null,
  "ordering": null,
  "total_magnetization": 1.539037899999999,
  "total_magnetization_normalized_vol": null,
  "total_magnetization_normalized_formula_units": null,
  "num_magnetic_sites": null,
  "num_unique_magnetic_sites": null,
  "types_of_magnetic_species": null,
  "bulk_modulus": null,
  "shear_modulus": null,
  "universal_anisotropy": null,
  "homogeneous_poisson": null,
  "e_total": null,
  "e_ionic": null,
  "e_electronic": null,
  "n": null,
  "e_ij_max": null,
  "weighted_surface_energy_EV_PER_ANG2": null,
  "weighted_surface_energy": null,
  "weighted_work_function": null,
  "surface_anisotropy": null,
  "shape_factor": null,
  "has_reconstructed": null,
  "possible_species": null,
  "has_props": null,
  "theoretical": null,
  "database_IDs": null,
  "fields_not_requested": [
    "builder_meta",
    "nsites",
    "elements",
    "nelements",
    "composition",
    "composition_reduced",
    "chemsys",
    "symmetry",
    "property_name",
    "deprecated",
    "deprecation_reasons",
    "last_updated",
    "origins",
    "warnings",
    "task_ids",
    "uncorrected_energy_per_atom",
    "equilibrium_reaction_energy_per_atom",
    "decomposes_to",
    "xas",
    "grain_boundaries",
    "cbm",
    "vbm",
    "is_gap_direct",
    "is_metal",
    "es_source_calc_id",
    "bandstructure",
    "dos",
    "dos_energy_up",
    "dos_energy_down",
    "is_magnetic",
    "ordering",
    "total_magnetization_normalized_vol",
    "total_magnetization_normalized_formula_units",
    "num_magnetic_sites",
    "num_unique_magnetic_sites",
    "types_of_magnetic_species",
    "bulk_modulus",
    "shear_modulus",
    "universal_anisotropy",
    "homogeneous_poisson",
    "e_total",
    "e_ionic",
    "e_electronic",
    "n",
    "e_ij_max",
    "weighted_surface_energy_EV_PER_ANG2",
    "weighted_surface_energy",
    "weighted_work_function",
    "surface_anisotropy",
    "shape_factor",
    "has_reconstructed",
    "possible_species",
    "has_props",
    "theoretical",
    "database_IDs"
  ]
}
