{
  "builder_meta": null,
  "nsites": null,
  "elements": null,
  "nelements": null,
  "composition": null,
  "composition_reduced": null,
  "formula_pretty": "Er3Ru2",
  "formula_anonymous": "A2B3",
  "chemsys": null,
  "volume": 226.81597216163144,
  "density": 10.306872721564023,
  "density_atomic": 22.681597216163144,
  "symmetry": null,
  "property_name": null,
  "material_id": "mp-31198",
  "deprecated": null,
  "deprecation_reasons": null,
  "last_updated": null,
  "origins": null,
  "warnings": null,
  "structure": {
    "@module": "pymatgen.core.structure",
    "@class": "Structure",
    "charge": 0,
    "lattice": {
      "matrix": [
        [7.51441262, -0.00032699, 0.0],
        [-3.7569232, 6.50783551, 0.0],
        [-0.0, -0.0, 4.63823702]
      ],
      "pbc": [true, true, true],
      "a": 7.514412627114492,
      "b": 7.5144124824177165,
      "c": 4.63823702,
      "alpha": 90.0,
      "beta": 90.0,
      "gamma": 120.00000126770307,
      "volume": 226.81597216163144
    },
    "properties": {},
    "sites": [
      {
        "species": [{ "element": "Er", "occu": 1 }],
        "abc": [0.69494624, 0.615841699999999, 0.25],
        "properties": { "magmom": 0.0 },
        "label": "Er",
        "xyz": [2.9084428258201123, 4.007569243327743, 1.159559255]
      },
      {
        "species": [{ "element": "Er", "occu": 1 }],
        "abc": [0.615841699999999, 0.92089546, 0.75],
        "properties": { "magmom": 0.0 },
        "label": "Er",
        "xyz": [1.167955123953575, 5.992834801508301, 3.478677765]
      },
      {
        "species": [{ "element": "Er", "occu": 1 }],
        "abc": [0.92089546, 0.30505376, 0.25],
        "properties": { "magmom": 0.0 },
        "label": "Er",
        "xyz": [5.773924918133473, 1.984938568180552, 1.159559255]
      },
      {
        "species": [{ "element": "Er", "occu": 1 }],
        "abc": [0.07910454, 0.69494624, 0.75],
        "properties": { "magmom": 0.0 },
        "label": "Er",
        "xyz": [-2.0164354981334736, 4.522569951819448, 3.478677765]
      },
      {
        "species": [{ "element": "Er", "occu": 1 }],
        "abc": [0.30505376, 0.3841583, 0.75],
        "properties": { "magmom": 0.0 },
        "label": "Er",
        "xyz": [0.849046594179891, 2.4999392766722504, 3.478677765]
      },
      {
        "species": [{ "element": "Er", "occu": 1 }],
        "abc": [0.3841583, 0.07910454, 0.25],
        "properties": { "magmom": 0.0 },
        "label": "Er",
        "xyz": [2.5895342960464176, 0.5146737184916983, 1.159559255]
      },
      {
        "species": [{ "element": "Ru", "occu": 1 }],
        "abc": [0.666667, 0.333333, 0.75],
        "properties": { "magmom": 0.0 },
        "label": "Ru",
        "xyz": [3.75730443711194, 2.1690583406125, 3.478677765]
      },
      {
        "species": [{ "element": "Ru", "occu": 1 }],
        "abc": [0.333333, 0.666667, 0.25],
        "properties": { "magmom": 0.0 },
        "label": "Ru",
        "xyz": [0.00018498288805979257, 4.338450179387499, 1.159559255]
      },
      {
        "species": [{ "element": "Ru", "occu": 1 }],
        "abc": [0.0, 0.0, 0.5],
        "properties": { "magmom": -0.0 },
        "label": "Ru",
        "xyz": [0.0, 0.0, 2.31911851]
      },
      {
        "species": [{ "element": "Ru", "occu": 1 }],
        "abc": [0.0, 0.0, 0.0],
        "properties": { "magmom": -0.0 },
        "label": "Ru",
        "xyz": [0.0, 0.0, 0.0]
      }
    ]
  },
  "task_ids": null,
  "uncorrected_energy_per_atom": null,
  "energy_per_atom": -6.760829046999999,
  "formation_energy_per_atom": -0.310436744999996,
  "energy_above_hull": 0.07225458000000101,
  "is_stable": false,
  "equilibrium_reaction_energy_per_atom": null,
  "decomposes_to": null,
  "xas": null,
  "grain_boundaries": null,
  "band_gap": 0.0,
  "cbm": null,
  "vbm": null,
  "efermi": 4.20835134,
  "is_gap_direct": null,
  "is_metal": null,
  "es_source_calc_id": null,
  "bandstructure": null,
  "dos": null,
  "dos_energy_up": null,
  "dos_energy_down": null,
  "is_magnetic": null,
  "ordering": null,
  "total_magnetization": 0.0,
  "total_magnetization_normalized_vol": null,
  "total_magnetization_normalized_formula_units": null,
  "num_magnetic_sites": null,
  "num_unique_magnetic_sites": null,
  "types_of_magnetic_species": null,
  "bulk_modulus": null,
  "shear_modulus": null,
  "universal_anisotropy": null,
  "homogeneous_poisson": null,
  "e_total": null,
  "e_ionic": null,
  "e_electronic": null,
  "n": null,
  "e_ij_max": null,
  "weighted_surface_energy_EV_PER_ANG2": null,
  "weighted_surface_energy": null,
  "weighted_work_function": null,
  "surface_anisotropy": null,
  "shape_factor": null,
  "has_reconstructed": null,
  "possible_species": null,
  "has_props": null,
  "theoretical": null,
  "database_IDs": null,
  "fields_not_requested": [
    "builder_meta",
    "nsites",
    "elements",
    "nelements",
    "composition",
    "composition_reduced",
    "chemsys",
    "symmetry",
    "property_name",
    "deprecated",
    "deprecation_reasons",
    "last_updated",
    "origins",
    "warnings",
    "task_ids",
    "uncorrected_energy_per_atom",
    "equilibrium_reaction_energy_per_atom",
    "decomposes_to",
    "xas",
    "grain_boundaries",
    "cbm",
    "vbm",
    "is_gap_direct",
    "is_metal",
    "es_source_calc_id",
    "bandstructure",
    "dos",
    "dos_energy_up",
    "dos_energy_down",
    "is_magnetic",
    "ordering",
    "total_magnetization_normalized_vol",
    "total_magnetization_normalized_formula_units",
    "num_magnetic_sites",
    "num_unique_magnetic_sites",
    "types_of_magnetic_species",
    "bulk_modulus",
    "shear_modulus",
    "universal_anisotropy",
    "homogeneous_poisson",
    "e_total",
    "e_ionic",
    "e_electronic",
    "n",
    "e_ij_max",
    "weighted_surface_energy_EV_PER_ANG2",
    "weighted_surface_energy",
    "weighted_work_function",
    "surface_anisotropy",
    "shape_factor",
    "has_reconstructed",
    "possible_species",
    "has_props",
    "theoretical",
    "database_IDs"
  ]
}
