{"builder_meta": null, "nsites": null, "elements": null, "nelements": null, "composition": null, "composition_reduced": null, "formula_pretty": "Er3Rh2", "formula_anonymous": "A2B3", "chemsys": null, "volume": 1553.5687346723469, "density": 10.588321502409965, "density_atomic": 22.193839066747813, "symmetry": null, "property_name": null, "material_id": "mp-1198715", "deprecated": null, "deprecation_reasons": null, "last_updated": null, "origins": null, "warnings": null, "structure": {"@module": "pymatgen.core.structure", "@class": "Structure", "charge": 0, "lattice": {"matrix": [[-5.568992, 5.568992, 12.523257], [5.568992, -5.568992, 12.523257], [5.568992, 5.568992, -12.523257]], "pbc": [true, true, true], "a": 14.793894337873885, "b": 14.793894337873885, "c": 14.793894337873885, "alpha": 135.77349721900765, "beta": 135.77349721900765, "gamma": 64.33070707845724, "volume": 1553.5687346723469}, "properties": {}, "sites": [{"species": [{"element": "Er", "occu": 1}], "abc": [0.632126, 0.504212, 0.279130999999999], "properties": {"magmom": 0.0}, "label": "Er", "xyz": [0.842126263263995, 2.266830348639994, 10.735023563199011]}, {"species": [{"element": "Er", "occu": 1}], "abc": [0.225081, 0.352995, 0.720869], "properties": {"magmom": 0.0}, "label": "Er", "xyz": [4.726865736735999, 3.3021616513599996, -1.7882334368010007]}, {"species": [{"element": "Er", "occu": 1}], "abc": [0.132126, 0.852995, 0.127913], "properties": {"magmom": 0.0}, "label": "Er", "xyz": [4.726860167743999, -3.3021672203519996, 10.735036086455999]}, {"species": [{"element": "Er", "occu": 1}], "abc": [0.725081, 0.004212, 0.872087], "properties": {"magmom": 0.0}, "label": "Er", "xyz": [0.8421318322560003, 8.871159220351998, -1.7882459600579992]}, {"species": [{"element": "Er", "occu": 1}], "abc": [0.352995, 0.632126, 0.127913], "properties": {"magmom": 0.0}, "label": "Er", "xyz": [2.266824779647999, -0.8421318322559996, 10.735036086455999]}, {"species": [{"element": "Er", "occu": 1}], "abc": [0.504212, 0.225081, 0.872087], "properties": {"magmom": 0.0}, "label": "Er", "xyz": [3.3021672203519996, 6.411123832256, -1.7882459600579992]}, {"species": [{"element": "Er", "occu": 1}], "abc": [0.004212, 0.132126, 0.279130999999999], "properties": {"magmom": 0.0}, "label": "Er", "xyz": [2.2668303486399943, 0.8421262632639945, -1.7882334368009878]}, {"species": [{"element": "Er", "occu": 1}], "abc": [0.852995, 0.725081, 0.720869], "properties": {"magmom": 0.0}, "label": "Er", "xyz": [3.3021616513599996, 4.726865736735999, 10.735023563198997]}, {"species": [{"element": "Er", "occu": 1}], "abc": [0.367874, 0.49578799999999906, 0.720869], "properties": {"magmom": 0.0}, "label": "Er", "xyz": [4.726865736735995, 3.3021616513600045, 1.7882334368009865]}, {"species": [{"element": "Er", "occu": 1}], "abc": [0.774918999999999, 0.647004999999999, 0.279130999999999], "properties": {"magmom": 0.0}, "label": "Er", "xyz": [0.8421262632639945, 2.2668303486399943, 14.311490436800987]}, {"species": [{"element": "Er", "occu": 1}], "abc": [0.867873999999999, 0.147005, 0.872087], "properties": {"magmom": 0.0}, "label": "Er", "xyz": [0.8421318322560056, 8.871159220351995, 1.7882209135439897]}, {"species": [{"element": "Er", "occu": 1}], "abc": [0.274918999999999, 0.995788, 0.127913], "properties": {"magmom": 0.0}, "label": "Er", "xyz": [4.726860167744005, -3.302167220352005, 14.311502960057986]}, {"species": [{"element": "Er", "occu": 1}], "abc": [0.647004999999999, 0.367874, 0.872087], "properties": {"magmom": 0.0}, "label": "Er", "xyz": [3.302167220352005, 6.411123832255995, 1.788220913543988]}, {"species": [{"element": "Er", "occu": 1}], "abc": [0.49578799999999906, 0.774918999999999, 0.127913], "properties": {"magmom": 0.0}, "label": "Er", "xyz": [2.2668247796479997, -0.8421318322559999, 14.311502960057975]}, {"species": [{"element": "Er", "occu": 1}], "abc": [0.995788, 0.867873999999999, 0.720869], "properties": {"magmom": 0.0}, "label": "Er", "xyz": [3.3021616513599943, 4.726865736736005, 14.311490436800987]}, {"species": [{"element": "Er", "occu": 1}], "abc": [0.147005, 0.274918999999999, 0.279130999999999], "properties": {"magmom": 0.0}, "label": "Er", "xyz": [2.266830348639989, 0.8421262632639999, 1.7882334368009998]}, {"species": [{"element": "Er", "occu": 1}], "abc": [0.386273, 0.516946, 0.290151999999999], "properties": {"magmom": -0.0}, "label": "Er", "xyz": [2.343571058399995, 0.8881372751679943, 7.677595599219011]}, {"species": [{"element": "Er", "occu": 1}], "abc": [0.226794, 0.096121, 0.709847999999999], "properties": {"magmom": -0.0}, "label": "Er", "xyz": [3.225420941599994, 4.6808547248319945, -4.845661400780988]}, {"species": [{"element": "Er", "occu": 1}], "abc": [0.886273, 0.596121, 0.869327], "properties": {"magmom": 0.0}, "label": "Er", "xyz": [3.225420941599999, 6.457129275167999, 7.677595599219002]}, {"species": [{"element": "Er", "occu": 1}], "abc": [0.726793999999999, 0.016946, 0.130672999999999], "properties": {"magmom": 0.0}, "label": "Er", "xyz": [-3.2254209416000004, 4.680854724831989, 7.677595599219]}, {"species": [{"element": "Er", "occu": 1}], "abc": [0.096121, 0.386273, 0.869327], "properties": {"magmom": 0.0}, "label": "Er", "xyz": [6.457129275167999, 3.2254209415999995, -4.845661400781001]}, {"species": [{"element": "Er", "occu": 1}], "abc": [0.516946, 0.226794, 0.130672999999999], "properties": {"magmom": 0.0}, "label": "Er", "xyz": [-0.8881372751680053, 2.3435710583999945, 7.677595599219012]}, {"species": [{"element": "Er", "occu": 1}], "abc": [0.016946, 0.886273, 0.290151999999999], "properties": {"magmom": -0.0}, "label": "Er", "xyz": [6.457129275167994, -3.2254209416000057, 7.677595599219012]}, {"species": [{"element": "Er", "occu": 1}], "abc": [0.596121, 0.726793999999999, 0.709847999999999], "properties": {"magmom": -0.0}, "label": "Er", "xyz": [4.680854724831989, 3.2254209415999995, 7.677595599219002]}, {"species": [{"element": "Er", "occu": 1}], "abc": [0.613727, 0.483054, 0.709847999999999], "properties": {"magmom": -0.0}, "label": "Er", "xyz": [3.225420941599994, 4.6808547248319945, 4.8456614007810135]}, {"species": [{"element": "Er", "occu": 1}], "abc": [0.773206, 0.903879, 0.290151999999999], "properties": {"magmom": -0.0}, "label": "Er", "xyz": [2.343571058399995, 0.8881372751679939, 17.368918400781013]}, {"species": [{"element": "Er", "occu": 1}], "abc": [0.113727, 0.403879, 0.130672999999999], "properties": {"magmom": 0.0}, "label": "Er", "xyz": [2.3435710583999945, -0.8881372751680053, 4.845661400781012]}, {"species": [{"element": "Er", "occu": 1}], "abc": [0.273206, 0.983054, 0.869327], "properties": {"magmom": 0.0}, "label": "Er", "xyz": [8.7944129416, 0.888137275167999, 4.845661400780999]}, {"species": [{"element": "Er", "occu": 1}], "abc": [0.903879, 0.613727, 0.130672999999999], "properties": {"magmom": -0.0}, "label": "Er", "xyz": [-0.8881372751680056, 2.3435710583999945, 17.368918400781013]}, {"species": [{"element": "Er", "occu": 1}], "abc": [0.483054, 0.773206, 0.869327], "properties": {"magmom": -0.0}, "label": "Er", "xyz": [6.457129275167999, 3.2254209415999995, 4.845661400780999]}, {"species": [{"element": "Er", "occu": 1}], "abc": [0.983054, 0.113727, 0.709847999999999], "properties": {"magmom": 0.0}, "label": "Er", "xyz": [-0.8881372751680057, 8.794412941599994, 4.845661400781012]}, {"species": [{"element": "Er", "occu": 1}], "abc": [0.403879, 0.273206, 0.290151999999999], "properties": {"magmom": 0.0}, "label": "Er", "xyz": [0.8881372751679946, 2.3435710583999945, 4.845661400781012]}, {"species": [{"element": "Er", "occu": 1}], "abc": [0.849622, 0.349622, 0.199244], "properties": {"magmom": 0.0}, "label": "Er", "xyz": [-1.6749077579519995, 3.8940842420479993, 12.523256999999997]}, {"species": [{"element": "Er", "occu": 1}], "abc": [0.150377999999999, 0.650378, 0.800755999999999], "properties": {"magmom": 0.0}, "label": "Er", "xyz": [7.243899757952, 1.6749077579519893, 0.0]}, {"species": [{"element": "Er", "occu": 1}], "abc": [0.349622, 0.150377999999999, 0.5], "properties": {"magmom": 0.0}, "label": "Er", "xyz": [1.6749077579519944, 3.894084242048005, -1.3322676295501878e-14]}, {"species": [{"element": "Er", "occu": 1}], "abc": [0.650378, 0.849622, 0.5], "properties": {"magmom": 0.0}, "label": "Er", "xyz": [3.8940842420479993, 1.6749077579520004, 12.523256999999997]}, {"species": [{"element": "Er", "occu": 1}], "abc": [0.388071, 0.8880709999999991, 0.5], "properties": {"magmom": 0.0}, "label": "Er", "xyz": [5.568991999999994, 5.329070518200751e-15, 9.719825734493988]}, {"species": [{"element": "Er", "occu": 1}], "abc": [0.8880709999999991, 0.388071, 0.5], "properties": {"magmom": 0.0}, "label": "Er", "xyz": [5.329070518200751e-15, 5.568991999999994, 9.719825734493988]}, {"species": [{"element": "Er", "occu": 1}], "abc": [0.611929, 0.111929, 0.5], "properties": {"magmom": 0.0}, "label": "Er", "xyz": [0.0, 5.568992, 2.803431265506]}, {"species": [{"element": "Er", "occu": 1}], "abc": [0.111929, 0.611929, 0.5], "properties": {"magmom": 0.0}, "label": "Er", "xyz": [5.568992, 0.0, 2.803431265506]}, {"species": [{"element": "Er", "occu": 1}], "abc": [0.25, 0.75, 0.5], "properties": {"magmom": -0.0}, "label": "Er", "xyz": [5.568992, 4.440892098500626e-16, 6.2616285]}, {"species": [{"element": "Er", "occu": 1}], "abc": [0.75, 0.25, 0.5], "properties": {"magmom": -0.0}, "label": "Er", "xyz": [4.440892098500626e-16, 5.568992, 6.2616285]}, {"species": [{"element": "Rh", "occu": 1}], "abc": [0.714727999999999, 0.214728, 0.142078999999999], "properties": {"magmom": -0.0}, "label": "Rh", "xyz": [-1.993259185632, 3.575732814367989, 9.860524526889]}, {"species": [{"element": "Rh", "occu": 1}], "abc": [0.072648999999999, 0.572649, 0.857920999999999], "properties": {"magmom": -0.0}, "label": "Rh", "xyz": [7.562251185631999, 1.993259185631989, -2.662732473111001]}, {"species": [{"element": "Rh", "occu": 1}], "abc": [0.214728, 0.072648999999999, 0.5], "properties": {"magmom": -0.0}, "label": "Rh", "xyz": [1.9932591856319943, 3.5757328143680054, -2.6627324731110122]}, {"species": [{"element": "Rh", "occu": 1}], "abc": [0.572649, 0.714727999999999, 0.5], "properties": {"magmom": -0.0}, "label": "Rh", "xyz": [3.5757328143679947, 1.993259185632005, 9.860524526888987]}, {"species": [{"element": "Rh", "occu": 1}], "abc": [0.285271999999999, 0.785272, 0.857920999999999], "properties": {"magmom": -0.0}, "label": "Rh", "xyz": [7.5622511856319985, 1.9932591856319894, 2.6627324731109994]}, {"species": [{"element": "Rh", "occu": 1}], "abc": [0.927350999999999, 0.427351, 0.142078999999999], "properties": {"magmom": -0.0}, "label": "Rh", "xyz": [-1.993259185632, 3.575732814367989, 15.185989473110997]}, {"species": [{"element": "Rh", "occu": 1}], "abc": [0.785272, 0.927350999999999, 0.5], "properties": {"magmom": -0.0}, "label": "Rh", "xyz": [3.5757328143679947, 1.993259185632005, 15.185989473110986]}, {"species": [{"element": "Rh", "occu": 1}], "abc": [0.427351, 0.285271999999999, 0.5], "properties": {"magmom": -0.0}, "label": "Rh", "xyz": [1.9932591856319948, 3.575732814368005, 2.662732473110988]}, {"species": [{"element": "Rh", "occu": 1}], "abc": [0.465865, 0.965865, 0.808416999999999], "properties": {"magmom": -0.0}, "label": "Rh", "xyz": [7.286563805663994, 1.7175718056639946, 7.8059088904410086]}, {"species": [{"element": "Rh", "occu": 1}], "abc": [0.157448, 0.657447999999999, 0.191583], "properties": {"magmom": -0.0}, "label": "Rh", "xyz": [3.8514201943359945, -1.7175718056639946, 7.805908890440988]}, {"species": [{"element": "Rh", "occu": 1}], "abc": [0.965865, 0.157448, 0.5], "properties": {"magmom": -0.0}, "label": "Rh", "xyz": [-1.717571805664, 7.286563805664, 7.805908890440999]}, {"species": [{"element": "Rh", "occu": 1}], "abc": [0.657447999999999, 0.465865, 0.5], "properties": {"magmom": -0.0}, "label": "Rh", "xyz": [1.7175718056640052, 3.8514201943359945, 7.805908890440988]}, {"species": [{"element": "Rh", "occu": 1}], "abc": [0.534135, 0.034135, 0.191583], "properties": {"magmom": -0.0}, "label": "Rh", "xyz": [-1.717571805664, 3.851420194336, 4.7173481095589995]}, {"species": [{"element": "Rh", "occu": 1}], "abc": [0.842552, 0.342551999999999, 0.808416999999999], "properties": {"magmom": -0.0}, "label": "Rh", "xyz": [1.7175718056639893, 7.286563805664, 4.7173481095589995]}, {"species": [{"element": "Rh", "occu": 1}], "abc": [0.034135, 0.842552, 0.5], "properties": {"magmom": -0.0}, "label": "Rh", "xyz": [7.286563805664, -1.717571805664, 4.717348109558999]}, {"species": [{"element": "Rh", "occu": 1}], "abc": [0.342551999999999, 0.534135, 0.5], "properties": {"magmom": -0.0}, "label": "Rh", "xyz": [3.851420194336005, 1.7175718056639944, 4.717348109558988]}, {"species": [{"element": "Rh", "occu": 1}], "abc": [0.596746, 0.096746, 0.693492999999999], "properties": {"magmom": -0.0}, "label": "Rh", "xyz": [1.0775609690559946, 6.646552969055994, -1.2523256987861942e-05]}, {"species": [{"element": "Rh", "occu": 1}], "abc": [0.403254, 0.903254, 0.306507], "properties": {"magmom": -0.0}, "label": "Rh", "xyz": [4.491431030944, -1.0775609690560002, 12.523269523257]}, {"species": [{"element": "Rh", "occu": 1}], "abc": [0.096746, 0.403254, 0.5], "properties": {"magmom": -0.0}, "label": "Rh", "xyz": [4.491436599936, 1.077555400064, 0.0]}, {"species": [{"element": "Rh", "occu": 1}], "abc": [0.903254, 0.596746, 0.5], "properties": {"magmom": -0.0}, "label": "Rh", "xyz": [1.077555400064, 4.491436599936, 12.523256999999997]}, {"species": [{"element": "Rh", "occu": 1}], "abc": [0.366456, 0.366456, 0.0], "properties": {"magmom": -0.0}, "label": "Rh", "xyz": [0.0, 0.0, 9.178445334384]}, {"species": [{"element": "Rh", "occu": 1}], "abc": [0.866456, 0.866456, 0.0], "properties": {"magmom": -0.0}, "label": "Rh", "xyz": [0.0, 0.0, 21.701702334384]}, {"species": [{"element": "Rh", "occu": 1}], "abc": [0.633544, 0.633544, 0.0], "properties": {"magmom": -0.0}, "label": "Rh", "xyz": [0.0, 0.0, 15.868068665615999]}, {"species": [{"element": "Rh", "occu": 1}], "abc": [0.133544, 0.133544, 0.0], "properties": {"magmom": -0.0}, "label": "Rh", "xyz": [0.0, 0.0, 3.3448116656159996]}, {"species": [{"element": "Rh", "occu": 1}], "abc": [0.5, 0.5, 0.0], "properties": {"magmom": -0.0}, "label": "Rh", "xyz": [0.0, 0.0, 12.523257]}, {"species": [{"element": "Rh", "occu": 1}], "abc": [0.0, 0.0, 0.0], "properties": {"magmom": -0.0}, "label": "Rh", "xyz": [0.0, 0.0, 0.0]}, {"species": [{"element": "Rh", "occu": 1}], "abc": [0.25, 0.25, 0.0], "properties": {"magmom": -0.0}, "label": "Rh", "xyz": [0.0, 0.0, 6.2616285]}, {"species": [{"element": "Rh", "occu": 1}], "abc": [0.75, 0.75, 0.0], "properties": {"magmom": -0.0}, "label": "Rh", "xyz": [0.0, 0.0, 18.784885499999998]}]}, "task_ids": null, "uncorrected_energy_per_atom": null, "energy_per_atom": -6.49384374, "formation_energy_per_atom": -0.807489305999998, "energy_above_hull": 0.0, "is_stable": true, "equilibrium_reaction_energy_per_atom": null, "decomposes_to": null, "xas": null, "grain_boundaries": null, "band_gap": 0.0, "cbm": null, "vbm": null, "efermi": 4.45411178, "is_gap_direct": null, "is_metal": null, "es_source_calc_id": null, "bandstructure": null, "dos": null, "dos_energy_up": null, "dos_energy_down": null, "is_magnetic": null, "ordering": null, "total_magnetization": 0.0145711, "total_magnetization_normalized_vol": null, "total_magnetization_normalized_formula_units": null, "num_magnetic_sites": null, "num_unique_magnetic_sites": null, "types_of_magnetic_species": null, "bulk_modulus": null, "shear_modulus": null, "universal_anisotropy": null, "homogeneous_poisson": null, "e_total": null, "e_ionic": null, "e_electronic": null, "n": null, "e_ij_max": null, "weighted_surface_energy_EV_PER_ANG2": null, "weighted_surface_energy": null, "weighted_work_function": null, "surface_anisotropy": null, "shape_factor": null, "has_reconstructed": null, "possible_species": null, "has_props": null, "theoretical": null, "database_IDs": null, "fields_not_requested": ["builder_meta", "nsites", "elements", "nelements", "composition", "composition_reduced", "chemsys", "symmetry", "property_name", "deprecated", "deprecation_reasons", "last_updated", "origins", "warnings", "task_ids", "uncorrected_energy_per_atom", "equilibrium_reaction_energy_per_atom", "decomposes_to", "xas", "grain_boundaries", "cbm", "vbm", "is_gap_direct", "is_metal", "es_source_calc_id", "bandstructure", "dos", "dos_energy_up", "dos_energy_down", "is_magnetic", "ordering", "total_magnetization_normalized_vol", "total_magnetization_normalized_formula_units", "num_magnetic_sites", "num_unique_magnetic_sites", "types_of_magnetic_species", "bulk_modulus", "shear_modulus", "universal_anisotropy", "homogeneous_poisson", "e_total", "e_ionic", "e_electronic", "n", "e_ij_max", "weighted_surface_energy_EV_PER_ANG2", "weighted_surface_energy", "weighted_work_function", "surface_anisotropy", "shape_factor", "has_reconstructed", "possible_species", "has_props", "theoretical", "database_IDs"]}