{"builder_meta": null, "nsites": null, "elements": null, "nelements": null, "composition": null, "composition_reduced": null, "formula_pretty": "Er3Rh", "formula_anonymous": "AB3", "chemsys": null, "volume": 411.06520780628125, "density": 9.770702020712454, "density_atomic": 25.691575487892578, "symmetry": null, "property_name": null, "material_id": "mp-11437", "deprecated": null, "deprecation_reasons": null, "last_updated": null, "origins": null, "warnings": null, "structure": {"@module": "pymatgen.core.structure", "@class": "Structure", "charge": 0, "lattice": {"matrix": [[6.22965255, -0.0, 0.0], [0.0, 7.06098947, 0.0], [0.0, 0.0, 9.34504358]], "pbc": [true, true, true], "a": 6.22965255, "b": 7.06098947, "c": 9.34504358, "alpha": 90.0, "beta": 90.0, "gamma": 90.0, "volume": 411.06520780628125}, "properties": {}, "sites": [{"species": [{"element": "Er", "occu": 1}], "abc": [0.67441835, 0.17460547, 0.06359581], "properties": {"magmom": -0.108}, "label": "Er", "xyz": [4.201391993844293, 1.2328873850744009, 0.5943056159553999]}, {"species": [{"element": "Er", "occu": 1}], "abc": [0.17441835, 0.32539453, 0.93640419], "properties": {"magmom": -0.108}, "label": "Er", "xyz": [1.0865657188442925, 2.2976073499255993, 8.7507379640446]}, {"species": [{"element": "Er", "occu": 1}], "abc": [0.8255816500000001, 0.67460547, 0.43640419], "properties": {"magmom": -0.108}, "label": "Er", "xyz": [5.143086831155708, 4.763382120074401, 4.0782161740446]}, {"species": [{"element": "Er", "occu": 1}], "abc": [0.32558165, 0.8253945300000001, 0.56359581], "properties": {"magmom": -0.108}, "label": "Er", "xyz": [2.0282605561557077, 5.828102084925599, 5.2668274059554]}, {"species": [{"element": "Er", "occu": 1}], "abc": [0.32558165, 0.8253945300000001, 0.93640419], "properties": {"magmom": -0.108}, "label": "Er", "xyz": [2.0282605561557077, 5.828102084925599, 8.7507379640446]}, {"species": [{"element": "Er", "occu": 1}], "abc": [0.8255816500000001, 0.67460547, 0.06359581], "properties": {"magmom": -0.108}, "label": "Er", "xyz": [5.143086831155708, 4.763382120074401, 0.5943056159553999]}, {"species": [{"element": "Er", "occu": 1}], "abc": [0.17441835, 0.32539453, 0.56359581], "properties": {"magmom": -0.108}, "label": "Er", "xyz": [1.0865657188442925, 2.2976073499255993, 5.2668274059554]}, {"species": [{"element": "Er", "occu": 1}], "abc": [0.67441835, 0.17460547, 0.43640419], "properties": {"magmom": -0.108}, "label": "Er", "xyz": [4.201391993844293, 1.2328873850744009, 4.0782161740446]}, {"species": [{"element": "Er", "occu": 1}], "abc": [0.86373089, 0.96362384, 0.75], "properties": {"magmom": -0.077}, "label": "Er", "xyz": [5.38074334140227, 6.804137787280965, 7.008782685]}, {"species": [{"element": "Er", "occu": 1}], "abc": [0.36373089000000003, 0.53637616, 0.25], "properties": {"magmom": -0.077}, "label": "Er", "xyz": [2.26591706640227, 3.7873464177190352, 2.336260895]}, {"species": [{"element": "Er", "occu": 1}], "abc": [0.63626911, 0.46362384, 0.75], "properties": {"magmom": -0.077}, "label": "Er", "xyz": [3.96373548359773, 3.2736430522809647, 7.008782685]}, {"species": [{"element": "Er", "occu": 1}], "abc": [0.13626911, 0.03637616, 0.25], "properties": {"magmom": -0.077}, "label": "Er", "xyz": [0.8489092085977304, 0.2568516827190352, 2.336260895]}, {"species": [{"element": "Rh", "occu": 1}], "abc": [0.05348228, 0.61776803, 0.75], "properties": {"magmom": -0.035}, "label": "Rh", "xyz": [0.333176021981814, 4.362053554732644, 7.008782685]}, {"species": [{"element": "Rh", "occu": 1}], "abc": [0.55348228, 0.88223197, 0.25], "properties": {"magmom": -0.035}, "label": "Rh", "xyz": [3.448002296981814, 6.229430650267355, 2.336260895]}, {"species": [{"element": "Rh", "occu": 1}], "abc": [0.44651772, 0.11776803, 0.75], "properties": {"magmom": -0.035}, "label": "Rh", "xyz": [2.781650253018186, 0.8315588197326441, 7.008782685]}, {"species": [{"element": "Rh", "occu": 1}], "abc": [0.94651772, 0.38223197000000003, 0.25], "properties": {"magmom": -0.035}, "label": "Rh", "xyz": [5.896476528018186, 2.698935915267356, 2.336260895]}]}, "task_ids": null, "uncorrected_energy_per_atom": null, "energy_per_atom": -5.814996551874998, "formation_energy_per_atom": -0.548130476874995, "energy_above_hull": 0.0, "is_stable": true, "equilibrium_reaction_energy_per_atom": null, "decomposes_to": null, "xas": null, "grain_boundaries": null, "band_gap": 0.0, "cbm": null, "vbm": null, "efermi": 3.69930275, "is_gap_direct": null, "is_metal": null, "es_source_calc_id": null, "bandstructure": null, "dos": null, "dos_energy_up": null, "dos_energy_down": null, "is_magnetic": null, "ordering": null, "total_magnetization": 1.7923013, "total_magnetization_normalized_vol": null, "total_magnetization_normalized_formula_units": null, "num_magnetic_sites": null, "num_unique_magnetic_sites": null, "types_of_magnetic_species": null, "bulk_modulus": null, "shear_modulus": null, "universal_anisotropy": null, "homogeneous_poisson": null, "e_total": null, "e_ionic": null, "e_electronic": null, "n": null, "e_ij_max": null, "weighted_surface_energy_EV_PER_ANG2": null, "weighted_surface_energy": null, "weighted_work_function": null, "surface_anisotropy": null, "shape_factor": null, "has_reconstructed": null, "possible_species": null, "has_props": null, "theoretical": null, "database_IDs": null, "fields_not_requested": ["builder_meta", "nsites", "elements", "nelements", "composition", "composition_reduced", "chemsys", "symmetry", "property_name", "deprecated", "deprecation_reasons", "last_updated", "origins", "warnings", "task_ids", "uncorrected_energy_per_atom", "equilibrium_reaction_energy_per_atom", "decomposes_to", "xas", "grain_boundaries", "cbm", "vbm", "is_gap_direct", "is_metal", "es_source_calc_id", "bandstructure", "dos", "dos_energy_up", "dos_energy_down", "is_magnetic", "ordering", "total_magnetization_normalized_vol", "total_magnetization_normalized_formula_units", "num_magnetic_sites", "num_unique_magnetic_sites", "types_of_magnetic_species", "bulk_modulus", "shear_modulus", "universal_anisotropy", "homogeneous_poisson", "e_total", "e_ionic", "e_electronic", "n", "e_ij_max", "weighted_surface_energy_EV_PER_ANG2", "weighted_surface_energy", "weighted_work_function", "surface_anisotropy", "shape_factor", "has_reconstructed", "possible_species", "has_props", "theoretical", "database_IDs"]}