{
  "builder_meta": null,
  "nsites": null,
  "elements": null,
  "nelements": null,
  "composition": null,
  "composition_reduced": null,
  "formula_pretty": "Er3Ru",
  "formula_anonymous": "AB3",
  "chemsys": null,
  "volume": 412.78775288083233,
  "density": 9.700394332887134,
  "density_atomic": 25.79923455505202,
  "symmetry": null,
  "property_name": null,
  "material_id": "mp-1189274",
  "deprecated": null,
  "deprecation_reasons": null,
  "last_updated": null,
  "origins": null,
  "warnings": null,
  "structure": {
    "@module": "pymatgen.core.structure",
    "@class": "Structure",
    "charge": 0,
    "lattice": {
      "matrix": [
        [0.0, 0.0, 6.236655],
        [7.272444, 0.0, 0.0],
        [0.0, 9.101117, 0.0]
      ],
      "pbc": [true, true, true],
      "a": 6.236655,
      "b": 7.272444,
      "c": 9.101117,
      "alpha": 90.0,
      "beta": 90.0,
      "gamma": 90.0,
      "volume": 412.78775288083233
    },
    "properties": {},
    "sites": [
      {
        "species": [{ "element": "Er", "occu": 1 }],
        "abc": [0.331272, 0.677056, 0.06400499999999901],
        "properties": { "magmom": -0.0 },
        "label": "Er",
        "xyz": [4.923851844864, 0.582516993584991, 2.06602917516]
      },
      {
        "species": [{ "element": "Er", "occu": 1 }],
        "abc": [0.168728, 0.177056, 0.435994999999999],
        "properties": { "magmom": -0.0 },
        "label": "Er",
        "xyz": [1.287629844864, 3.968041506414991, 1.05229832484]
      },
      {
        "species": [{ "element": "Er", "occu": 1 }],
        "abc": [0.668728, 0.322944, 0.564005],
        "properties": { "magmom": -0.0 },
        "label": "Er",
        "xyz": [2.348592155136, 5.133075493585, 4.17062582484]
      },
      {
        "species": [{ "element": "Er", "occu": 1 }],
        "abc": [0.831272, 0.822944, 0.935994999999999],
        "properties": { "magmom": -0.0 },
        "label": "Er",
        "xyz": [5.984814155136, 8.518600006414992, 5.18435667516]
      },
      {
        "species": [{ "element": "Er", "occu": 1 }],
        "abc": [0.668728, 0.322944, 0.935994999999999],
        "properties": { "magmom": -0.0 },
        "label": "Er",
        "xyz": [2.348592155136, 8.518600006414992, 4.17062582484]
      },
      {
        "species": [{ "element": "Er", "occu": 1 }],
        "abc": [0.831272, 0.822944, 0.564005],
        "properties": { "magmom": -0.0 },
        "label": "Er",
        "xyz": [5.984814155136, 5.133075493585, 5.18435667516]
      },
      {
        "species": [{ "element": "Er", "occu": 1 }],
        "abc": [0.331272, 0.677056, 0.435994999999999],
        "properties": { "magmom": -0.0 },
        "label": "Er",
        "xyz": [4.923851844864, 3.968041506414991, 2.06602917516]
      },
      {
        "species": [{ "element": "Er", "occu": 1 }],
        "abc": [0.168728, 0.177056, 0.06400499999999901],
        "properties": { "magmom": -0.0 },
        "label": "Er",
        "xyz": [1.287629844864, 0.582516993584991, 1.05229832484]
      },
      {
        "species": [{ "element": "Er", "occu": 1 }],
        "abc": [0.86643, 0.538253, 0.25],
        "properties": { "magmom": -0.0 },
        "label": "Er",
        "xyz": [3.914414800332, 2.27527925, 5.40362499165]
      },
      {
        "species": [{ "element": "Er", "occu": 1 }],
        "abc": [0.6335700000000001, 0.038252999999999, 0.25],
        "properties": { "magmom": -0.0 },
        "label": "Er",
        "xyz": [0.27819280033199273, 2.27527925, 3.9513575083500005]
      },
      {
        "species": [{ "element": "Er", "occu": 1 }],
        "abc": [0.13357000000000002, 0.461746999999999, 0.75],
        "properties": { "magmom": -0.0 },
        "label": "Er",
        "xyz": [3.358029199667993, 6.82583775, 0.8330300083500001]
      },
      {
        "species": [{ "element": "Er", "occu": 1 }],
        "abc": [0.36643000000000003, 0.961746999999999, 0.75],
        "properties": { "magmom": -0.0 },
        "label": "Er",
        "xyz": [6.994251199667993, 6.82583775, 2.28529749165]
      },
      {
        "species": [{ "element": "Ru", "occu": 1 }],
        "abc": [0.042143, 0.883856, 0.25],
        "properties": { "magmom": 0.0 },
        "label": "Ru",
        "xyz": [6.427793264064, 2.27527925, 0.262831351665]
      },
      {
        "species": [{ "element": "Ru", "occu": 1 }],
        "abc": [0.457856999999999, 0.383856, 0.25],
        "properties": { "magmom": 0.0 },
        "label": "Ru",
        "xyz": [2.791571264064, 2.27527925, 2.8554961483349937]
      },
      {
        "species": [{ "element": "Ru", "occu": 1 }],
        "abc": [0.957857, 0.116144, 0.75],
        "properties": { "magmom": 0.0 },
        "label": "Ru",
        "xyz": [0.844650735936, 6.82583775, 5.973823648334999]
      },
      {
        "species": [{ "element": "Ru", "occu": 1 }],
        "abc": [0.542142999999999, 0.616144, 0.75],
        "properties": { "magmom": 0.0 },
        "label": "Ru",
        "xyz": [4.480872735936, 6.82583775, 3.3811588516649937]
      }
    ]
  },
  "task_ids": null,
  "uncorrected_energy_per_atom": null,
  "energy_per_atom": -6.0987811,
  "formation_energy_per_atom": -0.354391357499998,
  "energy_above_hull": 0.0,
  "is_stable": true,
  "equilibrium_reaction_energy_per_atom": null,
  "decomposes_to": null,
  "xas": null,
  "grain_boundaries": null,
  "band_gap": 0.0,
  "cbm": null,
  "vbm": null,
  "efermi": 3.78983185,
  "is_gap_direct": null,
  "is_metal": null,
  "es_source_calc_id": null,
  "bandstructure": null,
  "dos": null,
  "dos_energy_up": null,
  "dos_energy_down": null,
  "is_magnetic": null,
  "ordering": null,
  "total_magnetization": 0.0012046,
  "total_magnetization_normalized_vol": null,
  "total_magnetization_normalized_formula_units": null,
  "num_magnetic_sites": null,
  "num_unique_magnetic_sites": null,
  "types_of_magnetic_species": null,
  "bulk_modulus": null,
  "shear_modulus": null,
  "universal_anisotropy": null,
  "homogeneous_poisson": null,
  "e_total": null,
  "e_ionic": null,
  "e_electronic": null,
  "n": null,
  "e_ij_max": null,
  "weighted_surface_energy_EV_PER_ANG2": null,
  "weighted_surface_energy": null,
  "weighted_work_function": null,
  "surface_anisotropy": null,
  "shape_factor": null,
  "has_reconstructed": null,
  "possible_species": null,
  "has_props": null,
  "theoretical": null,
  "database_IDs": null,
  "fields_not_requested": [
    "builder_meta",
    "nsites",
    "elements",
    "nelements",
    "composition",
    "composition_reduced",
    "chemsys",
    "symmetry",
    "property_name",
    "deprecated",
    "deprecation_reasons",
    "last_updated",
    "origins",
    "warnings",
    "task_ids",
    "uncorrected_energy_per_atom",
    "equilibrium_reaction_energy_per_atom",
    "decomposes_to",
    "xas",
    "grain_boundaries",
    "cbm",
    "vbm",
    "is_gap_direct",
    "is_metal",
    "es_source_calc_id",
    "bandstructure",
    "dos",
    "dos_energy_up",
    "dos_energy_down",
    "is_magnetic",
    "ordering",
    "total_magnetization_normalized_vol",
    "total_magnetization_normalized_formula_units",
    "num_magnetic_sites",
    "num_unique_magnetic_sites",
    "types_of_magnetic_species",
    "bulk_modulus",
    "shear_modulus",
    "universal_anisotropy",
    "homogeneous_poisson",
    "e_total",
    "e_ionic",
    "e_electronic",
    "n",
    "e_ij_max",
    "weighted_surface_energy_EV_PER_ANG2",
    "weighted_surface_energy",
    "weighted_work_function",
    "surface_anisotropy",
    "shape_factor",
    "has_reconstructed",
    "possible_species",
    "has_props",
    "theoretical",
    "database_IDs"
  ]
}
