{
  "builder_meta": null,
  "nsites": null,
  "elements": null,
  "nelements": null,
  "composition": null,
  "composition_reduced": null,
  "formula_pretty": "Er3Sn7",
  "formula_anonymous": "A3B7",
  "chemsys": null,
  "volume": 254.05570309209753,
  "density": 8.71099696821877,
  "density_atomic": 25.405570309209754,
  "symmetry": null,
  "property_name": null,
  "material_id": "mp-1079090",
  "deprecated": null,
  "deprecation_reasons": null,
  "last_updated": null,
  "origins": null,
  "warnings": null,
  "structure": {
    "@module": "pymatgen.core.structure",
    "@class": "Structure",
    "charge": 0,
    "lattice": {
      "matrix": [
        [-4.35654415, 0.0, 0.0],
        [0.0, 0.0, -4.40562392],
        [2.17827258, -13.23669029, 0.0]
      ],
      "pbc": [true, true, true],
      "a": 4.35654415,
      "b": 4.40562392,
      "c": 13.414724792784984,
      "alpha": 90.0,
      "beta": 99.34502186257666,
      "gamma": 90.0,
      "volume": 254.05570309209753
    },
    "properties": {},
    "sites": [
      {
        "species": [{ "element": "Er", "occu": 1 }],
        "abc": [0.0, 0.5, 0.0],
        "properties": { "magmom": -0.0 },
        "label": "Er",
        "xyz": [0.0, 0.0, -2.20281196]
      },
      {
        "species": [{ "element": "Er", "occu": 1 }],
        "abc": [0.31141208, 0.0, 0.62282515],
        "properties": { "magmom": 0.0 },
        "label": "Er",
        "xyz": [2.4710160548835347e-6, -8.244143615372794, 0.0]
      },
      {
        "species": [{ "element": "Er", "occu": 1 }],
        "abc": [0.68858792, 0.0, 0.37717485],
        "properties": { "magmom": 0.0 },
        "label": "Er",
        "xyz": [-2.1782740410160555, -4.9925466746272065, 0.0]
      },
      {
        "species": [{ "element": "Sn", "occu": 1 }],
        "abc": [0.5, 0.0, 0.0],
        "properties": { "magmom": -0.0 },
        "label": "Sn",
        "xyz": [-2.178272075, 0.0, 0.0]
      },
      {
        "species": [{ "element": "Sn", "occu": 1 }],
        "abc": [0.40319699000000003, 0.5, 0.80639598],
        "properties": { "magmom": 0.0 },
        "label": "Sn",
        "xyz": [4.763774119398434e-6, -10.674013838361034, -2.20281196]
      },
      {
        "species": [{ "element": "Sn", "occu": 1 }],
        "abc": [0.59680301, 0.5, 0.19360402000000002],
        "properties": { "magmom": 0.0 },
        "label": "Sn",
        "xyz": [-2.17827633377412, -2.562676451638966, -2.20281196]
      },
      {
        "species": [{ "element": "Sn", "occu": 1 }],
        "abc": [0.09678381, 0.0, 0.19356962],
        "properties": { "magmom": -0.0 },
        "label": "Sn",
        "xyz": [4.4542968080651946e-6, -2.56222110949299, 0.0]
      },
      {
        "species": [{ "element": "Sn", "occu": 1 }],
        "abc": [0.90321619, -0.0, 0.80643038],
        "properties": { "magmom": -0.0 },
        "label": "Sn",
        "xyz": [-2.1782760242968084, -10.67446918050701, 0.0]
      },
      {
        "species": [{ "element": "Sn", "occu": 1 }],
        "abc": [0.2120974, 0.5, 0.4241948],
        "properties": { "magmom": -0.0 },
        "label": "Sn",
        "xyz": [2.142183738174097e-7, -5.614935190228492, -2.20281196]
      },
      {
        "species": [{ "element": "Sn", "occu": 1 }],
        "abc": [0.7879026, 0.5, 0.5758052],
        "properties": { "magmom": -0.0 },
        "label": "Sn",
        "xyz": [-2.1782717842183743, -7.621755099771509, -2.20281196]
      }
    ]
  },
  "task_ids": null,
  "uncorrected_energy_per_atom": null,
  "energy_per_atom": -4.680988976999998,
  "formation_energy_per_atom": -0.5039730354999971,
  "energy_above_hull": 0.0,
  "is_stable": true,
  "equilibrium_reaction_energy_per_atom": null,
  "decomposes_to": null,
  "xas": null,
  "grain_boundaries": null,
  "band_gap": 0.0,
  "cbm": null,
  "vbm": null,
  "efermi": 7.32604784,
  "is_gap_direct": null,
  "is_metal": null,
  "es_source_calc_id": null,
  "bandstructure": null,
  "dos": null,
  "dos_energy_up": null,
  "dos_energy_down": null,
  "is_magnetic": null,
  "ordering": null,
  "total_magnetization": 1e-7,
  "total_magnetization_normalized_vol": null,
  "total_magnetization_normalized_formula_units": null,
  "num_magnetic_sites": null,
  "num_unique_magnetic_sites": null,
  "types_of_magnetic_species": null,
  "bulk_modulus": null,
  "shear_modulus": null,
  "universal_anisotropy": null,
  "homogeneous_poisson": null,
  "e_total": null,
  "e_ionic": null,
  "e_electronic": null,
  "n": null,
  "e_ij_max": null,
  "weighted_surface_energy_EV_PER_ANG2": null,
  "weighted_surface_energy": null,
  "weighted_work_function": null,
  "surface_anisotropy": null,
  "shape_factor": null,
  "has_reconstructed": null,
  "possible_species": null,
  "has_props": null,
  "theoretical": null,
  "database_IDs": null,
  "fields_not_requested": [
    "builder_meta",
    "nsites",
    "elements",
    "nelements",
    "composition",
    "composition_reduced",
    "chemsys",
    "symmetry",
    "property_name",
    "deprecated",
    "deprecation_reasons",
    "last_updated",
    "origins",
    "warnings",
    "task_ids",
    "uncorrected_energy_per_atom",
    "equilibrium_reaction_energy_per_atom",
    "decomposes_to",
    "xas",
    "grain_boundaries",
    "cbm",
    "vbm",
    "is_gap_direct",
    "is_metal",
    "es_source_calc_id",
    "bandstructure",
    "dos",
    "dos_energy_up",
    "dos_energy_down",
    "is_magnetic",
    "ordering",
    "total_magnetization_normalized_vol",
    "total_magnetization_normalized_formula_units",
    "num_magnetic_sites",
    "num_unique_magnetic_sites",
    "types_of_magnetic_species",
    "bulk_modulus",
    "shear_modulus",
    "universal_anisotropy",
    "homogeneous_poisson",
    "e_total",
    "e_ionic",
    "e_electronic",
    "n",
    "e_ij_max",
    "weighted_surface_energy_EV_PER_ANG2",
    "weighted_surface_energy",
    "weighted_work_function",
    "surface_anisotropy",
    "shape_factor",
    "has_reconstructed",
    "possible_species",
    "has_props",
    "theoretical",
    "database_IDs"
  ]
}
