{
  "builder_meta": null,
  "nsites": null,
  "elements": null,
  "nelements": null,
  "composition": null,
  "composition_reduced": null,
  "formula_pretty": "Er3Tm",
  "formula_anonymous": "AB3",
  "chemsys": null,
  "volume": 247.8311195105659,
  "density": 8.98791216220991,
  "density_atomic": 30.97888993882074,
  "symmetry": null,
  "property_name": null,
  "material_id": "mp-1184192",
  "deprecated": null,
  "deprecation_reasons": null,
  "last_updated": null,
  "origins": null,
  "warnings": null,
  "structure": {
    "@module": "pymatgen.core.structure",
    "@class": "Structure",
    "charge": 0,
    "lattice": {
      "matrix": [
        [7.08966783, -6e-6, -0.0],
        [-3.54483808, 6.13983899, 0.0],
        [-0.0, -0.0, 5.69341945]
      ],
      "pbc": [true, true, true],
      "a": 7.089667830002539,
      "b": 7.089675580486198,
      "c": 5.69341945,
      "alpha": 90.0,
      "beta": 90.0,
      "gamma": 120.00005119348711,
      "volume": 247.8311195105659
    },
    "properties": {},
    "sites": [
      {
        "species": [{ "element": "Er", "occu": 1 }],
        "abc": [0.1668921, 0.33378248, 0.25],
        "properties": { "magmom": 0.513 },
        "label": "Er",
        "xyz": [4.706910304408396e-6, 2.0493696835302955, 1.4233548625]
      },
      {
        "species": [{ "element": "Er", "occu": 1 }],
        "abc": [0.66621787, 0.83310944, 0.25],
        "properties": { "magmom": 0.513 },
        "label": "Er",
        "xyz": [1.770025332990647, 5.115153825341846, 1.4233548625]
      },
      {
        "species": [{ "element": "Er", "occu": 1 }],
        "abc": [0.1668921, 0.8331096100000001, 0.25],
        "properties": { "magmom": 0.513 },
        "label": "Er",
        "xyz": [-1.770029117890806, 5.1151578650690945, 1.4233548625]
      },
      {
        "species": [{ "element": "Er", "occu": 1 }],
        "abc": [0.8331059, 0.66621452, 0.75],
        "properties": { "magmom": 0.513 },
        "label": "Er",
        "xyz": [3.5448214982682744, 4.090444886964735, 4.2700645875]
      },
      {
        "species": [{ "element": "Er", "occu": 1 }],
        "abc": [0.33378513, 0.16689356, 0.75],
        "properties": { "magmom": 0.513 },
        "label": "Er",
        "xyz": [1.774815051498603, 1.0246975841571244, 4.2700645875]
      },
      {
        "species": [{ "element": "Er", "occu": 1 }],
        "abc": [0.8331069, 0.16689239, 0.75],
        "properties": { "magmom": 0.513 },
        "label": "Er",
        "xyz": [5.314844688546816, 1.0246874046148862, 4.2700645875]
      },
      {
        "species": [{ "element": "Tm", "occu": 1 }],
        "abc": [0.33333197000000003, 0.66666598, 0.75],
        "properties": { "magmom": 0.506 },
        "label": "Tm",
        "xyz": [-1.0008124993188261e-5, 4.09321977731874, 4.2700645875]
      },
      {
        "species": [{ "element": "Tm", "occu": 1 }],
        "abc": [0.66666803, 0.33333502, 0.25],
        "properties": { "magmom": 0.506 },
        "label": "Tm",
        "xyz": [3.5448362132869127, 2.04661935252025, 1.4233548625]
      }
    ]
  },
  "task_ids": null,
  "uncorrected_energy_per_atom": null,
  "energy_per_atom": -34.23439576125,
  "formation_energy_per_atom": -0.010057313749996001,
  "energy_above_hull": 0.0,
  "is_stable": true,
  "equilibrium_reaction_energy_per_atom": null,
  "decomposes_to": null,
  "xas": null,
  "grain_boundaries": null,
  "band_gap": 0.0,
  "cbm": null,
  "vbm": null,
  "efermi": 3.02221401,
  "is_gap_direct": null,
  "is_metal": null,
  "es_source_calc_id": null,
  "bandstructure": null,
  "dos": null,
  "dos_energy_up": null,
  "dos_energy_down": null,
  "is_magnetic": null,
  "ordering": null,
  "total_magnetization": 5.0713509,
  "total_magnetization_normalized_vol": null,
  "total_magnetization_normalized_formula_units": null,
  "num_magnetic_sites": null,
  "num_unique_magnetic_sites": null,
  "types_of_magnetic_species": null,
  "bulk_modulus": null,
  "shear_modulus": null,
  "universal_anisotropy": null,
  "homogeneous_poisson": null,
  "e_total": null,
  "e_ionic": null,
  "e_electronic": null,
  "n": null,
  "e_ij_max": null,
  "weighted_surface_energy_EV_PER_ANG2": null,
  "weighted_surface_energy": null,
  "weighted_work_function": null,
  "surface_anisotropy": null,
  "shape_factor": null,
  "has_reconstructed": null,
  "possible_species": null,
  "has_props": null,
  "theoretical": null,
  "database_IDs": null,
  "fields_not_requested": [
    "builder_meta",
    "nsites",
    "elements",
    "nelements",
    "composition",
    "composition_reduced",
    "chemsys",
    "symmetry",
    "property_name",
    "deprecated",
    "deprecation_reasons",
    "last_updated",
    "origins",
    "warnings",
    "task_ids",
    "uncorrected_energy_per_atom",
    "equilibrium_reaction_energy_per_atom",
    "decomposes_to",
    "xas",
    "grain_boundaries",
    "cbm",
    "vbm",
    "is_gap_direct",
    "is_metal",
    "es_source_calc_id",
    "bandstructure",
    "dos",
    "dos_energy_up",
    "dos_energy_down",
    "is_magnetic",
    "ordering",
    "total_magnetization_normalized_vol",
    "total_magnetization_normalized_formula_units",
    "num_magnetic_sites",
    "num_unique_magnetic_sites",
    "types_of_magnetic_species",
    "bulk_modulus",
    "shear_modulus",
    "universal_anisotropy",
    "homogeneous_poisson",
    "e_total",
    "e_ionic",
    "e_electronic",
    "n",
    "e_ij_max",
    "weighted_surface_energy_EV_PER_ANG2",
    "weighted_surface_energy",
    "weighted_work_function",
    "surface_anisotropy",
    "shape_factor",
    "has_reconstructed",
    "possible_species",
    "has_props",
    "theoretical",
    "database_IDs"
  ]
}
