{"builder_meta": null, "nsites": null, "elements": null, "nelements": null, "composition": null, "composition_reduced": null, "formula_pretty": "Er3Tl5", "formula_anonymous": "A3B5", "chemsys": null, "volume": 431.12211650844955, "density": 11.737521622715906, "density_atomic": 26.945132281778097, "symmetry": null, "property_name": null, "material_id": "mp-1105801", "deprecated": null, "deprecation_reasons": null, "last_updated": null, "origins": null, "warnings": null, "structure": {"@module": "pymatgen.core.structure", "@class": "Structure", "charge": 0, "lattice": {"matrix": [[5.133335, 3.960637, 0.0], [-5.133335, 3.960637, 0.0], [0.0, 0.0, 10.602436]], "pbc": [true, true, true], "a": 6.483654345197158, "b": 6.483654345197158, "c": 10.602436, "alpha": 90.0, "beta": 90.0, "gamma": 104.69586260228701, "volume": 431.12211650844955}, "properties": {}, "sites": [{"species": [{"element": "Er", "occu": 1}], "abc": [0.617138, 0.617138, 0.25], "properties": {"magmom": 0.0}, "label": "Er", "xyz": [0.0, 4.888519193812, 2.650609]}, {"species": [{"element": "Er", "occu": 1}], "abc": [0.382862, 0.382862, 0.75], "properties": {"magmom": 0.0}, "label": "Er", "xyz": [0.0, 3.032754806188, 7.951827000000001]}, {"species": [{"element": "Er", "occu": 1}], "abc": [0.794976999999999, 0.205022999999999, 0.5], "properties": {"magmom": 0.0}, "label": "Er", "xyz": [3.0284315165900004, 3.960636999999992, 5.301218]}, {"species": [{"element": "Er", "occu": 1}], "abc": [0.794976999999999, 0.205022999999999, 0.0], "properties": {"magmom": 0.0}, "label": "Er", "xyz": [3.0284315165900004, 3.960636999999992, 0.0]}, {"species": [{"element": "Er", "occu": 1}], "abc": [0.205022999999999, 0.794976999999999, 0.5], "properties": {"magmom": 0.0}, "label": "Er", "xyz": [-3.0284315165900004, 3.960636999999992, 5.301218]}, {"species": [{"element": "Er", "occu": 1}], "abc": [0.205022999999999, 0.794976999999999, 0.0], "properties": {"magmom": 0.0}, "label": "Er", "xyz": [-3.0284315165900004, 3.960636999999992, 0.0]}, {"species": [{"element": "Tl", "occu": 1}], "abc": [0.002032, 0.002032, 0.25], "properties": {"magmom": 0.0}, "label": "Tl", "xyz": [0.0, 0.016096028768, 2.650609]}, {"species": [{"element": "Tl", "occu": 1}], "abc": [0.997968, 0.997968, 0.75], "properties": {"magmom": 0.0}, "label": "Tl", "xyz": [0.0, 7.905177971232, 7.951827000000001]}, {"species": [{"element": "Tl", "occu": 1}], "abc": [0.30212, 0.30212, 0.043217], "properties": {"magmom": 0.0}, "label": "Tl", "xyz": [0.0, 2.3931753008800003, 0.458205476612]}, {"species": [{"element": "Tl", "occu": 1}], "abc": [0.6978800000000001, 0.6978800000000001, 0.956782999999999], "properties": {"magmom": 0.0}, "label": "Tl", "xyz": [0.0, 5.528098699120001, 10.144230523387991]}, {"species": [{"element": "Tl", "occu": 1}], "abc": [0.30212, 0.30212, 0.456783], "properties": {"magmom": 0.0}, "label": "Tl", "xyz": [0.0, 2.3931753008800003, 4.843012523388]}, {"species": [{"element": "Tl", "occu": 1}], "abc": [0.6978800000000001, 0.6978800000000001, 0.543217], "properties": {"magmom": 0.0}, "label": "Tl", "xyz": [0.0, 5.528098699120001, 5.759423476612]}, {"species": [{"element": "Tl", "occu": 1}], "abc": [0.061558999999999, 0.516012, 0.25], "properties": {"magmom": 0.0}, "label": "Tl", "xyz": [-2.332859490755005, 2.2875490727269963, 2.650609]}, {"species": [{"element": "Tl", "occu": 1}], "abc": [0.483988, 0.938441, 0.75], "properties": {"magmom": 0.0}, "label": "Tl", "xyz": [-2.332859490755, 5.633724927273001, 7.951827000000001]}, {"species": [{"element": "Tl", "occu": 1}], "abc": [0.938441, 0.483988, 0.75], "properties": {"magmom": 0.0}, "label": "Tl", "xyz": [2.332859490755, 5.633724927273001, 7.951827000000001]}, {"species": [{"element": "Tl", "occu": 1}], "abc": [0.516012, 0.061558999999999, 0.25], "properties": {"magmom": 0.0}, "label": "Tl", "xyz": [2.332859490755005, 2.2875490727269963, 2.650609]}]}, "task_ids": null, "uncorrected_energy_per_atom": null, "energy_per_atom": -3.430606420624999, "formation_energy_per_atom": -0.23554179395833702, "energy_above_hull": 0.011885468125000001, "is_stable": false, "equilibrium_reaction_energy_per_atom": null, "decomposes_to": null, "xas": null, "grain_boundaries": null, "band_gap": 0.0, "cbm": null, "vbm": null, "efermi": 6.0145021, "is_gap_direct": null, "is_metal": null, "es_source_calc_id": null, "bandstructure": null, "dos": null, "dos_energy_up": null, "dos_energy_down": null, "is_magnetic": null, "ordering": null, "total_magnetization": 0.004966, "total_magnetization_normalized_vol": null, "total_magnetization_normalized_formula_units": null, "num_magnetic_sites": null, "num_unique_magnetic_sites": null, "types_of_magnetic_species": null, "bulk_modulus": null, "shear_modulus": null, "universal_anisotropy": null, "homogeneous_poisson": null, "e_total": null, "e_ionic": null, "e_electronic": null, "n": null, "e_ij_max": null, "weighted_surface_energy_EV_PER_ANG2": null, "weighted_surface_energy": null, "weighted_work_function": null, "surface_anisotropy": null, "shape_factor": null, "has_reconstructed": null, "possible_species": null, "has_props": null, "theoretical": null, "database_IDs": null, "fields_not_requested": ["builder_meta", "nsites", "elements", "nelements", "composition", "composition_reduced", "chemsys", "symmetry", "property_name", "deprecated", "deprecation_reasons", "last_updated", "origins", "warnings", "task_ids", "uncorrected_energy_per_atom", "equilibrium_reaction_energy_per_atom", "decomposes_to", "xas", "grain_boundaries", "cbm", "vbm", "is_gap_direct", "is_metal", "es_source_calc_id", "bandstructure", "dos", "dos_energy_up", "dos_energy_down", "is_magnetic", "ordering", "total_magnetization_normalized_vol", "total_magnetization_normalized_formula_units", "num_magnetic_sites", "num_unique_magnetic_sites", "types_of_magnetic_species", "bulk_modulus", "shear_modulus", "universal_anisotropy", "homogeneous_poisson", "e_total", "e_ionic", "e_electronic", "n", "e_ij_max", "weighted_surface_energy_EV_PER_ANG2", "weighted_surface_energy", "weighted_work_function", "surface_anisotropy", "shape_factor", "has_reconstructed", "possible_species", "has_props", "theoretical", "database_IDs"]}