{"builder_meta": null, "nsites": null, "elements": null, "nelements": null, "composition": null, "composition_reduced": null, "formula_pretty": "Er4Al", "formula_anonymous": "AB4", "chemsys": null, "volume": 337.0717600049218, "density": 6.8576751363994255, "density_atomic": 33.70717600049218, "symmetry": null, "property_name": null, "material_id": "mp-1212928", "deprecated": null, "deprecation_reasons": null, "last_updated": null, "origins": null, "warnings": null, "structure": {"@module": "pymatgen.core.structure", "@class": "Structure", "charge": 0, "lattice": {"matrix": [[0.0, 5.523709, 5.523709], [5.523709, 0.0, 5.523709], [5.523709, 5.523709, 0.0]], "pbc": [true, true, true], "a": 7.811704182402327, "b": 7.811704182402327, "c": 7.811704182402327, "alpha": 59.99999999999999, "beta": 59.99999999999999, "gamma": 59.99999999999999, "volume": 337.0717600049218}, "properties": {}, "sites": [{"species": [{"element": "Er", "occu": 1}], "abc": [0.394474999999999, 0.394474999999999, 0.394474999999999], "properties": {"magmom": -0.008}, "label": "Er", "xyz": [4.357930215549989, 4.357930215549989, 4.357930215549989]}, {"species": [{"element": "Er", "occu": 1}], "abc": [0.394474999999999, 0.394474999999999, 0.816574999999999], "properties": {"magmom": -0.007}, "label": "Er", "xyz": [6.689487784449989, 6.689487784449989, 4.357930215549989]}, {"species": [{"element": "Er", "occu": 1}], "abc": [0.394474999999999, 0.816574999999999, 0.394474999999999], "properties": {"magmom": -0.007}, "label": "Er", "xyz": [6.689487784449989, 4.357930215549989, 6.689487784449989]}, {"species": [{"element": "Er", "occu": 1}], "abc": [0.855525, 0.855525, 0.433425], "properties": {"magmom": -0.006}, "label": "Er", "xyz": [7.119784715550001, 7.119784715550001, 9.45134228445]}, {"species": [{"element": "Er", "occu": 1}], "abc": [0.855525, 0.855525, 0.855525], "properties": {"magmom": -0.007}, "label": "Er", "xyz": [9.45134228445, 9.45134228445, 9.45134228445]}, {"species": [{"element": "Er", "occu": 1}], "abc": [0.816574999999999, 0.394474999999999, 0.394474999999999], "properties": {"magmom": -0.007}, "label": "Er", "xyz": [4.357930215549989, 6.689487784449989, 6.689487784449989]}, {"species": [{"element": "Er", "occu": 1}], "abc": [0.855525, 0.433425, 0.855525], "properties": {"magmom": -0.005}, "label": "Er", "xyz": [7.119784715550001, 9.45134228445, 7.119784715550001]}, {"species": [{"element": "Er", "occu": 1}], "abc": [0.433425, 0.855525, 0.855525], "properties": {"magmom": -0.006}, "label": "Er", "xyz": [9.45134228445, 7.119784715550001, 7.119784715550001]}, {"species": [{"element": "Al", "occu": 1}], "abc": [0.0, 0.0, 0.0], "properties": {"magmom": -0.0}, "label": "Al", "xyz": [0.0, 0.0, 0.0]}, {"species": [{"element": "Al", "occu": 1}], "abc": [0.25, 0.25, 0.25], "properties": {"magmom": -0.001}, "label": "Al", "xyz": [2.7618545, 2.7618545, 2.7618545]}]}, "task_ids": null, "uncorrected_energy_per_atom": null, "energy_per_atom": -27.99818960416666, "formation_energy_per_atom": 0.48857819516667206, "energy_above_hull": 0.691473785500001, "is_stable": false, "equilibrium_reaction_energy_per_atom": null, "decomposes_to": null, "xas": null, "grain_boundaries": null, "band_gap": 0.0, "cbm": null, "vbm": null, "efermi": 2.2665305, "is_gap_direct": null, "is_metal": null, "es_source_calc_id": null, "bandstructure": null, "dos": null, "dos_energy_up": null, "dos_energy_down": null, "is_magnetic": null, "ordering": null, "total_magnetization": 0.0852291, "total_magnetization_normalized_vol": null, "total_magnetization_normalized_formula_units": null, "num_magnetic_sites": null, "num_unique_magnetic_sites": null, "types_of_magnetic_species": null, "bulk_modulus": null, "shear_modulus": null, "universal_anisotropy": null, "homogeneous_poisson": null, "e_total": null, "e_ionic": null, "e_electronic": null, "n": null, "e_ij_max": null, "weighted_surface_energy_EV_PER_ANG2": null, "weighted_surface_energy": null, "weighted_work_function": null, "surface_anisotropy": null, "shape_factor": null, "has_reconstructed": null, "possible_species": null, "has_props": null, "theoretical": null, "database_IDs": null, "fields_not_requested": ["builder_meta", "nsites", "elements", "nelements", "composition", "composition_reduced", "chemsys", "symmetry", "property_name", "deprecated", "deprecation_reasons", "last_updated", "origins", "warnings", "task_ids", "uncorrected_energy_per_atom", "equilibrium_reaction_energy_per_atom", "decomposes_to", "xas", "grain_boundaries", "cbm", "vbm", "is_gap_direct", "is_metal", "es_source_calc_id", "bandstructure", "dos", "dos_energy_up", "dos_energy_down", "is_magnetic", "ordering", "total_magnetization_normalized_vol", "total_magnetization_normalized_formula_units", "num_magnetic_sites", "num_unique_magnetic_sites", "types_of_magnetic_species", "bulk_modulus", "shear_modulus", "universal_anisotropy", "homogeneous_poisson", "e_total", "e_ionic", "e_electronic", "n", "e_ij_max", "weighted_surface_energy_EV_PER_ANG2", "weighted_surface_energy", "weighted_work_function", "surface_anisotropy", "shape_factor", "has_reconstructed", "possible_species", "has_props", "theoretical", "database_IDs"]}