{
  "builder_meta": null,
  "nsites": null,
  "elements": null,
  "nelements": null,
  "composition": null,
  "composition_reduced": null,
  "formula_pretty": "Er4C7",
  "formula_anonymous": "A4B7",
  "chemsys": null,
  "volume": 305.18156924331214,
  "density": 8.19558057868982,
  "density_atomic": 13.871889511059642,
  "symmetry": null,
  "property_name": null,
  "material_id": "mp-1212833",
  "deprecated": null,
  "deprecation_reasons": null,
  "last_updated": null,
  "origins": null,
  "warnings": null,
  "structure": {
    "@module": "pymatgen.core.structure",
    "@class": "Structure",
    "charge": 0,
    "lattice": {
      "matrix": [
        [-3.54167853, 0.0, 0.88643514],
        [0.09264642000000001, 0.0, -6.36941984],
        [0.0, -13.57791986, 0.0]
      ],
      "pbc": [true, true, true],
      "a": 3.650925097463625,
      "b": 6.37009359878836,
      "c": 13.57791986,
      "alpha": 90.0,
      "beta": 90.0,
      "gamma": 104.88504170380523,
      "volume": 305.18156924331214
    },
    "properties": {},
    "sites": [
      {
        "species": [{ "element": "Er", "occu": 1 }],
        "abc": [0.94488718, 0.83971072, 0.83813981],
        "properties": { "magmom": -0.0 },
        "label": "Er",
        "xyz": [-3.268690446634623, -11.380195171655627, -4.51088892014118]
      },
      {
        "species": [{ "element": "Er", "occu": 1 }],
        "abc": [0.05511282, 0.16028928, 0.16186019000000001],
        "properties": { "magmom": -0.0 },
        "label": "Er",
        "xyz": [-0.180341663365377, -2.1977246883443735, -0.9720957798588203]
      },
      {
        "species": [{ "element": "Er", "occu": 1 }],
        "abc": [0.05511282, 0.66028928, 0.33813981],
        "properties": { "magmom": -0.0 },
        "label": "Er",
        "xyz": [-0.134018453365377, -4.591235241655626, -4.15680569985882]
      },
      {
        "species": [{ "element": "Er", "occu": 1 }],
        "abc": [0.94488718, 0.33971072, 0.66186019],
        "properties": { "magmom": -0.0 },
        "label": "Er",
        "xyz": [-3.315013656634623, -8.986684618344373, -1.3261790001411797]
      },
      {
        "species": [{ "element": "Er", "occu": 1 }],
        "abc": [0.63365981, 0.75987879, 0.5549719200000001],
        "properties": { "magmom": -0.0 },
        "label": "Er",
        "xyz": [-2.173819294873448, -7.535364254310332, -4.27828871863147]
      },
      {
        "species": [{ "element": "Er", "occu": 1 }],
        "abc": [0.36634019, 0.24012121, 0.44502808],
        "properties": { "magmom": -0.0 },
        "label": "Er",
        "xyz": [-1.2752128151265525, -6.042555605689668, -1.2046959813685296]
      },
      {
        "species": [{ "element": "Er", "occu": 1 }],
        "abc": [0.36634019, 0.74012121, 0.05497192],
        "properties": { "magmom": -0.0 },
        "label": "Er",
        "xyz": [-1.2288896051265525, -0.7464043243103312, -4.389405901368529]
      },
      {
        "species": [{ "element": "Er", "occu": 1 }],
        "abc": [0.63365981, 0.25987879, 0.94502808],
        "properties": { "magmom": -0.0 },
        "label": "Er",
        "xyz": [-2.2201425048734476, -12.83151553568967, -1.0935787986314705]
      },
      {
        "species": [{ "element": "C", "occu": 1 }],
        "abc": [0.73335489, 0.95024159, 0.39599701],
        "properties": { "magmom": -0.0 },
        "label": "C",
        "xyz": [-2.509270787334904, -5.376815666579618, -5.40241609155231]
      },
      {
        "species": [{ "element": "C", "occu": 1 }],
        "abc": [0.26664511, 0.04975841, 0.60400299],
        "properties": { "magmom": -0.0 },
        "label": "C",
        "xyz": [-0.9397613226650962, -8.201104193420381, -0.08056860844768898]
      },
      {
        "species": [{ "element": "C", "occu": 1 }],
        "abc": [0.26664511, 0.54975841, 0.89599701],
        "properties": { "magmom": -0.0 },
        "label": "C",
        "xyz": [-0.8934381126650962, -12.165775596579618, -3.265278528447689]
      },
      {
        "species": [{ "element": "C", "occu": 1 }],
        "abc": [0.73335489, 0.45024159, 0.10400299],
        "properties": { "magmom": -0.0 },
        "label": "C",
        "xyz": [-2.555593997334904, -1.4121442634203814, -2.2177061715523108]
      },
      {
        "species": [{ "element": "C", "occu": 1 }],
        "abc": [0.53412447, 0.57586337, 0.71500401],
        "properties": { "magmom": 0.0 },
        "label": "C",
        "xyz": [-1.8383454881069936, -9.708267147358638, -3.194448874665385]
      },
      {
        "species": [{ "element": "C", "occu": 1 }],
        "abc": [0.46587553, 0.42413663, 0.28499599000000003],
        "properties": { "magmom": 0.0 },
        "label": "C",
        "xyz": [-1.6106866218930063, -3.869652712641362, -2.2885358253346153]
      },
      {
        "species": [{ "element": "C", "occu": 1 }],
        "abc": [0.46587553, 0.92413663, 0.21500501],
        "properties": { "magmom": 0.0 },
        "label": "C",
        "xyz": [-1.564363411893006, -2.9193207952784985, -5.473245745334615]
      },
      {
        "species": [{ "element": "C", "occu": 1 }],
        "abc": [0.53412447, 0.07586337, 0.78499599],
        "properties": { "magmom": 0.0 },
        "label": "C",
        "xyz": [-1.8846686981069936, -10.65861264264136, -0.009738954665384991]
      },
      {
        "species": [{ "element": "C", "occu": 1 }],
        "abc": [0.6211277, 0.95400131, 0.30323343],
        "properties": { "magmom": -0.0 },
        "label": "C",
        "xyz": [-2.1114498334314704, -4.11727921141292, -5.5258454515926125]
      },
      {
        "species": [{ "element": "C", "occu": 1 }],
        "abc": [0.3788723, 0.04599869, 0.69676657],
        "properties": { "magmom": -0.0 },
        "label": "C",
        "xyz": [-1.3375822765685292, -9.460640648587079, 0.04286075159261238]
      },
      {
        "species": [{ "element": "C", "occu": 1 }],
        "abc": [0.3788723, 0.54599869, 0.80323343],
        "properties": { "magmom": -0.0 },
        "label": "C",
        "xyz": [-1.291259066568529, -10.90623914141292, -3.1418491684073877]
      },
      {
        "species": [{ "element": "C", "occu": 1 }],
        "abc": [0.6211277, 0.45400131, 0.19676657],
        "properties": { "magmom": -0.0 },
        "label": "C",
        "xyz": [-2.1577730434314706, -2.6716807185870803, -2.341135531592612]
      },
      {
        "species": [{ "element": "C", "occu": 1 }],
        "abc": [-0.0, -0.0, -0.0],
        "properties": { "magmom": 0.0 },
        "label": "C",
        "xyz": [0.0, 0.0, 0.0]
      },
      {
        "species": [{ "element": "C", "occu": 1 }],
        "abc": [-0.0, 0.5, 0.5],
        "properties": { "magmom": 0.0 },
        "label": "C",
        "xyz": [0.046323210000000004, -6.78895993, -3.18470992]
      }
    ]
  },
  "task_ids": null,
  "uncorrected_energy_per_atom": null,
  "energy_per_atom": -7.834665401818184,
  "formation_energy_per_atom": -0.300889612045456,
  "energy_above_hull": 0.0,
  "is_stable": true,
  "equilibrium_reaction_energy_per_atom": null,
  "decomposes_to": null,
  "xas": null,
  "grain_boundaries": null,
  "band_gap": 0.39120000000000005,
  "cbm": null,
  "vbm": null,
  "efermi": 4.02005353,
  "is_gap_direct": null,
  "is_metal": null,
  "es_source_calc_id": null,
  "bandstructure": null,
  "dos": null,
  "dos_energy_up": null,
  "dos_energy_down": null,
  "is_magnetic": null,
  "ordering": null,
  "total_magnetization": 0.0,
  "total_magnetization_normalized_vol": null,
  "total_magnetization_normalized_formula_units": null,
  "num_magnetic_sites": null,
  "num_unique_magnetic_sites": null,
  "types_of_magnetic_species": null,
  "bulk_modulus": null,
  "shear_modulus": null,
  "universal_anisotropy": null,
  "homogeneous_poisson": null,
  "e_total": null,
  "e_ionic": null,
  "e_electronic": null,
  "n": null,
  "e_ij_max": null,
  "weighted_surface_energy_EV_PER_ANG2": null,
  "weighted_surface_energy": null,
  "weighted_work_function": null,
  "surface_anisotropy": null,
  "shape_factor": null,
  "has_reconstructed": null,
  "possible_species": null,
  "has_props": null,
  "theoretical": null,
  "database_IDs": null,
  "fields_not_requested": [
    "builder_meta",
    "nsites",
    "elements",
    "nelements",
    "composition",
    "composition_reduced",
    "chemsys",
    "symmetry",
    "property_name",
    "deprecated",
    "deprecation_reasons",
    "last_updated",
    "origins",
    "warnings",
    "task_ids",
    "uncorrected_energy_per_atom",
    "equilibrium_reaction_energy_per_atom",
    "decomposes_to",
    "xas",
    "grain_boundaries",
    "cbm",
    "vbm",
    "is_gap_direct",
    "is_metal",
    "es_source_calc_id",
    "bandstructure",
    "dos",
    "dos_energy_up",
    "dos_energy_down",
    "is_magnetic",
    "ordering",
    "total_magnetization_normalized_vol",
    "total_magnetization_normalized_formula_units",
    "num_magnetic_sites",
    "num_unique_magnetic_sites",
    "types_of_magnetic_species",
    "bulk_modulus",
    "shear_modulus",
    "universal_anisotropy",
    "homogeneous_poisson",
    "e_total",
    "e_ionic",
    "e_electronic",
    "n",
    "e_ij_max",
    "weighted_surface_energy_EV_PER_ANG2",
    "weighted_surface_energy",
    "weighted_work_function",
    "surface_anisotropy",
    "shape_factor",
    "has_reconstructed",
    "possible_species",
    "has_props",
    "theoretical",
    "database_IDs"
  ]
}
