{"builder_meta": null, "nsites": null, "elements": null, "nelements": null, "composition": null, "composition_reduced": null, "formula_pretty": "Er4Co3", "formula_anonymous": "A3B4", "chemsys": null, "volume": 426.3784966845373, "density": 9.88236773477911, "density_atomic": 20.30373793735892, "symmetry": null, "property_name": null, "material_id": "mp-1225765", "deprecated": null, "deprecation_reasons": null, "last_updated": null, "origins": null, "warnings": null, "structure": {"@module": "pymatgen.core.structure", "@class": "Structure", "charge": 0, "lattice": {"matrix": [[5.52967125, -9.58126203, 0.00017049], [5.53225025, 9.58264794, 9.818e-05], [9.643000000000001e-05, -1.5670000000000004e-05, 4.02263477]], "pbc": [true, true, true], "a": 11.062452090276508, "b": 11.06494167992993, "c": 4.022634771186324, "alpha": 89.99899818857494, "beta": 89.99823712179912, "gamma": 120.01061700582838, "volume": 426.3784966845373}, "properties": {}, "sites": [{"species": [{"element": "Er", "occu": 1}], "abc": [0.51407104, 0.13384307, 0.74962251], "properties": {"magmom": 0.298}, "label": "Er", "xyz": [3.5831694939125067, -3.642890063840567, 3.015558357784895]}, {"species": [{"element": "Er", "occu": 1}], "abc": [0.86621833, 0.38024216, 0.74962902], "properties": {"magmom": 0.298}, "label": "Er", "xyz": [6.893569667070951, -4.655749790380602, 3.0156687741913757]}, {"species": [{"element": "Er", "occu": 1}], "abc": [0.61981037, 0.48590647000000003, 0.7496244400000001], "properties": {"magmom": 0.298}, "label": "Er", "xyz": [6.1155760598597295, -1.2823066767180549, 3.015618714552985]}, {"species": [{"element": "Er", "occu": 1}], "abc": [0.48592896, 0.86615693, 0.25037749], "properties": {"magmom": 0.298}, "label": "Er", "xyz": [7.478848436087493, 3.644260303840567, 1.007345082215105]}, {"species": [{"element": "Er", "occu": 1}], "abc": [0.13378167, 0.61975784, 0.25037098], "properties": {"magmom": 0.298}, "label": "Er", "xyz": [4.168448262929049, 4.657120030380604, 1.0072346658086242]}, {"species": [{"element": "Er", "occu": 1}], "abc": [0.38018963, 0.51409353, 0.25037556], "properties": {"magmom": 0.298}, "label": "Er", "xyz": [4.946441870140271, 1.2836769167180537, 1.0072847254470152]}, {"species": [{"element": "Er", "occu": 1}], "abc": [0.97298341, 0.75143189, 0.750392699999999], "properties": {"magmom": 0.168}, "label": "Er", "xyz": [9.537460010682494, -2.1217135079477245, 3.018795425698706]}, {"species": [{"element": "Er", "occu": 1}], "abc": [0.24850659, 0.22141989, 0.75043059], "properties": {"magmom": 0.168}, "label": "Er", "xyz": [2.5991823519878037, -0.25922966143559656, 3.0187722906989434]}, {"species": [{"element": "Er", "occu": 1}], "abc": [0.77850839, 0.02707635, 0.75041022], "properties": {"magmom": 0.168}, "label": "Er", "xyz": [4.45476096818089, -7.199641506521361, 3.0187616289868036]}, {"species": [{"element": "Er", "occu": 1}], "abc": [0.02701659, 0.24856811, 0.24960729999999903], "properties": {"magmom": 0.168}, "label": "Er", "xyz": [1.5245579193175038, 2.1230837479477245, 1.0041080143012862]}, {"species": [{"element": "Er", "occu": 1}], "abc": [0.75149341, 0.77858011, 0.24956941], "properties": {"magmom": 0.168}, "label": "Er", "xyz": [8.462835578012196, 0.26059990143559675, 1.0041311493010563]}, {"species": [{"element": "Er", "occu": 1}], "abc": [0.22149161, 0.97292365, 0.24958978], "properties": {"magmom": 0.168}, "label": "Er", "xyz": [6.60725696181911, 7.2010117465213614, 1.0041418110131966]}, {"species": [{"element": "Co", "occu": 1}], "abc": [0.33326136, 0.66667043, 0.74950032], "properties": {"magmom": -0.875}, "label": "Co", "xyz": [5.531085688478865, 3.195391863394239, 3.0150883187902098]}, {"species": [{"element": "Co", "occu": 1}], "abc": [0.66673864, 0.33332957, 0.25049968], "properties": {"magmom": -0.875}, "label": "Co", "xyz": [5.5309322415211355, -3.1940216233942387, 1.0078151212097897]}, {"species": [{"element": "Co", "occu": 1}], "abc": [0.15702735, 0.44118327, 0.74899189], "properties": {"magmom": -0.557}, "label": "Co", "xyz": [3.3091181037999573, 2.7231720304985263, 3.012990906128365]}, {"species": [{"element": "Co", "occu": 1}], "abc": [0.5587931700000001, 0.71610574, 0.74899456], "properties": {"magmom": -0.56}, "label": "Co", "xyz": [7.051690911532218, 1.5082336751440848, 3.0130971355059577]}, {"species": [{"element": "Co", "occu": 1}], "abc": [0.28392533000000003, 0.84279753, 0.74897611], "properties": {"magmom": -0.557}, "label": "Co", "xyz": [6.232652804255933, 5.355857294551724, 3.0129884942763514]}, {"species": [{"element": "Co", "occu": 1}], "abc": [0.84297265, 0.55881673, 0.25100811], "properties": {"magmom": -0.557}, "label": "Co", "xyz": [7.752899826200042, -2.721801790498527, 1.0099125338716346]}, {"species": [{"element": "Co", "occu": 1}], "abc": [0.44120683, 0.28389426, 0.25100544], "properties": {"magmom": -0.56}, "label": "Co", "xyz": [4.010327018467781, -1.506863435144085, 1.0098063044940424]}, {"species": [{"element": "Co", "occu": 1}], "abc": [0.71607467, 0.15720247, 0.25102389], "properties": {"magmom": -0.557}, "label": "Co", "xyz": [4.829365125744068, -5.354487054551725, 1.0099149457236483]}, {"species": [{"element": "Co", "occu": 1}], "abc": [0.0, 0.0, 0.5], "properties": {"magmom": 1.164}, "label": "Co", "xyz": [4.8215000000000005e-05, -7.835000000000002e-06, 2.011317385]}]}, "task_ids": null, "uncorrected_energy_per_atom": null, "energy_per_atom": -5.859167668571429, "formation_energy_per_atom": -0.19186403999999802, "energy_above_hull": 0.015227826638653002, "is_stable": false, "equilibrium_reaction_energy_per_atom": null, "decomposes_to": null, "xas": null, "grain_boundaries": null, "band_gap": 0.0, "cbm": null, "vbm": null, "efermi": 3.60529945, "is_gap_direct": null, "is_metal": null, "es_source_calc_id": null, "bandstructure": null, "dos": null, "dos_energy_up": null, "dos_energy_down": null, "is_magnetic": null, "ordering": null, "total_magnetization": 0.6052841, "total_magnetization_normalized_vol": null, "total_magnetization_normalized_formula_units": null, "num_magnetic_sites": null, "num_unique_magnetic_sites": null, "types_of_magnetic_species": null, "bulk_modulus": null, "shear_modulus": null, "universal_anisotropy": null, "homogeneous_poisson": null, "e_total": null, "e_ionic": null, "e_electronic": null, "n": null, "e_ij_max": null, "weighted_surface_energy_EV_PER_ANG2": null, "weighted_surface_energy": null, "weighted_work_function": null, "surface_anisotropy": null, "shape_factor": null, "has_reconstructed": null, "possible_species": null, "has_props": null, "theoretical": null, "database_IDs": null, "fields_not_requested": ["builder_meta", "nsites", "elements", "nelements", "composition", "composition_reduced", "chemsys", "symmetry", "property_name", "deprecated", "deprecation_reasons", "last_updated", "origins", "warnings", "task_ids", "uncorrected_energy_per_atom", "equilibrium_reaction_energy_per_atom", "decomposes_to", "xas", "grain_boundaries", "cbm", "vbm", "is_gap_direct", "is_metal", "es_source_calc_id", "bandstructure", "dos", "dos_energy_up", "dos_energy_down", "is_magnetic", "ordering", "total_magnetization_normalized_vol", "total_magnetization_normalized_formula_units", "num_magnetic_sites", "num_unique_magnetic_sites", "types_of_magnetic_species", "bulk_modulus", "shear_modulus", "universal_anisotropy", "homogeneous_poisson", "e_total", "e_ionic", "e_electronic", "n", "e_ij_max", "weighted_surface_energy_EV_PER_ANG2", "weighted_surface_energy", "weighted_work_function", "surface_anisotropy", "shape_factor", "has_reconstructed", "possible_species", "has_props", "theoretical", "database_IDs"]}