{
  "builder_meta": null,
  "nsites": null,
  "elements": null,
  "nelements": null,
  "composition": null,
  "composition_reduced": null,
  "formula_pretty": "Er4Fe",
  "formula_anonymous": "AB4",
  "chemsys": null,
  "volume": 283.34230017230317,
  "density": 8.49638912653774,
  "density_atomic": 28.33423001723032,
  "symmetry": null,
  "property_name": null,
  "material_id": "mp-1213030",
  "deprecated": null,
  "deprecation_reasons": null,
  "last_updated": null,
  "origins": null,
  "warnings": null,
  "structure": {
    "@module": "pymatgen.core.structure",
    "@class": "Structure",
    "charge": 0,
    "lattice": {
      "matrix": [
        [0.0, 5.213073, 5.213073],
        [5.213073, 0.0, 5.213073],
        [5.213073, 5.213073, 0.0]
      ],
      "pbc": [true, true, true],
      "a": 7.372398538240997,
      "b": 7.372398538240997,
      "c": 7.372398538240997,
      "alpha": 59.99999999999999,
      "beta": 59.99999999999999,
      "gamma": 59.99999999999999,
      "volume": 283.34230017230317
    },
    "properties": {},
    "sites": [
      {
        "species": [{ "element": "Er", "occu": 1 }],
        "abc": [0.384961, 0.384961, 0.384961],
        "properties": { "magmom": -0.001 },
        "label": "Er",
        "xyz": [4.013659590305999, 4.013659590305999, 4.013659590305999]
      },
      {
        "species": [{ "element": "Er", "occu": 1 }],
        "abc": [0.384961, 0.384961, 0.845117],
        "properties": { "magmom": -0.001 },
        "label": "Er",
        "xyz": [6.412486409693999, 6.412486409693999, 4.013659590305999]
      },
      {
        "species": [{ "element": "Er", "occu": 1 }],
        "abc": [0.384961, 0.845117, 0.384961],
        "properties": { "magmom": -0.001 },
        "label": "Er",
        "xyz": [6.412486409693999, 4.013659590305999, 6.412486409693999]
      },
      {
        "species": [{ "element": "Er", "occu": 1 }],
        "abc": [0.865039, 0.865039, 0.404883],
        "properties": { "magmom": -0.001 },
        "label": "Er",
        "xyz": [6.620196090305999, 6.620196090305999, 9.019022909694]
      },
      {
        "species": [{ "element": "Er", "occu": 1 }],
        "abc": [0.865039, 0.865039, 0.865039],
        "properties": { "magmom": -0.001 },
        "label": "Er",
        "xyz": [9.019022909694, 9.019022909694, 9.019022909694]
      },
      {
        "species": [{ "element": "Er", "occu": 1 }],
        "abc": [0.845117, 0.384961, 0.384961],
        "properties": { "magmom": -0.001 },
        "label": "Er",
        "xyz": [4.013659590305999, 6.412486409693999, 6.412486409693999]
      },
      {
        "species": [{ "element": "Er", "occu": 1 }],
        "abc": [0.865039, 0.404883, 0.865039],
        "properties": { "magmom": -0.001 },
        "label": "Er",
        "xyz": [6.620196090305999, 9.019022909694, 6.620196090305999]
      },
      {
        "species": [{ "element": "Er", "occu": 1 }],
        "abc": [0.404883, 0.865039, 0.865039],
        "properties": { "magmom": -0.001 },
        "label": "Er",
        "xyz": [9.019022909694, 6.620196090305999, 6.620196090305999]
      },
      {
        "species": [{ "element": "Fe", "occu": 1 }],
        "abc": [0.0, 0.0, 0.0],
        "properties": { "magmom": 0.004 },
        "label": "Fe",
        "xyz": [0.0, 0.0, 0.0]
      },
      {
        "species": [{ "element": "Fe", "occu": 1 }],
        "abc": [0.25, 0.25, 0.25],
        "properties": { "magmom": 0.004 },
        "label": "Fe",
        "xyz": [2.6065365, 2.6065365, 2.6065365]
      }
    ]
  },
  "task_ids": null,
  "uncorrected_energy_per_atom": null,
  "energy_per_atom": -4.921894462,
  "formation_energy_per_atom": 0.42628482800000106,
  "energy_above_hull": 0.46254767450000206,
  "is_stable": false,
  "equilibrium_reaction_energy_per_atom": null,
  "decomposes_to": null,
  "xas": null,
  "grain_boundaries": null,
  "band_gap": 0.0,
  "cbm": null,
  "vbm": null,
  "efermi": 2.82329066,
  "is_gap_direct": null,
  "is_metal": null,
  "es_source_calc_id": null,
  "bandstructure": null,
  "dos": null,
  "dos_energy_up": null,
  "dos_energy_down": null,
  "is_magnetic": null,
  "ordering": null,
  "total_magnetization": 0.0008931,
  "total_magnetization_normalized_vol": null,
  "total_magnetization_normalized_formula_units": null,
  "num_magnetic_sites": null,
  "num_unique_magnetic_sites": null,
  "types_of_magnetic_species": null,
  "bulk_modulus": null,
  "shear_modulus": null,
  "universal_anisotropy": null,
  "homogeneous_poisson": null,
  "e_total": null,
  "e_ionic": null,
  "e_electronic": null,
  "n": null,
  "e_ij_max": null,
  "weighted_surface_energy_EV_PER_ANG2": null,
  "weighted_surface_energy": null,
  "weighted_work_function": null,
  "surface_anisotropy": null,
  "shape_factor": null,
  "has_reconstructed": null,
  "possible_species": null,
  "has_props": null,
  "theoretical": null,
  "database_IDs": null,
  "fields_not_requested": [
    "builder_meta",
    "nsites",
    "elements",
    "nelements",
    "composition",
    "composition_reduced",
    "chemsys",
    "symmetry",
    "property_name",
    "deprecated",
    "deprecation_reasons",
    "last_updated",
    "origins",
    "warnings",
    "task_ids",
    "uncorrected_energy_per_atom",
    "equilibrium_reaction_energy_per_atom",
    "decomposes_to",
    "xas",
    "grain_boundaries",
    "cbm",
    "vbm",
    "is_gap_direct",
    "is_metal",
    "es_source_calc_id",
    "bandstructure",
    "dos",
    "dos_energy_up",
    "dos_energy_down",
    "is_magnetic",
    "ordering",
    "total_magnetization_normalized_vol",
    "total_magnetization_normalized_formula_units",
    "num_magnetic_sites",
    "num_unique_magnetic_sites",
    "types_of_magnetic_species",
    "bulk_modulus",
    "shear_modulus",
    "universal_anisotropy",
    "homogeneous_poisson",
    "e_total",
    "e_ionic",
    "e_electronic",
    "n",
    "e_ij_max",
    "weighted_surface_energy_EV_PER_ANG2",
    "weighted_surface_energy",
    "weighted_work_function",
    "surface_anisotropy",
    "shape_factor",
    "has_reconstructed",
    "possible_species",
    "has_props",
    "theoretical",
    "database_IDs"
  ]
}
