{"builder_meta": null, "nsites": null, "elements": null, "nelements": null, "composition": null, "composition_reduced": null, "formula_pretty": "Er4Ir", "formula_anonymous": "AB4", "chemsys": null, "volume": 310.7519299785601, "density": 9.204411073650423, "density_atomic": 31.07519299785601, "symmetry": null, "property_name": null, "material_id": "mp-1212945", "deprecated": null, "deprecation_reasons": null, "last_updated": null, "origins": null, "warnings": null, "structure": {"@module": "pymatgen.core.structure", "@class": "Structure", "charge": 0, "lattice": {"matrix": [[-5.376025, -5.376025, 0.0], [-5.376025, 0.0, -5.376025], [0.0, -5.376025, -5.376025]], "pbc": [true, true, true], "a": 7.602847466656819, "b": 7.602847466656819, "c": 7.602847466656819, "alpha": 59.99999999999999, "beta": 59.99999999999999, "gamma": 59.99999999999999, "volume": 310.7519299785601}, "properties": {}, "sites": [{"species": [{"element": "Er", "occu": 1}], "abc": [0.611509, 0.611509, 0.611509], "properties": {"magmom": 0.0}, "label": "Er", "xyz": [-6.57497534345, -6.57497534345, -6.57497534345]}, {"species": [{"element": "Er", "occu": 1}], "abc": [0.165471999999999, 0.611509, 0.611509], "properties": {"magmom": 0.0}, "label": "Er", "xyz": [-4.177069280524995, -4.177069280524995, -6.57497534345]}, {"species": [{"element": "Er", "occu": 1}], "abc": [0.611509, 0.165471999999999, 0.611509], "properties": {"magmom": 0.0}, "label": "Er", "xyz": [-4.177069280524995, -6.57497534345, -4.177069280524995]}, {"species": [{"element": "Er", "occu": 1}], "abc": [0.584527999999999, 0.138491, 0.138491], "properties": {"magmom": 0.0}, "label": "Er", "xyz": [-3.886968219474995, -3.886968219474995, -1.4890621565500002]}, {"species": [{"element": "Er", "occu": 1}], "abc": [0.138491, 0.138491, 0.138491], "properties": {"magmom": 0.0}, "label": "Er", "xyz": [-1.4890621565500002, -1.4890621565500002, -1.4890621565500002]}, {"species": [{"element": "Er", "occu": 1}], "abc": [0.611509, 0.611509, 0.165471999999999], "properties": {"magmom": 0.0}, "label": "Er", "xyz": [-6.57497534345, -4.177069280524995, -4.177069280524995]}, {"species": [{"element": "Er", "occu": 1}], "abc": [0.138491, 0.584527999999999, 0.138491], "properties": {"magmom": 0.0}, "label": "Er", "xyz": [-3.886968219474995, -1.4890621565500002, -3.886968219474995]}, {"species": [{"element": "Er", "occu": 1}], "abc": [0.138491, 0.138491, 0.584527999999999], "properties": {"magmom": 0.0}, "label": "Er", "xyz": [-1.4890621565500002, -3.886968219474995, -3.886968219474995]}, {"species": [{"element": "Ir", "occu": 1}], "abc": [0.0, 0.0, 0.0], "properties": {"magmom": -0.0}, "label": "Ir", "xyz": [0.0, 0.0, 0.0]}, {"species": [{"element": "Ir", "occu": 1}], "abc": [0.75, 0.75, 0.75], "properties": {"magmom": -0.0}, "label": "Ir", "xyz": [-8.064037500000001, -8.064037500000001, -8.064037500000001]}]}, "task_ids": null, "uncorrected_energy_per_atom": null, "energy_per_atom": -5.32081095, "formation_energy_per_atom": 0.10105093400000201, "energy_above_hull": 0.5938514809999991, "is_stable": false, "equilibrium_reaction_energy_per_atom": null, "decomposes_to": null, "xas": null, "grain_boundaries": null, "band_gap": 0.0, "cbm": null, "vbm": null, "efermi": 2.96220367, "is_gap_direct": null, "is_metal": null, "es_source_calc_id": null, "bandstructure": null, "dos": null, "dos_energy_up": null, "dos_energy_down": null, "is_magnetic": null, "ordering": null, "total_magnetization": 0.004553, "total_magnetization_normalized_vol": null, "total_magnetization_normalized_formula_units": null, "num_magnetic_sites": null, "num_unique_magnetic_sites": null, "types_of_magnetic_species": null, "bulk_modulus": null, "shear_modulus": null, "universal_anisotropy": null, "homogeneous_poisson": null, "e_total": null, "e_ionic": null, "e_electronic": null, "n": null, "e_ij_max": null, "weighted_surface_energy_EV_PER_ANG2": null, "weighted_surface_energy": null, "weighted_work_function": null, "surface_anisotropy": null, "shape_factor": null, "has_reconstructed": null, "possible_species": null, "has_props": null, "theoretical": null, "database_IDs": null, "fields_not_requested": ["builder_meta", "nsites", "elements", "nelements", "composition", "composition_reduced", "chemsys", "symmetry", "property_name", "deprecated", "deprecation_reasons", "last_updated", "origins", "warnings", "task_ids", "uncorrected_energy_per_atom", "equilibrium_reaction_energy_per_atom", "decomposes_to", "xas", "grain_boundaries", "cbm", "vbm", "is_gap_direct", "is_metal", "es_source_calc_id", "bandstructure", "dos", "dos_energy_up", "dos_energy_down", "is_magnetic", "ordering", "total_magnetization_normalized_vol", "total_magnetization_normalized_formula_units", "num_magnetic_sites", "num_unique_magnetic_sites", "types_of_magnetic_species", "bulk_modulus", "shear_modulus", "universal_anisotropy", "homogeneous_poisson", "e_total", "e_ionic", "e_electronic", "n", "e_ij_max", "weighted_surface_energy_EV_PER_ANG2", "weighted_surface_energy", "weighted_work_function", "surface_anisotropy", "shape_factor", "has_reconstructed", "possible_species", "has_props", "theoretical", "database_IDs"]}