{
  "builder_meta": null,
  "nsites": null,
  "elements": null,
  "nelements": null,
  "composition": null,
  "composition_reduced": null,
  "formula_pretty": "Er4I5",
  "formula_anonymous": "A4B5",
  "chemsys": null,
  "volume": 309.64631269088767,
  "density": 6.990587250843553,
  "density_atomic": 34.40514585454307,
  "symmetry": null,
  "property_name": null,
  "material_id": "mp-541637",
  "deprecated": null,
  "deprecation_reasons": null,
  "last_updated": null,
  "origins": null,
  "warnings": null,
  "structure": {
    "@module": "pymatgen.core.structure",
    "@class": "Structure",
    "charge": 0,
    "lattice": {
      "matrix": [
        [1.966368999999999, 9.257746, 0.0],
        [-1.966368999999999, 9.257746, 0.0],
        [0.0, 2.069144, 8.50483]
      ],
      "pbc": [true, true, true],
      "a": 9.464273244400596,
      "b": 9.464273244400596,
      "c": 8.752913241980409,
      "alpha": 76.630128946004,
      "beta": 76.630128946004,
      "gamma": 23.983115613551966,
      "volume": 309.6463126908875
    },
    "properties": {},
    "sites": [
      {
        "species": [{ "element": "Er", "occu": 1 }],
        "abc": [0.000395, 0.000395, 0.196064],
        "properties": { "magmom": 0.20700000000000002 },
        "label": "Er",
        "xyz": [0.0, 0.412998268556, 1.6674909891199998]
      },
      {
        "species": [{ "element": "Er", "occu": 1 }],
        "abc": [0.999605, 0.999605, 0.803936],
        "properties": { "magmom": 0.20700000000000002 },
        "label": "Er",
        "xyz": [0.0, 20.171637731443997, 6.83733901088]
      },
      {
        "species": [{ "element": "Er", "occu": 1 }],
        "abc": [0.633473, 0.633473, 0.932523],
        "properties": { "magmom": 0.129 },
        "label": "Er",
        "xyz": [0.0, 13.658588634027998, 7.93094958609]
      },
      {
        "species": [{ "element": "Er", "occu": 1 }],
        "abc": [0.366527, 0.366527, 0.067477],
        "properties": { "magmom": 0.129 },
        "label": "Er",
        "xyz": [0.0, 6.926047365971999, 0.57388041391]
      },
      {
        "species": [{ "element": "I", "occu": 1 }],
        "abc": [0.167899, 0.167899, 0.653492],
        "properties": { "magmom": 0.005 },
        "label": "I",
        "xyz": [0.0, 4.460901642155999, 5.5578383663599995]
      },
      {
        "species": [{ "element": "I", "occu": 1 }],
        "abc": [0.832101, 0.832101, 0.346508],
        "properties": { "magmom": 0.005 },
        "label": "I",
        "xyz": [0.0, 16.123734357843997, 2.9469916336399997]
      },
      {
        "species": [{ "element": "I", "occu": 1 }],
        "abc": [0.174586, 0.174586, 0.175245999999999],
        "properties": { "magmom": 0.002 },
        "label": "I",
        "xyz": [0.0, 3.595154895735998, 1.4904374381799916]
      },
      {
        "species": [{ "element": "I", "occu": 1 }],
        "abc": [0.825414, 0.825414, 0.824754],
        "properties": { "magmom": 0.002 },
        "label": "I",
        "xyz": [0.0, 16.989481104263998, 7.01439256182]
      },
      {
        "species": [{ "element": "I", "occu": 1 }],
        "abc": [0.5, 0.5, 0.5],
        "properties": { "magmom": 0.01 },
        "label": "I",
        "xyz": [0.0, 10.292318, 4.252415]
      }
    ]
  },
  "task_ids": null,
  "uncorrected_energy_per_atom": null,
  "energy_per_atom": -4.013517696666667,
  "formation_energy_per_atom": -1.136746772777777,
  "energy_above_hull": 0.068749608703703,
  "is_stable": false,
  "equilibrium_reaction_energy_per_atom": null,
  "decomposes_to": null,
  "xas": null,
  "grain_boundaries": null,
  "band_gap": 0.0,
  "cbm": null,
  "vbm": null,
  "efermi": 4.7773721,
  "is_gap_direct": null,
  "is_metal": null,
  "es_source_calc_id": null,
  "bandstructure": null,
  "dos": null,
  "dos_energy_up": null,
  "dos_energy_down": null,
  "is_magnetic": null,
  "ordering": null,
  "total_magnetization": 0.9955755,
  "total_magnetization_normalized_vol": null,
  "total_magnetization_normalized_formula_units": null,
  "num_magnetic_sites": null,
  "num_unique_magnetic_sites": null,
  "types_of_magnetic_species": null,
  "bulk_modulus": null,
  "shear_modulus": null,
  "universal_anisotropy": null,
  "homogeneous_poisson": null,
  "e_total": null,
  "e_ionic": null,
  "e_electronic": null,
  "n": null,
  "e_ij_max": null,
  "weighted_surface_energy_EV_PER_ANG2": null,
  "weighted_surface_energy": null,
  "weighted_work_function": null,
  "surface_anisotropy": null,
  "shape_factor": null,
  "has_reconstructed": null,
  "possible_species": null,
  "has_props": null,
  "theoretical": null,
  "database_IDs": null,
  "fields_not_requested": [
    "builder_meta",
    "nsites",
    "elements",
    "nelements",
    "composition",
    "composition_reduced",
    "chemsys",
    "symmetry",
    "property_name",
    "deprecated",
    "deprecation_reasons",
    "last_updated",
    "origins",
    "warnings",
    "task_ids",
    "uncorrected_energy_per_atom",
    "equilibrium_reaction_energy_per_atom",
    "decomposes_to",
    "xas",
    "grain_boundaries",
    "cbm",
    "vbm",
    "is_gap_direct",
    "is_metal",
    "es_source_calc_id",
    "bandstructure",
    "dos",
    "dos_energy_up",
    "dos_energy_down",
    "is_magnetic",
    "ordering",
    "total_magnetization_normalized_vol",
    "total_magnetization_normalized_formula_units",
    "num_magnetic_sites",
    "num_unique_magnetic_sites",
    "types_of_magnetic_species",
    "bulk_modulus",
    "shear_modulus",
    "universal_anisotropy",
    "homogeneous_poisson",
    "e_total",
    "e_ionic",
    "e_electronic",
    "n",
    "e_ij_max",
    "weighted_surface_energy_EV_PER_ANG2",
    "weighted_surface_energy",
    "weighted_work_function",
    "surface_anisotropy",
    "shape_factor",
    "has_reconstructed",
    "possible_species",
    "has_props",
    "theoretical",
    "database_IDs"
  ]
}
