{
  "builder_meta": null,
  "nsites": null,
  "elements": null,
  "nelements": null,
  "composition": null,
  "composition_reduced": null,
  "formula_pretty": "Er4Ni",
  "formula_anonymous": "AB4",
  "chemsys": null,
  "volume": 290.37659534427775,
  "density": 8.323143930940034,
  "density_atomic": 29.037659534427775,
  "symmetry": null,
  "property_name": null,
  "material_id": "mp-1213096",
  "deprecated": null,
  "deprecation_reasons": null,
  "last_updated": null,
  "origins": null,
  "warnings": null,
  "structure": {
    "@module": "pymatgen.core.structure",
    "@class": "Structure",
    "charge": 0,
    "lattice": {
      "matrix": [
        [0.0, 5.255861, 5.255861],
        [5.255861, 0.0, 5.255861],
        [5.255861, 5.255861, 0.0]
      ],
      "pbc": [true, true, true],
      "a": 7.432909908147819,
      "b": 7.432909908147819,
      "c": 7.432909908147819,
      "alpha": 60.00000000000001,
      "beta": 60.00000000000001,
      "gamma": 60.00000000000001,
      "volume": 290.37659534427775
    },
    "properties": {},
    "sites": [
      {
        "species": [{ "element": "Er", "occu": 1 }],
        "abc": [0.387449, 0.387449, 0.387449],
        "properties": { "magmom": -0.044 },
        "label": "Er",
        "xyz": [4.072756177178, 4.072756177178, 4.072756177178]
      },
      {
        "species": [{ "element": "Er", "occu": 1 }],
        "abc": [0.387449, 0.387449, 0.837654],
        "properties": { "magmom": -0.044 },
        "label": "Er",
        "xyz": [6.438971078683, 6.438971078683, 4.072756177178]
      },
      {
        "species": [{ "element": "Er", "occu": 1 }],
        "abc": [0.387449, 0.837654, 0.387449],
        "properties": { "magmom": -0.044 },
        "label": "Er",
        "xyz": [6.438971078683, 4.072756177178, 6.438971078683]
      },
      {
        "species": [{ "element": "Er", "occu": 1 }],
        "abc": [0.862551, 0.862551, 0.412346],
        "properties": { "magmom": -0.044 },
        "label": "Er",
        "xyz": [6.700681421317, 6.700681421317, 9.066896322822]
      },
      {
        "species": [{ "element": "Er", "occu": 1 }],
        "abc": [0.862551, 0.862551, 0.862551],
        "properties": { "magmom": -0.044 },
        "label": "Er",
        "xyz": [9.066896322822, 9.066896322822, 9.066896322822]
      },
      {
        "species": [{ "element": "Er", "occu": 1 }],
        "abc": [0.837654, 0.387449, 0.387449],
        "properties": { "magmom": -0.043000000000000003 },
        "label": "Er",
        "xyz": [4.072756177178, 6.438971078683, 6.438971078683]
      },
      {
        "species": [{ "element": "Er", "occu": 1 }],
        "abc": [0.862551, 0.412346, 0.862551],
        "properties": { "magmom": -0.044 },
        "label": "Er",
        "xyz": [6.700681421317, 9.066896322822, 6.700681421317]
      },
      {
        "species": [{ "element": "Er", "occu": 1 }],
        "abc": [0.412346, 0.862551, 0.862551],
        "properties": { "magmom": -0.043000000000000003 },
        "label": "Er",
        "xyz": [9.066896322822, 6.700681421317, 6.700681421317]
      },
      {
        "species": [{ "element": "Ni", "occu": 1 }],
        "abc": [0.0, 0.0, 0.0],
        "properties": { "magmom": -0.01 },
        "label": "Ni",
        "xyz": [0.0, 0.0, 0.0]
      },
      {
        "species": [{ "element": "Ni", "occu": 1 }],
        "abc": [0.25, 0.25, 0.25],
        "properties": { "magmom": -0.01 },
        "label": "Ni",
        "xyz": [2.6279305, 2.6279305, 2.6279305]
      }
    ]
  },
  "task_ids": null,
  "uncorrected_energy_per_atom": null,
  "energy_per_atom": -4.5742323769999995,
  "formation_energy_per_atom": 0.235970007000002,
  "energy_above_hull": 0.44843083250000104,
  "is_stable": false,
  "equilibrium_reaction_energy_per_atom": null,
  "decomposes_to": null,
  "xas": null,
  "grain_boundaries": null,
  "band_gap": 0.0,
  "cbm": null,
  "vbm": null,
  "efermi": 2.91013816,
  "is_gap_direct": null,
  "is_metal": null,
  "es_source_calc_id": null,
  "bandstructure": null,
  "dos": null,
  "dos_energy_up": null,
  "dos_energy_down": null,
  "is_magnetic": null,
  "ordering": null,
  "total_magnetization": 0.485139,
  "total_magnetization_normalized_vol": null,
  "total_magnetization_normalized_formula_units": null,
  "num_magnetic_sites": null,
  "num_unique_magnetic_sites": null,
  "types_of_magnetic_species": null,
  "bulk_modulus": null,
  "shear_modulus": null,
  "universal_anisotropy": null,
  "homogeneous_poisson": null,
  "e_total": null,
  "e_ionic": null,
  "e_electronic": null,
  "n": null,
  "e_ij_max": null,
  "weighted_surface_energy_EV_PER_ANG2": null,
  "weighted_surface_energy": null,
  "weighted_work_function": null,
  "surface_anisotropy": null,
  "shape_factor": null,
  "has_reconstructed": null,
  "possible_species": null,
  "has_props": null,
  "theoretical": null,
  "database_IDs": null,
  "fields_not_requested": [
    "builder_meta",
    "nsites",
    "elements",
    "nelements",
    "composition",
    "composition_reduced",
    "chemsys",
    "symmetry",
    "property_name",
    "deprecated",
    "deprecation_reasons",
    "last_updated",
    "origins",
    "warnings",
    "task_ids",
    "uncorrected_energy_per_atom",
    "equilibrium_reaction_energy_per_atom",
    "decomposes_to",
    "xas",
    "grain_boundaries",
    "cbm",
    "vbm",
    "is_gap_direct",
    "is_metal",
    "es_source_calc_id",
    "bandstructure",
    "dos",
    "dos_energy_up",
    "dos_energy_down",
    "is_magnetic",
    "ordering",
    "total_magnetization_normalized_vol",
    "total_magnetization_normalized_formula_units",
    "num_magnetic_sites",
    "num_unique_magnetic_sites",
    "types_of_magnetic_species",
    "bulk_modulus",
    "shear_modulus",
    "universal_anisotropy",
    "homogeneous_poisson",
    "e_total",
    "e_ionic",
    "e_electronic",
    "n",
    "e_ij_max",
    "weighted_surface_energy_EV_PER_ANG2",
    "weighted_surface_energy",
    "weighted_work_function",
    "surface_anisotropy",
    "shape_factor",
    "has_reconstructed",
    "possible_species",
    "has_props",
    "theoretical",
    "database_IDs"
  ]
}
