{
  "builder_meta": null,
  "nsites": null,
  "elements": null,
  "nelements": null,
  "composition": null,
  "composition_reduced": null,
  "formula_pretty": "Er4Pt",
  "formula_anonymous": "AB4",
  "chemsys": null,
  "volume": 324.723600518082,
  "density": 8.83770083813474,
  "density_atomic": 32.472360051808195,
  "symmetry": null,
  "property_name": null,
  "material_id": "mp-1212906",
  "deprecated": null,
  "deprecation_reasons": null,
  "last_updated": null,
  "origins": null,
  "warnings": null,
  "structure": {
    "@module": "pymatgen.core.structure",
    "@class": "Structure",
    "charge": 0,
    "lattice": {
      "matrix": [
        [-5.455417, -5.455417, 0.0],
        [-5.455417, 0.0, -5.455417],
        [0.0, -5.455417, -5.455417]
      ],
      "pbc": [true, true, true],
      "a": 7.715124709800743,
      "b": 7.715124709800743,
      "c": 7.715124709800743,
      "alpha": 59.99999999999999,
      "beta": 59.99999999999999,
      "gamma": 59.99999999999999,
      "volume": 324.723600518082
    },
    "properties": {},
    "sites": [
      {
        "species": [{ "element": "Er", "occu": 1 }],
        "abc": [0.610287999999999, 0.610287999999999, 0.610287999999999],
        "properties": { "magmom": 0.001 },
        "label": "Er",
        "xyz": [-6.65875106019199, -6.65875106019199, -6.65875106019199]
      },
      {
        "species": [{ "element": "Er", "occu": 1 }],
        "abc": [0.169134999999999, 0.610287999999999, 0.610287999999999],
        "properties": { "magmom": 0.0 },
        "label": "Er",
        "xyz": [-4.252077484390989, -4.252077484390989, -6.65875106019199]
      },
      {
        "species": [{ "element": "Er", "occu": 1 }],
        "abc": [0.610287999999999, 0.169134999999999, 0.610287999999999],
        "properties": { "magmom": 0.001 },
        "label": "Er",
        "xyz": [-4.252077484390989, -6.65875106019199, -4.252077484390989]
      },
      {
        "species": [{ "element": "Er", "occu": 1 }],
        "abc": [0.580865, 0.139712, 0.139712],
        "properties": { "magmom": 0.0 },
        "label": "Er",
        "xyz": [-3.9310480156089995, -3.9310480156089995, -1.524374439808]
      },
      {
        "species": [{ "element": "Er", "occu": 1 }],
        "abc": [0.139712, 0.139712, 0.139712],
        "properties": { "magmom": 0.001 },
        "label": "Er",
        "xyz": [-1.524374439808, -1.524374439808, -1.524374439808]
      },
      {
        "species": [{ "element": "Er", "occu": 1 }],
        "abc": [0.610287999999999, 0.610287999999999, 0.169134999999999],
        "properties": { "magmom": 0.001 },
        "label": "Er",
        "xyz": [-6.65875106019199, -4.252077484390989, -4.252077484390989]
      },
      {
        "species": [{ "element": "Er", "occu": 1 }],
        "abc": [0.139712, 0.580865, 0.139712],
        "properties": { "magmom": 0.001 },
        "label": "Er",
        "xyz": [-3.9310480156089995, -1.524374439808, -3.9310480156089995]
      },
      {
        "species": [{ "element": "Er", "occu": 1 }],
        "abc": [0.139712, 0.139712, 0.580865],
        "properties": { "magmom": 0.001 },
        "label": "Er",
        "xyz": [-1.524374439808, -3.9310480156089995, -3.9310480156089995]
      },
      {
        "species": [{ "element": "Pt", "occu": 1 }],
        "abc": [0.0, 0.0, 0.0],
        "properties": { "magmom": 0.0 },
        "label": "Pt",
        "xyz": [0.0, 0.0, 0.0]
      },
      {
        "species": [{ "element": "Pt", "occu": 1 }],
        "abc": [0.75, 0.75, 0.75],
        "properties": { "magmom": 0.0 },
        "label": "Pt",
        "xyz": [-8.1831255, -8.1831255, -8.1831255]
      }
    ]
  },
  "task_ids": null,
  "uncorrected_energy_per_atom": null,
  "energy_per_atom": -37.53621494766667,
  "formation_energy_per_atom": -0.09832343433333701,
  "energy_above_hull": 0.5496890224999971,
  "is_stable": false,
  "equilibrium_reaction_energy_per_atom": null,
  "decomposes_to": null,
  "xas": null,
  "grain_boundaries": null,
  "band_gap": 0.0,
  "cbm": null,
  "vbm": null,
  "efermi": 2.6528182300000003,
  "is_gap_direct": null,
  "is_metal": null,
  "es_source_calc_id": null,
  "bandstructure": null,
  "dos": null,
  "dos_energy_up": null,
  "dos_energy_down": null,
  "is_magnetic": null,
  "ordering": null,
  "total_magnetization": 0.0047576,
  "total_magnetization_normalized_vol": null,
  "total_magnetization_normalized_formula_units": null,
  "num_magnetic_sites": null,
  "num_unique_magnetic_sites": null,
  "types_of_magnetic_species": null,
  "bulk_modulus": null,
  "shear_modulus": null,
  "universal_anisotropy": null,
  "homogeneous_poisson": null,
  "e_total": null,
  "e_ionic": null,
  "e_electronic": null,
  "n": null,
  "e_ij_max": null,
  "weighted_surface_energy_EV_PER_ANG2": null,
  "weighted_surface_energy": null,
  "weighted_work_function": null,
  "surface_anisotropy": null,
  "shape_factor": null,
  "has_reconstructed": null,
  "possible_species": null,
  "has_props": null,
  "theoretical": null,
  "database_IDs": null,
  "fields_not_requested": [
    "builder_meta",
    "nsites",
    "elements",
    "nelements",
    "composition",
    "composition_reduced",
    "chemsys",
    "symmetry",
    "property_name",
    "deprecated",
    "deprecation_reasons",
    "last_updated",
    "origins",
    "warnings",
    "task_ids",
    "uncorrected_energy_per_atom",
    "equilibrium_reaction_energy_per_atom",
    "decomposes_to",
    "xas",
    "grain_boundaries",
    "cbm",
    "vbm",
    "is_gap_direct",
    "is_metal",
    "es_source_calc_id",
    "bandstructure",
    "dos",
    "dos_energy_up",
    "dos_energy_down",
    "is_magnetic",
    "ordering",
    "total_magnetization_normalized_vol",
    "total_magnetization_normalized_formula_units",
    "num_magnetic_sites",
    "num_unique_magnetic_sites",
    "types_of_magnetic_species",
    "bulk_modulus",
    "shear_modulus",
    "universal_anisotropy",
    "homogeneous_poisson",
    "e_total",
    "e_ionic",
    "e_electronic",
    "n",
    "e_ij_max",
    "weighted_surface_energy_EV_PER_ANG2",
    "weighted_surface_energy",
    "weighted_work_function",
    "surface_anisotropy",
    "shape_factor",
    "has_reconstructed",
    "possible_species",
    "has_props",
    "theoretical",
    "database_IDs"
  ]
}
