{"builder_meta": null, "nsites": null, "elements": null, "nelements": null, "composition": null, "composition_reduced": null, "formula_pretty": "Er4Sb3", "formula_anonymous": "A3B4", "chemsys": null, "volume": 374.3214248885796, "density": 9.176723591072474, "density_atomic": 26.73724463489854, "symmetry": null, "property_name": null, "material_id": "mp-12052", "deprecated": null, "deprecation_reasons": null, "last_updated": null, "origins": null, "warnings": null, "structure": {"@module": "pymatgen.core.structure", "@class": "Structure", "charge": 0, "lattice": {"matrix": [[7.41378205, -0.00018813, -2.6212428], [-3.7070944900000002, 6.42078456, -2.62135624], [-2.6e-06, -0.00014379, 7.86372015]], "pbc": [true, true, true], "a": 7.863528351627337, "b": 7.863875155463093, "c": 7.8637201513150465, "alpha": 109.47261708205, "beta": 109.4717548907784, "gamma": 109.47218925277943, "volume": 374.3214248885796}, "properties": {}, "sites": [{"species": [{"element": "Er", "occu": 1}], "abc": [0.14470252, 0.14469821, 0.14469339], "properties": {"magmom": 0.0}, "label": "Er", "xyz": [0.5363826321590892, 0.9290280042800019, 0.37922233212262224]}, {"species": [{"element": "Er", "occu": 1}], "abc": [0.85526669, 0.49999976, 0.99999461], "properties": {"magmom": -0.0}, "label": "Er", "xyz": [4.487211879001606, 3.210086048464344, 4.311138620431557]}, {"species": [{"element": "Er", "occu": 1}], "abc": [0.9999924800000001, 0.85526991, 0.50000005], "properties": {"magmom": -0.0}, "label": "Er", "xyz": [4.243158627535059, 5.491243809168139, -0.9313297355308752]}, {"species": [{"element": "Er", "occu": 1}], "abc": [0.4999977, -4.16e-06, 0.85526954], "properties": {"magmom": -0.0}, "label": "Er", "xyz": [3.7068871711135594, -0.0002437542382272, 5.414995849079629]}, {"species": [{"element": "Er", "occu": 1}], "abc": [6.11e-06, 0.35530747, 0.49999928], "properties": {"magmom": -0.0}, "label": "Er", "xyz": [-1.317114366082643, 2.281280821382718, 3.000450943724871]}, {"species": [{"element": "Er", "occu": 1}], "abc": [0.49999457, -7.78e-06, 0.355299], "properties": {"magmom": 0.0}, "label": "Er", "xyz": [3.706878685581201, -0.0001951061255409, 1.483385133074801]}, {"species": [{"element": "Er", "occu": 1}], "abc": [0.35529874, 0.49999243, 1.95e-06], "properties": {"magmom": -0.0}, "label": "Er", "xyz": [0.7805882386998363, 3.2102768320285344, -2.2419672061530425]}, {"species": [{"element": "Er", "occu": 1}], "abc": [0.64473052, 0.64473229, 0.6447318400000001], "properties": {"magmom": -0.0}, "label": "Er", "xyz": [2.389806360176299, 4.139473133821441, 1.689922516543331]}, {"species": [{"element": "Sb", "occu": 1}], "abc": [0.2500172, 0.62507671, 0.37507802], "properties": {"magmom": -0.0}, "label": "Sb", "xyz": [-0.46364637311991985, 4.013381920179266, 0.6556040640827723]}, {"species": [{"element": "Sb", "occu": 1}], "abc": [0.37512118, 0.2500292, 0.62511647], "properties": {"magmom": 0.0}, "label": "Sb", "xyz": [1.854183175896889, 1.6052231698643373, 3.2770416854311586]}, {"species": [{"element": "Sb", "occu": 1}], "abc": [0.12490214000000001, 0.75000307, 0.87491724], "properties": {"magmom": -0.0}, "label": "Sb", "xyz": [-1.8543372795263215, 4.815458829619062, 4.586680267027138]}, {"species": [{"element": "Sb", "occu": 1}], "abc": [0.87490756, 0.12490479, 0.75001742], "properties": {"magmom": -0.0}, "label": "Sb", "xyz": [6.023338154908399, 0.8017143057379579, 3.2771620055170554]}, {"species": [{"element": "Sb", "occu": 1}], "abc": [0.62506883, 0.37510936, 0.24999703], "properties": {"magmom": 0.0}, "label": "Sb", "xyz": [3.243557580272797, 2.4083428457275504, -0.6558457494091758]}, {"species": [{"element": "Sb", "occu": 1}], "abc": [0.74999375, 0.87489075, 0.12488416000000001], "properties": {"magmom": 0.0}, "label": "Sb", "xyz": [2.316987197986404, 5.6173259658692665, -3.277261958655456]}]}, "task_ids": null, "uncorrected_energy_per_atom": null, "energy_per_atom": -31.49258558357143, "formation_energy_per_atom": -1.08963017547619, "energy_above_hull": 0.052221945178569006, "is_stable": false, "equilibrium_reaction_energy_per_atom": null, "decomposes_to": null, "xas": null, "grain_boundaries": null, "band_gap": 0.0, "cbm": null, "vbm": null, "efermi": 5.8299667, "is_gap_direct": null, "is_metal": null, "es_source_calc_id": null, "bandstructure": null, "dos": null, "dos_energy_up": null, "dos_energy_down": null, "is_magnetic": null, "ordering": null, "total_magnetization": 1.2e-06, "total_magnetization_normalized_vol": null, "total_magnetization_normalized_formula_units": null, "num_magnetic_sites": null, "num_unique_magnetic_sites": null, "types_of_magnetic_species": null, "bulk_modulus": null, "shear_modulus": null, "universal_anisotropy": null, "homogeneous_poisson": null, "e_total": null, "e_ionic": null, "e_electronic": null, "n": null, "e_ij_max": null, "weighted_surface_energy_EV_PER_ANG2": null, "weighted_surface_energy": null, "weighted_work_function": null, "surface_anisotropy": null, "shape_factor": null, "has_reconstructed": null, "possible_species": null, "has_props": null, "theoretical": null, "database_IDs": null, "fields_not_requested": ["builder_meta", "nsites", "elements", "nelements", "composition", "composition_reduced", "chemsys", "symmetry", "property_name", "deprecated", "deprecation_reasons", "last_updated", "origins", "warnings", "task_ids", "uncorrected_energy_per_atom", "equilibrium_reaction_energy_per_atom", "decomposes_to", "xas", "grain_boundaries", "cbm", "vbm", "is_gap_direct", "is_metal", "es_source_calc_id", "bandstructure", "dos", "dos_energy_up", "dos_energy_down", "is_magnetic", "ordering", "total_magnetization_normalized_vol", "total_magnetization_normalized_formula_units", "num_magnetic_sites", "num_unique_magnetic_sites", "types_of_magnetic_species", "bulk_modulus", "shear_modulus", "universal_anisotropy", "homogeneous_poisson", "e_total", "e_ionic", "e_electronic", "n", "e_ij_max", "weighted_surface_energy_EV_PER_ANG2", "weighted_surface_energy", "weighted_work_function", "surface_anisotropy", "shape_factor", "has_reconstructed", "possible_species", "has_props", "theoretical", "database_IDs"]}