{"builder_meta": null, "nsites": null, "elements": null, "nelements": null, "composition": null, "composition_reduced": null, "formula_pretty": "Er5Bi3", "formula_anonymous": "A3B5", "chemsys": null, "volume": 911.0639562551065, "density": 10.667794975671166, "density_atomic": 28.47074863297208, "symmetry": null, "property_name": null, "material_id": "mp-31466", "deprecated": null, "deprecation_reasons": null, "last_updated": null, "origins": null, "warnings": null, "structure": {"@module": "pymatgen.core.structure", "@class": "Structure", "charge": 0, "lattice": {"matrix": [[8.16146397, 0.0, 0.0], [0.0, 9.37800973, 0.0], [0.0, 0.0, 11.90337508]], "pbc": [true, true, true], "a": 8.16146397, "b": 9.37800973, "c": 11.90337508, "alpha": 90.0, "beta": 90.0, "gamma": 90.0, "volume": 911.0639562551065}, "properties": {}, "sites": [{"species": [{"element": "Er", "occu": 1}], "abc": [0.35458369, 0.75, 0.21559281], "properties": {"magmom": 0.0}, "label": "Er", "xyz": [2.8939220102846495, 7.0335072975, 2.566282081981175]}, {"species": [{"element": "Er", "occu": 1}], "abc": [0.85458369, 0.75, 0.28440719000000003], "properties": {"magmom": 0.0}, "label": "Er", "xyz": [6.974653995284649, 7.0335072975, 3.3854054580188255]}, {"species": [{"element": "Er", "occu": 1}], "abc": [0.64541631, 0.25, 0.78440719], "properties": {"magmom": 0.0}, "label": "Er", "xyz": [5.26754195971535, 2.3445024325, 9.337092998018825]}, {"species": [{"element": "Er", "occu": 1}], "abc": [0.14541631, 0.25, 0.71559281], "properties": {"magmom": 0.0}, "label": "Er", "xyz": [1.1868099747153507, 2.3445024325, 8.517969621981175]}, {"species": [{"element": "Er", "occu": 1}], "abc": [0.69295209, 0.5652250600000001, 0.05903396], "properties": {"magmom": 0.0}, "label": "Er", "xyz": [5.655503515471198, 5.300686112319835, 0.7027033683377168]}, {"species": [{"element": "Er", "occu": 1}], "abc": [0.19295209, 0.93477494, 0.44096604], "properties": {"magmom": 0.0}, "label": "Er", "xyz": [1.5747715304711971, 8.766328482680168, 5.248984171662284]}, {"species": [{"element": "Er", "occu": 1}], "abc": [0.30704791, 0.06522506, 0.9409660400000001], "properties": {"magmom": 0.0}, "label": "Er", "xyz": [2.5059604545288026, 0.6116812473198339, 11.200671711662284]}, {"species": [{"element": "Er", "occu": 1}], "abc": [0.80704791, 0.43477494, 0.55903396], "properties": {"magmom": 0.0}, "label": "Er", "xyz": [6.586692439528802, 4.077323617680166, 6.654390908337717]}, {"species": [{"element": "Er", "occu": 1}], "abc": [0.30704791, 0.43477494, 0.9409660400000001], "properties": {"magmom": 0.0}, "label": "Er", "xyz": [2.5059604545288026, 4.077323617680166, 11.200671711662284]}, {"species": [{"element": "Er", "occu": 1}], "abc": [0.80704791, 0.06522506, 0.55903396], "properties": {"magmom": 0.0}, "label": "Er", "xyz": [6.586692439528802, 0.6116812473198339, 6.654390908337717]}, {"species": [{"element": "Er", "occu": 1}], "abc": [0.69295209, 0.93477494, 0.05903396], "properties": {"magmom": 0.0}, "label": "Er", "xyz": [5.655503515471198, 8.766328482680168, 0.7027033683377168]}, {"species": [{"element": "Er", "occu": 1}], "abc": [0.19295209, 0.5652250600000001, 0.44096604], "properties": {"magmom": 0.0}, "label": "Er", "xyz": [1.5747715304711971, 5.300686112319835, 5.248984171662284]}, {"species": [{"element": "Er", "occu": 1}], "abc": [0.47661624, 0.25, 0.48858928], "properties": {"magmom": 0.0}, "label": "Er", "xyz": [3.889886270276873, 2.3445024325, 5.8158614599071425]}, {"species": [{"element": "Er", "occu": 1}], "abc": [0.97661624, 0.25, 0.011410720000000001], "properties": {"magmom": 0.0}, "label": "Er", "xyz": [7.9706182552768725, 2.3445024325, 0.1358260800928576]}, {"species": [{"element": "Er", "occu": 1}], "abc": [0.52338376, 0.75, 0.51141072], "properties": {"magmom": 0.0}, "label": "Er", "xyz": [4.271577699723127, 7.0335072975, 6.0875136200928575]}, {"species": [{"element": "Er", "occu": 1}], "abc": [0.02338376, 0.75, 0.98858928], "properties": {"magmom": 0.0}, "label": "Er", "xyz": [0.1908457147231272, 7.0335072975, 11.767548999907143]}, {"species": [{"element": "Er", "occu": 1}], "abc": [0.31448477, 0.25, 0.21740185], "properties": {"magmom": 0.0}, "label": "Er", "xyz": [2.566656119468737, 2.3445024325, 2.587815763635898]}, {"species": [{"element": "Er", "occu": 1}], "abc": [0.81448477, 0.25, 0.28259815], "properties": {"magmom": 0.0}, "label": "Er", "xyz": [6.647388104468736, 2.3445024325, 3.363871776364102]}, {"species": [{"element": "Er", "occu": 1}], "abc": [0.68551523, 0.75, 0.78259815], "properties": {"magmom": 0.0}, "label": "Er", "xyz": [5.5948078505312635, 7.0335072975, 9.315559316364102]}, {"species": [{"element": "Er", "occu": 1}], "abc": [0.18551523, 0.75, 0.71740185], "properties": {"magmom": 0.0}, "label": "Er", "xyz": [1.5140758655312632, 7.0335072975, 8.539503303635898]}, {"species": [{"element": "Bi", "occu": 1}], "abc": [0.4058617, 0.75, 0.95783216], "properties": {"magmom": -0.0}, "label": "Bi", "xyz": [3.3124256413529487, 7.0335072975, 11.401435464166573]}, {"species": [{"element": "Bi", "occu": 1}], "abc": [0.9058617, 0.75, 0.54216784], "properties": {"magmom": -0.0}, "label": "Bi", "xyz": [7.393157626352949, 7.0335072975, 6.453627155833427]}, {"species": [{"element": "Bi", "occu": 1}], "abc": [0.5941383, 0.25, 0.04216784], "properties": {"magmom": -0.0}, "label": "Bi", "xyz": [4.849038328647051, 2.3445024325, 0.5019396158334272]}, {"species": [{"element": "Bi", "occu": 1}], "abc": [0.0941383, 0.25, 0.45783216], "properties": {"magmom": -0.0}, "label": "Bi", "xyz": [0.768306343647051, 2.3445024325, 5.449747924166573]}, {"species": [{"element": "Bi", "occu": 1}], "abc": [0.56567037, 0.99586871, 0.32566118], "properties": {"magmom": -0.0}, "label": "Bi", "xyz": [4.616698343651569, 9.33926645218255, 3.8764671745353945]}, {"species": [{"element": "Bi", "occu": 1}], "abc": [0.06567037, 0.50413129, 0.17433782], "properties": {"magmom": -0.0}, "label": "Bi", "xyz": [0.5359663586515689, 4.727748142817452, 2.0752084620895257]}, {"species": [{"element": "Bi", "occu": 1}], "abc": [0.43432963, 0.49586871, 0.67433882], "properties": {"magmom": -0.0}, "label": "Bi", "xyz": [3.5447656263484313, 4.650261587182548, 8.026907905464606]}, {"species": [{"element": "Bi", "occu": 1}], "abc": [0.93432963, 0.00413129, 0.82566118], "properties": {"magmom": -0.0}, "label": "Bi", "xyz": [7.625497611348431, 0.0387432778174517, 9.828154714535394]}, {"species": [{"element": "Bi", "occu": 1}], "abc": [0.43432963, 0.00413129, 0.67433882], "properties": {"magmom": -0.0}, "label": "Bi", "xyz": [3.5447656263484313, 0.0387432778174517, 8.026907905464606]}, {"species": [{"element": "Bi", "occu": 1}], "abc": [0.93432963, 0.49586871, 0.82566118], "properties": {"magmom": -0.0}, "label": "Bi", "xyz": [7.625497611348431, 4.650261587182548, 9.828154714535394]}, {"species": [{"element": "Bi", "occu": 1}], "abc": [0.56567037, 0.50413129, 0.32566118], "properties": {"magmom": -0.0}, "label": "Bi", "xyz": [4.616698343651569, 4.727748142817452, 3.8764671745353945]}, {"species": [{"element": "Bi", "occu": 1}], "abc": [0.06567037, 0.99586871, 0.17433782], "properties": {"magmom": -0.0}, "label": "Bi", "xyz": [0.5359663586515689, 9.33926645218255, 2.0752084620895257]}]}, "task_ids": null, "uncorrected_energy_per_atom": null, "energy_per_atom": -43.905579315, "formation_energy_per_atom": -0.7638296814583321, "energy_above_hull": 0.0, "is_stable": true, "equilibrium_reaction_energy_per_atom": null, "decomposes_to": null, "xas": null, "grain_boundaries": null, "band_gap": 0.0, "cbm": null, "vbm": null, "efermi": 5.01719198, "is_gap_direct": null, "is_metal": null, "es_source_calc_id": null, "bandstructure": null, "dos": null, "dos_energy_up": null, "dos_energy_down": null, "is_magnetic": null, "ordering": null, "total_magnetization": 0.0003202, "total_magnetization_normalized_vol": null, "total_magnetization_normalized_formula_units": null, "num_magnetic_sites": null, "num_unique_magnetic_sites": null, "types_of_magnetic_species": null, "bulk_modulus": null, "shear_modulus": null, "universal_anisotropy": null, "homogeneous_poisson": null, "e_total": null, "e_ionic": null, "e_electronic": null, "n": null, "e_ij_max": null, "weighted_surface_energy_EV_PER_ANG2": null, "weighted_surface_energy": null, "weighted_work_function": null, "surface_anisotropy": null, "shape_factor": null, "has_reconstructed": null, "possible_species": null, "has_props": null, "theoretical": null, "database_IDs": null, "fields_not_requested": ["builder_meta", "nsites", "elements", "nelements", "composition", "composition_reduced", "chemsys", "symmetry", "property_name", "deprecated", "deprecation_reasons", "last_updated", "origins", "warnings", "task_ids", "uncorrected_energy_per_atom", "equilibrium_reaction_energy_per_atom", "decomposes_to", "xas", "grain_boundaries", "cbm", "vbm", "is_gap_direct", "is_metal", "es_source_calc_id", "bandstructure", "dos", "dos_energy_up", "dos_energy_down", "is_magnetic", "ordering", "total_magnetization_normalized_vol", "total_magnetization_normalized_formula_units", "num_magnetic_sites", "num_unique_magnetic_sites", "types_of_magnetic_species", "bulk_modulus", "shear_modulus", "universal_anisotropy", "homogeneous_poisson", "e_total", "e_ionic", "e_electronic", "n", "e_ij_max", "weighted_surface_energy_EV_PER_ANG2", "weighted_surface_energy", "weighted_work_function", "surface_anisotropy", "shape_factor", "has_reconstructed", "possible_species", "has_props", "theoretical", "database_IDs"]}