{"builder_meta": null, "nsites": null, "elements": null, "nelements": null, "composition": null, "composition_reduced": null, "formula_pretty": "Er5Ge4", "formula_anonymous": "A4B5", "chemsys": null, "volume": 810.9242570503184, "density": 9.229896546441251, "density_atomic": 22.52567380695329, "symmetry": null, "property_name": null, "material_id": "mp-1195860", "deprecated": null, "deprecation_reasons": null, "last_updated": null, "origins": null, "warnings": null, "structure": {"@module": "pymatgen.core.structure", "@class": "Structure", "charge": 0, "lattice": {"matrix": [[-7.45318177, 0.0, -0.0], [0.0, 0.0, -7.57914003], [0.0, -14.35551071, 0.0]], "pbc": [true, true, true], "a": 7.45318177, "b": 7.57914003, "c": 14.35551071, "alpha": 90.0, "beta": 90.0, "gamma": 90.0, "volume": 810.9242570503184}, "properties": {}, "sites": [{"species": [{"element": "Er", "occu": 1}], "abc": [0.37072804, 0.83869268, 0.8817321100000001], "properties": {"magmom": 0.0}, "label": "Er", "xyz": [-2.7631034693558303, -12.6577147484559, -6.35656926385598]}, {"species": [{"element": "Er", "occu": 1}], "abc": [0.87072804, 0.66130732, 0.61826789], "properties": {"magmom": 0.0}, "label": "Er", "xyz": [-6.489694354355831, -8.875551316544103, -5.012140781144019]}, {"species": [{"element": "Er", "occu": 1}], "abc": [0.62927196, 0.16130732, 0.38173211], "properties": {"magmom": 0.0}, "label": "Er", "xyz": [-4.690078300644169, -5.479959393455899, -1.2225707661440195]}, {"species": [{"element": "Er", "occu": 1}], "abc": [0.12927196, 0.33869268, 0.11826789], "properties": {"magmom": 0.0}, "label": "Er", "xyz": [-0.9634874156441691, -1.697795961544102, -2.5669992488559803]}, {"species": [{"element": "Er", "occu": 1}], "abc": [0.62927196, 0.16130732, 0.11826789], "properties": {"magmom": 0.0}, "label": "Er", "xyz": [-4.690078300644169, -1.697795961544102, -1.2225707661440195]}, {"species": [{"element": "Er", "occu": 1}], "abc": [0.12927196, 0.33869268, 0.38173211], "properties": {"magmom": 0.0}, "label": "Er", "xyz": [-0.9634874156441691, -5.479959393455899, -2.5669992488559803]}, {"species": [{"element": "Er", "occu": 1}], "abc": [0.37072804, 0.83869268, 0.61826789], "properties": {"magmom": 0.0}, "label": "Er", "xyz": [-2.7631034693558303, -8.875551316544103, -6.35656926385598]}, {"species": [{"element": "Er", "occu": 1}], "abc": [0.87072804, 0.66130732, 0.8817321100000001], "properties": {"magmom": 0.0}, "label": "Er", "xyz": [-6.489694354355831, -12.6577147484559, -5.012140781144019]}, {"species": [{"element": "Er", "occu": 1}], "abc": [0.52022844, 0.3222794, 0.90039691], "properties": {"magmom": 0.0}, "label": "Er", "xyz": [-3.8773571252435386, -12.925657484755908, -2.442600701384382]}, {"species": [{"element": "Er", "occu": 1}], "abc": [0.02022844, 0.177720599999999, 0.59960309], "properties": {"magmom": 0.0}, "label": "Er", "xyz": [-0.1507662402435388, -8.607608580244094, -1.3469693136156105]}, {"species": [{"element": "Er", "occu": 1}], "abc": [0.47977156, 0.6777206, 0.40039691], "properties": {"magmom": 0.0}, "label": "Er", "xyz": [-3.575824644756461, -5.747902129755906, -5.136539328615617]}, {"species": [{"element": "Er", "occu": 1}], "abc": [0.97977156, 0.8222794, 0.09960309], "properties": {"magmom": 0.0}, "label": "Er", "xyz": [-7.302415529756461, -1.429853225244094, -6.232170716384382]}, {"species": [{"element": "Er", "occu": 1}], "abc": [0.47977156, 0.6777206, 0.09960309], "properties": {"magmom": 0.0}, "label": "Er", "xyz": [-3.575824644756461, -1.429853225244094, -5.136539328615617]}, {"species": [{"element": "Er", "occu": 1}], "abc": [0.97977156, 0.8222794, 0.40039691], "properties": {"magmom": 0.0}, "label": "Er", "xyz": [-7.302415529756461, -5.747902129755906, -6.232170716384382]}, {"species": [{"element": "Er", "occu": 1}], "abc": [0.52022844, 0.3222794, 0.59960309], "properties": {"magmom": 0.0}, "label": "Er", "xyz": [-3.8773571252435386, -8.607608580244094, -2.442600701384382]}, {"species": [{"element": "Er", "occu": 1}], "abc": [0.02022844, 0.177720599999999, 0.90039691], "properties": {"magmom": 0.0}, "label": "Er", "xyz": [-0.1507662402435388, -12.925657484755908, -1.3469693136156105]}, {"species": [{"element": "Er", "occu": 1}], "abc": [0.20583563, 0.50143109, 0.75], "properties": {"magmom": 0.0}, "label": "Er", "xyz": [-1.534130365132465, -10.7666330325, -3.8004164465055323]}, {"species": [{"element": "Er", "occu": 1}], "abc": [0.70583563, 0.99856891, 0.75], "properties": {"magmom": 0.0}, "label": "Er", "xyz": [-5.260721250132465, -10.7666330325, -7.568293598494467]}, {"species": [{"element": "Er", "occu": 1}], "abc": [0.7941643700000001, 0.49856891000000003, 0.25], "properties": {"magmom": 0.0}, "label": "Er", "xyz": [-5.919051404867535, -3.5888776775, -3.7787235834944672]}, {"species": [{"element": "Er", "occu": 1}], "abc": [0.29416437, 0.00143109, 0.25], "properties": {"magmom": 0.0}, "label": "Er", "xyz": [-2.192460519867535, -3.5888776775, -0.010846431505532701]}, {"species": [{"element": "Ge", "occu": 1}], "abc": [0.287213999999999, 0.03569224, 0.04294285], "properties": {"magmom": -0.0}, "label": "Ge", "xyz": [-2.1406581488887726, -0.6164665430929235, -0.2705164849443672]}, {"species": [{"element": "Ge", "occu": 1}], "abc": [0.787214, 0.46430776, 0.45705715], "properties": {"magmom": -0.0}, "label": "Ge", "xyz": [-5.867249033888779, -6.561288811907077, -3.5190535300556327]}, {"species": [{"element": "Ge", "occu": 1}], "abc": [0.712785999999999, 0.9643077600000001, 0.54294285], "properties": {"magmom": -0.0}, "label": "Ge", "xyz": [-5.312523621111213, -7.794221898092924, -7.3086235450556325]}, {"species": [{"element": "Ge", "occu": 1}], "abc": [0.212786, 0.53569224, 0.95705715], "properties": {"magmom": -0.0}, "label": "Ge", "xyz": [-1.5859327361112199, -13.739044166907078, -4.060086499944367]}, {"species": [{"element": "Ge", "occu": 1}], "abc": [0.712785999999999, 0.9643077600000001, 0.95705715], "properties": {"magmom": -0.0}, "label": "Ge", "xyz": [-5.312523621111213, -13.739044166907078, -7.3086235450556325]}, {"species": [{"element": "Ge", "occu": 1}], "abc": [0.212786, 0.53569224, 0.54294285], "properties": {"magmom": -0.0}, "label": "Ge", "xyz": [-1.5859327361112199, -7.794221898092924, -4.060086499944367]}, {"species": [{"element": "Ge", "occu": 1}], "abc": [0.287213999999999, 0.03569224, 0.45705715], "properties": {"magmom": -0.0}, "label": "Ge", "xyz": [-2.1406581488887726, -6.561288811907077, -0.2705164849443672]}, {"species": [{"element": "Ge", "occu": 1}], "abc": [0.787214, 0.46430776, 0.04294285], "properties": {"magmom": -0.0}, "label": "Ge", "xyz": [-5.867249033888779, -0.6164665430929235, -3.5190535300556327]}, {"species": [{"element": "Ge", "occu": 1}], "abc": [0.57322377, 0.61733089, 0.75], "properties": {"magmom": -0.0}, "label": "Ge", "xyz": [-4.272340952694673, -10.7666330325, -4.678837260154526]}, {"species": [{"element": "Ge", "occu": 1}], "abc": [0.07322377000000001, 0.88266911, 0.75], "properties": {"magmom": -0.0}, "label": "Ge", "xyz": [-0.5457500676946729, -10.7666330325, -6.689872784845473]}, {"species": [{"element": "Ge", "occu": 1}], "abc": [0.42677623000000003, 0.38266911000000003, 0.25], "properties": {"magmom": -0.0}, "label": "Ge", "xyz": [-3.1808408173053273, -3.5888776775, -2.9003027698454735]}, {"species": [{"element": "Ge", "occu": 1}], "abc": [0.92677623, 0.11733089000000001, 0.25], "properties": {"magmom": -0.0}, "label": "Ge", "xyz": [-6.907431702305327, -3.5888776775, -0.8892672451545267]}, {"species": [{"element": "Ge", "occu": 1}], "abc": [0.32637931000000003, 0.13967382, 0.75], "properties": {"magmom": -0.0}, "label": "Ge", "xyz": [-2.432564323397179, -10.7666330325, -1.0586074403050145]}, {"species": [{"element": "Ge", "occu": 1}], "abc": [0.82637931, 0.36032618, 0.75], "properties": {"magmom": -0.0}, "label": "Ge", "xyz": [-6.159155208397178, -10.7666330325, -2.7309625746949853]}, {"species": [{"element": "Ge", "occu": 1}], "abc": [0.67362069, 0.86032618, 0.25], "properties": {"magmom": -0.0}, "label": "Ge", "xyz": [-5.020617446602821, -3.5888776775, -6.5205325896949855]}, {"species": [{"element": "Ge", "occu": 1}], "abc": [0.17362069, 0.6396738200000001, 0.25], "properties": {"magmom": -0.0}, "label": "Ge", "xyz": [-1.2940265616028213, -3.5888776775, -4.848177455305015]}]}, "task_ids": null, "uncorrected_energy_per_atom": null, "energy_per_atom": -5.439682023888888, "formation_energy_per_atom": -0.8473814161111091, "energy_above_hull": 0.0, "is_stable": true, "equilibrium_reaction_energy_per_atom": null, "decomposes_to": null, "xas": null, "grain_boundaries": null, "band_gap": 0.0, "cbm": null, "vbm": null, "efermi": 3.58188285, "is_gap_direct": null, "is_metal": null, "es_source_calc_id": null, "bandstructure": null, "dos": null, "dos_energy_up": null, "dos_energy_down": null, "is_magnetic": null, "ordering": null, "total_magnetization": 1.0800000000000002e-05, "total_magnetization_normalized_vol": null, "total_magnetization_normalized_formula_units": null, "num_magnetic_sites": null, "num_unique_magnetic_sites": null, "types_of_magnetic_species": null, "bulk_modulus": null, "shear_modulus": null, "universal_anisotropy": null, "homogeneous_poisson": null, "e_total": null, "e_ionic": null, "e_electronic": null, "n": null, "e_ij_max": null, "weighted_surface_energy_EV_PER_ANG2": null, "weighted_surface_energy": null, "weighted_work_function": null, "surface_anisotropy": null, "shape_factor": null, "has_reconstructed": null, "possible_species": null, "has_props": null, "theoretical": null, "database_IDs": null, "fields_not_requested": ["builder_meta", "nsites", "elements", "nelements", "composition", "composition_reduced", "chemsys", "symmetry", "property_name", "deprecated", "deprecation_reasons", "last_updated", "origins", "warnings", "task_ids", "uncorrected_energy_per_atom", "equilibrium_reaction_energy_per_atom", "decomposes_to", "xas", "grain_boundaries", "cbm", "vbm", "is_gap_direct", "is_metal", "es_source_calc_id", "bandstructure", "dos", "dos_energy_up", "dos_energy_down", "is_magnetic", "ordering", "total_magnetization_normalized_vol", "total_magnetization_normalized_formula_units", "num_magnetic_sites", "num_unique_magnetic_sites", "types_of_magnetic_species", "bulk_modulus", "shear_modulus", "universal_anisotropy", "homogeneous_poisson", "e_total", "e_ionic", "e_electronic", "n", "e_ij_max", "weighted_surface_energy_EV_PER_ANG2", "weighted_surface_energy", "weighted_work_function", "surface_anisotropy", "shape_factor", "has_reconstructed", "possible_species", "has_props", "theoretical", "database_IDs"]}