{
  "builder_meta": null,
  "nsites": null,
  "elements": null,
  "nelements": null,
  "composition": null,
  "composition_reduced": null,
  "formula_pretty": "Er5Ga3",
  "formula_anonymous": "A3B5",
  "chemsys": null,
  "volume": 402.66908284799456,
  "density": 8.622632770538509,
  "density_atomic": 25.16681767799966,
  "symmetry": null,
  "property_name": null,
  "material_id": "mp-11368",
  "deprecated": null,
  "deprecation_reasons": null,
  "last_updated": null,
  "origins": null,
  "warnings": null,
  "structure": {
    "@module": "pymatgen.core.structure",
    "@class": "Structure",
    "charge": 0,
    "lattice": {
      "matrix": [
        [8.48225523, 4.1340000000000014e-5, 2.299999999999999e-7],
        [-4.24109246, 7.34586594, -6.000000000000001e-8],
        [-2e-8, -4e-8, 6.46238353]
      ],
      "pbc": [true, true, true],
      "a": 8.482255230100742,
      "b": 8.48225274692525,
      "c": 6.46238353,
      "alpha": 90.00000062375688,
      "beta": 89.99999862372292,
      "gamma": 119.99945624109473,
      "volume": 402.66908284799456
    },
    "properties": {},
    "sites": [
      {
        "species": [{ "element": "Er", "occu": 1 }],
        "abc": [0.99999865, 0.7474027, 0.75000017],
        "properties": { "magmom": -0.152 },
        "label": "Er",
        "xyz": [5.312439808401795, 5.490361347338222, 4.846788931260727]
      },
      {
        "species": [{ "element": "Er", "occu": 1 }],
        "abc": [0.99999952, 0.25259776, 0.24999953],
        "properties": { "magmom": -0.152 },
        "label": "Er",
        "xyz": [7.41096069816861, 1.85559061168447, 1.615593060023765]
      },
      {
        "species": [{ "element": "Er", "occu": 1 }],
        "abc": [0.74740332, 0.74740306, 0.25000008],
        "properties": { "magmom": -0.152 },
        "label": "Er",
        "xyz": [3.169860232642434, 5.490353569559022, 1.6155965265492627]
      },
      {
        "species": [{ "element": "Er", "occu": 1 }],
        "abc": [0.74740262, 1.429999999999999e-6, 0.75000012],
        "properties": { "magmom": -0.152 },
        "label": "Er",
        "xyz": [6.339653702648483, 4.137221260020001e-5, 4.846788594888541]
      },
      {
        "species": [{ "element": "Er", "occu": 1 }],
        "abc": [0.25259811, 0.25259613000000003, 0.75000033],
        "properties": { "magmom": -0.152 },
        "label": "Er",
        "xyz": [1.0713180822674286, 1.8555477203486668, 4.846789823028363]
      },
      {
        "species": [{ "element": "Er", "occu": 1 }],
        "abc": [0.25259849, -5e-8, 0.2499998],
        "properties": { "magmom": -0.152 },
        "label": "Er",
        "xyz": [2.14260506994723, 1.0065128287600003e-5, 1.6155946481209498]
      },
      {
        "species": [{ "element": "Er", "occu": 1 }],
        "abc": [0.33333416, 0.66666552, 0.50000071],
        "properties": { "magmom": -0.037 },
        "label": "Er",
        "xyz": [3.530178366334961e-5, 4.897249296774535, 3.231196389959232]
      },
      {
        "species": [{ "element": "Er", "occu": 1 }],
        "abc": [0.66666608, 0.3333345, 1.629999999999999e-6],
        "properties": { "magmom": -0.037 },
        "label": "Er",
        "xyz": [4.241129409135696, 2.448658110152612, 1.0667018282299993e-5]
      },
      {
        "species": [{ "element": "Er", "occu": 1 }],
        "abc": [0.66666562, 0.33333434, 0.49999836000000003],
        "properties": { "magmom": -0.037 },
        "label": "Er",
        "xyz": [4.241126175873148, 2.448656914795176, 3.2311813000240432]
      },
      {
        "species": [{ "element": "Er", "occu": 1 }],
        "abc": [0.33333409, 0.66666559, 0.99999875],
        "properties": { "magmom": -0.037 },
        "label": "Er",
        "xyz": [3.440114936426987e-5, 4.897249790982335, 6.462375488687493]
      },
      {
        "species": [{ "element": "Ga", "occu": 1 }],
        "abc": [0.39456231, -4.8e-7, 0.75000006],
        "properties": { "magmom": -0.019 },
        "label": "Ga",
        "xyz": [3.346780238282761, 1.2755190241800007e-5, 4.846788125992372]
      },
      {
        "species": [{ "element": "Ga", "occu": 1 }],
        "abc": [0.39456116, 0.39456189, 0.24999968],
        "properties": { "magmom": -0.019 },
        "label": "Ga",
        "xyz": [1.6733950012825238, 2.898415050131394, 1.615593881612624]
      },
      {
        "species": [{ "element": "Ga", "occu": 1 }],
        "abc": [1.00000084, 0.60543904, 0.24999996],
        "properties": { "magmom": -0.019 },
        "label": "Ga",
        "xyz": [5.914539402560755, 4.4475153527170255, 1.6155958176785095]
      },
      {
        "species": [{ "element": "Ga", "occu": 1 }],
        "abc": [1.00000036, 0.39456271, 0.74999991],
        "properties": { "magmom": -0.019 },
        "label": "Ga",
        "xyz": [6.808881334233717, 2.8984460825979834, 4.846787272211803]
      },
      {
        "species": [{ "element": "Ga", "occu": 1 }],
        "abc": [0.60543733, 0.60543768, 0.75000014],
        "properties": { "magmom": -0.019 },
        "label": "Ga",
        "xyz": [2.56775676418184, 4.447489031083836, 4.8467886551580195]
      },
      {
        "species": [{ "element": "Ga", "occu": 1 }],
        "abc": [0.60543833, -8.3e-7, 0.24999977],
        "properties": { "magmom": -0.019 },
        "label": "Ga",
        "xyz": [5.135485956191713, 1.892175184120001e-5, 1.615594535402654]
      }
    ]
  },
  "task_ids": null,
  "uncorrected_energy_per_atom": null,
  "energy_per_atom": -26.064376243125,
  "formation_energy_per_atom": -0.569938282708335,
  "energy_above_hull": 0.031720624713539,
  "is_stable": false,
  "equilibrium_reaction_energy_per_atom": null,
  "decomposes_to": null,
  "xas": null,
  "grain_boundaries": null,
  "band_gap": 0.0,
  "cbm": null,
  "vbm": null,
  "efermi": 2.91689689,
  "is_gap_direct": null,
  "is_metal": null,
  "es_source_calc_id": null,
  "bandstructure": null,
  "dos": null,
  "dos_energy_up": null,
  "dos_energy_down": null,
  "is_magnetic": null,
  "ordering": null,
  "total_magnetization": 1.816120999999999,
  "total_magnetization_normalized_vol": null,
  "total_magnetization_normalized_formula_units": null,
  "num_magnetic_sites": null,
  "num_unique_magnetic_sites": null,
  "types_of_magnetic_species": null,
  "bulk_modulus": null,
  "shear_modulus": null,
  "universal_anisotropy": null,
  "homogeneous_poisson": null,
  "e_total": null,
  "e_ionic": null,
  "e_electronic": null,
  "n": null,
  "e_ij_max": null,
  "weighted_surface_energy_EV_PER_ANG2": null,
  "weighted_surface_energy": null,
  "weighted_work_function": null,
  "surface_anisotropy": null,
  "shape_factor": null,
  "has_reconstructed": null,
  "possible_species": null,
  "has_props": null,
  "theoretical": null,
  "database_IDs": null,
  "fields_not_requested": [
    "builder_meta",
    "nsites",
    "elements",
    "nelements",
    "composition",
    "composition_reduced",
    "chemsys",
    "symmetry",
    "property_name",
    "deprecated",
    "deprecation_reasons",
    "last_updated",
    "origins",
    "warnings",
    "task_ids",
    "uncorrected_energy_per_atom",
    "equilibrium_reaction_energy_per_atom",
    "decomposes_to",
    "xas",
    "grain_boundaries",
    "cbm",
    "vbm",
    "is_gap_direct",
    "is_metal",
    "es_source_calc_id",
    "bandstructure",
    "dos",
    "dos_energy_up",
    "dos_energy_down",
    "is_magnetic",
    "ordering",
    "total_magnetization_normalized_vol",
    "total_magnetization_normalized_formula_units",
    "num_magnetic_sites",
    "num_unique_magnetic_sites",
    "types_of_magnetic_species",
    "bulk_modulus",
    "shear_modulus",
    "universal_anisotropy",
    "homogeneous_poisson",
    "e_total",
    "e_ionic",
    "e_electronic",
    "n",
    "e_ij_max",
    "weighted_surface_energy_EV_PER_ANG2",
    "weighted_surface_energy",
    "weighted_work_function",
    "surface_anisotropy",
    "shape_factor",
    "has_reconstructed",
    "possible_species",
    "has_props",
    "theoretical",
    "database_IDs"
  ]
}
