{"builder_meta": null, "nsites": null, "elements": null, "nelements": null, "composition": null, "composition_reduced": null, "formula_pretty": "Er5Ge3", "formula_anonymous": "A3B5", "chemsys": null, "volume": 382.8650772077207, "density": 9.14455402860346, "density_atomic": 23.929067325482542, "symmetry": null, "property_name": null, "material_id": "mp-11854", "deprecated": null, "deprecation_reasons": null, "last_updated": null, "origins": null, "warnings": null, "structure": {"@module": "pymatgen.core.structure", "@class": "Structure", "charge": 0, "lattice": {"matrix": [[8.36352789, -0.0, 0.0], [-4.18176445, 7.24302788, -0.0], [-0.0, 0.0, 6.32027664]], "pbc": [true, true, true], "a": 8.36352789, "b": 8.363528369398951, "c": 6.32027664, "alpha": 90.0, "beta": 90.0, "gamma": 120.00000209865274, "volume": 382.8650772077207}, "properties": {}, "sites": [{"species": [{"element": "Er", "occu": 1}], "abc": [-0.0, 0.75844576, 0.75], "properties": {"magmom": -0.0}, "label": "Er", "xyz": [-3.171641516421232, 5.493443785147789, 4.7402074800000005]}, {"species": [{"element": "Er", "occu": 1}], "abc": [0.0, 0.24155424, 0.25], "properties": {"magmom": -0.0}, "label": "Er", "xyz": [-1.010122933578768, 1.7495840948522112, 1.58006916]}, {"species": [{"element": "Er", "occu": 1}], "abc": [0.75844576, 0.75844576, 0.25], "properties": {"magmom": -0.0}, "label": "Er", "xyz": [3.1716407503910142, 5.493443785147789, 1.58006916]}, {"species": [{"element": "Er", "occu": 1}], "abc": [0.75844576, -0.0, 0.75], "properties": {"magmom": -0.0}, "label": "Er", "xyz": [6.343282266812246, 0.0, 4.7402074800000005]}, {"species": [{"element": "Er", "occu": 1}], "abc": [0.24155424, 0.24155424, 0.75], "properties": {"magmom": -0.0}, "label": "Er", "xyz": [1.0101226896089859, 1.7495840948522112, 4.7402074800000005]}, {"species": [{"element": "Er", "occu": 1}], "abc": [0.24155424, 0.0, 0.25], "properties": {"magmom": -0.0}, "label": "Er", "xyz": [2.020245623187754, 0.0, 1.58006916]}, {"species": [{"element": "Er", "occu": 1}], "abc": [0.333333, 0.666667, 0.5], "properties": {"magmom": -0.0}, "label": "Er", "xyz": [-4.5184307801982015e-06, 4.82868766767596, 3.16013832]}, {"species": [{"element": "Er", "occu": 1}], "abc": [0.666667, 0.333333, -0.0], "properties": {"magmom": -0.0}, "label": "Er", "xyz": [4.18176795843078, 2.41434021232404, 0.0]}, {"species": [{"element": "Er", "occu": 1}], "abc": [0.666667, 0.333333, 0.5], "properties": {"magmom": -0.0}, "label": "Er", "xyz": [4.18176795843078, 2.41434021232404, 3.16013832]}, {"species": [{"element": "Er", "occu": 1}], "abc": [0.333333, 0.666667, -0.0], "properties": {"magmom": -0.0}, "label": "Er", "xyz": [-4.5184307801982015e-06, 4.82868766767596, 0.0]}, {"species": [{"element": "Ge", "occu": 1}], "abc": [0.39339644, 0.0, 0.75], "properties": {"magmom": 0.0}, "label": "Ge", "xyz": [3.2901820977667118, 0.0, 4.7402074800000005]}, {"species": [{"element": "Ge", "occu": 1}], "abc": [0.39339644, 0.39339644, 0.25], "properties": {"magmom": 0.0}, "label": "Ge", "xyz": [1.6450908502181536, 2.849381382812747, 1.58006916]}, {"species": [{"element": "Ge", "occu": 1}], "abc": [-0.0, 0.60660356, 0.25], "properties": {"magmom": 0.0}, "label": "Ge", "xyz": [-2.5366732024514422, 4.393646497187253, 1.58006916]}, {"species": [{"element": "Ge", "occu": 1}], "abc": [0.0, 0.39339644, 0.75], "properties": {"magmom": 0.0}, "label": "Ge", "xyz": [-1.6450912475485582, 2.849381382812747, 4.7402074800000005]}, {"species": [{"element": "Ge", "occu": 1}], "abc": [0.60660356, 0.60660356, 0.75], "properties": {"magmom": 0.0}, "label": "Ge", "xyz": [2.5366725897818463, 4.393646497187253, 4.7402074800000005]}, {"species": [{"element": "Ge", "occu": 1}], "abc": [0.60660356, -0.0, 0.25], "properties": {"magmom": 0.0}, "label": "Ge", "xyz": [5.0733457922332885, 0.0, 1.58006916]}]}, "task_ids": null, "uncorrected_energy_per_atom": null, "energy_per_atom": -5.390916865625002, "formation_energy_per_atom": -0.8024571637500001, "energy_above_hull": 0.0, "is_stable": true, "equilibrium_reaction_energy_per_atom": null, "decomposes_to": null, "xas": null, "grain_boundaries": null, "band_gap": 0.0, "cbm": null, "vbm": null, "efermi": 4.22955315, "is_gap_direct": null, "is_metal": null, "es_source_calc_id": null, "bandstructure": null, "dos": null, "dos_energy_up": null, "dos_energy_down": null, "is_magnetic": null, "ordering": null, "total_magnetization": 2.6e-06, "total_magnetization_normalized_vol": null, "total_magnetization_normalized_formula_units": null, "num_magnetic_sites": null, "num_unique_magnetic_sites": null, "types_of_magnetic_species": null, "bulk_modulus": null, "shear_modulus": null, "universal_anisotropy": null, "homogeneous_poisson": null, "e_total": null, "e_ionic": null, "e_electronic": null, "n": null, "e_ij_max": null, "weighted_surface_energy_EV_PER_ANG2": null, "weighted_surface_energy": null, "weighted_work_function": null, "surface_anisotropy": null, "shape_factor": null, "has_reconstructed": null, "possible_species": null, "has_props": null, "theoretical": null, "database_IDs": null, "fields_not_requested": ["builder_meta", "nsites", "elements", "nelements", "composition", "composition_reduced", "chemsys", "symmetry", "property_name", "deprecated", "deprecation_reasons", "last_updated", "origins", "warnings", "task_ids", "uncorrected_energy_per_atom", "equilibrium_reaction_energy_per_atom", "decomposes_to", "xas", "grain_boundaries", "cbm", "vbm", "is_gap_direct", "is_metal", "es_source_calc_id", "bandstructure", "dos", "dos_energy_up", "dos_energy_down", "is_magnetic", "ordering", "total_magnetization_normalized_vol", "total_magnetization_normalized_formula_units", "num_magnetic_sites", "num_unique_magnetic_sites", "types_of_magnetic_species", "bulk_modulus", "shear_modulus", "universal_anisotropy", "homogeneous_poisson", "e_total", "e_ionic", "e_electronic", "n", "e_ij_max", "weighted_surface_energy_EV_PER_ANG2", "weighted_surface_energy", "weighted_work_function", "surface_anisotropy", "shape_factor", "has_reconstructed", "possible_species", "has_props", "theoretical", "database_IDs"]}