{"builder_meta": null, "nsites": null, "elements": null, "nelements": null, "composition": null, "composition_reduced": null, "formula_pretty": "Er5In3", "formula_anonymous": "A3B5", "chemsys": null, "volume": 448.7716185746094, "density": 8.737985029340331, "density_atomic": 28.04822616091309, "symmetry": null, "property_name": null, "material_id": "mp-1189039", "deprecated": null, "deprecation_reasons": null, "last_updated": null, "origins": null, "warnings": null, "structure": {"@module": "pymatgen.core.structure", "@class": "Structure", "charge": 0, "lattice": {"matrix": [[4.46900019, -7.74053637, 0.0], [4.46900019, 7.74053637, 0.0], [0.0, -0.0, 6.48655282]], "pbc": [true, true, true], "a": 8.938001230337397, "b": 8.938001230337397, "c": 6.48655282, "alpha": 90.0, "beta": 90.0, "gamma": 120.00000629423369, "volume": 448.7716185746094}, "properties": {}, "sites": [{"species": [{"element": "Er", "occu": 1}], "abc": [0.666667, 0.333333, 0.0], "properties": {"magmom": 0.023}, "label": "Er", "xyz": [4.46900019, -2.58018395035758, 0.0]}, {"species": [{"element": "Er", "occu": 1}], "abc": [0.333333, 0.666667, 0.0], "properties": {"magmom": 0.023}, "label": "Er", "xyz": [4.46900019, 2.58018395035758, 0.0]}, {"species": [{"element": "Er", "occu": 1}], "abc": [0.333333, 0.666667, 0.5], "properties": {"magmom": 0.023}, "label": "Er", "xyz": [4.46900019, 2.58018395035758, 3.24327641]}, {"species": [{"element": "Er", "occu": 1}], "abc": [0.666667, 0.333333, 0.5], "properties": {"magmom": 0.023}, "label": "Er", "xyz": [4.46900019, -2.58018395035758, 3.24327641]}, {"species": [{"element": "Er", "occu": 1}], "abc": [0.76352299, 0.76352299, 0.75], "properties": {"magmom": 0.07100000000000001}, "label": "Er", "xyz": [6.824368774758736, 0.0, 4.864914615]}, {"species": [{"element": "Er", "occu": 1}], "abc": [0.23647701000000002, -0.0, 0.75], "properties": {"magmom": 0.07100000000000001}, "label": "Er", "xyz": [1.056815802620632, -1.8304588965738537, 4.864914615]}, {"species": [{"element": "Er", "occu": 1}], "abc": [-0.0, 0.23647701000000002, 0.75], "properties": {"magmom": 0.07100000000000001}, "label": "Er", "xyz": [1.056815802620632, 1.8304588965738537, 4.864914615]}, {"species": [{"element": "Er", "occu": 1}], "abc": [0.23647701000000002, 0.23647701000000002, 0.25], "properties": {"magmom": 0.07100000000000001}, "label": "Er", "xyz": [2.113631605241264, 0.0, 1.621638205]}, {"species": [{"element": "Er", "occu": 1}], "abc": [0.76352299, 0.0, 0.25], "properties": {"magmom": 0.07100000000000001}, "label": "Er", "xyz": [3.412184387379368, -5.9100774734261465, 1.621638205]}, {"species": [{"element": "Er", "occu": 1}], "abc": [0.0, 0.76352299, 0.25], "properties": {"magmom": 0.07100000000000001}, "label": "Er", "xyz": [3.412184387379368, 5.9100774734261465, 1.621638205]}, {"species": [{"element": "In", "occu": 1}], "abc": [0.40119428, 0.40119428, 0.75], "properties": {"magmom": 0.016}, "label": "In", "xyz": [3.5858746270938266, 0.0, 4.864914615]}, {"species": [{"element": "In", "occu": 1}], "abc": [0.59880572, 0.0, 0.75], "properties": {"magmom": 0.016}, "label": "In", "xyz": [2.676062876453087, -4.635077454224036, 4.864914615]}, {"species": [{"element": "In", "occu": 1}], "abc": [0.0, 0.59880572, 0.75], "properties": {"magmom": 0.016}, "label": "In", "xyz": [2.676062876453087, 4.635077454224036, 4.864914615]}, {"species": [{"element": "In", "occu": 1}], "abc": [0.59880572, 0.59880572, 0.25], "properties": {"magmom": 0.016}, "label": "In", "xyz": [5.352125752906174, 0.0, 1.621638205]}, {"species": [{"element": "In", "occu": 1}], "abc": [0.40119428, -0.0, 0.25], "properties": {"magmom": 0.016}, "label": "In", "xyz": [1.7929373135469133, -3.1054589157759636, 1.621638205]}, {"species": [{"element": "In", "occu": 1}], "abc": [-0.0, 0.40119428, 0.25], "properties": {"magmom": 0.016}, "label": "In", "xyz": [1.7929373135469133, 3.1054589157759636, 1.621638205]}]}, "task_ids": null, "uncorrected_energy_per_atom": null, "energy_per_atom": -30.16216174125, "formation_energy_per_atom": -0.49179336958333403, "energy_above_hull": 0.0, "is_stable": true, "equilibrium_reaction_energy_per_atom": null, "decomposes_to": null, "xas": null, "grain_boundaries": null, "band_gap": 0.0, "cbm": null, "vbm": null, "efermi": 4.30163533, "is_gap_direct": null, "is_metal": null, "es_source_calc_id": null, "bandstructure": null, "dos": null, "dos_energy_up": null, "dos_energy_down": null, "is_magnetic": null, "ordering": null, "total_magnetization": 0.9429941, "total_magnetization_normalized_vol": null, "total_magnetization_normalized_formula_units": null, "num_magnetic_sites": null, "num_unique_magnetic_sites": null, "types_of_magnetic_species": null, "bulk_modulus": null, "shear_modulus": null, "universal_anisotropy": null, "homogeneous_poisson": null, "e_total": null, "e_ionic": null, "e_electronic": null, "n": null, "e_ij_max": null, "weighted_surface_energy_EV_PER_ANG2": null, "weighted_surface_energy": null, "weighted_work_function": null, "surface_anisotropy": null, "shape_factor": null, "has_reconstructed": null, "possible_species": null, "has_props": null, "theoretical": null, "database_IDs": null, "fields_not_requested": ["builder_meta", "nsites", "elements", "nelements", "composition", "composition_reduced", "chemsys", "symmetry", "property_name", "deprecated", "deprecation_reasons", "last_updated", "origins", "warnings", "task_ids", "uncorrected_energy_per_atom", "equilibrium_reaction_energy_per_atom", "decomposes_to", "xas", "grain_boundaries", "cbm", "vbm", "is_gap_direct", "is_metal", "es_source_calc_id", "bandstructure", "dos", "dos_energy_up", "dos_energy_down", "is_magnetic", "ordering", "total_magnetization_normalized_vol", "total_magnetization_normalized_formula_units", "num_magnetic_sites", "num_unique_magnetic_sites", "types_of_magnetic_species", "bulk_modulus", "shear_modulus", "universal_anisotropy", "homogeneous_poisson", "e_total", "e_ionic", "e_electronic", "n", "e_ij_max", "weighted_surface_energy_EV_PER_ANG2", "weighted_surface_energy", "weighted_work_function", "surface_anisotropy", "shape_factor", "has_reconstructed", "possible_species", "has_props", "theoretical", "database_IDs"]}