{"builder_meta": null, "nsites": null, "elements": null, "nelements": null, "composition": null, "composition_reduced": null, "formula_pretty": "Er5Ir3", "formula_anonymous": "A3B5", "chemsys": null, "volume": 723.1881890360003, "density": 12.977269637789435, "density_atomic": 22.59963090737501, "symmetry": null, "property_name": null, "material_id": "mp-1201760", "deprecated": null, "deprecation_reasons": null, "last_updated": null, "origins": null, "warnings": null, "structure": {"@module": "pymatgen.core.structure", "@class": "Structure", "charge": 0, "lattice": {"matrix": [[0.0, -0.0, 6.29610718], [10.71740512, -2.04e-06, 0.0], [-2.04e-06, 10.71740308, -0.0]], "pbc": [true, true, true], "a": 6.29610718, "b": 10.717405120000194, "c": 10.717403080000194, "alpha": 90.0000218118845, "beta": 90.0, "gamma": 90.0, "volume": 723.1881890360003}, "properties": {}, "sites": [{"species": [{"element": "Er", "occu": 1}], "abc": [0.5, 0.5, 0.5], "properties": {"magmom": 0.0}, "label": "Er", "xyz": [5.35870154, 5.35870052, 3.14805359]}, {"species": [{"element": "Er", "occu": 1}], "abc": [-0.0, 0.5, 0.5], "properties": {"magmom": 0.0}, "label": "Er", "xyz": [5.35870154, 5.35870052, 0.0]}, {"species": [{"element": "Er", "occu": 1}], "abc": [0.499998999999999, 0.0, -0.0], "properties": {"magmom": -0.0}, "label": "Er", "xyz": [0.0, 0.0, 3.1480472938928137]}, {"species": [{"element": "Er", "occu": 1}], "abc": [-0.0, 0.0, -0.0], "properties": {"magmom": -0.0}, "label": "Er", "xyz": [0.0, 0.0, 0.0]}, {"species": [{"element": "Er", "occu": 1}], "abc": [0.38162095, 0.58765512, 0.79164634], "properties": {"magmom": 0.0}, "label": "Er", "xyz": [6.29813637692368, 8.484391723770282, 2.4027264033334212]}, {"species": [{"element": "Er", "occu": 1}], "abc": [0.8816209500000001, 0.58765512, 0.20835266], "properties": {"magmom": 0.0}, "label": "Er", "xyz": [6.2981375668427875, 2.232998241193748, 5.550779993333421]}, {"species": [{"element": "Er", "occu": 1}], "abc": [0.61838006, 0.91234134, 0.7083460500000001], "properties": {"magmom": 0.0}, "label": "Er", "xyz": [9.777930303477719, 7.591628276799501, 3.8933871357348306]}, {"species": [{"element": "Er", "occu": 1}], "abc": [0.11838106, 0.08765966, 0.7083460500000001], "properties": {"magmom": 0.0}, "label": "Er", "xyz": [0.9394826438755173, 7.591629959150128, 0.7453398418420107]}, {"species": [{"element": "Er", "occu": 1}], "abc": [0.38162095, 0.41234488, 0.20835366], "properties": {"magmom": 0.0}, "label": "Er", "xyz": [4.41926670307632, 2.2330093162297175, 2.4027264033334212]}, {"species": [{"element": "Er", "occu": 1}], "abc": [0.8816209500000001, 0.41234488, 0.79164734], "properties": {"magmom": 0.0}, "label": "Er", "xyz": [4.419265513157213, 8.484402798806252, 5.550779993333421]}, {"species": [{"element": "Er", "occu": 1}], "abc": [0.61838006, 0.08765866, 0.29165395], "properties": {"magmom": 0.0}, "label": "Er", "xyz": [0.9394727765222812, 3.1257727632004997, 3.8933871357348306]}, {"species": [{"element": "Er", "occu": 1}], "abc": [0.11838106, 0.91234034, 0.29165395], "properties": {"magmom": 0.0}, "label": "Er", "xyz": [9.777920436124484, 3.1257710808498724, 0.7453398418420107]}, {"species": [{"element": "Er", "occu": 1}], "abc": [0.61837905, 0.79164734, 0.41234388], "properties": {"magmom": 0.0}, "label": "Er", "xyz": [8.484404413768866, 4.419253954570578, 3.893380776666579]}, {"species": [{"element": "Er", "occu": 1}], "abc": [0.11837805, 0.20835366, 0.41234488], "properties": {"magmom": 0.0}, "label": "Er", "xyz": [2.233009741271184, 4.4192658618927645, 0.745320890559399]}, {"species": [{"element": "Er", "occu": 1}], "abc": [0.38161994, 0.29165295, 0.91233934], "properties": {"magmom": 0.0}, "label": "Er", "xyz": [3.1257609584208508, 9.77790785754915, 2.4027200442651693]}, {"species": [{"element": "Er", "occu": 1}], "abc": [0.88161994, 0.70834705, 0.91234034], "properties": {"magmom": 0.0}, "label": "Er", "xyz": [7.591640439232602, 9.777917724896266, 5.550773634265169]}, {"species": [{"element": "Er", "occu": 1}], "abc": [0.61837905, 0.20835266, 0.58765612], "properties": {"magmom": 0.0}, "label": "Er", "xyz": [2.2329986662311345, 6.298147085429423, 3.893380776666579]}, {"species": [{"element": "Er", "occu": 1}], "abc": [0.11837805, 0.79164634, 0.58765512], "properties": {"magmom": 0.0}, "label": "Er", "xyz": [8.484393338728816, 6.298135178107236, 0.745320890559399]}, {"species": [{"element": "Er", "occu": 1}], "abc": [0.38161994, 0.70834705, 0.08766066], "properties": {"magmom": 0.0}, "label": "Er", "xyz": [7.59164212157915, 0.9394931824508508, 2.4027200442651693]}, {"species": [{"element": "Er", "occu": 1}], "abc": [0.88161994, 0.29165295, 0.08765966], "properties": {"magmom": 0.0}, "label": "Er", "xyz": [3.125762640767398, 0.9394833151037348, 5.550773634265169]}, {"species": [{"element": "Ir", "occu": 1}], "abc": [0.37209482, 0.0, 0.5], "properties": {"magmom": -0.0}, "label": "Ir", "xyz": [-1.02e-06, 5.35870154, 2.3427488678428077]}, {"species": [{"element": "Ir", "occu": 1}], "abc": [0.87209482, 0.0, 0.5], "properties": {"magmom": -0.0}, "label": "Ir", "xyz": [-1.02e-06, 5.35870154, 5.490802457842808]}, {"species": [{"element": "Ir", "occu": 1}], "abc": [0.6279051800000001, 0.5, -0.0], "properties": {"magmom": -0.0}, "label": "Ir", "xyz": [5.35870256, -1.02e-06, 3.9533583121571927]}, {"species": [{"element": "Ir", "occu": 1}], "abc": [0.12790518, 0.5, -0.0], "properties": {"magmom": -0.0}, "label": "Ir", "xyz": [5.35870256, -1.02e-06, 0.8053047221571924]}, {"species": [{"element": "Ir", "occu": 1}], "abc": [0.75, 0.65357939, 0.65357939], "properties": {"magmom": 0.0}, "label": "Ir", "xyz": [7.004673767410521, 7.004672434108565, 4.722080385]}, {"species": [{"element": "Ir", "occu": 1}], "abc": [0.25, 0.65357939, 0.34642061], "properties": {"magmom": 0.0}, "label": "Ir", "xyz": [7.004674394014433, 3.7127279792875236, 1.574026795]}, {"species": [{"element": "Ir", "occu": 1}], "abc": [0.25, 0.84641157, 0.84641157], "properties": {"magmom": 0.0}, "label": "Ir", "xyz": [9.071333967265636, 9.071332240586033, 1.574026795]}, {"species": [{"element": "Ir", "occu": 1}], "abc": [0.75, 0.15358843, 0.84641157], "properties": {"magmom": 0.0}, "label": "Ir", "xyz": [1.6460676993751588, 9.071333653945238, 4.722080385]}, {"species": [{"element": "Ir", "occu": 1}], "abc": [0.75, 0.34642061, 0.34642061], "properties": {"magmom": 0.0}, "label": "Ir", "xyz": [3.712729312589479, 3.7127286058914346, 4.722080385]}, {"species": [{"element": "Ir", "occu": 1}], "abc": [0.25, 0.34642061, 0.65357939], "properties": {"magmom": 0.0}, "label": "Ir", "xyz": [3.712728685985568, 7.004673060712477, 1.574026795]}, {"species": [{"element": "Ir", "occu": 1}], "abc": [0.25, 0.15358843, 0.15358843], "properties": {"magmom": 0.0}, "label": "Ir", "xyz": [1.6460691127343645, 1.6460687994139673, 1.574026795]}, {"species": [{"element": "Ir", "occu": 1}], "abc": [0.75, 0.84641157, 0.15358843], "properties": {"magmom": 0.0}, "label": "Ir", "xyz": [9.071335380624841, 1.6460673860547617, 4.722080385]}]}, "task_ids": null, "uncorrected_energy_per_atom": null, "energy_per_atom": -7.028956219999998, "formation_energy_per_atom": -0.859719146249996, "energy_above_hull": 0.0, "is_stable": true, "equilibrium_reaction_energy_per_atom": null, "decomposes_to": null, "xas": null, "grain_boundaries": null, "band_gap": 0.0, "cbm": null, "vbm": null, "efermi": 4.77638753, "is_gap_direct": null, "is_metal": null, "es_source_calc_id": null, "bandstructure": null, "dos": null, "dos_energy_up": null, "dos_energy_down": null, "is_magnetic": null, "ordering": null, "total_magnetization": 2.299999999999998e-06, "total_magnetization_normalized_vol": null, "total_magnetization_normalized_formula_units": null, "num_magnetic_sites": null, "num_unique_magnetic_sites": null, "types_of_magnetic_species": null, "bulk_modulus": null, "shear_modulus": null, "universal_anisotropy": null, "homogeneous_poisson": null, "e_total": null, "e_ionic": null, "e_electronic": null, "n": null, "e_ij_max": null, "weighted_surface_energy_EV_PER_ANG2": null, "weighted_surface_energy": null, "weighted_work_function": null, "surface_anisotropy": null, "shape_factor": null, "has_reconstructed": null, "possible_species": null, "has_props": null, "theoretical": null, "database_IDs": null, "fields_not_requested": ["builder_meta", "nsites", "elements", "nelements", "composition", "composition_reduced", "chemsys", "symmetry", "property_name", "deprecated", "deprecation_reasons", "last_updated", "origins", "warnings", "task_ids", "uncorrected_energy_per_atom", "equilibrium_reaction_energy_per_atom", "decomposes_to", "xas", "grain_boundaries", "cbm", "vbm", "is_gap_direct", "is_metal", "es_source_calc_id", "bandstructure", "dos", "dos_energy_up", "dos_energy_down", "is_magnetic", "ordering", "total_magnetization_normalized_vol", "total_magnetization_normalized_formula_units", "num_magnetic_sites", "num_unique_magnetic_sites", "types_of_magnetic_species", "bulk_modulus", "shear_modulus", "universal_anisotropy", "homogeneous_poisson", "e_total", "e_ionic", "e_electronic", "n", "e_ij_max", "weighted_surface_energy_EV_PER_ANG2", "weighted_surface_energy", "weighted_work_function", "surface_anisotropy", "shape_factor", "has_reconstructed", "possible_species", "has_props", "theoretical", "database_IDs"]}