{
  "builder_meta": null,
  "nsites": null,
  "elements": null,
  "nelements": null,
  "composition": null,
  "composition_reduced": null,
  "formula_pretty": "Er5Ir2",
  "formula_anonymous": "A2B5",
  "chemsys": null,
  "volume": 356.8770160610295,
  "density": 11.360037788955859,
  "density_atomic": 25.49121543293068,
  "symmetry": null,
  "property_name": null,
  "material_id": "mp-1103964",
  "deprecated": null,
  "deprecation_reasons": null,
  "last_updated": null,
  "origins": null,
  "warnings": null,
  "structure": {
    "@module": "pymatgen.core.structure",
    "@class": "Structure",
    "charge": 0,
    "lattice": {
      "matrix": [
        [0.0, 6.463562, 0.0],
        [-0.001276, 0.0, 7.16172],
        [7.70972, -3.231781, -0.924944999999999]
      ],
      "pbc": [true, true, true],
      "a": 6.463562,
      "b": 7.161720113672134,
      "c": 8.410690468884585,
      "alpha": 96.32314731960255,
      "beta": 112.5969893947766,
      "gamma": 90.0,
      "volume": 356.8770160610295
    },
    "properties": {},
    "sites": [
      {
        "species": [{ "element": "Er", "occu": 1 }],
        "abc": [0.969770999999999, 0.918477999999999, 0.181581],
        "properties": { "magmom": 0.0 },
        "label": "Er",
        "xyz": [1.3987666893919999, 5.681344958540993, 6.409929824114993]
      },
      {
        "species": [{ "element": "Er", "occu": 1 }],
        "abc": [0.7881900000000001, 0.581522, 0.818419],
        "properties": { "magmom": 0.0 },
        "label": "Er",
        "xyz": [6.309039310608, 2.4495639585410003, 3.4077051758850008]
      },
      {
        "species": [{ "element": "Er", "occu": 1 }],
        "abc": [0.030229, 0.081522, 0.818419],
        "properties": { "magmom": 0.0 },
        "label": "Er",
        "xyz": [6.309677310608, -2.449563958541, -0.17315482411499927]
      },
      {
        "species": [{ "element": "Er", "occu": 1 }],
        "abc": [0.21181000000000003, 0.418477999999999, 0.181581],
        "properties": { "magmom": 0.0 },
        "label": "Er",
        "xyz": [1.3994046893919998, 0.7822170414590002, 2.829069824114993]
      },
      {
        "species": [{ "element": "Er", "occu": 1 }],
        "abc": [0.654003, 0.818803, 0.442725999999999],
        "properties": { "magmom": 0.0 },
        "label": "Er",
        "xyz": [3.412248704091992, 2.7963954636800032, 5.4545406210900005]
      },
      {
        "species": [{ "element": "Er", "occu": 1 }],
        "abc": [0.211277, 0.681196999999999, 0.557273999999999],
        "properties": { "magmom": 0.0 },
        "label": "Er",
        "xyz": [4.295557295907992, -0.435385536319997, 4.363094378909994]
      },
      {
        "species": [{ "element": "Er", "occu": 1 }],
        "abc": [0.345997, 0.181197, 0.557273999999999],
        "properties": { "magmom": 0.0 },
        "label": "Er",
        "xyz": [4.296195295907992, 0.4353855363200032, 0.7822343789100014]
      },
      {
        "species": [{ "element": "Er", "occu": 1 }],
        "abc": [0.788723, 0.318803, 0.442725999999999],
        "properties": { "magmom": 0.0 },
        "label": "Er",
        "xyz": [3.412886704091992, 3.6671665363200026, 1.8736806210900012]
      },
      {
        "species": [{ "element": "Er", "occu": 1 }],
        "abc": [0.427239, 0.75, 0.0],
        "properties": { "magmom": 0.0 },
        "label": "Er",
        "xyz": [-0.000957, 2.7614857653179996, 5.37129]
      },
      {
        "species": [{ "element": "Er", "occu": 1 }],
        "abc": [0.572761, 0.25, 0.0],
        "properties": { "magmom": 0.0 },
        "label": "Er",
        "xyz": [-0.000319, 3.7020762346819995, 1.79043]
      },
      {
        "species": [{ "element": "Ir", "occu": 1 }],
        "abc": [0.827473999999999, 0.573376, 0.218726],
        "properties": { "magmom": -0.0 },
        "label": "Ir",
        "xyz": [1.685584588944, 4.641554971381994, 3.9040488466500007]
      },
      {
        "species": [{ "element": "Ir", "occu": 1 }],
        "abc": [0.608748, 0.926624, 0.781273999999999],
        "properties": { "magmom": -0.0 },
        "label": "Ir",
        "xyz": [6.022221411055992, 1.4097739713820028, 5.913586153350002]
      },
      {
        "species": [{ "element": "Ir", "occu": 1 }],
        "abc": [0.172525999999999, 0.426624, 0.781273999999999],
        "properties": { "magmom": -0.0 },
        "label": "Ir",
        "xyz": [6.022859411055992, -1.409773971382003, 2.3327261533500017]
      },
      {
        "species": [{ "element": "Ir", "occu": 1 }],
        "abc": [0.391252, 0.073376, 0.218726],
        "properties": { "magmom": -0.0 },
        "label": "Ir",
        "xyz": [1.6862225889440001, 1.8220070286179997, 0.32318884665000014]
      }
    ]
  },
  "task_ids": null,
  "uncorrected_energy_per_atom": null,
  "energy_per_atom": -6.4856168228571445,
  "formation_energy_per_atom": -0.69769362142857,
  "energy_above_hull": 0.0,
  "is_stable": true,
  "equilibrium_reaction_energy_per_atom": null,
  "decomposes_to": null,
  "xas": null,
  "grain_boundaries": null,
  "band_gap": 0.0,
  "cbm": null,
  "vbm": null,
  "efermi": 4.18135253,
  "is_gap_direct": null,
  "is_metal": null,
  "es_source_calc_id": null,
  "bandstructure": null,
  "dos": null,
  "dos_energy_up": null,
  "dos_energy_down": null,
  "is_magnetic": null,
  "ordering": null,
  "total_magnetization": 0.0087716,
  "total_magnetization_normalized_vol": null,
  "total_magnetization_normalized_formula_units": null,
  "num_magnetic_sites": null,
  "num_unique_magnetic_sites": null,
  "types_of_magnetic_species": null,
  "bulk_modulus": null,
  "shear_modulus": null,
  "universal_anisotropy": null,
  "homogeneous_poisson": null,
  "e_total": null,
  "e_ionic": null,
  "e_electronic": null,
  "n": null,
  "e_ij_max": null,
  "weighted_surface_energy_EV_PER_ANG2": null,
  "weighted_surface_energy": null,
  "weighted_work_function": null,
  "surface_anisotropy": null,
  "shape_factor": null,
  "has_reconstructed": null,
  "possible_species": null,
  "has_props": null,
  "theoretical": null,
  "database_IDs": null,
  "fields_not_requested": [
    "builder_meta",
    "nsites",
    "elements",
    "nelements",
    "composition",
    "composition_reduced",
    "chemsys",
    "symmetry",
    "property_name",
    "deprecated",
    "deprecation_reasons",
    "last_updated",
    "origins",
    "warnings",
    "task_ids",
    "uncorrected_energy_per_atom",
    "equilibrium_reaction_energy_per_atom",
    "decomposes_to",
    "xas",
    "grain_boundaries",
    "cbm",
    "vbm",
    "is_gap_direct",
    "is_metal",
    "es_source_calc_id",
    "bandstructure",
    "dos",
    "dos_energy_up",
    "dos_energy_down",
    "is_magnetic",
    "ordering",
    "total_magnetization_normalized_vol",
    "total_magnetization_normalized_formula_units",
    "num_magnetic_sites",
    "num_unique_magnetic_sites",
    "types_of_magnetic_species",
    "bulk_modulus",
    "shear_modulus",
    "universal_anisotropy",
    "homogeneous_poisson",
    "e_total",
    "e_ionic",
    "e_electronic",
    "n",
    "e_ij_max",
    "weighted_surface_energy_EV_PER_ANG2",
    "weighted_surface_energy",
    "weighted_work_function",
    "surface_anisotropy",
    "shape_factor",
    "has_reconstructed",
    "possible_species",
    "has_props",
    "theoretical",
    "database_IDs"
  ]
}
