{
  "builder_meta": null,
  "nsites": null,
  "elements": null,
  "nelements": null,
  "composition": null,
  "composition_reduced": null,
  "formula_pretty": "Er5Mg",
  "formula_anonymous": "AB5",
  "chemsys": null,
  "volume": 175.05151763197452,
  "density": 8.16365342070551,
  "density_atomic": 29.17525293866242,
  "symmetry": null,
  "property_name": null,
  "material_id": "mp-1184181",
  "deprecated": null,
  "deprecation_reasons": null,
  "last_updated": null,
  "origins": null,
  "warnings": null,
  "structure": {
    "@module": "pymatgen.core.structure",
    "@class": "Structure",
    "charge": 0,
    "lattice": {
      "matrix": [
        [5.77157081, -3.03118364, -0.00114229],
        [5.77157081, 3.03118364, -0.00114229],
        [4.18060715, -0.0, 5.00216228]
      ],
      "pbc": [true, true, true],
      "a": 6.51913377520926,
      "b": 6.51913377520926,
      "c": 6.519133655485668,
      "alpha": 55.41620373050129,
      "beta": 55.41620373050129,
      "gamma": 55.41620382517707,
      "volume": 175.05151763197452
    },
    "properties": {},
    "sites": [
      {
        "species": [{ "element": "Er", "occu": 1 }],
        "abc": [0.5, 0.16254147, 0.83745853],
        "properties": { "magmom": 0.0 },
        "label": "Er",
        "xyz": [7.32499012701298, -1.0228987753144492, 4.188346655334483]
      },
      {
        "species": [{ "element": "Er", "occu": 1 }],
        "abc": [0.16254147, 0.83745853, 0.5],
        "properties": { "magmom": 0.0 },
        "label": "Er",
        "xyz": [7.861874385, 2.0457975506288983, 2.49993885]
      },
      {
        "species": [{ "element": "Er", "occu": 1 }],
        "abc": [0.83745853, 0.5, 0.16254147],
        "properties": { "magmom": 0.0 },
        "label": "Er",
        "xyz": [8.398758642987021, -1.0228987753144492, 0.8115310446655178]
      },
      {
        "species": [{ "element": "Er", "occu": 1 }],
        "abc": [0.33211197000000003, 0.33211197000000003, 0.33211197000000003],
        "properties": { "magmom": -0.0 },
        "label": "Er",
        "xyz": [5.222045179789777, 0.0, 1.6605192327060694]
      },
      {
        "species": [{ "element": "Er", "occu": 1 }],
        "abc": [0.66788803, 0.66788803, 0.66788803],
        "properties": { "magmom": -0.0 },
        "label": "Er",
        "xyz": [10.501703590210223, 0.0, 3.339358467293931]
      },
      {
        "species": [{ "element": "Mg", "occu": 1 }],
        "abc": [-0.0, 0.0, 0.0],
        "properties": { "magmom": 0.0 },
        "label": "Mg",
        "xyz": [0.0, 0.0, 0.0]
      }
    ]
  },
  "task_ids": null,
  "uncorrected_energy_per_atom": null,
  "energy_per_atom": -4.054925595,
  "formation_energy_per_atom": 0.023251749166668,
  "energy_above_hull": 0.040536606666668,
  "is_stable": false,
  "equilibrium_reaction_energy_per_atom": null,
  "decomposes_to": null,
  "xas": null,
  "grain_boundaries": null,
  "band_gap": 0.0,
  "cbm": null,
  "vbm": null,
  "efermi": 3.01639227,
  "is_gap_direct": null,
  "is_metal": null,
  "es_source_calc_id": null,
  "bandstructure": null,
  "dos": null,
  "dos_energy_up": null,
  "dos_energy_down": null,
  "is_magnetic": null,
  "ordering": null,
  "total_magnetization": 2.6e-6,
  "total_magnetization_normalized_vol": null,
  "total_magnetization_normalized_formula_units": null,
  "num_magnetic_sites": null,
  "num_unique_magnetic_sites": null,
  "types_of_magnetic_species": null,
  "bulk_modulus": null,
  "shear_modulus": null,
  "universal_anisotropy": null,
  "homogeneous_poisson": null,
  "e_total": null,
  "e_ionic": null,
  "e_electronic": null,
  "n": null,
  "e_ij_max": null,
  "weighted_surface_energy_EV_PER_ANG2": null,
  "weighted_surface_energy": null,
  "weighted_work_function": null,
  "surface_anisotropy": null,
  "shape_factor": null,
  "has_reconstructed": null,
  "possible_species": null,
  "has_props": null,
  "theoretical": null,
  "database_IDs": null,
  "fields_not_requested": [
    "builder_meta",
    "nsites",
    "elements",
    "nelements",
    "composition",
    "composition_reduced",
    "chemsys",
    "symmetry",
    "property_name",
    "deprecated",
    "deprecation_reasons",
    "last_updated",
    "origins",
    "warnings",
    "task_ids",
    "uncorrected_energy_per_atom",
    "equilibrium_reaction_energy_per_atom",
    "decomposes_to",
    "xas",
    "grain_boundaries",
    "cbm",
    "vbm",
    "is_gap_direct",
    "is_metal",
    "es_source_calc_id",
    "bandstructure",
    "dos",
    "dos_energy_up",
    "dos_energy_down",
    "is_magnetic",
    "ordering",
    "total_magnetization_normalized_vol",
    "total_magnetization_normalized_formula_units",
    "num_magnetic_sites",
    "num_unique_magnetic_sites",
    "types_of_magnetic_species",
    "bulk_modulus",
    "shear_modulus",
    "universal_anisotropy",
    "homogeneous_poisson",
    "e_total",
    "e_ionic",
    "e_electronic",
    "n",
    "e_ij_max",
    "weighted_surface_energy_EV_PER_ANG2",
    "weighted_surface_energy",
    "weighted_work_function",
    "surface_anisotropy",
    "shape_factor",
    "has_reconstructed",
    "possible_species",
    "has_props",
    "theoretical",
    "database_IDs"
  ]
}
