{"builder_meta": null, "nsites": null, "elements": null, "nelements": null, "composition": null, "composition_reduced": null, "formula_pretty": "Er5Pb4", "formula_anonymous": "A4B5", "chemsys": null, "volume": 1038.7333427995902, "density": 10.647411354479983, "density_atomic": 28.853703966655285, "symmetry": null, "property_name": null, "material_id": "mp-1198040", "deprecated": null, "deprecation_reasons": null, "last_updated": null, "origins": null, "warnings": null, "structure": {"@module": "pymatgen.core.structure", "@class": "Structure", "charge": 0, "lattice": {"matrix": [[-8.13891, 0.0, 0.0], [0.0, 0.0, -8.195404], [0.0, -15.572827, 0.0]], "pbc": [true, true, true], "a": 8.13891, "b": 8.195404, "c": 15.572827, "alpha": 90.0, "beta": 90.0, "gamma": 90.0, "volume": 1038.7333427995902}, "properties": {}, "sites": [{"species": [{"element": "Er", "occu": 1}], "abc": [0.377623999999999, 0.840121, 0.879844], "properties": {"magmom": 0.007}, "label": "Er", "xyz": [-3.0734477498399917, -13.701658398988, -6.885131003884]}, {"species": [{"element": "Er", "occu": 1}], "abc": [0.877624, 0.659879, 0.620155999999999], "properties": {"magmom": 0.007}, "label": "Er", "xyz": [-7.142902749839999, -9.657582101011986, -5.407974996116]}, {"species": [{"element": "Er", "occu": 1}], "abc": [0.622375999999999, 0.159879, 0.379843999999999], "properties": {"magmom": 0.007}, "label": "Er", "xyz": [-5.0654622501599915, -5.915244898987985, -1.310272996116]}, {"species": [{"element": "Er", "occu": 1}], "abc": [0.122376, 0.340121, 0.120156], "properties": {"magmom": 0.007}, "label": "Er", "xyz": [-0.9960072501599999, -1.871168601012, -2.787429003884]}, {"species": [{"element": "Er", "occu": 1}], "abc": [0.622375999999999, 0.159879, 0.120156], "properties": {"magmom": 0.007}, "label": "Er", "xyz": [-5.0654622501599915, -1.871168601012, -1.310272996116]}, {"species": [{"element": "Er", "occu": 1}], "abc": [0.122376, 0.340121, 0.379843999999999], "properties": {"magmom": 0.007}, "label": "Er", "xyz": [-0.9960072501599999, -5.915244898987985, -2.787429003884]}, {"species": [{"element": "Er", "occu": 1}], "abc": [0.377623999999999, 0.840121, 0.620155999999999], "properties": {"magmom": 0.007}, "label": "Er", "xyz": [-3.0734477498399917, -9.657582101011986, -6.885131003884]}, {"species": [{"element": "Er", "occu": 1}], "abc": [0.877624, 0.659879, 0.879844], "properties": {"magmom": 0.007}, "label": "Er", "xyz": [-7.142902749839999, -13.701658398988, -5.407974996116]}, {"species": [{"element": "Er", "occu": 1}], "abc": [0.534389, 0.322806, 0.899946999999999], "properties": {"magmom": 0.004}, "label": "Er", "xyz": [-4.349343975989999, -14.014718940168985, -2.645525583624]}, {"species": [{"element": "Er", "occu": 1}], "abc": [0.034388999999999004, 0.177194, 0.600053], "properties": {"magmom": 0.004}, "label": "Er", "xyz": [-0.27988897598999185, -9.344521559831, -1.4521764163759998]}, {"species": [{"element": "Er", "occu": 1}], "abc": [0.465611, 0.677194, 0.399947], "properties": {"magmom": 0.004}, "label": "Er", "xyz": [-3.7895660240099995, -6.228305440169, -5.549878416376]}, {"species": [{"element": "Er", "occu": 1}], "abc": [0.965611, 0.822805999999999, 0.100052999999999], "properties": {"magmom": 0.004}, "label": "Er", "xyz": [-7.85902102401, -1.5581080598309844, -6.743227583623992]}, {"species": [{"element": "Er", "occu": 1}], "abc": [0.465611, 0.677194, 0.100052999999999], "properties": {"magmom": 0.004}, "label": "Er", "xyz": [-3.7895660240099995, -1.5581080598309844, -5.549878416376]}, {"species": [{"element": "Er", "occu": 1}], "abc": [0.965611, 0.822805999999999, 0.399947], "properties": {"magmom": 0.004}, "label": "Er", "xyz": [-7.85902102401, -6.228305440169, -6.743227583623992]}, {"species": [{"element": "Er", "occu": 1}], "abc": [0.534389, 0.322806, 0.600053], "properties": {"magmom": 0.004}, "label": "Er", "xyz": [-4.349343975989999, -9.344521559831, -2.645525583624]}, {"species": [{"element": "Er", "occu": 1}], "abc": [0.034388999999999004, 0.177194, 0.899946999999999], "properties": {"magmom": 0.004}, "label": "Er", "xyz": [-0.27988897598999185, -14.014718940168985, -1.4521764163759998]}, {"species": [{"element": "Er", "occu": 1}], "abc": [0.208592, 0.503695, 0.75], "properties": {"magmom": 0.017}, "label": "Er", "xyz": [-1.69771151472, -11.67962025, -4.12798401778]}, {"species": [{"element": "Er", "occu": 1}], "abc": [0.708592, 0.996305, 0.75], "properties": {"magmom": 0.017}, "label": "Er", "xyz": [-5.7671665147199995, -11.67962025, -8.16512198222]}, {"species": [{"element": "Er", "occu": 1}], "abc": [0.791408, 0.496305, 0.25], "properties": {"magmom": 0.017}, "label": "Er", "xyz": [-6.441198485279999, -3.89320675, -4.06741998222]}, {"species": [{"element": "Er", "occu": 1}], "abc": [0.291408, 0.003695, 0.25], "properties": {"magmom": 0.017}, "label": "Er", "xyz": [-2.3717434852799997, -3.89320675, -0.03028201778]}, {"species": [{"element": "Pb", "occu": 1}], "abc": [0.280571, 0.031814, 0.042277999999999004], "properties": {"magmom": 0.001}, "label": "Pb", "xyz": [-2.2835421176099997, -0.6583879799059845, -0.26072858285600004]}, {"species": [{"element": "Pb", "occu": 1}], "abc": [0.780571, 0.468186, 0.457721999999999], "properties": {"magmom": 0.001}, "label": "Pb", "xyz": [-6.352997117609999, -7.128025520093985, -3.8369734171439998]}, {"species": [{"element": "Pb", "occu": 1}], "abc": [0.719429, 0.968186, 0.542277999999999], "properties": {"magmom": 0.001}, "label": "Pb", "xyz": [-5.8553678823899995, -8.444801479905985, -7.934675417144]}, {"species": [{"element": "Pb", "occu": 1}], "abc": [0.219428999999999, 0.531814, 0.957722], "properties": {"magmom": 0.001}, "label": "Pb", "xyz": [-1.785912882389992, -14.914439020094, -4.358430582856]}, {"species": [{"element": "Pb", "occu": 1}], "abc": [0.719429, 0.968186, 0.957722], "properties": {"magmom": 0.001}, "label": "Pb", "xyz": [-5.8553678823899995, -14.914439020094, -7.934675417144]}, {"species": [{"element": "Pb", "occu": 1}], "abc": [0.219428999999999, 0.531814, 0.542277999999999], "properties": {"magmom": 0.001}, "label": "Pb", "xyz": [-1.785912882389992, -8.444801479905985, -4.358430582856]}, {"species": [{"element": "Pb", "occu": 1}], "abc": [0.280571, 0.031814, 0.457721999999999], "properties": {"magmom": 0.001}, "label": "Pb", "xyz": [-2.2835421176099997, -7.128025520093985, -0.26072858285600004]}, {"species": [{"element": "Pb", "occu": 1}], "abc": [0.780571, 0.468186, 0.042277999999999004], "properties": {"magmom": 0.001}, "label": "Pb", "xyz": [-6.352997117609999, -0.6583879799059845, -3.8369734171439998]}, {"species": [{"element": "Pb", "occu": 1}], "abc": [0.5715800000000001, 0.62734, 0.75], "properties": {"magmom": 0.004}, "label": "Pb", "xyz": [-4.652038177800001, -11.67962025, -5.14130474536]}, {"species": [{"element": "Pb", "occu": 1}], "abc": [0.07158, 0.8726600000000001, 0.75], "properties": {"magmom": 0.004}, "label": "Pb", "xyz": [-0.5825831778, -11.67962025, -7.1518012546400005]}, {"species": [{"element": "Pb", "occu": 1}], "abc": [0.42842, 0.37266000000000005, 0.25], "properties": {"magmom": 0.004}, "label": "Pb", "xyz": [-3.4868718222, -3.89320675, -3.0540992546400005]}, {"species": [{"element": "Pb", "occu": 1}], "abc": [0.92842, 0.12734, 0.25], "properties": {"magmom": 0.004}, "label": "Pb", "xyz": [-7.556326822199999, -3.89320675, -1.04360274536]}, {"species": [{"element": "Pb", "occu": 1}], "abc": [0.345657999999999, 0.151472, 0.75], "properties": {"magmom": 0.003}, "label": "Pb", "xyz": [-2.813279352779992, -11.67962025, -1.241374234688]}, {"species": [{"element": "Pb", "occu": 1}], "abc": [0.845657999999999, 0.348528, 0.75], "properties": {"magmom": 0.003}, "label": "Pb", "xyz": [-6.882734352779991, -11.67962025, -2.856327765312]}, {"species": [{"element": "Pb", "occu": 1}], "abc": [0.654342, 0.848528, 0.25], "properties": {"magmom": 0.003}, "label": "Pb", "xyz": [-5.32563064722, -3.89320675, -6.954029765312]}, {"species": [{"element": "Pb", "occu": 1}], "abc": [0.154341999999999, 0.651471999999999, 0.25], "properties": {"magmom": 0.003}, "label": "Pb", "xyz": [-1.2561756472199919, -3.89320675, -5.339076234687992]}]}, "task_ids": null, "uncorrected_energy_per_atom": null, "energy_per_atom": -4.683091548611111, "formation_energy_per_atom": -0.49540462305555305, "energy_above_hull": 0.0, "is_stable": true, "equilibrium_reaction_energy_per_atom": null, "decomposes_to": null, "xas": null, "grain_boundaries": null, "band_gap": 0.0, "cbm": null, "vbm": null, "efermi": 5.20961717, "is_gap_direct": null, "is_metal": null, "es_source_calc_id": null, "bandstructure": null, "dos": null, "dos_energy_up": null, "dos_energy_down": null, "is_magnetic": null, "ordering": null, "total_magnetization": 0.2763161, "total_magnetization_normalized_vol": null, "total_magnetization_normalized_formula_units": null, "num_magnetic_sites": null, "num_unique_magnetic_sites": null, "types_of_magnetic_species": null, "bulk_modulus": null, "shear_modulus": null, "universal_anisotropy": null, "homogeneous_poisson": null, "e_total": null, "e_ionic": null, "e_electronic": null, "n": null, "e_ij_max": null, "weighted_surface_energy_EV_PER_ANG2": null, "weighted_surface_energy": null, "weighted_work_function": null, "surface_anisotropy": null, "shape_factor": null, "has_reconstructed": null, "possible_species": null, "has_props": null, "theoretical": null, "database_IDs": null, "fields_not_requested": ["builder_meta", "nsites", "elements", "nelements", "composition", "composition_reduced", "chemsys", "symmetry", "property_name", "deprecated", "deprecation_reasons", "last_updated", "origins", "warnings", "task_ids", "uncorrected_energy_per_atom", "equilibrium_reaction_energy_per_atom", "decomposes_to", "xas", "grain_boundaries", "cbm", "vbm", "is_gap_direct", "is_metal", "es_source_calc_id", "bandstructure", "dos", "dos_energy_up", "dos_energy_down", "is_magnetic", "ordering", "total_magnetization_normalized_vol", "total_magnetization_normalized_formula_units", "num_magnetic_sites", "num_unique_magnetic_sites", "types_of_magnetic_species", "bulk_modulus", "shear_modulus", "universal_anisotropy", "homogeneous_poisson", "e_total", "e_ionic", "e_electronic", "n", "e_ij_max", "weighted_surface_energy_EV_PER_ANG2", "weighted_surface_energy", "weighted_work_function", "surface_anisotropy", "shape_factor", "has_reconstructed", "possible_species", "has_props", "theoretical", "database_IDs"]}