{"builder_meta": null, "nsites": null, "elements": null, "nelements": null, "composition": null, "composition_reduced": null, "formula_pretty": "Er5Pb3", "formula_anonymous": "A3B5", "chemsys": null, "volume": 461.54769758762535, "density": 10.490320351088732, "density_atomic": 28.846731099226584, "symmetry": null, "property_name": null, "material_id": "mp-1190343", "deprecated": null, "deprecation_reasons": null, "last_updated": null, "origins": null, "warnings": null, "structure": {"@module": "pymatgen.core.structure", "@class": "Structure", "charge": 0, "lattice": {"matrix": [[8.997797, 0.0, 0.0], [-4.498899, 7.792321, 0.0], [0.0, 0.0, 6.582844]], "pbc": [true, true, true], "a": 8.997797, "b": 8.997797440442966, "c": 6.582844, "alpha": 90.0, "beta": 90.0, "gamma": 120.00000205716988, "volume": 461.54769758762535}, "properties": {}, "sites": [{"species": [{"element": "Er", "occu": 1}], "abc": [0.666667, 0.333333, 0.0], "properties": {"magmom": 0.0}, "label": "Er", "xyz": [4.498902832232, 2.597437735893, 0.0]}, {"species": [{"element": "Er", "occu": 1}], "abc": [0.333333, 0.666667, 0.0], "properties": {"magmom": 0.0}, "label": "Er", "xyz": [-4.832231999873926e-06, 5.194883264107, 0.0]}, {"species": [{"element": "Er", "occu": 1}], "abc": [0.333333, 0.666667, 0.5], "properties": {"magmom": 0.0}, "label": "Er", "xyz": [-4.832231999873926e-06, 5.194883264107, 3.291422]}, {"species": [{"element": "Er", "occu": 1}], "abc": [0.666667, 0.333333, 0.5], "properties": {"magmom": 0.0}, "label": "Er", "xyz": [4.498902832232, 2.597437735893, 3.291422]}, {"species": [{"element": "Er", "occu": 1}], "abc": [0.759753, 0.759753, 0.75], "properties": {"magmom": 0.001}, "label": "Er", "xyz": [3.4180512521940005, 5.920239256713001, 4.937132999999999]}, {"species": [{"element": "Er", "occu": 1}], "abc": [0.240247, 0.0, 0.75], "properties": {"magmom": 0.001}, "label": "Er", "xyz": [2.161693735859, 0.0, 4.937132999999999]}, {"species": [{"element": "Er", "occu": 1}], "abc": [0.0, 0.240247, 0.75], "properties": {"magmom": 0.001}, "label": "Er", "xyz": [-1.0808469880529998, 1.872081743287, 4.937132999999999]}, {"species": [{"element": "Er", "occu": 1}], "abc": [0.240247, 0.240247, 0.25], "properties": {"magmom": 0.001}, "label": "Er", "xyz": [1.0808467478060002, 1.872081743287, 1.645711]}, {"species": [{"element": "Er", "occu": 1}], "abc": [0.759753, 0.0, 0.25], "properties": {"magmom": 0.001}, "label": "Er", "xyz": [6.836103264141, 0.0, 1.645711]}, {"species": [{"element": "Er", "occu": 1}], "abc": [0.0, 0.759753, 0.25], "properties": {"magmom": 0.001}, "label": "Er", "xyz": [-3.4180520119469997, 5.920239256713001, 1.645711]}, {"species": [{"element": "Pb", "occu": 1}], "abc": [0.392101, 0.392101, 0.75], "properties": {"magmom": -0.001}, "label": "Pb", "xyz": [1.7640224046980002, 3.0553768564209998, 4.937132999999999]}, {"species": [{"element": "Pb", "occu": 1}], "abc": [0.607899, 0.0, 0.75], "properties": {"magmom": -0.001}, "label": "Pb", "xyz": [5.469751798503, 0.0, 4.937132999999999]}, {"species": [{"element": "Pb", "occu": 1}], "abc": [0.0, 0.607899, 0.75], "properties": {"magmom": -0.001}, "label": "Pb", "xyz": [-2.734876203201, 4.736944143579, 4.937132999999999]}, {"species": [{"element": "Pb", "occu": 1}], "abc": [0.607899, 0.607899, 0.25], "properties": {"magmom": -0.001}, "label": "Pb", "xyz": [2.7348755953020003, 4.736944143579, 1.645711]}, {"species": [{"element": "Pb", "occu": 1}], "abc": [0.392101, 0.0, 0.25], "properties": {"magmom": -0.001}, "label": "Pb", "xyz": [3.528045201497, 0.0, 1.645711]}, {"species": [{"element": "Pb", "occu": 1}], "abc": [0.0, 0.392101, 0.25], "properties": {"magmom": -0.001}, "label": "Pb", "xyz": [-1.7640227967989999, 3.0553768564209998, 1.645711]}]}, "task_ids": null, "uncorrected_energy_per_atom": null, "energy_per_atom": -4.759767603125, "formation_energy_per_atom": -0.5127006956249971, "energy_above_hull": 0.0, "is_stable": true, "equilibrium_reaction_energy_per_atom": null, "decomposes_to": null, "xas": null, "grain_boundaries": null, "band_gap": 0.0, "cbm": null, "vbm": null, "efermi": 5.04371234, "is_gap_direct": null, "is_metal": null, "es_source_calc_id": null, "bandstructure": null, "dos": null, "dos_energy_up": null, "dos_energy_down": null, "is_magnetic": null, "ordering": null, "total_magnetization": 0.055100199999999, "total_magnetization_normalized_vol": null, "total_magnetization_normalized_formula_units": null, "num_magnetic_sites": null, "num_unique_magnetic_sites": null, "types_of_magnetic_species": null, "bulk_modulus": null, "shear_modulus": null, "universal_anisotropy": null, "homogeneous_poisson": null, "e_total": null, "e_ionic": null, "e_electronic": null, "n": null, "e_ij_max": null, "weighted_surface_energy_EV_PER_ANG2": null, "weighted_surface_energy": null, "weighted_work_function": null, "surface_anisotropy": null, "shape_factor": null, "has_reconstructed": null, "possible_species": null, "has_props": null, "theoretical": null, "database_IDs": null, "fields_not_requested": ["builder_meta", "nsites", "elements", "nelements", "composition", "composition_reduced", "chemsys", "symmetry", "property_name", "deprecated", "deprecation_reasons", "last_updated", "origins", "warnings", "task_ids", "uncorrected_energy_per_atom", "equilibrium_reaction_energy_per_atom", "decomposes_to", "xas", "grain_boundaries", "cbm", "vbm", "is_gap_direct", "is_metal", "es_source_calc_id", "bandstructure", "dos", "dos_energy_up", "dos_energy_down", "is_magnetic", "ordering", "total_magnetization_normalized_vol", "total_magnetization_normalized_formula_units", "num_magnetic_sites", "num_unique_magnetic_sites", "types_of_magnetic_species", "bulk_modulus", "shear_modulus", "universal_anisotropy", "homogeneous_poisson", "e_total", "e_ionic", "e_electronic", "n", "e_ij_max", "weighted_surface_energy_EV_PER_ANG2", "weighted_surface_energy", "weighted_work_function", "surface_anisotropy", "shape_factor", "has_reconstructed", "possible_species", "has_props", "theoretical", "database_IDs"]}