{"builder_meta": null, "nsites": null, "elements": null, "nelements": null, "composition": null, "composition_reduced": null, "formula_pretty": "Er5Pt3", "formula_anonymous": "A3B5", "chemsys": null, "volume": 369.2515587811389, "density": 12.785507724327063, "density_atomic": 23.07822242382118, "symmetry": null, "property_name": null, "material_id": "mp-1190067", "deprecated": null, "deprecation_reasons": null, "last_updated": null, "origins": null, "warnings": null, "structure": {"@module": "pymatgen.core.structure", "@class": "Structure", "charge": 0, "lattice": {"matrix": [[0.0, 0.0, -6.114254], [-4.178314, -7.237053, 0.0], [-4.16946, 7.231941, 0.0]], "pbc": [true, true, true], "a": 6.114254, "b": 8.356628746534394, "c": 8.347776190044927, "alpha": 120.03509117961079, "beta": 90.0, "gamma": 90.0, "volume": 369.2515587811389}, "properties": {}, "sites": [{"species": [{"element": "Er", "occu": 1}], "abc": [0.49999000000000005, 0.333341, 0.666696], "properties": {"magmom": 0.001}, "label": "Er", "xyz": [-4.172565671234, 2.4090996528629995, -3.05706585746]}, {"species": [{"element": "Er", "occu": 1}], "abc": [0.49999000000000005, 0.666644, 0.333304], "properties": {"magmom": 0.001}, "label": "Er", "xyz": [-4.175145654056, -2.414103097068, -3.05706585746]}, {"species": [{"element": "Er", "occu": 1}], "abc": [0.99999, 0.666659, 0.333304], "properties": {"magmom": 0.001}, "label": "Er", "xyz": [-4.175208328766001, -2.4142116528630004, -6.11419285746]}, {"species": [{"element": "Er", "occu": 1}], "abc": [0.99999, 0.333356, 0.666696], "properties": {"magmom": 0.001}, "label": "Er", "xyz": [-4.172628345944, 2.4089910970679997, -6.11419285746]}, {"species": [{"element": "Er", "occu": 1}], "abc": [0.750054, 0.246177999999999, 0.0], "properties": {"magmom": 0.0}, "label": "Er", "xyz": [-1.0286089838919958, -1.7816032334339929, -4.5860206697159995]}, {"species": [{"element": "Er", "occu": 1}], "abc": [0.749999, 0.753695, 0.753355999999999], "properties": {"magmom": -0.001}, "label": "Er", "xyz": [-6.290262077989996, -0.006304516839007235, -4.585684385746]}, {"species": [{"element": "Er", "occu": 1}], "abc": [0.749999, 0.000339, 0.246644], "properties": {"magmom": 0.002}, "label": "Er", "xyz": [-1.029788740686, 1.7812614950369998, -4.585684385746]}, {"species": [{"element": "Er", "occu": 1}], "abc": [0.250054, 0.753822, 0.0], "properties": {"magmom": 0.0}, "label": "Er", "xyz": [-3.1497050161080002, -5.455449766566001, -1.528893669716]}, {"species": [{"element": "Er", "occu": 1}], "abc": [0.249999, 0.246305, 0.246644], "properties": {"magmom": -0.001}, "label": "Er", "xyz": [-2.0575119220099998, 0.001192516838999902, -1.528557385746]}, {"species": [{"element": "Er", "occu": 1}], "abc": [0.249999, 0.999660999999999, 0.753355999999999], "properties": {"magmom": 0.002}, "label": "Er", "xyz": [-7.317985259313993, -1.786373495037, -1.528557385746]}, {"species": [{"element": "Pt", "occu": 1}], "abc": [0.750026, 0.606881, 0.0], "properties": {"magmom": -0.0}, "label": "Pt", "xyz": [-2.535739378634, -4.392029961693, -4.585849470604]}, {"species": [{"element": "Pt", "occu": 1}], "abc": [0.74997, 0.393003, 0.392891999999999], "properties": {"magmom": -0.0}, "label": "Pt", "xyz": [-3.280237415261996, -0.0028117767870070587, -4.58550707238]}, {"species": [{"element": "Pt", "occu": 1}], "abc": [0.74997, 0.000111, 0.607108], "properties": {"magmom": 0.0}, "label": "Pt", "xyz": [-2.531776314534, 4.389765923745, -4.58550707238]}, {"species": [{"element": "Pt", "occu": 1}], "abc": [0.250025999999999, 0.393119, 0.0], "properties": {"magmom": -0.0}, "label": "Pt", "xyz": [-1.6425746213660002, -2.845023038307, -1.528722470603994]}, {"species": [{"element": "Pt", "occu": 1}], "abc": [0.24997000000000003, 0.606997, 0.607108], "properties": {"magmom": -0.0}, "label": "Pt", "xyz": [-5.067536584738001, -0.002300223213000052, -1.52838007238]}, {"species": [{"element": "Pt", "occu": 1}], "abc": [0.24997000000000003, 0.999888999999999, 0.392891999999999], "properties": {"magmom": 0.0}, "label": "Pt", "xyz": [-5.815997685465993, -4.394877923745001, -1.52838007238]}]}, "task_ids": null, "uncorrected_energy_per_atom": null, "energy_per_atom": -41.651997952083335, "formation_energy_per_atom": -1.140707135416669, "energy_above_hull": 0.027262594166664003, "is_stable": false, "equilibrium_reaction_energy_per_atom": null, "decomposes_to": null, "xas": null, "grain_boundaries": null, "band_gap": 0.0, "cbm": null, "vbm": null, "efermi": 4.72796689, "is_gap_direct": null, "is_metal": null, "es_source_calc_id": null, "bandstructure": null, "dos": null, "dos_energy_up": null, "dos_energy_down": null, "is_magnetic": null, "ordering": null, "total_magnetization": 0.0074065, "total_magnetization_normalized_vol": null, "total_magnetization_normalized_formula_units": null, "num_magnetic_sites": null, "num_unique_magnetic_sites": null, "types_of_magnetic_species": null, "bulk_modulus": null, "shear_modulus": null, "universal_anisotropy": null, "homogeneous_poisson": null, "e_total": null, "e_ionic": null, "e_electronic": null, "n": null, "e_ij_max": null, "weighted_surface_energy_EV_PER_ANG2": null, "weighted_surface_energy": null, "weighted_work_function": null, "surface_anisotropy": null, "shape_factor": null, "has_reconstructed": null, "possible_species": null, "has_props": null, "theoretical": null, "database_IDs": null, "fields_not_requested": ["builder_meta", "nsites", "elements", "nelements", "composition", "composition_reduced", "chemsys", "symmetry", "property_name", "deprecated", "deprecation_reasons", "last_updated", "origins", "warnings", "task_ids", "uncorrected_energy_per_atom", "equilibrium_reaction_energy_per_atom", "decomposes_to", "xas", "grain_boundaries", "cbm", "vbm", "is_gap_direct", "is_metal", "es_source_calc_id", "bandstructure", "dos", "dos_energy_up", "dos_energy_down", "is_magnetic", "ordering", "total_magnetization_normalized_vol", "total_magnetization_normalized_formula_units", "num_magnetic_sites", "num_unique_magnetic_sites", "types_of_magnetic_species", "bulk_modulus", "shear_modulus", "universal_anisotropy", "homogeneous_poisson", "e_total", "e_ionic", "e_electronic", "n", "e_ij_max", "weighted_surface_energy_EV_PER_ANG2", "weighted_surface_energy", "weighted_work_function", "surface_anisotropy", "shape_factor", "has_reconstructed", "possible_species", "has_props", "theoretical", "database_IDs"]}