{"builder_meta": null, "nsites": null, "elements": null, "nelements": null, "composition": null, "composition_reduced": null, "formula_pretty": "Er5Ru2", "formula_anonymous": "A2B5", "chemsys": null, "volume": 350.92255614532627, "density": 9.827592187665857, "density_atomic": 25.065896867523303, "symmetry": null, "property_name": null, "material_id": "mp-1103691", "deprecated": null, "deprecation_reasons": null, "last_updated": null, "origins": null, "warnings": null, "structure": {"@module": "pymatgen.core.structure", "@class": "Structure", "charge": 0, "lattice": {"matrix": [[0.0, 6.261477, 0.0], [0.919202, 0.0, -7.202081], [-7.781736, -3.130738, 0.0]], "pbc": [true, true, true], "a": 6.261477, "b": 7.260502947273349, "c": 8.387904124293506, "alpha": 96.74518020737116, "beta": 111.91584574737847, "gamma": 90.0, "volume": 350.92255614532627}, "properties": {}, "sites": [{"species": [{"element": "Er", "occu": 1}], "abc": [0.791277, 0.58455, 0.813788], "properties": {"magmom": 0.001}, "label": "Er", "xyz": [-5.795363846868, 2.406805720585001, -4.20997644855]}, {"species": [{"element": "Er", "occu": 1}], "abc": [0.977488999999999, 0.9154500000000001, 0.186212], "properties": {"magmom": 0.001}, "label": "Er", "xyz": [-0.607569153132, 5.537543906796994, -6.5931450514500005]}, {"species": [{"element": "Er", "occu": 1}], "abc": [0.208723, 0.41545000000000004, 0.186212], "properties": {"magmom": 0.001}, "label": "Er", "xyz": [-1.067170153132, 0.7239332794150001, -2.99210455145]}, {"species": [{"element": "Er", "occu": 1}], "abc": [0.022511, 0.08455, 0.813788], "properties": {"magmom": 0.001}, "label": "Er", "xyz": [-6.254964846868, -2.406804906797, -0.60893594855]}, {"species": [{"element": "Er", "occu": 1}], "abc": [0.205425, 0.685161999999999, 0.564608], "properties": {"magmom": 0.002}, "label": "Er", "xyz": [-3.7638281187640006, -0.48137580797900004, -4.934592222121993]}, {"species": [{"element": "Er", "occu": 1}], "abc": [0.640817, 0.814838, 0.435392], "properties": {"magmom": 0.002}, "label": "Er", "xyz": [-2.6391048812360003, 2.649362627413, -5.868529277877999]}, {"species": [{"element": "Er", "occu": 1}], "abc": [0.794574999999999, 0.314838, 0.435392], "properties": {"magmom": 0.002}, "label": "Er", "xyz": [-3.098705881236, 3.6121148079789944, -2.267488777878]}, {"species": [{"element": "Er", "occu": 1}], "abc": [0.359183, 0.185162, 0.564608], "properties": {"magmom": 0.002}, "label": "Er", "xyz": [-4.223429118764, 0.48137637258699995, -1.333551722122]}, {"species": [{"element": "Er", "occu": 1}], "abc": [0.418053, 0.75, 0.0], "properties": {"magmom": 0.0}, "label": "Er", "xyz": [0.6894015, 2.6176292442810003, -5.40156075]}, {"species": [{"element": "Er", "occu": 1}], "abc": [0.581947, 0.25, 0.0], "properties": {"magmom": 0.0}, "label": "Er", "xyz": [0.2298005, 3.643847755719, -1.80052025]}, {"species": [{"element": "Ru", "occu": 1}], "abc": [0.602171999999999, 0.923612, 0.780022], "properties": {"magmom": -0.003}, "label": "Ru", "xyz": [-5.220939280568, 1.3284416118079942, -6.651928436572]}, {"species": [{"element": "Ru", "occu": 1}], "abc": [0.822148999999999, 0.576388, 0.219977999999999], "properties": {"magmom": -0.003}, "label": "Ru", "xyz": [-1.1819937194319925, 4.459173570308997, -4.151193063428]}, {"species": [{"element": "Ru", "occu": 1}], "abc": [0.397827999999999, 0.076388, 0.219977999999999], "properties": {"magmom": -0.003}, "label": "Ru", "xyz": [-1.6415947194319924, 1.8022973881919973, -0.550152563428]}, {"species": [{"element": "Ru", "occu": 1}], "abc": [0.177850999999999, 0.423612, 0.780022], "properties": {"magmom": -0.003}, "label": "Ru", "xyz": [-5.6805402805680005, -1.328434570309006, -3.050887936572]}]}, "task_ids": null, "uncorrected_energy_per_atom": null, "energy_per_atom": -6.3037915671428575, "formation_energy_per_atom": -0.39130597714285503, "energy_above_hull": 0.0, "is_stable": true, "equilibrium_reaction_energy_per_atom": null, "decomposes_to": null, "xas": null, "grain_boundaries": null, "band_gap": 0.0, "cbm": null, "vbm": null, "efermi": 3.89103932, "is_gap_direct": null, "is_metal": null, "es_source_calc_id": null, "bandstructure": null, "dos": null, "dos_energy_up": null, "dos_energy_down": null, "is_magnetic": null, "ordering": null, "total_magnetization": 0.0223837, "total_magnetization_normalized_vol": null, "total_magnetization_normalized_formula_units": null, "num_magnetic_sites": null, "num_unique_magnetic_sites": null, "types_of_magnetic_species": null, "bulk_modulus": null, "shear_modulus": null, "universal_anisotropy": null, "homogeneous_poisson": null, "e_total": null, "e_ionic": null, "e_electronic": null, "n": null, "e_ij_max": null, "weighted_surface_energy_EV_PER_ANG2": null, "weighted_surface_energy": null, "weighted_work_function": null, "surface_anisotropy": null, "shape_factor": null, "has_reconstructed": null, "possible_species": null, "has_props": null, "theoretical": null, "database_IDs": null, "fields_not_requested": ["builder_meta", "nsites", "elements", "nelements", "composition", "composition_reduced", "chemsys", "symmetry", "property_name", "deprecated", "deprecation_reasons", "last_updated", "origins", "warnings", "task_ids", "uncorrected_energy_per_atom", "equilibrium_reaction_energy_per_atom", "decomposes_to", "xas", "grain_boundaries", "cbm", "vbm", "is_gap_direct", "is_metal", "es_source_calc_id", "bandstructure", "dos", "dos_energy_up", "dos_energy_down", "is_magnetic", "ordering", "total_magnetization_normalized_vol", "total_magnetization_normalized_formula_units", "num_magnetic_sites", "num_unique_magnetic_sites", "types_of_magnetic_species", "bulk_modulus", "shear_modulus", "universal_anisotropy", "homogeneous_poisson", "e_total", "e_ionic", "e_electronic", "n", "e_ij_max", "weighted_surface_energy_EV_PER_ANG2", "weighted_surface_energy", "weighted_work_function", "surface_anisotropy", "shape_factor", "has_reconstructed", "possible_species", "has_props", "theoretical", "database_IDs"]}