{"builder_meta": null, "nsites": null, "elements": null, "nelements": null, "composition": null, "composition_reduced": null, "formula_pretty": "Er5Rh3", "formula_anonymous": "A3B5", "chemsys": null, "volume": 356.4059166274067, "density": 10.669499235300057, "density_atomic": 22.27536978921292, "symmetry": null, "property_name": null, "material_id": "mp-569915", "deprecated": null, "deprecation_reasons": null, "last_updated": null, "origins": null, "warnings": null, "structure": {"@module": "pymatgen.core.structure", "@class": "Structure", "charge": 0, "lattice": {"matrix": [[8.14730317, -0.0, -0.0], [-4.07365159, 7.05577165, -0.0], [-0.0, 0.0, 6.19992607]], "pbc": [true, true, true], "a": 8.14730317, "b": 8.147303287202046, "c": 6.19992607, "alpha": 90.0, "beta": 90.0, "gamma": 119.99999956473758, "volume": 356.4059166274067}, "properties": {}, "sites": [{"species": [{"element": "Er", "occu": 1}], "abc": [0.25381008, 0.0, 0.25], "properties": {"magmom": 0.078}, "label": "Er", "xyz": [2.0678676693619535, 0.0, 1.5499815175]}, {"species": [{"element": "Er", "occu": 1}], "abc": [0.0, 0.7461899200000001, 0.75], "properties": {"magmom": 0.078}, "label": "Er", "xyz": [-3.039717754049973, 5.264945683051768, 4.6499445525]}, {"species": [{"element": "Er", "occu": 1}], "abc": [0.7461899200000001, 0.0, 0.75], "properties": {"magmom": 0.078}, "label": "Er", "xyz": [6.079435500638048, 0.0, 4.6499445525]}, {"species": [{"element": "Er", "occu": 1}], "abc": [-0.0, 0.25381008, 0.25], "properties": {"magmom": 0.078}, "label": "Er", "xyz": [-1.0339338359500272, 1.7908259669482318, 1.5499815175]}, {"species": [{"element": "Er", "occu": 1}], "abc": [0.333333, 0.666667, -0.0], "properties": {"magmom": 0.045}, "label": "Er", "xyz": [-4.076984919887394e-06, 4.70385011859055, 0.0]}, {"species": [{"element": "Er", "occu": 1}], "abc": [0.666667, 0.333333, -0.0], "properties": {"magmom": 0.045}, "label": "Er", "xyz": [4.07365565698492, 2.3519215314094497, 0.0]}, {"species": [{"element": "Er", "occu": 1}], "abc": [0.666667, 0.333333, 0.5], "properties": {"magmom": 0.045}, "label": "Er", "xyz": [4.07365565698492, 2.3519215314094497, 3.099963035]}, {"species": [{"element": "Er", "occu": 1}], "abc": [0.7461899200000001, 0.7461899200000001, 0.25], "properties": {"magmom": 0.078}, "label": "Er", "xyz": [3.0397177465880745, 5.264945683051768, 1.5499815175]}, {"species": [{"element": "Er", "occu": 1}], "abc": [0.333333, 0.666667, 0.5], "properties": {"magmom": 0.045}, "label": "Er", "xyz": [-4.076984919887394e-06, 4.70385011859055, 3.099963035]}, {"species": [{"element": "Er", "occu": 1}], "abc": [0.25381008, 0.25381008, 0.75], "properties": {"magmom": 0.078}, "label": "Er", "xyz": [1.0339338334119264, 1.7908259669482318, 4.6499445525]}, {"species": [{"element": "Rh", "occu": 1}], "abc": [0.39641505, 0.39641505, 0.25], "properties": {"magmom": 0.033}, "label": "Rh", "xyz": [1.6148567947682795, 2.7970140714233325, 1.5499815175]}, {"species": [{"element": "Rh", "occu": 1}], "abc": [0.60358495, 0.0, 0.25], "properties": {"magmom": 0.033}, "label": "Rh", "xyz": [4.917589576499292, 0.0, 1.5499815175]}, {"species": [{"element": "Rh", "occu": 1}], "abc": [0.0, 0.39641505, 0.75], "properties": {"magmom": 0.033}, "label": "Rh", "xyz": [-1.6148567987324294, 2.7970140714233325, 4.6499445525]}, {"species": [{"element": "Rh", "occu": 1}], "abc": [0.60358495, 0.60358495, 0.75], "properties": {"magmom": 0.033}, "label": "Rh", "xyz": [2.458794785231722, 4.258757578576668, 4.6499445525]}, {"species": [{"element": "Rh", "occu": 1}], "abc": [0.39641505, 0.0, 0.75], "properties": {"magmom": 0.033}, "label": "Rh", "xyz": [3.229713593500709, 0.0, 4.6499445525]}, {"species": [{"element": "Rh", "occu": 1}], "abc": [-0.0, 0.60358495, 0.25], "properties": {"magmom": 0.033}, "label": "Rh", "xyz": [-2.4587947912675703, 4.258757578576668, 1.5499815175]}]}, "task_ids": null, "uncorrected_energy_per_atom": null, "energy_per_atom": -6.374152867500001, "formation_energy_per_atom": -0.7577131599999991, "energy_above_hull": 0.009829106999998, "is_stable": false, "equilibrium_reaction_energy_per_atom": null, "decomposes_to": null, "xas": null, "grain_boundaries": null, "band_gap": 0.0, "cbm": null, "vbm": null, "efermi": 4.2250364, "is_gap_direct": null, "is_metal": null, "es_source_calc_id": null, "bandstructure": null, "dos": null, "dos_energy_up": null, "dos_energy_down": null, "is_magnetic": null, "ordering": null, "total_magnetization": 1.198678699999999, "total_magnetization_normalized_vol": null, "total_magnetization_normalized_formula_units": null, "num_magnetic_sites": null, "num_unique_magnetic_sites": null, "types_of_magnetic_species": null, "bulk_modulus": null, "shear_modulus": null, "universal_anisotropy": null, "homogeneous_poisson": null, "e_total": null, "e_ionic": null, "e_electronic": null, "n": null, "e_ij_max": null, "weighted_surface_energy_EV_PER_ANG2": null, "weighted_surface_energy": null, "weighted_work_function": null, "surface_anisotropy": null, "shape_factor": null, "has_reconstructed": null, "possible_species": null, "has_props": null, "theoretical": null, "database_IDs": null, "fields_not_requested": ["builder_meta", "nsites", "elements", "nelements", "composition", "composition_reduced", "chemsys", "symmetry", "property_name", "deprecated", "deprecation_reasons", "last_updated", "origins", "warnings", "task_ids", "uncorrected_energy_per_atom", "equilibrium_reaction_energy_per_atom", "decomposes_to", "xas", "grain_boundaries", "cbm", "vbm", "is_gap_direct", "is_metal", "es_source_calc_id", "bandstructure", "dos", "dos_energy_up", "dos_energy_down", "is_magnetic", "ordering", "total_magnetization_normalized_vol", "total_magnetization_normalized_formula_units", "num_magnetic_sites", "num_unique_magnetic_sites", "types_of_magnetic_species", "bulk_modulus", "shear_modulus", "universal_anisotropy", "homogeneous_poisson", "e_total", "e_ionic", "e_electronic", "n", "e_ij_max", "weighted_surface_energy_EV_PER_ANG2", "weighted_surface_energy", "weighted_work_function", "surface_anisotropy", "shape_factor", "has_reconstructed", "possible_species", "has_props", "theoretical", "database_IDs"]}