{"builder_meta": null, "nsites": null, "elements": null, "nelements": null, "composition": null, "composition_reduced": null, "formula_pretty": "Er5S7", "formula_anonymous": "A5B7", "chemsys": null, "volume": 264.2525065485406, "density": 6.665657926587707, "density_atomic": 22.021042212378386, "symmetry": null, "property_name": null, "material_id": "mp-1095508", "deprecated": null, "deprecation_reasons": null, "last_updated": null, "origins": null, "warnings": null, "structure": {"@module": "pymatgen.core.structure", "@class": "Structure", "charge": 0, "lattice": {"matrix": [[-1e-08, -3.75319644, -0.0], [-6.12732938, 1.8765972, 1.60113265], [-0.01605887, -0.0, -11.48650647]], "pbc": [true, true, true], "a": 3.75319644, "b": 6.60525609987645, "c": 11.486517695657703, "alpha": 103.9518070633736, "beta": 89.99999999978657, "gamma": 106.50545617511742, "volume": 264.25250654854057}, "properties": {}, "sites": [{"species": [{"element": "Er", "occu": 1}], "abc": [-0.0, -0.0, -0.0], "properties": {"magmom": -0.0}, "label": "Er", "xyz": [0.0, 0.0, 0.0]}, {"species": [{"element": "Er", "occu": 1}], "abc": [0.11141986, 0.22283873, 0.42147574], "properties": {"magmom": -0.0}, "label": "Er", "xyz": [-1.3721747225618997, -2.085127742357251e-06, -4.484489448170503]}, {"species": [{"element": "Er", "occu": 1}], "abc": [0.8885801400000001, 0.77716127, 0.57852426], "properties": {"magmom": -0.0}, "label": "Er", "xyz": [-4.771213537438101, -1.8765971548722578, -5.4008843718294965]}, {"species": [{"element": "Er", "occu": 1}], "abc": [0.30010531, 0.60021261, 0.18754774], "properties": {"magmom": -0.0}, "label": "Er", "xyz": [-3.680712167275989, 3.122213595441181e-06, -1.193248322131161]}, {"species": [{"element": "Er", "occu": 1}], "abc": [0.69989469, 0.39978739, 0.81245226], "properties": {"magmom": -0.0}, "label": "Er", "xyz": [-2.4626760927240112, -1.8766023622135959, -8.69212549786884]}, {"species": [{"element": "S", "occu": 1}], "abc": [0.5, -0.0, 0.5], "properties": {"magmom": -0.0}, "label": "S", "xyz": [-0.00802944, -1.87659822, -5.743253235]}, {"species": [{"element": "S", "occu": 1}], "abc": [0.65887018, 0.31773936, 0.05133497], "properties": {"magmom": -0.0}, "label": "S", "xyz": [-1.9477181039087827, -1.876600420692367, -0.08091660155615177]}, {"species": [{"element": "S", "occu": 1}], "abc": [0.34113082, 0.68226064, 0.94866503], "properties": {"magmom": -0.0}, "label": "S", "xyz": [-4.195670156091228, -2.5725040728730164e-06, -9.804457218443847]}, {"species": [{"element": "S", "occu": 1}], "abc": [0.95879636, 0.91759172, 0.21478022], "properties": {"magmom": 0.0}, "label": "S", "xyz": [-5.625835842020249, -1.8766010325417743, -0.9978883243963652]}, {"species": [{"element": "S", "occu": 1}], "abc": [0.04120364, 0.08240828, 0.78521978], "properties": {"magmom": 0.0}, "label": "S", "xyz": [-0.5175524179797514, 1.7925417744035776e-06, -8.887485495603634]}, {"species": [{"element": "S", "occu": 1}], "abc": [0.25895665, 0.5179153, 0.64703879], "properties": {"magmom": 0.0}, "label": "S", "xyz": [-3.1838283484446475, 3.2249228338887548e-06, -6.6029641509114265]}, {"species": [{"element": "S", "occu": 1}], "abc": [0.74104335, 0.4820847, 0.35296121], "properties": {"magmom": 0.0}, "label": "S", "xyz": [-2.959559911555352, -1.8766024649228341, -3.282409669088574]}]}, "task_ids": null, "uncorrected_energy_per_atom": null, "energy_per_atom": -21.179767406666667, "formation_energy_per_atom": -2.357086622612847, "energy_above_hull": 0.0, "is_stable": true, "equilibrium_reaction_energy_per_atom": null, "decomposes_to": null, "xas": null, "grain_boundaries": null, "band_gap": 0.0, "cbm": null, "vbm": null, "efermi": 5.18715378, "is_gap_direct": null, "is_metal": null, "es_source_calc_id": null, "bandstructure": null, "dos": null, "dos_energy_up": null, "dos_energy_down": null, "is_magnetic": null, "ordering": null, "total_magnetization": 0.0, "total_magnetization_normalized_vol": null, "total_magnetization_normalized_formula_units": null, "num_magnetic_sites": null, "num_unique_magnetic_sites": null, "types_of_magnetic_species": null, "bulk_modulus": null, "shear_modulus": null, "universal_anisotropy": null, "homogeneous_poisson": null, "e_total": null, "e_ionic": null, "e_electronic": null, "n": null, "e_ij_max": null, "weighted_surface_energy_EV_PER_ANG2": null, "weighted_surface_energy": null, "weighted_work_function": null, "surface_anisotropy": null, "shape_factor": null, "has_reconstructed": null, "possible_species": null, "has_props": null, "theoretical": null, "database_IDs": null, "fields_not_requested": ["builder_meta", "nsites", "elements", "nelements", "composition", "composition_reduced", "chemsys", "symmetry", "property_name", "deprecated", "deprecation_reasons", "last_updated", "origins", "warnings", "task_ids", "uncorrected_energy_per_atom", "equilibrium_reaction_energy_per_atom", "decomposes_to", "xas", "grain_boundaries", "cbm", "vbm", "is_gap_direct", "is_metal", "es_source_calc_id", "bandstructure", "dos", "dos_energy_up", "dos_energy_down", "is_magnetic", "ordering", "total_magnetization_normalized_vol", "total_magnetization_normalized_formula_units", "num_magnetic_sites", "num_unique_magnetic_sites", "types_of_magnetic_species", "bulk_modulus", "shear_modulus", "universal_anisotropy", "homogeneous_poisson", "e_total", "e_ionic", "e_electronic", "n", "e_ij_max", "weighted_surface_energy_EV_PER_ANG2", "weighted_surface_energy", "weighted_work_function", "surface_anisotropy", "shape_factor", "has_reconstructed", "possible_species", "has_props", "theoretical", "database_IDs"]}