{
  "builder_meta": null,
  "nsites": null,
  "elements": null,
  "nelements": null,
  "composition": null,
  "composition_reduced": null,
  "formula_pretty": "Er5Si3",
  "formula_anonymous": "A3B5",
  "chemsys": null,
  "volume": 376.2831623428693,
  "density": 8.124794737290735,
  "density_atomic": 23.51769764642933,
  "symmetry": null,
  "property_name": null,
  "material_id": "mp-31167",
  "deprecated": null,
  "deprecation_reasons": null,
  "last_updated": null,
  "origins": null,
  "warnings": null,
  "structure": {
    "@module": "pymatgen.core.structure",
    "@class": "Structure",
    "charge": 0,
    "lattice": {
      "matrix": [
        [8.32205932, 0.0, 0.0],
        [-4.16102966, 7.20711494, -0.0],
        [-0.0, 0.0, 6.27368241]
      ],
      "pbc": [true, true, true],
      "a": 8.32205932,
      "b": 8.32205945603436,
      "c": 6.27368241,
      "alpha": 90.0,
      "beta": 90.0,
      "gamma": 119.99999945927082,
      "volume": 376.2831623428693
    },
    "properties": {},
    "sites": [
      {
        "species": [{ "element": "Er", "occu": 1 }],
        "abc": [0.0, 0.75769394, 0.75],
        "properties": { "magmom": -0.0 },
        "label": "Er",
        "xyz": [-3.15278695754226, 5.460787314921464, 4.7052618075]
      },
      {
        "species": [{ "element": "Er", "occu": 1 }],
        "abc": [-0.0, 0.24230606000000002, 0.25],
        "properties": { "magmom": -0.0 },
        "label": "Er",
        "xyz": [-1.0082427024577396, 1.7463276250785367, 1.5684206025]
      },
      {
        "species": [{ "element": "Er", "occu": 1 }],
        "abc": [0.75769394, 0.75769394, 0.25],
        "properties": { "magmom": -0.0 },
        "label": "Er",
        "xyz": [3.15278695754226, 5.460787314921464, 1.5684206025]
      },
      {
        "species": [{ "element": "Er", "occu": 1 }],
        "abc": [0.75769394, -0.0, 0.75],
        "properties": { "magmom": -0.0 },
        "label": "Er",
        "xyz": [6.30557391508452, 0.0, 4.7052618075]
      },
      {
        "species": [{ "element": "Er", "occu": 1 }],
        "abc": [0.24230606000000002, 0.24230606000000002, 0.75],
        "properties": { "magmom": -0.0 },
        "label": "Er",
        "xyz": [1.0082427024577396, 1.7463276250785367, 4.7052618075]
      },
      {
        "species": [{ "element": "Er", "occu": 1 }],
        "abc": [0.24230606000000002, -0.0, 0.25],
        "properties": { "magmom": -0.0 },
        "label": "Er",
        "xyz": [2.0164854049154792, 0.0, 1.5684206025]
      },
      {
        "species": [{ "element": "Er", "occu": 1 }],
        "abc": [0.333333, 0.666667, 0.5],
        "properties": { "magmom": -0.0 },
        "label": "Er",
        "xyz": [-4.161029660387783e-6, 4.80474569570498, 3.136841205]
      },
      {
        "species": [{ "element": "Er", "occu": 1 }],
        "abc": [0.666667, 0.333333, 0.0],
        "properties": { "magmom": -0.0 },
        "label": "Er",
        "xyz": [4.16103382102966, 2.40236924429502, 0.0]
      },
      {
        "species": [{ "element": "Er", "occu": 1 }],
        "abc": [0.666667, 0.333333, 0.5],
        "properties": { "magmom": -0.0 },
        "label": "Er",
        "xyz": [4.16103382102966, 2.40236924429502, 3.136841205]
      },
      {
        "species": [{ "element": "Er", "occu": 1 }],
        "abc": [0.333333, 0.666667, 0.0],
        "properties": { "magmom": -0.0 },
        "label": "Er",
        "xyz": [-4.161029660387783e-6, 4.80474569570498, 0.0]
      },
      {
        "species": [{ "element": "Si", "occu": 1 }],
        "abc": [0.3941733, -0.0, 0.75],
        "properties": { "magmom": 0.0 },
        "label": "Si",
        "xyz": [3.2803335849601556, 0.0, 4.7052618075]
      },
      {
        "species": [{ "element": "Si", "occu": 1 }],
        "abc": [0.3941733, 0.3941733, 0.25],
        "properties": { "magmom": 0.0 },
        "label": "Si",
        "xyz": [1.6401667924800778, 2.840852279379102, 1.5684206025]
      },
      {
        "species": [{ "element": "Si", "occu": 1 }],
        "abc": [0.0, 0.605826699999999, 0.25],
        "properties": { "magmom": 0.0 },
        "label": "Si",
        "xyz": [-2.520862867519918, 4.366262660620891, 1.5684206025]
      },
      {
        "species": [{ "element": "Si", "occu": 1 }],
        "abc": [-0.0, 0.3941733, 0.75],
        "properties": { "magmom": 0.0 },
        "label": "Si",
        "xyz": [-1.6401667924800778, 2.840852279379102, 4.7052618075]
      },
      {
        "species": [{ "element": "Si", "occu": 1 }],
        "abc": [0.605826699999999, 0.605826699999999, 0.75],
        "properties": { "magmom": 0.0 },
        "label": "Si",
        "xyz": [2.520862867519918, 4.366262660620891, 4.7052618075]
      },
      {
        "species": [{ "element": "Si", "occu": 1 }],
        "abc": [0.605826699999999, -0.0, 0.25],
        "properties": { "magmom": 0.0 },
        "label": "Si",
        "xyz": [5.041725735039836, 0.0, 1.5684206025]
      }
    ]
  },
  "task_ids": null,
  "uncorrected_energy_per_atom": null,
  "energy_per_atom": -25.271787995,
  "formation_energy_per_atom": -0.7782292927083351,
  "energy_above_hull": 0.0,
  "is_stable": true,
  "equilibrium_reaction_energy_per_atom": null,
  "decomposes_to": null,
  "xas": null,
  "grain_boundaries": null,
  "band_gap": 0.0,
  "cbm": null,
  "vbm": null,
  "efermi": 4.3609071,
  "is_gap_direct": null,
  "is_metal": null,
  "es_source_calc_id": null,
  "bandstructure": null,
  "dos": null,
  "dos_energy_up": null,
  "dos_energy_down": null,
  "is_magnetic": null,
  "ordering": null,
  "total_magnetization": 1.1900000000000001e-5,
  "total_magnetization_normalized_vol": null,
  "total_magnetization_normalized_formula_units": null,
  "num_magnetic_sites": null,
  "num_unique_magnetic_sites": null,
  "types_of_magnetic_species": null,
  "bulk_modulus": null,
  "shear_modulus": null,
  "universal_anisotropy": null,
  "homogeneous_poisson": null,
  "e_total": null,
  "e_ionic": null,
  "e_electronic": null,
  "n": null,
  "e_ij_max": null,
  "weighted_surface_energy_EV_PER_ANG2": null,
  "weighted_surface_energy": null,
  "weighted_work_function": null,
  "surface_anisotropy": null,
  "shape_factor": null,
  "has_reconstructed": null,
  "possible_species": null,
  "has_props": null,
  "theoretical": null,
  "database_IDs": null,
  "fields_not_requested": [
    "builder_meta",
    "nsites",
    "elements",
    "nelements",
    "composition",
    "composition_reduced",
    "chemsys",
    "symmetry",
    "property_name",
    "deprecated",
    "deprecation_reasons",
    "last_updated",
    "origins",
    "warnings",
    "task_ids",
    "uncorrected_energy_per_atom",
    "equilibrium_reaction_energy_per_atom",
    "decomposes_to",
    "xas",
    "grain_boundaries",
    "cbm",
    "vbm",
    "is_gap_direct",
    "is_metal",
    "es_source_calc_id",
    "bandstructure",
    "dos",
    "dos_energy_up",
    "dos_energy_down",
    "is_magnetic",
    "ordering",
    "total_magnetization_normalized_vol",
    "total_magnetization_normalized_formula_units",
    "num_magnetic_sites",
    "num_unique_magnetic_sites",
    "types_of_magnetic_species",
    "bulk_modulus",
    "shear_modulus",
    "universal_anisotropy",
    "homogeneous_poisson",
    "e_total",
    "e_ionic",
    "e_electronic",
    "n",
    "e_ij_max",
    "weighted_surface_energy_EV_PER_ANG2",
    "weighted_surface_energy",
    "weighted_work_function",
    "surface_anisotropy",
    "shape_factor",
    "has_reconstructed",
    "possible_species",
    "has_props",
    "theoretical",
    "database_IDs"
  ]
}
