{"builder_meta": null, "nsites": null, "elements": null, "nelements": null, "composition": null, "composition_reduced": null, "formula_pretty": "Er5Sn3", "formula_anonymous": "A3B5", "chemsys": null, "volume": 437.49423332933264, "density": 9.051860096176254, "density_atomic": 27.34338958308329, "symmetry": null, "property_name": null, "material_id": "mp-31385", "deprecated": null, "deprecation_reasons": null, "last_updated": null, "origins": null, "warnings": null, "structure": {"@module": "pymatgen.core.structure", "@class": "Structure", "charge": 0, "lattice": {"matrix": [[8.83443067, 1e-08, 0.0], [-4.41721432, 7.65083993, -0.0], [-0.0, -0.0, 6.47268765]], "pbc": [true, true, true], "a": 8.83443067, "b": 8.834428899668358, "c": 6.47268765, "alpha": 90.0, "beta": 90.0, "gamma": 119.99999896283983, "volume": 437.49423332933264}, "properties": {}, "sites": [{"species": [{"element": "Er", "occu": 1}], "abc": [-0.0, 0.76184421, 0.75], "properties": {"magmom": 0.059000000000000004}, "label": "Er", "xyz": [-3.3652291540210877, 5.828748102307306, 4.8545157375]}, {"species": [{"element": "Er", "occu": 1}], "abc": [0.0, 0.23815579, 0.25], "properties": {"magmom": 0.059000000000000004}, "label": "Er", "xyz": [-1.0519851659789128, 1.8220918276926947, 1.6181719125]}, {"species": [{"element": "Er", "occu": 1}], "abc": [0.76184421, 0.76184421, 0.25], "properties": {"magmom": 0.059000000000000004}, "label": "Er", "xyz": [3.365230700564833, 5.828748109925748, 1.6181719125]}, {"species": [{"element": "Er", "occu": 1}], "abc": [0.76184421, 0.0, 0.75], "properties": {"magmom": 0.059000000000000004}, "label": "Er", "xyz": [6.730459854585921, 7.618442100000001e-09, 4.8545157375]}, {"species": [{"element": "Er", "occu": 1}], "abc": [0.23815579, 0.23815579, 0.75], "properties": {"magmom": 0.059000000000000004}, "label": "Er", "xyz": [1.0519856494351665, 1.8220918300742526, 4.8545157375]}, {"species": [{"element": "Er", "occu": 1}], "abc": [0.23815579, -0.0, 0.25], "properties": {"magmom": 0.059000000000000004}, "label": "Er", "xyz": [2.1039708154140793, 2.3815579e-09, 1.6181719125]}, {"species": [{"element": "Er", "occu": 1}], "abc": [0.333333, 0.666667, 0.5], "properties": {"magmom": 0.07100000000000001}, "label": "Er", "xyz": [-3.7405483301888864e-06, 5.10056250694664, 3.236343825]}, {"species": [{"element": "Er", "occu": 1}], "abc": [0.666667, 0.333333, -0.0], "properties": {"magmom": 0.07100000000000001}, "label": "Er", "xyz": [4.41722009054833, 2.5502774330533597, 0.0]}, {"species": [{"element": "Er", "occu": 1}], "abc": [0.666667, 0.333333, 0.5], "properties": {"magmom": 0.07100000000000001}, "label": "Er", "xyz": [4.41722009054833, 2.5502774330533597, 3.236343825]}, {"species": [{"element": "Er", "occu": 1}], "abc": [0.333333, 0.666667, -0.0], "properties": {"magmom": 0.07100000000000001}, "label": "Er", "xyz": [-3.7405483301888864e-06, 5.10056250694664, 0.0]}, {"species": [{"element": "Sn", "occu": 1}], "abc": [0.39458024, -0.0, 0.75], "properties": {"magmom": -0.014}, "label": "Sn", "xyz": [3.485891774031961, 3.9458024e-09, 4.8545157375]}, {"species": [{"element": "Sn", "occu": 1}], "abc": [0.39458024, 0.39458024, 0.25], "properties": {"magmom": -0.014}, "label": "Sn", "xyz": [1.7429462875149238, 3.0188702597267856, 1.6181719125]}, {"species": [{"element": "Sn", "occu": 1}], "abc": [-0.0, 0.60541976, 0.25], "properties": {"magmom": -0.014}, "label": "Sn", "xyz": [-2.674268833482963, 4.631969674219016, 1.6181719125]}, {"species": [{"element": "Sn", "occu": 1}], "abc": [0.0, 0.39458024, 0.75], "properties": {"magmom": -0.014}, "label": "Sn", "xyz": [-1.742945486517037, 3.0188702557809832, 4.8545157375]}, {"species": [{"element": "Sn", "occu": 1}], "abc": [0.60541976, 0.60541976, 0.75], "properties": {"magmom": -0.014}, "label": "Sn", "xyz": [2.6742700624850757, 4.631969680273214, 4.8545157375]}, {"species": [{"element": "Sn", "occu": 1}], "abc": [0.60541976, 0.0, 0.25], "properties": {"magmom": -0.014}, "label": "Sn", "xyz": [5.348538895968039, 6.0541976e-09, 1.6181719125]}]}, "task_ids": null, "uncorrected_energy_per_atom": null, "energy_per_atom": -5.066997631875001, "formation_energy_per_atom": -0.7085839299999991, "energy_above_hull": 0.0, "is_stable": true, "equilibrium_reaction_energy_per_atom": null, "decomposes_to": null, "xas": null, "grain_boundaries": null, "band_gap": 0.0, "cbm": null, "vbm": null, "efermi": 5.00430432, "is_gap_direct": null, "is_metal": null, "es_source_calc_id": null, "bandstructure": null, "dos": null, "dos_energy_up": null, "dos_energy_down": null, "is_magnetic": null, "ordering": null, "total_magnetization": 0.8050052, "total_magnetization_normalized_vol": null, "total_magnetization_normalized_formula_units": null, "num_magnetic_sites": null, "num_unique_magnetic_sites": null, "types_of_magnetic_species": null, "bulk_modulus": null, "shear_modulus": null, "universal_anisotropy": null, "homogeneous_poisson": null, "e_total": null, "e_ionic": null, "e_electronic": null, "n": null, "e_ij_max": null, "weighted_surface_energy_EV_PER_ANG2": null, "weighted_surface_energy": null, "weighted_work_function": null, "surface_anisotropy": null, "shape_factor": null, "has_reconstructed": null, "possible_species": null, "has_props": null, "theoretical": null, "database_IDs": null, "fields_not_requested": ["builder_meta", "nsites", "elements", "nelements", "composition", "composition_reduced", "chemsys", "symmetry", "property_name", "deprecated", "deprecation_reasons", "last_updated", "origins", "warnings", "task_ids", "uncorrected_energy_per_atom", "equilibrium_reaction_energy_per_atom", "decomposes_to", "xas", "grain_boundaries", "cbm", "vbm", "is_gap_direct", "is_metal", "es_source_calc_id", "bandstructure", "dos", "dos_energy_up", "dos_energy_down", "is_magnetic", "ordering", "total_magnetization_normalized_vol", "total_magnetization_normalized_formula_units", "num_magnetic_sites", "num_unique_magnetic_sites", "types_of_magnetic_species", "bulk_modulus", "shear_modulus", "universal_anisotropy", "homogeneous_poisson", "e_total", "e_ionic", "e_electronic", "n", "e_ij_max", "weighted_surface_energy_EV_PER_ANG2", "weighted_surface_energy", "weighted_work_function", "surface_anisotropy", "shape_factor", "has_reconstructed", "possible_species", "has_props", "theoretical", "database_IDs"]}