{"builder_meta": null, "nsites": null, "elements": null, "nelements": null, "composition": null, "composition_reduced": null, "formula_pretty": "Er5Sb3", "formula_anonymous": "A3B5", "chemsys": null, "volume": 866.9561317103412, "density": 9.205827865885755, "density_atomic": 27.092379115948162, "symmetry": null, "property_name": null, "material_id": "mp-641565", "deprecated": null, "deprecation_reasons": null, "last_updated": null, "origins": null, "warnings": null, "structure": {"@module": "pymatgen.core.structure", "@class": "Structure", "charge": 0, "lattice": {"matrix": [[8.05767067, 0.0, 0.0], [0.0, 9.15847049, 0.0], [0.0, 0.0, 11.74801951]], "pbc": [true, true, true], "a": 8.05767067, "b": 9.15847049, "c": 11.74801951, "alpha": 90.0, "beta": 90.0, "gamma": 90.0, "volume": 866.9561317103412}, "properties": {}, "sites": [{"species": [{"element": "Er", "occu": 1}], "abc": [0.6713452, 0.75, 0.7267871], "properties": {"magmom": 0.001}, "label": "Er", "xyz": [5.409478527485284, 6.868852867499999, 8.538309030416322]}, {"species": [{"element": "Er", "occu": 1}], "abc": [0.30880025, 0.55944273, 0.56683205], "properties": {"magmom": 0.0}, "label": "Er", "xyz": [2.4882107173136676, 5.123639733550037, 6.659153982293296]}, {"species": [{"element": "Er", "occu": 1}], "abc": [0.84442131, 0.25, 0.20879665], "properties": {"magmom": -0.0}, "label": "Er", "xyz": [6.8040688227099775, 2.2896176225, 2.452947117822642]}, {"species": [{"element": "Er", "occu": 1}], "abc": [0.19119975, 0.94055727, 0.06683205], "properties": {"magmom": 0.0}, "label": "Er", "xyz": [1.5406246176863325, 8.614066001449961, 0.7851442272932956]}, {"species": [{"element": "Er", "occu": 1}], "abc": [0.30880025, 0.94055727, 0.56683205], "properties": {"magmom": 0.0}, "label": "Er", "xyz": [2.4882107173136676, 8.614066001449961, 6.659153982293296]}, {"species": [{"element": "Er", "occu": 1}], "abc": [0.69119975, 0.44055727, 0.43316795], "properties": {"magmom": 0.0}, "label": "Er", "xyz": [5.569459952686333, 4.034830756449962, 5.088865527706705]}, {"species": [{"element": "Er", "occu": 1}], "abc": [0.80880025, 0.44055727, 0.93316795], "properties": {"magmom": 0.0}, "label": "Er", "xyz": [6.517046052313668, 4.034830756449962, 10.962875282706705]}, {"species": [{"element": "Er", "occu": 1}], "abc": [0.97533314, 0.75, 0.50500218], "properties": {"magmom": 0.001}, "label": "Er", "xyz": [7.858913235657004, 6.868852867499999, 5.932775463232532]}, {"species": [{"element": "Er", "occu": 1}], "abc": [0.15557869, 0.75, 0.79120335], "properties": {"magmom": -0.0}, "label": "Er", "xyz": [1.2536018472900223, 6.868852867499999, 9.295072392177358]}, {"species": [{"element": "Er", "occu": 1}], "abc": [0.328654799999999, 0.25, 0.2732129], "properties": {"magmom": 0.001}, "label": "Er", "xyz": [2.6481921425147084, 2.2896176225, 3.209710479583679]}, {"species": [{"element": "Er", "occu": 1}], "abc": [0.47533314, 0.25, 0.99499782], "properties": {"magmom": 0.001}, "label": "Er", "xyz": [3.830077900657004, 2.2896176225, 11.68925380176747]}, {"species": [{"element": "Er", "occu": 1}], "abc": [0.80880025, 0.05944273, 0.93316795], "properties": {"magmom": 0.0}, "label": "Er", "xyz": [6.517046052313668, 0.5444044885500376, 10.962875282706705]}, {"species": [{"element": "Er", "occu": 1}], "abc": [0.19119975, 0.55944273, 0.06683205], "properties": {"magmom": 0.0}, "label": "Er", "xyz": [1.5406246176863325, 5.123639733550037, 0.7851442272932956]}, {"species": [{"element": "Er", "occu": 1}], "abc": [0.02466686, 0.25, 0.49499782000000003], "properties": {"magmom": 0.001}, "label": "Er", "xyz": [0.1987574343429962, 2.2896176225, 5.815244046767469]}, {"species": [{"element": "Er", "occu": 1}], "abc": [0.34442131, 0.75, 0.29120335], "properties": {"magmom": -0.0}, "label": "Er", "xyz": [2.775233487709978, 6.868852867499999, 3.421062637177359]}, {"species": [{"element": "Er", "occu": 1}], "abc": [0.69119975, 0.05944273, 0.43316795], "properties": {"magmom": 0.0}, "label": "Er", "xyz": [5.569459952686333, 0.5444044885500376, 5.088865527706705]}, {"species": [{"element": "Er", "occu": 1}], "abc": [0.52466686, 0.75, 0.00500218], "properties": {"magmom": 0.001}, "label": "Er", "xyz": [4.227592769342996, 6.868852867499999, 0.058765708232531806]}, {"species": [{"element": "Er", "occu": 1}], "abc": [0.828654799999999, 0.75, 0.2267871], "properties": {"magmom": 0.001}, "label": "Er", "xyz": [6.6770274775147085, 6.868852867499999, 2.664299275416321]}, {"species": [{"element": "Er", "occu": 1}], "abc": [0.65557869, 0.25, 0.70879665], "properties": {"magmom": -0.0}, "label": "Er", "xyz": [5.282437182290023, 2.2896176225, 8.326956872822642]}, {"species": [{"element": "Er", "occu": 1}], "abc": [0.1713452, 0.25, 0.7732129], "properties": {"magmom": 0.001}, "label": "Er", "xyz": [1.380643192485284, 2.2896176225, 9.08372023458368]}, {"species": [{"element": "Sb", "occu": 1}], "abc": [0.09530048, 0.25, 0.02408075], "properties": {"magmom": -0.0}, "label": "Sb", "xyz": [0.7678998825329216, 2.2896176225, 0.28290112081543256]}, {"species": [{"element": "Sb", "occu": 1}], "abc": [0.93621557, 0.49074352, 0.67400786], "properties": {"magmom": -0.0}, "label": "Sb", "xyz": [7.5437167391863325, 4.494460046078724, 7.9182574891733495]}, {"species": [{"element": "Sb", "occu": 1}], "abc": [0.43621557, 0.99074352, 0.82599214], "properties": {"magmom": -0.0}, "label": "Sb", "xyz": [3.514881404186332, 9.073695291078725, 9.703771775826652]}, {"species": [{"element": "Sb", "occu": 1}], "abc": [0.06378443, 0.99074352, 0.32599214], "properties": {"magmom": -0.0}, "label": "Sb", "xyz": [0.5139539308136681, 9.073695291078725, 3.8297620208266516]}, {"species": [{"element": "Sb", "occu": 1}], "abc": [0.43621557, 0.50925648, 0.82599214], "properties": {"magmom": -0.0}, "label": "Sb", "xyz": [3.514881404186332, 4.664010443921275, 9.703771775826652]}, {"species": [{"element": "Sb", "occu": 1}], "abc": [0.59530048, 0.75, 0.47591925], "properties": {"magmom": -0.0}, "label": "Sb", "xyz": [4.796735217532922, 6.868852867499999, 5.591108634184568]}, {"species": [{"element": "Sb", "occu": 1}], "abc": [0.40469952000000003, 0.25, 0.52408075], "properties": {"magmom": -0.0}, "label": "Sb", "xyz": [3.260935452467079, 2.2896176225, 6.1569108758154325]}, {"species": [{"element": "Sb", "occu": 1}], "abc": [0.56378443, 0.49074352, 0.17400786000000001], "properties": {"magmom": -0.0}, "label": "Sb", "xyz": [4.542789265813668, 4.494460046078724, 2.0442477341733487]}, {"species": [{"element": "Sb", "occu": 1}], "abc": [0.06378443, 0.50925648, 0.32599214], "properties": {"magmom": -0.0}, "label": "Sb", "xyz": [0.5139539308136681, 4.664010443921275, 3.8297620208266516]}, {"species": [{"element": "Sb", "occu": 1}], "abc": [0.90469952, 0.75, 0.97591925], "properties": {"magmom": -0.0}, "label": "Sb", "xyz": [7.289770787467078, 6.868852867499999, 11.465118389184568]}, {"species": [{"element": "Sb", "occu": 1}], "abc": [0.56378443, 0.009256480000000001, 0.17400786000000001], "properties": {"magmom": -0.0}, "label": "Sb", "xyz": [4.542789265813668, 0.0847751989212752, 2.0442477341733487]}, {"species": [{"element": "Sb", "occu": 1}], "abc": [0.93621557, 0.009256480000000001, 0.67400786], "properties": {"magmom": -0.0}, "label": "Sb", "xyz": [7.5437167391863325, 0.0847751989212752, 7.9182574891733495]}]}, "task_ids": null, "uncorrected_energy_per_atom": null, "energy_per_atom": -31.8582019765625, "formation_energy_per_atom": -1.014936598645835, "energy_above_hull": 0.0, "is_stable": true, "equilibrium_reaction_energy_per_atom": null, "decomposes_to": null, "xas": null, "grain_boundaries": null, "band_gap": 0.0, "cbm": null, "vbm": null, "efermi": 5.44617472, "is_gap_direct": null, "is_metal": null, "es_source_calc_id": null, "bandstructure": null, "dos": null, "dos_energy_up": null, "dos_energy_down": null, "is_magnetic": null, "ordering": null, "total_magnetization": 0.0092857, "total_magnetization_normalized_vol": null, "total_magnetization_normalized_formula_units": null, "num_magnetic_sites": null, "num_unique_magnetic_sites": null, "types_of_magnetic_species": null, "bulk_modulus": null, "shear_modulus": null, "universal_anisotropy": null, "homogeneous_poisson": null, "e_total": null, "e_ionic": null, "e_electronic": null, "n": null, "e_ij_max": null, "weighted_surface_energy_EV_PER_ANG2": null, "weighted_surface_energy": null, "weighted_work_function": null, "surface_anisotropy": null, "shape_factor": null, "has_reconstructed": null, "possible_species": null, "has_props": null, "theoretical": null, "database_IDs": null, "fields_not_requested": ["builder_meta", "nsites", "elements", "nelements", "composition", "composition_reduced", "chemsys", "symmetry", "property_name", "deprecated", "deprecation_reasons", "last_updated", "origins", "warnings", "task_ids", "uncorrected_energy_per_atom", "equilibrium_reaction_energy_per_atom", "decomposes_to", "xas", "grain_boundaries", "cbm", "vbm", "is_gap_direct", "is_metal", "es_source_calc_id", "bandstructure", "dos", "dos_energy_up", "dos_energy_down", "is_magnetic", "ordering", "total_magnetization_normalized_vol", "total_magnetization_normalized_formula_units", "num_magnetic_sites", "num_unique_magnetic_sites", "types_of_magnetic_species", "bulk_modulus", "shear_modulus", "universal_anisotropy", "homogeneous_poisson", "e_total", "e_ionic", "e_electronic", "n", "e_ij_max", "weighted_surface_energy_EV_PER_ANG2", "weighted_surface_energy", "weighted_work_function", "surface_anisotropy", "shape_factor", "has_reconstructed", "possible_species", "has_props", "theoretical", "database_IDs"]}