{
  "builder_meta": null,
  "nsites": null,
  "elements": null,
  "nelements": null,
  "composition": null,
  "composition_reduced": null,
  "formula_pretty": "Er5Tl3",
  "formula_anonymous": "A3B5",
  "chemsys": null,
  "volume": 447.0924687309234,
  "density": 10.766720755400005,
  "density_atomic": 27.94327929568271,
  "symmetry": null,
  "property_name": null,
  "material_id": "mp-1105965",
  "deprecated": null,
  "deprecation_reasons": null,
  "last_updated": null,
  "origins": null,
  "warnings": null,
  "structure": {
    "@module": "pymatgen.core.structure",
    "@class": "Structure",
    "charge": 0,
    "lattice": {
      "matrix": [
        [0.0, 0.0, -6.55745049],
        [-4.43644477, -7.68409106, 0.0],
        [-4.43651718, 7.68413395, 0.0]
      ],
      "pbc": [true, true, true],
      "a": 6.55745049,
      "b": 8.872840447998165,
      "c": 8.872913797055494,
      "alpha": 119.99936749476751,
      "beta": 90.0,
      "gamma": 90.0,
      "volume": 447.0924687309234
    },
    "properties": {},
    "sites": [
      {
        "species": [{ "element": "Er", "occu": 1 }],
        "abc": [0.49999532, 0.33328558, 0.66657656],
        "properties": { "magmom": -0.0 },
        "label": "Er",
        "xyz": [-4.435881428532717, 2.5610668292652967, -3.2786945561317067]
      },
      {
        "species": [{ "element": "Er", "occu": 1 }],
        "abc": [0.49999425000000003, 0.66669878, 0.33342236000000003],
        "properties": { "magmom": -0.0 },
        "label": "Er",
        "xyz": [-4.437006344032525, -2.560912058945785, -3.278687539659683]
      },
      {
        "species": [{ "element": "Er", "occu": 1 }],
        "abc": [0.99999532, 0.66671442, 0.33342344],
        "properties": { "magmom": -0.0 },
        "label": "Er",
        "xyz": [-4.437080521467283, -2.561023939265297, -6.557419801131707]
      },
      {
        "species": [{ "element": "Er", "occu": 1 }],
        "abc": [0.99999425, 0.33330122, 0.66657764],
        "properties": { "magmom": -0.0 },
        "label": "Er",
        "xyz": [-4.435955605967474, 2.560954948945784, -6.557412784659682]
      },
      {
        "species": [{ "element": "Er", "occu": 1 }],
        "abc": [0.75001015, 0.23567601, 2.64e-6],
        "properties": { "magmom": -0.0 },
        "label": "Er",
        "xyz": [-1.0455753143843227, -1.8109356353838426, -4.918154425622474]
      },
      {
        "species": [{ "element": "Er", "occu": 1 }],
        "abc": [0.75000193, 0.76433175, 0.76428448],
        "properties": { "magmom": -0.0 },
        "label": "Er",
        "xyz": [-6.781676820759813, -0.0003304468230584945, -4.9181005233794455]
      },
      {
        "species": [{ "element": "Er", "occu": 1 }],
        "abc": [0.75000339, 4.967e-5, 0.23570983],
        "properties": { "magmom": -0.0 },
        "label": "Er",
        "xyz": [-1.0459510685016054, 1.8108442382487784, -4.918110097257161]
      },
      {
        "species": [{ "element": "Er", "occu": 1 }],
        "abc": [0.25001015, 0.7643239900000001, 0.9999973600000001],
        "properties": { "magmom": -0.0 },
        "label": "Er",
        "xyz": [-7.827386635615678, 1.8109785253838426, -1.6394291806224734]
      },
      {
        "species": [{ "element": "Er", "occu": 1 }],
        "abc": [0.25000193, 0.23566825, 0.23571552],
        "properties": { "magmom": -0.0 },
        "label": "Er",
        "xyz": [-2.091285129240186, 0.0003733368230589562, -1.6393752783794455]
      },
      {
        "species": [{ "element": "Er", "occu": 1 }],
        "abc": [0.25000339, 0.99995033, 0.76429017],
        "properties": { "magmom": -0.0 },
        "label": "Er",
        "xyz": [-7.827010881498394, -1.8108013482487788, -1.639384852257161]
      },
      {
        "species": [{ "element": "Tl", "occu": 1 }],
        "abc": [0.74999536, 0.59819343, 1.1e-7],
        "properties": { "magmom": -0.0 },
        "label": "Tl",
        "xyz": [-2.653852601988751, -4.5965719423590015, -4.918057440929727]
      },
      {
        "species": [{ "element": "Tl", "occu": 1 }],
        "abc": [0.74999944, 0.4018215, 0.4018176],
        "properties": { "magmom": -0.0 },
        "label": "Tl",
        "xyz": [-3.565329577774923, -1.2733998270064717e-5, -4.918084195327725]
      },
      {
        "species": [{ "element": "Tl", "occu": 1 }],
        "abc": [0.7499991500000001, 3.209999999999999e-6, 0.59818094],
        "properties": { "magmom": 0.0 },
        "label": "Tl",
        "xyz": [-2.6538542580462607, 4.59647780336461, -4.918082293667084]
      },
      {
        "species": [{ "element": "Tl", "occu": 1 }],
        "abc": [0.24999536, 0.40180657000000003, -1.1e-7],
        "properties": { "magmom": -0.0 },
        "label": "Tl",
        "xyz": [-1.782592168011249, -3.087519117640999, -1.6393321959297265]
      },
      {
        "species": [{ "element": "Tl", "occu": 1 }],
        "abc": [0.24999944000000002, 0.5981785, 0.5981824],
        "properties": { "magmom": -0.0 },
        "label": "Tl",
        "xyz": [-5.3076323722250764, 5.562399827052644e-5, -1.6393589503277257]
      },
      {
        "species": [{ "element": "Tl", "occu": 1 }],
        "abc": [0.24999915, -3.209999999999999e-6, 0.40181906],
        "properties": { "magmom": 0.0 },
        "label": "Tl",
        "xyz": [-1.782662921953739, 3.0876561466353896, -1.6393570486670834]
      }
    ]
  },
  "task_ids": null,
  "uncorrected_energy_per_atom": null,
  "energy_per_atom": -4.033130522500002,
  "formation_energy_per_atom": -0.289004222500003,
  "energy_above_hull": 0.0,
  "is_stable": true,
  "equilibrium_reaction_energy_per_atom": null,
  "decomposes_to": null,
  "xas": null,
  "grain_boundaries": null,
  "band_gap": 0.0,
  "cbm": null,
  "vbm": null,
  "efermi": 4.36323562,
  "is_gap_direct": null,
  "is_metal": null,
  "es_source_calc_id": null,
  "bandstructure": null,
  "dos": null,
  "dos_energy_up": null,
  "dos_energy_down": null,
  "is_magnetic": null,
  "ordering": null,
  "total_magnetization": 1.3700000000000003e-5,
  "total_magnetization_normalized_vol": null,
  "total_magnetization_normalized_formula_units": null,
  "num_magnetic_sites": null,
  "num_unique_magnetic_sites": null,
  "types_of_magnetic_species": null,
  "bulk_modulus": null,
  "shear_modulus": null,
  "universal_anisotropy": null,
  "homogeneous_poisson": null,
  "e_total": null,
  "e_ionic": null,
  "e_electronic": null,
  "n": null,
  "e_ij_max": null,
  "weighted_surface_energy_EV_PER_ANG2": null,
  "weighted_surface_energy": null,
  "weighted_work_function": null,
  "surface_anisotropy": null,
  "shape_factor": null,
  "has_reconstructed": null,
  "possible_species": null,
  "has_props": null,
  "theoretical": null,
  "database_IDs": null,
  "fields_not_requested": [
    "builder_meta",
    "nsites",
    "elements",
    "nelements",
    "composition",
    "composition_reduced",
    "chemsys",
    "symmetry",
    "property_name",
    "deprecated",
    "deprecation_reasons",
    "last_updated",
    "origins",
    "warnings",
    "task_ids",
    "uncorrected_energy_per_atom",
    "equilibrium_reaction_energy_per_atom",
    "decomposes_to",
    "xas",
    "grain_boundaries",
    "cbm",
    "vbm",
    "is_gap_direct",
    "is_metal",
    "es_source_calc_id",
    "bandstructure",
    "dos",
    "dos_energy_up",
    "dos_energy_down",
    "is_magnetic",
    "ordering",
    "total_magnetization_normalized_vol",
    "total_magnetization_normalized_formula_units",
    "num_magnetic_sites",
    "num_unique_magnetic_sites",
    "types_of_magnetic_species",
    "bulk_modulus",
    "shear_modulus",
    "universal_anisotropy",
    "homogeneous_poisson",
    "e_total",
    "e_ionic",
    "e_electronic",
    "n",
    "e_ij_max",
    "weighted_surface_energy_EV_PER_ANG2",
    "weighted_surface_energy",
    "weighted_work_function",
    "surface_anisotropy",
    "shape_factor",
    "has_reconstructed",
    "possible_species",
    "has_props",
    "theoretical",
    "database_IDs"
  ]
}
