{
  "builder_meta": null,
  "nsites": null,
  "elements": null,
  "nelements": null,
  "composition": null,
  "composition_reduced": null,
  "formula_pretty": "Er6I7",
  "formula_anonymous": "A6B7",
  "chemsys": null,
  "volume": 459.6267959464488,
  "density": 6.835000616319358,
  "density_atomic": 35.35590738049606,
  "symmetry": null,
  "property_name": null,
  "material_id": "mp-571258",
  "deprecated": null,
  "deprecation_reasons": null,
  "last_updated": null,
  "origins": null,
  "warnings": null,
  "structure": {
    "@module": "pymatgen.core.structure",
    "@class": "Structure",
    "charge": 0,
    "lattice": {
      "matrix": [
        [1.975361, 11.039651, 0.0],
        [-1.975361, 11.039651, 0.0],
        [0.0, 6.669733, 10.538372]
      ],
      "pbc": [true, true, true],
      "a": 11.214987529289633,
      "b": 11.214987529289633,
      "c": 12.471672810881184,
      "alpha": 58.23546777954219,
      "beta": 58.23546777954219,
      "gamma": 20.289524910047145,
      "volume": 459.6267959464488
    },
    "properties": {},
    "sites": [
      {
        "species": [{ "element": "Er", "occu": 1 }],
        "abc": [0.132302, 0.132302, 0.446820999999999],
        "properties": { "magmom": 0.23900000000000002 },
        "label": "Er",
        "xyz": [0.0, 5.901312581996994, 4.70876591541199]
      },
      {
        "species": [{ "element": "Er", "occu": 1 }],
        "abc": [0.312287, 0.312287, 0.375940999999999],
        "properties": { "magmom": 0.278 },
        "label": "Er",
        "xyz": [0.0, 9.402505077426992, 3.96180610805199]
      },
      {
        "species": [{ "element": "Er", "occu": 1 }],
        "abc": [0.763355, 0.763355, 0.194084999999999],
        "properties": { "magmom": 0.14100000000000001 },
        "label": "Er",
        "xyz": [0.0, 18.148840707514992, 2.0453399296199897]
      },
      {
        "species": [{ "element": "Er", "occu": 1 }],
        "abc": [0.687713, 0.687713, 0.624058999999999],
        "properties": { "magmom": 0.278 },
        "label": "Er",
        "xyz": [0.0, 19.34652992257299, 6.576565891947991]
      },
      {
        "species": [{ "element": "Er", "occu": 1 }],
        "abc": [0.236645, 0.236645, 0.805914999999999],
        "properties": { "magmom": 0.14100000000000001 },
        "label": "Er",
        "xyz": [0.0, 10.600194292484993, 8.493032070379991]
      },
      {
        "species": [{ "element": "Er", "occu": 1 }],
        "abc": [0.867698, 0.867698, 0.553179],
        "properties": { "magmom": 0.23900000000000002 },
        "label": "Er",
        "xyz": [0.0, 22.847722418003, 5.829606084588]
      },
      {
        "species": [{ "element": "I", "occu": 1 }],
        "abc": [0.613261, 0.613261, 0.931962],
        "properties": { "magmom": 0.002 },
        "label": "I",
        "xyz": [0.0, 19.756312529967996, 9.821362245864]
      },
      {
        "species": [{ "element": "I", "occu": 1 }],
        "abc": [0.165472999999999, 0.165472999999999, 0.165464],
        "properties": { "magmom": 0.003 },
        "label": "I",
        "xyz": [0.0, 4.757129040957977, 1.743721184608]
      },
      {
        "species": [{ "element": "I", "occu": 1 }],
        "abc": [0.834526999999999, 0.834526999999999, 0.834536],
        "properties": { "magmom": 0.003 },
        "label": "I",
        "xyz": [0.0, 23.991905959041976, 8.794650815392]
      },
      {
        "species": [{ "element": "I", "occu": 1 }],
        "abc": [0.386739, 0.386739, 0.068038],
        "properties": { "magmom": 0.002 },
        "label": "I",
        "xyz": [0.0, 8.992722470032, 0.7170097541360001]
      },
      {
        "species": [{ "element": "I", "occu": 1 }],
        "abc": [0.053485, 0.053485, 0.729839],
        "properties": { "magmom": 0.004 },
        "label": "I",
        "xyz": [0.0, 6.048742730457, 7.691314882108001]
      },
      {
        "species": [{ "element": "I", "occu": 1 }],
        "abc": [0.5, 0.5, 0.5],
        "properties": { "magmom": -0.0 },
        "label": "I",
        "xyz": [0.0, 14.3745175, 5.269186]
      },
      {
        "species": [{ "element": "I", "occu": 1 }],
        "abc": [0.946515, 0.946515, 0.270161],
        "properties": { "magmom": 0.004 },
        "label": "I",
        "xyz": [0.0, 22.700292269543, 2.847057117892]
      }
    ]
  },
  "task_ids": null,
  "uncorrected_energy_per_atom": null,
  "energy_per_atom": -4.014435833846154,
  "formation_energy_per_atom": -1.085635744230768,
  "energy_above_hull": 0.08276844089743601,
  "is_stable": false,
  "equilibrium_reaction_energy_per_atom": null,
  "decomposes_to": null,
  "xas": null,
  "grain_boundaries": null,
  "band_gap": 0.0,
  "cbm": null,
  "vbm": null,
  "efermi": 4.43962902,
  "is_gap_direct": null,
  "is_metal": null,
  "es_source_calc_id": null,
  "bandstructure": null,
  "dos": null,
  "dos_energy_up": null,
  "dos_energy_down": null,
  "is_magnetic": null,
  "ordering": null,
  "total_magnetization": 1.8902545,
  "total_magnetization_normalized_vol": null,
  "total_magnetization_normalized_formula_units": null,
  "num_magnetic_sites": null,
  "num_unique_magnetic_sites": null,
  "types_of_magnetic_species": null,
  "bulk_modulus": null,
  "shear_modulus": null,
  "universal_anisotropy": null,
  "homogeneous_poisson": null,
  "e_total": null,
  "e_ionic": null,
  "e_electronic": null,
  "n": null,
  "e_ij_max": null,
  "weighted_surface_energy_EV_PER_ANG2": null,
  "weighted_surface_energy": null,
  "weighted_work_function": null,
  "surface_anisotropy": null,
  "shape_factor": null,
  "has_reconstructed": null,
  "possible_species": null,
  "has_props": null,
  "theoretical": null,
  "database_IDs": null,
  "fields_not_requested": [
    "builder_meta",
    "nsites",
    "elements",
    "nelements",
    "composition",
    "composition_reduced",
    "chemsys",
    "symmetry",
    "property_name",
    "deprecated",
    "deprecation_reasons",
    "last_updated",
    "origins",
    "warnings",
    "task_ids",
    "uncorrected_energy_per_atom",
    "equilibrium_reaction_energy_per_atom",
    "decomposes_to",
    "xas",
    "grain_boundaries",
    "cbm",
    "vbm",
    "is_gap_direct",
    "is_metal",
    "es_source_calc_id",
    "bandstructure",
    "dos",
    "dos_energy_up",
    "dos_energy_down",
    "is_magnetic",
    "ordering",
    "total_magnetization_normalized_vol",
    "total_magnetization_normalized_formula_units",
    "num_magnetic_sites",
    "num_unique_magnetic_sites",
    "types_of_magnetic_species",
    "bulk_modulus",
    "shear_modulus",
    "universal_anisotropy",
    "homogeneous_poisson",
    "e_total",
    "e_ionic",
    "e_electronic",
    "n",
    "e_ij_max",
    "weighted_surface_energy_EV_PER_ANG2",
    "weighted_surface_energy",
    "weighted_work_function",
    "surface_anisotropy",
    "shape_factor",
    "has_reconstructed",
    "possible_species",
    "has_props",
    "theoretical",
    "database_IDs"
  ]
}
