{
  "builder_meta": null,
  "nsites": null,
  "elements": null,
  "nelements": null,
  "composition": null,
  "composition_reduced": null,
  "formula_pretty": "Er7Rh3",
  "formula_anonymous": "A3B7",
  "chemsys": null,
  "volume": 491.7446558838792,
  "density": 9.992244981376341,
  "density_atomic": 24.58723279419396,
  "symmetry": null,
  "property_name": null,
  "material_id": "mp-30612",
  "deprecated": null,
  "deprecation_reasons": null,
  "last_updated": null,
  "origins": null,
  "warnings": null,
  "structure": {
    "@module": "pymatgen.core.structure",
    "@class": "Structure",
    "charge": 0,
    "lattice": {
      "matrix": [
        [9.651011950000001, -6.089999999999998e-6, 8.599999999999999e-7],
        [-4.82551063, 8.35802663, -1.16e-6],
        [5.4e-7, -5.3e-7, 6.0962561]
      ],
      "pbc": [true, true, true],
      "a": 9.65101195000196,
      "b": 9.651018702087024,
      "c": 6.096256100000047,
      "alpha": 90.00001373810063,
      "beta": 89.99998981917956,
      "gamma": 120.00004492236977,
      "volume": 491.74465588387926
    },
    "properties": {},
    "sites": [
      {
        "species": [{ "element": "Er", "occu": 1 }],
        "abc": [0.75242265, 0.87621127, 0.99022847],
        "properties": { "magmom": -0.0 },
        "label": "Er",
        "xyz": [3.0334737238132408, 7.3233920210910926, 6.036685981309573]
      },
      {
        "species": [{ "element": "Er", "occu": 1 }],
        "abc": [0.87621093, 0.12378859, 0.49022665],
        "properties": { "magmom": -0.0 },
        "label": "Er",
        "xyz": [7.858979263955293, 1.0346227357654634, 2.9885478153917]
      },
      {
        "species": [{ "element": "Er", "occu": 1 }],
        "abc": [0.54148364, 0.45851655, 0.7989192900000001],
        "properties": { "magmom": 0.0 },
        "label": "Er",
        "xyz": [3.0132890257299896, 3.8322898141331354, 4.870416528866901]
      },
      {
        "species": [{ "element": "Er", "occu": 1 }],
        "abc": [0.08296634, 0.54148399, 0.29891778],
        "properties": { "magmom": 0.0 },
        "label": "Er",
        "xyz": [-1.8122274495164497, 4.52573694444722, 1.822278782953082]
      },
      {
        "species": [{ "element": "Er", "occu": 1 }],
        "abc": [0.45851616, 0.91703377, 0.29891787000000003],
        "properties": { "magmom": 0.0 },
        "label": "Er",
        "xyz": [-1.1104360212612397e-5, 7.664589719479409, 1.8222792189512313]
      },
      {
        "species": [{ "element": "Er", "occu": 1 }],
        "abc": [0.54148355, 0.08296697, 0.7989178],
        "properties": { "magmom": 0.0 },
        "label": "Er",
        "xyz": [4.825506647520144, 0.6934364236091575, 4.870407881082747]
      },
      {
        "species": [{ "element": "Er", "occu": 1 }],
        "abc": [0.91703341, 0.45851669, 0.79891769],
        "properties": { "magmom": 0.0 },
        "label": "Er",
        "xyz": [6.6377236682473875, 3.832288697159612, 4.870407097829781]
      },
      {
        "species": [{ "element": "Er", "occu": 1 }],
        "abc": [0.45851619, 0.54148414, 0.29891948],
        "properties": { "magmom": 0.0 },
        "label": "Er",
        "xyz": [1.8122079168285814, 4.525735911051726, 1.8222894695611491]
      },
      {
        "species": [{ "element": "Er", "occu": 1 }],
        "abc": [0.12378942, 0.2475778, 0.99022736],
        "properties": { "magmom": -0.0 },
        "label": "Er",
        "xyz": [4.400774329512549e-6, 2.069260566698745, 6.036679403055548]
      },
      {
        "species": [{ "element": "Er", "occu": 1 }],
        "abc": [0.87621053, 0.7524226700000001, 0.49022734],
        "properties": { "magmom": -0.0 },
        "label": "Er",
        "xyz": [4.825494968130616, 6.288763116933085, 2.988551292592532]
      },
      {
        "species": [{ "element": "Er", "occu": 1 }],
        "abc": [0.24757722000000001, 0.12378938, 0.49022851],
        "properties": { "magmom": -0.0 },
        "label": "Er",
        "xyz": [1.7920240044200655, 1.0346331669848092, 2.988558613802139]
      },
      {
        "species": [{ "element": "Er", "occu": 1 }],
        "abc": [0.12378869, 0.87621176, 0.99022667],
        "properties": { "magmom": -0.0 },
        "label": "Er",
        "xyz": [-3.033482500823762, 7.323399944905911, 6.036674467422818]
      },
      {
        "species": [{ "element": "Er", "occu": 1 }],
        "abc": [0.6666657500000001, 0.33333352, 0.2842477],
        "properties": { "magmom": 0.0 },
        "label": "Er",
        "xyz": [4.825494829304154, 2.786006226185939, 1.7328469617016318]
      },
      {
        "species": [{ "element": "Er", "occu": 1 }],
        "abc": [0.33333392, 0.66666681, 0.7842480900000001],
        "properties": { "magmom": 0.0 },
        "label": "Er",
        "xyz": [2.2904311223605173e-6, 5.57201650566209, 4.780976715909521]
      },
      {
        "species": [{ "element": "Rh", "occu": 1 }],
        "abc": [0.18962872, 0.8103732, 0.563439799999999],
        "properties": { "magmom": 0.0 },
        "label": "Rh",
        "xyz": [-2.08035514382642, 6.773119332376317, 3.434872540780561]
      },
      {
        "species": [{ "element": "Rh", "occu": 1 }],
        "abc": [0.37925325, 0.18962623, 0.06343782],
        "properties": { "magmom": 0.0 },
        "label": "Rh",
        "xyz": [2.7451342934909357, 1.5848987368121676, 0.38673330333707023]
      },
      {
        "species": [{ "element": "Rh", "occu": 1 }],
        "abc": [0.81037346, 0.62074755, 0.06343831],
        "properties": { "magmom": 0.0 },
        "label": "Rh",
        "xyz": [4.825500079608077, 5.188219584610581, 0.38673616116520854]
      },
      {
        "species": [{ "element": "Rh", "occu": 1 }],
        "abc": [0.18962492, 0.3792512, 0.56343761],
        "properties": { "magmom": -0.0 },
        "label": "Rh",
        "xyz": [-8.02384615247421e-6, 3.1697901756217592, 3.4348596900779604]
      },
      {
        "species": [{ "element": "Rh", "occu": 1 }],
        "abc": [0.62074713, 0.81037465, 0.5634386],
        "properties": { "magmom": 0.0 },
        "label": "Rh",
        "xyz": [2.0803667859575192, 6.773128826004449, 3.4348655960333976]
      },
      {
        "species": [{ "element": "Rh", "occu": 1 }],
        "abc": [0.81037412, 0.18962426000000002, 0.06343716],
        "properties": { "magmom": -0.0 },
        "label": "Rh",
        "xyz": [6.905896468010917, 1.5848796459739583, 0.3867296505742776]
      }
    ]
  },
  "task_ids": null,
  "uncorrected_energy_per_atom": null,
  "energy_per_atom": -6.054396678000001,
  "formation_energy_per_atom": -0.6477011499999991,
  "energy_above_hull": 0.0,
  "is_stable": true,
  "equilibrium_reaction_energy_per_atom": null,
  "decomposes_to": null,
  "xas": null,
  "grain_boundaries": null,
  "band_gap": 0.0,
  "cbm": null,
  "vbm": null,
  "efermi": 3.89343713,
  "is_gap_direct": null,
  "is_metal": null,
  "es_source_calc_id": null,
  "bandstructure": null,
  "dos": null,
  "dos_energy_up": null,
  "dos_energy_down": null,
  "is_magnetic": null,
  "ordering": null,
  "total_magnetization": 3.7e-6,
  "total_magnetization_normalized_vol": null,
  "total_magnetization_normalized_formula_units": null,
  "num_magnetic_sites": null,
  "num_unique_magnetic_sites": null,
  "types_of_magnetic_species": null,
  "bulk_modulus": null,
  "shear_modulus": null,
  "universal_anisotropy": null,
  "homogeneous_poisson": null,
  "e_total": null,
  "e_ionic": null,
  "e_electronic": null,
  "n": null,
  "e_ij_max": null,
  "weighted_surface_energy_EV_PER_ANG2": null,
  "weighted_surface_energy": null,
  "weighted_work_function": null,
  "surface_anisotropy": null,
  "shape_factor": null,
  "has_reconstructed": null,
  "possible_species": null,
  "has_props": null,
  "theoretical": null,
  "database_IDs": null,
  "fields_not_requested": [
    "builder_meta",
    "nsites",
    "elements",
    "nelements",
    "composition",
    "composition_reduced",
    "chemsys",
    "symmetry",
    "property_name",
    "deprecated",
    "deprecation_reasons",
    "last_updated",
    "origins",
    "warnings",
    "task_ids",
    "uncorrected_energy_per_atom",
    "equilibrium_reaction_energy_per_atom",
    "decomposes_to",
    "xas",
    "grain_boundaries",
    "cbm",
    "vbm",
    "is_gap_direct",
    "is_metal",
    "es_source_calc_id",
    "bandstructure",
    "dos",
    "dos_energy_up",
    "dos_energy_down",
    "is_magnetic",
    "ordering",
    "total_magnetization_normalized_vol",
    "total_magnetization_normalized_formula_units",
    "num_magnetic_sites",
    "num_unique_magnetic_sites",
    "types_of_magnetic_species",
    "bulk_modulus",
    "shear_modulus",
    "universal_anisotropy",
    "homogeneous_poisson",
    "e_total",
    "e_ionic",
    "e_electronic",
    "n",
    "e_ij_max",
    "weighted_surface_energy_EV_PER_ANG2",
    "weighted_surface_energy",
    "weighted_work_function",
    "surface_anisotropy",
    "shape_factor",
    "has_reconstructed",
    "possible_species",
    "has_props",
    "theoretical",
    "database_IDs"
  ]
}
