{
  "builder_meta": null,
  "nsites": null,
  "elements": null,
  "nelements": null,
  "composition": null,
  "composition_reduced": null,
  "formula_pretty": "ErAl",
  "formula_anonymous": "AB",
  "chemsys": null,
  "volume": 361.39977177377864,
  "density": 7.139882819065519,
  "density_atomic": 22.587485735861165,
  "symmetry": null,
  "property_name": null,
  "material_id": "mp-1188739",
  "deprecated": null,
  "deprecation_reasons": null,
  "last_updated": null,
  "origins": null,
  "warnings": null,
  "structure": {
    "@module": "pymatgen.core.structure",
    "@class": "Structure",
    "charge": 0,
    "lattice": {
      "matrix": [
        [1.5350000000000004e-5, 4.919999999999999e-6, 5.550103659999999],
        [5.7705967, 7.563e-5, 1.5960000000000003e-5],
        [0.00014763, 11.2840774, 9.88e-6]
      ],
      "pbc": [true, true, true],
      "a": 5.550103660023406,
      "b": 5.770596700517678,
      "c": 11.284077400970048,
      "alpha": 89.99849947302586,
      "beta": 89.99989904047375,
      "gamma": 89.99968307006263,
      "volume": 361.3997717737786
    },
    "properties": {},
    "sites": [
      {
        "species": [{ "element": "Er", "occu": 1 }],
        "abc": [0.7500000800000001, 0.16183861, 0.48379048],
        "properties": { "magmom": -0.0 },
        "label": "Er",
        "xyz": [0.9339882832883772, 5.459145151557619, 4.162585551802451]
      },
      {
        "species": [{ "element": "Er", "occu": 1 }],
        "abc": [0.24999992000000001, 0.83816139, 0.51620352],
        "properties": { "magmom": -0.0 },
        "label": "Er",
        "xyz": [4.836771395825843, 5.8249450939779805, 1.387543948138269]
      },
      {
        "species": [{ "element": "Er", "occu": 1 }],
        "abc": [0.2500005, 0.1618179, 0.01620003],
        "properties": { "magmom": -0.0 },
        "label": "Er",
        "xyz": [0.9337920688590338, 0.18281586069255898, 1.3875314327218102]
      },
      {
        "species": [{ "element": "Er", "occu": 1 }],
        "abc": [0.7500005, 0.8381841, 0.98380397],
        "properties": { "magmom": -0.0 },
        "label": "Er",
        "xyz": [4.836979152940235, 11.10138722577322, 4.162603617453288]
      },
      {
        "species": [{ "element": "Er", "occu": 1 }],
        "abc": [0.74999927, 0.40033554, 0.16798688],
        "properties": { "magmom": -0.0 },
        "label": "Er",
        "xyz": [2.3102112584086067, 1.8956109234778105, 4.16258174248992]
      },
      {
        "species": [{ "element": "Er", "occu": 1 }],
        "abc": [0.25000073, 0.59966646, 0.83201512],
        "properties": { "magmom": -0.0 },
        "label": "Er",
        "xyz": [3.460559963080053, 9.38856959482825, 1.3875477575617587]
      },
      {
        "species": [{ "element": "Er", "occu": 1 }],
        "abc": [0.24999978, 0.4003303, 0.33196132],
        "properties": { "magmom": -0.0 },
        "label": "Er",
        "xyz": [2.3101975530363044, 3.7459087356656746, 1.3875343630266241]
      },
      {
        "species": [{ "element": "Er", "occu": 1 }],
        "abc": [0.75000022, 0.5996667, 0.66803568],
        "properties": { "magmom": -0.0 },
        "label": "Er",
        "xyz": [3.4605448147307047, 7.538215361875235, 4.162595136895854]
      },
      {
        "species": [{ "element": "Al", "occu": 1 }],
        "abc": [0.50000411, 0.93126858, 0.24998381],
        "properties": { "magmom": 0.0 },
        "label": "Al",
        "xyz": [5.374019974734644, 2.8209095526498205, 2.7750919738126214]
      },
      {
        "species": [{ "element": "Al", "occu": 1 }],
        "abc": [4.039999999999999e-6, 0.06873227, 0.75001607],
        "properties": { "magmom": 0.0 },
        "label": "Al",
        "xyz": [0.39673693537993704, 8.463244583365274, 3.092954458719999e-5]
      },
      {
        "species": [{ "element": "Al", "occu": 1 }],
        "abc": [0.49999589, 0.06873242, 0.75001619],
        "properties": { "magmom": 0.0 },
        "label": "Al",
        "xyz": [0.39674547586205516, 8.46324839742581, 2.775037526203337]
      },
      {
        "species": [{ "element": "Al", "occu": 1 }],
        "abc": [0.99999496, 0.93126873, 0.24998393],
        "properties": { "magmom": 0.0 },
        "label": "Al",
        "xyz": [5.374028515201412, 2.820913366705435, 5.5500930203677115]
      },
      {
        "species": [{ "element": "Al", "occu": 1 }],
        "abc": [0.74999857, 0.66088883, 0.40228336000000003],
        "properties": { "magmom": 0.0 },
        "label": "Al",
        "xyz": [3.813793803035347, 4.5394502439872415, 4.162584330697089]
      },
      {
        "species": [{ "element": "Al", "occu": 1 }],
        "abc": [0.25000043, 0.33911017, 0.59771364],
        "properties": { "magmom": 0.0 },
        "label": "Al",
        "xyz": [1.9569601059097124, 6.744673853700009, 1.38753961915365]
      },
      {
        "species": [{ "element": "Al", "occu": 1 }],
        "abc": [0.25000784, 0.66090338, 0.09769971],
        "properties": { "magmom": 0.0 },
        "label": "Al",
        "xyz": [3.8138251246753776, 1.102502303758756, 1.3875809411037736]
      },
      {
        "species": [{ "element": "Al", "occu": 1 }],
        "abc": [0.74999216, 0.33909862, 0.90230329],
        "properties": { "magmom": 0.0 },
        "label": "Al",
        "xyz": [1.9569460969609127, 10.181689498624703, 4.162548558957786]
      }
    ]
  },
  "task_ids": null,
  "uncorrected_energy_per_atom": null,
  "energy_per_atom": -20.79769777,
  "formation_energy_per_atom": -0.46893102166666606,
  "energy_above_hull": 0.0,
  "is_stable": true,
  "equilibrium_reaction_energy_per_atom": null,
  "decomposes_to": null,
  "xas": null,
  "grain_boundaries": null,
  "band_gap": 0.0,
  "cbm": null,
  "vbm": null,
  "efermi": 4.61644609,
  "is_gap_direct": null,
  "is_metal": null,
  "es_source_calc_id": null,
  "bandstructure": null,
  "dos": null,
  "dos_energy_up": null,
  "dos_energy_down": null,
  "is_magnetic": null,
  "ordering": null,
  "total_magnetization": 8e-7,
  "total_magnetization_normalized_vol": null,
  "total_magnetization_normalized_formula_units": null,
  "num_magnetic_sites": null,
  "num_unique_magnetic_sites": null,
  "types_of_magnetic_species": null,
  "bulk_modulus": null,
  "shear_modulus": null,
  "universal_anisotropy": null,
  "homogeneous_poisson": null,
  "e_total": null,
  "e_ionic": null,
  "e_electronic": null,
  "n": null,
  "e_ij_max": null,
  "weighted_surface_energy_EV_PER_ANG2": null,
  "weighted_surface_energy": null,
  "weighted_work_function": null,
  "surface_anisotropy": null,
  "shape_factor": null,
  "has_reconstructed": null,
  "possible_species": null,
  "has_props": null,
  "theoretical": null,
  "database_IDs": null,
  "fields_not_requested": [
    "builder_meta",
    "nsites",
    "elements",
    "nelements",
    "composition",
    "composition_reduced",
    "chemsys",
    "symmetry",
    "property_name",
    "deprecated",
    "deprecation_reasons",
    "last_updated",
    "origins",
    "warnings",
    "task_ids",
    "uncorrected_energy_per_atom",
    "equilibrium_reaction_energy_per_atom",
    "decomposes_to",
    "xas",
    "grain_boundaries",
    "cbm",
    "vbm",
    "is_gap_direct",
    "is_metal",
    "es_source_calc_id",
    "bandstructure",
    "dos",
    "dos_energy_up",
    "dos_energy_down",
    "is_magnetic",
    "ordering",
    "total_magnetization_normalized_vol",
    "total_magnetization_normalized_formula_units",
    "num_magnetic_sites",
    "num_unique_magnetic_sites",
    "types_of_magnetic_species",
    "bulk_modulus",
    "shear_modulus",
    "universal_anisotropy",
    "homogeneous_poisson",
    "e_total",
    "e_ionic",
    "e_electronic",
    "n",
    "e_ij_max",
    "weighted_surface_energy_EV_PER_ANG2",
    "weighted_surface_energy",
    "weighted_work_function",
    "surface_anisotropy",
    "shape_factor",
    "has_reconstructed",
    "possible_species",
    "has_props",
    "theoretical",
    "database_IDs"
  ]
}
