{
  "builder_meta": null,
  "nsites": null,
  "elements": null,
  "nelements": null,
  "composition": null,
  "composition_reduced": null,
  "formula_pretty": "ErAl3",
  "formula_anonymous": "AB3",
  "chemsys": null,
  "volume": 151.43189268330363,
  "density": 5.4433949573519325,
  "density_atomic": 18.928986585412954,
  "symmetry": null,
  "property_name": null,
  "material_id": "mp-1184171",
  "deprecated": null,
  "deprecation_reasons": null,
  "last_updated": null,
  "origins": null,
  "warnings": null,
  "structure": {
    "@module": "pymatgen.core.structure",
    "@class": "Structure",
    "charge": 0,
    "lattice": {
      "matrix": [
        [3.0869321, -5.34672339, 0.0],
        [3.0869321, 5.34672339, -0.0],
        [0.0, -0.0, 4.5874628600000005]
      ],
      "pbc": [true, true, true],
      "a": 6.173864332748453,
      "b": 6.173864332748453,
      "c": 4.5874628600000005,
      "alpha": 90.0,
      "beta": 90.0,
      "gamma": 120.0000014225397,
      "volume": 151.43189268330366
    },
    "properties": {},
    "sites": [
      {
        "species": [{ "element": "Er", "occu": 1 }],
        "abc": [0.666667, 0.333333, 0.25],
        "properties": { "magmom": -0.0 },
        "label": "Er",
        "xyz": [3.0869321000000003, -1.7822446944822603, 1.1468657150000001]
      },
      {
        "species": [{ "element": "Er", "occu": 1 }],
        "abc": [0.333333, 0.666667, 0.75],
        "properties": { "magmom": -0.0 },
        "label": "Er",
        "xyz": [3.0869321000000003, 1.7822446944822603, 3.4405971450000004]
      },
      {
        "species": [{ "element": "Al", "occu": 1 }],
        "abc": [0.85219718, 0.14780282, 0.75],
        "properties": { "magmom": 0.0 },
        "label": "Al",
        "xyz": [3.0869321, -3.76620180039608, 3.4405971450000004]
      },
      {
        "species": [{ "element": "Al", "occu": 1 }],
        "abc": [0.29560464000000003, 0.14780282, 0.75],
        "properties": { "magmom": 0.0 },
        "label": "Al",
        "xyz": [1.368768721653466, -0.7902554480785698, 3.4405971450000004]
      },
      {
        "species": [{ "element": "Al", "occu": 1 }],
        "abc": [0.85219718, 0.70439536, 0.75],
        "properties": { "magmom": 0.0 },
        "label": "Al",
        "xyz": [4.805095478346534, -0.7902554480785695, 3.4405971450000004]
      },
      {
        "species": [{ "element": "Al", "occu": 1 }],
        "abc": [0.14780282, 0.85219718, 0.25],
        "properties": { "magmom": 0.0 },
        "label": "Al",
        "xyz": [3.0869321, 3.76620180039608, 1.1468657150000001]
      },
      {
        "species": [{ "element": "Al", "occu": 1 }],
        "abc": [0.70439536, 0.85219718, 0.25],
        "properties": { "magmom": 0.0 },
        "label": "Al",
        "xyz": [4.805095478346534, 0.7902554480785695, 1.1468657150000001]
      },
      {
        "species": [{ "element": "Al", "occu": 1 }],
        "abc": [0.14780282, 0.29560464000000003, 0.25],
        "properties": { "magmom": 0.0 },
        "label": "Al",
        "xyz": [1.368768721653466, 0.7902554480785698, 1.1468657150000001]
      }
    ]
  },
  "task_ids": null,
  "uncorrected_energy_per_atom": null,
  "energy_per_atom": -13.99076543375,
  "formation_energy_per_atom": -0.46033289458333104,
  "energy_above_hull": 0.0,
  "is_stable": true,
  "equilibrium_reaction_energy_per_atom": null,
  "decomposes_to": null,
  "xas": null,
  "grain_boundaries": null,
  "band_gap": 0.0,
  "cbm": null,
  "vbm": null,
  "efermi": 6.05091383,
  "is_gap_direct": null,
  "is_metal": null,
  "es_source_calc_id": null,
  "bandstructure": null,
  "dos": null,
  "dos_energy_up": null,
  "dos_energy_down": null,
  "is_magnetic": null,
  "ordering": null,
  "total_magnetization": 4e-7,
  "total_magnetization_normalized_vol": null,
  "total_magnetization_normalized_formula_units": null,
  "num_magnetic_sites": null,
  "num_unique_magnetic_sites": null,
  "types_of_magnetic_species": null,
  "bulk_modulus": null,
  "shear_modulus": null,
  "universal_anisotropy": null,
  "homogeneous_poisson": null,
  "e_total": null,
  "e_ionic": null,
  "e_electronic": null,
  "n": null,
  "e_ij_max": null,
  "weighted_surface_energy_EV_PER_ANG2": null,
  "weighted_surface_energy": null,
  "weighted_work_function": null,
  "surface_anisotropy": null,
  "shape_factor": null,
  "has_reconstructed": null,
  "possible_species": null,
  "has_props": null,
  "theoretical": null,
  "database_IDs": null,
  "fields_not_requested": [
    "builder_meta",
    "nsites",
    "elements",
    "nelements",
    "composition",
    "composition_reduced",
    "chemsys",
    "symmetry",
    "property_name",
    "deprecated",
    "deprecation_reasons",
    "last_updated",
    "origins",
    "warnings",
    "task_ids",
    "uncorrected_energy_per_atom",
    "equilibrium_reaction_energy_per_atom",
    "decomposes_to",
    "xas",
    "grain_boundaries",
    "cbm",
    "vbm",
    "is_gap_direct",
    "is_metal",
    "es_source_calc_id",
    "bandstructure",
    "dos",
    "dos_energy_up",
    "dos_energy_down",
    "is_magnetic",
    "ordering",
    "total_magnetization_normalized_vol",
    "total_magnetization_normalized_formula_units",
    "num_magnetic_sites",
    "num_unique_magnetic_sites",
    "types_of_magnetic_species",
    "bulk_modulus",
    "shear_modulus",
    "universal_anisotropy",
    "homogeneous_poisson",
    "e_total",
    "e_ionic",
    "e_electronic",
    "n",
    "e_ij_max",
    "weighted_surface_energy_EV_PER_ANG2",
    "weighted_surface_energy",
    "weighted_work_function",
    "surface_anisotropy",
    "shape_factor",
    "has_reconstructed",
    "possible_species",
    "has_props",
    "theoretical",
    "database_IDs"
  ]
}
