{
  "builder_meta": null,
  "nsites": null,
  "elements": null,
  "nelements": null,
  "composition": null,
  "composition_reduced": null,
  "formula_pretty": "ErAs3",
  "formula_anonymous": "AB3",
  "chemsys": null,
  "volume": 169.4756835680795,
  "density": 7.682173881605683,
  "density_atomic": 21.184460446009936,
  "symmetry": null,
  "property_name": null,
  "material_id": "mp-1184175",
  "deprecated": null,
  "deprecation_reasons": null,
  "last_updated": null,
  "origins": null,
  "warnings": null,
  "structure": {
    "@module": "pymatgen.core.structure",
    "@class": "Structure",
    "charge": 0,
    "lattice": {
      "matrix": [
        [2.991277, -5.181044, 0.0],
        [2.991277, 5.181044, 0.0],
        [0.0, 0.0, 5.467685]
      ],
      "pbc": [true, true, true],
      "a": 5.982554222124944,
      "b": 5.982554222124944,
      "c": 5.467685,
      "alpha": 90.0,
      "beta": 90.0,
      "gamma": 120.00000245642036,
      "volume": 169.4756835680795
    },
    "properties": {},
    "sites": [
      {
        "species": [{ "element": "Er", "occu": 1 }],
        "abc": [0.333333, 0.666667, 0.75],
        "properties": { "magmom": -0.0 },
        "label": "Er",
        "xyz": [2.991277, 1.727018120696, 4.1007637500000005]
      },
      {
        "species": [{ "element": "Er", "occu": 1 }],
        "abc": [0.666667, 0.333333, 0.25],
        "properties": { "magmom": -0.0 },
        "label": "Er",
        "xyz": [2.991277, -1.727018120696, 1.36692125]
      },
      {
        "species": [{ "element": "As", "occu": 1 }],
        "abc": [0.181638, 0.363276, 0.25],
        "properties": { "magmom": 0.0 },
        "label": "As",
        "xyz": [1.6299887151780001, 0.941074470072, 1.36692125]
      },
      {
        "species": [{ "element": "As", "occu": 1 }],
        "abc": [0.636724, 0.818361999999999, 0.25],
        "properties": { "magmom": 0.0 },
        "label": "As",
        "xyz": [4.352565284821997, 0.9410744700719955, 1.36692125]
      },
      {
        "species": [{ "element": "As", "occu": 1 }],
        "abc": [0.181638, 0.818361999999999, 0.25],
        "properties": { "magmom": 0.0 },
        "label": "As",
        "xyz": [2.9912769999999975, 3.298895059855995, 1.36692125]
      },
      {
        "species": [{ "element": "As", "occu": 1 }],
        "abc": [0.818361999999999, 0.636724, 0.75],
        "properties": { "magmom": 0.0 },
        "label": "As",
        "xyz": [4.352565284821997, -0.9410744700719955, 4.1007637500000005]
      },
      {
        "species": [{ "element": "As", "occu": 1 }],
        "abc": [0.363276, 0.181638, 0.75],
        "properties": { "magmom": 0.0 },
        "label": "As",
        "xyz": [1.6299887151780001, -0.941074470072, 4.1007637500000005]
      },
      {
        "species": [{ "element": "As", "occu": 1 }],
        "abc": [0.818361999999999, 0.181638, 0.75],
        "properties": { "magmom": 0.0 },
        "label": "As",
        "xyz": [2.9912769999999975, -3.298895059855995, 4.1007637500000005]
      }
    ]
  },
  "task_ids": null,
  "uncorrected_energy_per_atom": null,
  "energy_per_atom": -20.11379205875,
  "formation_energy_per_atom": -0.6017850264583331,
  "energy_above_hull": 0.28893921499999903,
  "is_stable": false,
  "equilibrium_reaction_energy_per_atom": null,
  "decomposes_to": null,
  "xas": null,
  "grain_boundaries": null,
  "band_gap": 0.0,
  "cbm": null,
  "vbm": null,
  "efermi": 5.44481838,
  "is_gap_direct": null,
  "is_metal": null,
  "es_source_calc_id": null,
  "bandstructure": null,
  "dos": null,
  "dos_energy_up": null,
  "dos_energy_down": null,
  "is_magnetic": null,
  "ordering": null,
  "total_magnetization": 0.000174,
  "total_magnetization_normalized_vol": null,
  "total_magnetization_normalized_formula_units": null,
  "num_magnetic_sites": null,
  "num_unique_magnetic_sites": null,
  "types_of_magnetic_species": null,
  "bulk_modulus": null,
  "shear_modulus": null,
  "universal_anisotropy": null,
  "homogeneous_poisson": null,
  "e_total": null,
  "e_ionic": null,
  "e_electronic": null,
  "n": null,
  "e_ij_max": null,
  "weighted_surface_energy_EV_PER_ANG2": null,
  "weighted_surface_energy": null,
  "weighted_work_function": null,
  "surface_anisotropy": null,
  "shape_factor": null,
  "has_reconstructed": null,
  "possible_species": null,
  "has_props": null,
  "theoretical": null,
  "database_IDs": null,
  "fields_not_requested": [
    "builder_meta",
    "nsites",
    "elements",
    "nelements",
    "composition",
    "composition_reduced",
    "chemsys",
    "symmetry",
    "property_name",
    "deprecated",
    "deprecation_reasons",
    "last_updated",
    "origins",
    "warnings",
    "task_ids",
    "uncorrected_energy_per_atom",
    "equilibrium_reaction_energy_per_atom",
    "decomposes_to",
    "xas",
    "grain_boundaries",
    "cbm",
    "vbm",
    "is_gap_direct",
    "is_metal",
    "es_source_calc_id",
    "bandstructure",
    "dos",
    "dos_energy_up",
    "dos_energy_down",
    "is_magnetic",
    "ordering",
    "total_magnetization_normalized_vol",
    "total_magnetization_normalized_formula_units",
    "num_magnetic_sites",
    "num_unique_magnetic_sites",
    "types_of_magnetic_species",
    "bulk_modulus",
    "shear_modulus",
    "universal_anisotropy",
    "homogeneous_poisson",
    "e_total",
    "e_ionic",
    "e_electronic",
    "n",
    "e_ij_max",
    "weighted_surface_energy_EV_PER_ANG2",
    "weighted_surface_energy",
    "weighted_work_function",
    "surface_anisotropy",
    "shape_factor",
    "has_reconstructed",
    "possible_species",
    "has_props",
    "theoretical",
    "database_IDs"
  ]
}
