{"builder_meta": null, "nsites": null, "elements": null, "nelements": null, "composition": null, "composition_reduced": null, "formula_pretty": "ErAu2", "formula_anonymous": "AB2", "chemsys": null, "volume": 60.74489148289293, "density": 15.340902687762908, "density_atomic": 20.24829716096431, "symmetry": null, "property_name": null, "material_id": "mp-2466", "deprecated": null, "deprecation_reasons": null, "last_updated": null, "origins": null, "warnings": null, "structure": {"@module": "pymatgen.core.structure", "@class": "Structure", "charge": 0, "lattice": {"matrix": [[3.44143198, -1e-08, -1.30698422], [-0.49636646, 3.40544771, -1.30698421], [-0.00032478, -0.00037402000000000003, 5.18346835]], "pbc": [true, true, true], "a": 3.681258184954667, "b": 3.681258140004107, "c": 5.183468373668806, "alpha": 110.79930792205353, "beta": 110.79932456564786, "gamma": 90.00001566472702, "volume": 60.74489148289293}, "properties": {}, "sites": [{"species": [{"element": "Er", "occu": 1}], "abc": [0.0, 0.0, 0.0], "properties": {"magmom": -0.0}, "label": "Er", "xyz": [0.0, 0.0, 0.0]}, {"species": [{"element": "Au", "occu": 1}], "abc": [0.66503352, 0.66503352, 0.33006903], "properties": {"magmom": 0.0}, "label": "Au", "xyz": [1.958460089576667, 2.2646134186883033, -0.02747425585157326]}, {"species": [{"element": "Au", "occu": 1}], "abc": [0.33496648, 0.33496648, 0.66993097], "properties": {"magmom": 0.0}, "label": "Au", "xyz": [0.9862806504233331, 1.1404602613116968, 2.5969741758515728]}]}, "task_ids": null, "uncorrected_energy_per_atom": null, "energy_per_atom": -45.99663127, "formation_energy_per_atom": -0.9648461144444501, "energy_above_hull": 0.0, "is_stable": true, "equilibrium_reaction_energy_per_atom": null, "decomposes_to": null, "xas": null, "grain_boundaries": null, "band_gap": 0.0, "cbm": null, "vbm": null, "efermi": 4.67337241, "is_gap_direct": null, "is_metal": null, "es_source_calc_id": null, "bandstructure": null, "dos": null, "dos_energy_up": null, "dos_energy_down": null, "is_magnetic": null, "ordering": null, "total_magnetization": 7e-07, "total_magnetization_normalized_vol": null, "total_magnetization_normalized_formula_units": null, "num_magnetic_sites": null, "num_unique_magnetic_sites": null, "types_of_magnetic_species": null, "bulk_modulus": null, "shear_modulus": null, "universal_anisotropy": null, "homogeneous_poisson": null, "e_total": null, "e_ionic": null, "e_electronic": null, "n": null, "e_ij_max": null, "weighted_surface_energy_EV_PER_ANG2": null, "weighted_surface_energy": null, "weighted_work_function": null, "surface_anisotropy": null, "shape_factor": null, "has_reconstructed": null, "possible_species": null, "has_props": null, "theoretical": null, "database_IDs": null, "fields_not_requested": ["builder_meta", "nsites", "elements", "nelements", "composition", "composition_reduced", "chemsys", "symmetry", "property_name", "deprecated", "deprecation_reasons", "last_updated", "origins", "warnings", "task_ids", "uncorrected_energy_per_atom", "equilibrium_reaction_energy_per_atom", "decomposes_to", "xas", "grain_boundaries", "cbm", "vbm", "is_gap_direct", "is_metal", "es_source_calc_id", "bandstructure", "dos", "dos_energy_up", "dos_energy_down", "is_magnetic", "ordering", "total_magnetization_normalized_vol", "total_magnetization_normalized_formula_units", "num_magnetic_sites", "num_unique_magnetic_sites", "types_of_magnetic_species", "bulk_modulus", "shear_modulus", "universal_anisotropy", "homogeneous_poisson", "e_total", "e_ionic", "e_electronic", "n", "e_ij_max", "weighted_surface_energy_EV_PER_ANG2", "weighted_surface_energy", "weighted_work_function", "surface_anisotropy", "shape_factor", "has_reconstructed", "possible_species", "has_props", "theoretical", "database_IDs"]}