{
  "builder_meta": null,
  "nsites": null,
  "elements": null,
  "nelements": null,
  "composition": null,
  "composition_reduced": null,
  "formula_pretty": "ErAu3",
  "formula_anonymous": "AB3",
  "chemsys": null,
  "volume": 155.01553724597014,
  "density": 16.24291569765432,
  "density_atomic": 19.376942155746267,
  "symmetry": null,
  "property_name": null,
  "material_id": "mp-1080756",
  "deprecated": null,
  "deprecation_reasons": null,
  "last_updated": null,
  "origins": null,
  "warnings": null,
  "structure": {
    "@module": "pymatgen.core.structure",
    "@class": "Structure",
    "charge": 0,
    "lattice": {
      "matrix": [
        [0.0, 4.9672532, -0.0],
        [0.0, 0.0, 5.09540021],
        [6.12464091, 0.0, 0.0]
      ],
      "pbc": [true, true, true],
      "a": 4.9672532,
      "b": 5.09540021,
      "c": 6.12464091,
      "alpha": 90.0,
      "beta": 90.0,
      "gamma": 90.0,
      "volume": 155.01553724597014
    },
    "properties": {},
    "sites": [
      {
        "species": [{ "element": "Er", "occu": 1 }],
        "abc": [0.75, 0.34569606, 0.75],
        "properties": { "magmom": 0.0 },
        "label": "Er",
        "xyz": [4.5934806825, 3.7254399, 1.7614597767201727]
      },
      {
        "species": [{ "element": "Er", "occu": 1 }],
        "abc": [0.25, 0.65430294, 0.25],
        "properties": { "magmom": 0.0 },
        "label": "Er",
        "xyz": [1.5311602275, 1.2418133, 3.3339353378796175]
      },
      {
        "species": [{ "element": "Au", "occu": 1 }],
        "abc": [0.75, 0.83909796, 0.00600925],
        "properties": { "magmom": -0.0 },
        "label": "Au",
        "xyz": [0.0368044983884175, 3.7254399, 4.2755399215945715]
      },
      {
        "species": [{ "element": "Au", "occu": 1 }],
        "abc": [0.75, 0.83909796, 0.49399075000000003],
        "properties": { "magmom": -0.0 },
        "label": "Au",
        "xyz": [3.025515956611583, 3.7254399, 4.2755399215945715]
      },
      {
        "species": [{ "element": "Au", "occu": 1 }],
        "abc": [0.25, 0.16090304, 0.9939917500000001],
        "properties": { "magmom": -0.0 },
        "label": "Au",
        "xyz": [6.087842536252493, 1.2418133, 0.8198653838056384]
      },
      {
        "species": [{ "element": "Au", "occu": 1 }],
        "abc": [0.25, 0.16090304, 0.50600825],
        "properties": { "magmom": -0.0 },
        "label": "Au",
        "xyz": [3.0991188287475078, 1.2418133, 0.8198653838056384]
      },
      {
        "species": [{ "element": "Au", "occu": 1 }],
        "abc": [0.25, 0.665107799999999, 0.75],
        "properties": { "magmom": 0.0 },
        "label": "Au",
        "xyz": [4.5934806825, 1.2418133, 3.388990423792633]
      },
      {
        "species": [{ "element": "Au", "occu": 1 }],
        "abc": [0.75, 0.3348922, 0.25],
        "properties": { "magmom": 0.0 },
        "label": "Au",
        "xyz": [1.5311602275, 3.7254399, 1.706409786207362]
      }
    ]
  },
  "task_ids": null,
  "uncorrected_energy_per_atom": null,
  "energy_per_atom": -47.210988635,
  "formation_energy_per_atom": -0.790909730833334,
  "energy_above_hull": 0.0,
  "is_stable": true,
  "equilibrium_reaction_energy_per_atom": null,
  "decomposes_to": null,
  "xas": null,
  "grain_boundaries": null,
  "band_gap": 0.0,
  "cbm": null,
  "vbm": null,
  "efermi": 4.95519047,
  "is_gap_direct": null,
  "is_metal": null,
  "es_source_calc_id": null,
  "bandstructure": null,
  "dos": null,
  "dos_energy_up": null,
  "dos_energy_down": null,
  "is_magnetic": null,
  "ordering": null,
  "total_magnetization": 0.0,
  "total_magnetization_normalized_vol": null,
  "total_magnetization_normalized_formula_units": null,
  "num_magnetic_sites": null,
  "num_unique_magnetic_sites": null,
  "types_of_magnetic_species": null,
  "bulk_modulus": null,
  "shear_modulus": null,
  "universal_anisotropy": null,
  "homogeneous_poisson": null,
  "e_total": null,
  "e_ionic": null,
  "e_electronic": null,
  "n": null,
  "e_ij_max": null,
  "weighted_surface_energy_EV_PER_ANG2": null,
  "weighted_surface_energy": null,
  "weighted_work_function": null,
  "surface_anisotropy": null,
  "shape_factor": null,
  "has_reconstructed": null,
  "possible_species": null,
  "has_props": null,
  "theoretical": null,
  "database_IDs": null,
  "fields_not_requested": [
    "builder_meta",
    "nsites",
    "elements",
    "nelements",
    "composition",
    "composition_reduced",
    "chemsys",
    "symmetry",
    "property_name",
    "deprecated",
    "deprecation_reasons",
    "last_updated",
    "origins",
    "warnings",
    "task_ids",
    "uncorrected_energy_per_atom",
    "equilibrium_reaction_energy_per_atom",
    "decomposes_to",
    "xas",
    "grain_boundaries",
    "cbm",
    "vbm",
    "is_gap_direct",
    "is_metal",
    "es_source_calc_id",
    "bandstructure",
    "dos",
    "dos_energy_up",
    "dos_energy_down",
    "is_magnetic",
    "ordering",
    "total_magnetization_normalized_vol",
    "total_magnetization_normalized_formula_units",
    "num_magnetic_sites",
    "num_unique_magnetic_sites",
    "types_of_magnetic_species",
    "bulk_modulus",
    "shear_modulus",
    "universal_anisotropy",
    "homogeneous_poisson",
    "e_total",
    "e_ionic",
    "e_electronic",
    "n",
    "e_ij_max",
    "weighted_surface_energy_EV_PER_ANG2",
    "weighted_surface_energy",
    "weighted_work_function",
    "surface_anisotropy",
    "shape_factor",
    "has_reconstructed",
    "possible_species",
    "has_props",
    "theoretical",
    "database_IDs"
  ]
}
