{
  "builder_meta": null,
  "nsites": null,
  "elements": null,
  "nelements": null,
  "composition": null,
  "composition_reduced": null,
  "formula_pretty": "ErAu4",
  "formula_anonymous": "AB4",
  "chemsys": null,
  "volume": 94.01912625197627,
  "density": 16.86915096450143,
  "density_atomic": 18.803825250395256,
  "symmetry": null,
  "property_name": null,
  "material_id": "mp-1070583",
  "deprecated": null,
  "deprecation_reasons": null,
  "last_updated": null,
  "origins": null,
  "warnings": null,
  "structure": {
    "@module": "pymatgen.core.structure",
    "@class": "Structure",
    "charge": 0,
    "lattice": {
      "matrix": [
        [1e-8, -0.0, 4.16401915],
        [-3.359969839999999, 3.359991029999999, 2.08200855],
        [-3.35999102, -3.359969839999999, 2.08200855]
      ],
      "pbc": [true, true, true],
      "a": 4.16401915,
      "b": 5.187841232117958,
      "c": 5.187841225641294,
      "alpha": 80.73148684385221,
      "beta": 66.33898536928294,
      "gamma": 66.33898540062371,
      "volume": 94.0191262519762
    },
    "properties": {},
    "sites": [
      {
        "species": [{ "element": "Er", "occu": 1 }],
        "abc": [-0.0, -0.0, 0.0],
        "properties": { "magmom": -0.0 },
        "label": "Er",
        "xyz": [0.0, 0.0, 0.0]
      },
      {
        "species": [{ "element": "Au", "occu": 1 }],
        "abc": [0.60016105, 0.59872728, 0.20095162],
        "properties": { "magmom": -0.0 },
        "label": "Au",
        "xyz": [-2.6869012358380764, 1.336526907717157, 4.164020412338702]
      },
      {
        "species": [{ "element": "Au", "occu": 1 }],
        "abc": [0.39983895, 0.40127272, 0.79904838],
        "properties": { "magmom": -0.0 },
        "label": "Au",
        "xyz": [-4.033059614161923, -1.3365057177171569, 4.164015837661298]
      },
      {
        "species": [{ "element": "Au", "occu": 1 }],
        "abc": [0.19888733, 0.20095162, 0.40127272],
        "properties": { "magmom": -0.0 },
        "label": "Au",
        "xyz": [-2.0234641162812417, -0.673068596150796, 2.0820068757104764]
      },
      {
        "species": [{ "element": "Au", "occu": 1 }],
        "abc": [0.80111267, 0.79904838, 0.59872728],
        "properties": { "magmom": -0.0 },
        "label": "Au",
        "xyz": [-4.696496733718757, 0.6730897861507961, 6.246029374289522]
      }
    ]
  },
  "task_ids": null,
  "uncorrected_energy_per_atom": null,
  "energy_per_atom": -47.90713471,
  "formation_energy_per_atom": -0.6540795566666701,
  "energy_above_hull": 0.0,
  "is_stable": true,
  "equilibrium_reaction_energy_per_atom": null,
  "decomposes_to": null,
  "xas": null,
  "grain_boundaries": null,
  "band_gap": 0.0,
  "cbm": null,
  "vbm": null,
  "efermi": 5.550021819999999,
  "is_gap_direct": null,
  "is_metal": null,
  "es_source_calc_id": null,
  "bandstructure": null,
  "dos": null,
  "dos_energy_up": null,
  "dos_energy_down": null,
  "is_magnetic": null,
  "ordering": null,
  "total_magnetization": 0.0,
  "total_magnetization_normalized_vol": null,
  "total_magnetization_normalized_formula_units": null,
  "num_magnetic_sites": null,
  "num_unique_magnetic_sites": null,
  "types_of_magnetic_species": null,
  "bulk_modulus": null,
  "shear_modulus": null,
  "universal_anisotropy": null,
  "homogeneous_poisson": null,
  "e_total": null,
  "e_ionic": null,
  "e_electronic": null,
  "n": null,
  "e_ij_max": null,
  "weighted_surface_energy_EV_PER_ANG2": null,
  "weighted_surface_energy": null,
  "weighted_work_function": null,
  "surface_anisotropy": null,
  "shape_factor": null,
  "has_reconstructed": null,
  "possible_species": null,
  "has_props": null,
  "theoretical": null,
  "database_IDs": null,
  "fields_not_requested": [
    "builder_meta",
    "nsites",
    "elements",
    "nelements",
    "composition",
    "composition_reduced",
    "chemsys",
    "symmetry",
    "property_name",
    "deprecated",
    "deprecation_reasons",
    "last_updated",
    "origins",
    "warnings",
    "task_ids",
    "uncorrected_energy_per_atom",
    "equilibrium_reaction_energy_per_atom",
    "decomposes_to",
    "xas",
    "grain_boundaries",
    "cbm",
    "vbm",
    "is_gap_direct",
    "is_metal",
    "es_source_calc_id",
    "bandstructure",
    "dos",
    "dos_energy_up",
    "dos_energy_down",
    "is_magnetic",
    "ordering",
    "total_magnetization_normalized_vol",
    "total_magnetization_normalized_formula_units",
    "num_magnetic_sites",
    "num_unique_magnetic_sites",
    "types_of_magnetic_species",
    "bulk_modulus",
    "shear_modulus",
    "universal_anisotropy",
    "homogeneous_poisson",
    "e_total",
    "e_ionic",
    "e_electronic",
    "n",
    "e_ij_max",
    "weighted_surface_energy_EV_PER_ANG2",
    "weighted_surface_energy",
    "weighted_work_function",
    "surface_anisotropy",
    "shape_factor",
    "has_reconstructed",
    "possible_species",
    "has_props",
    "theoretical",
    "database_IDs"
  ]
}
