{
  "builder_meta": null,
  "nsites": null,
  "elements": null,
  "nelements": null,
  "composition": null,
  "composition_reduced": null,
  "formula_pretty": "ErB4",
  "formula_anonymous": "AB4",
  "chemsys": null,
  "volume": 198.58532369022097,
  "density": 7.040771163568372,
  "density_atomic": 9.929266184511048,
  "symmetry": null,
  "property_name": null,
  "material_id": "mp-2847",
  "deprecated": null,
  "deprecation_reasons": null,
  "last_updated": null,
  "origins": null,
  "warnings": null,
  "structure": {
    "@module": "pymatgen.core.structure",
    "@class": "Structure",
    "charge": 0,
    "lattice": {
      "matrix": [
        [3.98788465, -0.0, 0.0],
        [0.0, 7.05671017, 0.0],
        [0.0, 0.0, 7.05671017]
      ],
      "pbc": [true, true, true],
      "a": 3.98788465,
      "b": 7.05671017,
      "c": 7.05671017,
      "alpha": 90.0,
      "beta": 90.0,
      "gamma": 90.0,
      "volume": 198.58532369022097
    },
    "properties": {},
    "sites": [
      {
        "species": [{ "element": "Er", "occu": 1 }],
        "abc": [-0.0, 0.6811602800000001, 0.18116028],
        "properties": { "magmom": 0.0 },
        "label": "Er",
        "xyz": [0.0, 4.806750675276048, 1.2783955902760475]
      },
      {
        "species": [{ "element": "Er", "occu": 1 }],
        "abc": [-0.0, 0.81883972, 0.6811602800000001],
        "properties": { "magmom": 0.0 },
        "label": "Er",
        "xyz": [0.0, 5.778314579723952, 4.806750675276048]
      },
      {
        "species": [{ "element": "Er", "occu": 1 }],
        "abc": [-0.0, 0.18116028, 0.31883972],
        "properties": { "magmom": 0.0 },
        "label": "Er",
        "xyz": [0.0, 1.2783955902760475, 2.249959494723952]
      },
      {
        "species": [{ "element": "Er", "occu": 1 }],
        "abc": [-0.0, 0.31883972, 0.81883972],
        "properties": { "magmom": 0.0 },
        "label": "Er",
        "xyz": [0.0, 2.249959494723952, 5.778314579723952]
      },
      {
        "species": [{ "element": "B", "occu": 1 }],
        "abc": [0.5, 0.46171421, 0.32361821],
        "properties": { "magmom": -0.0 },
        "label": "B",
        "xyz": [1.993942325, 3.2581833613405156, 2.2836799137041957]
      },
      {
        "species": [{ "element": "B", "occu": 1 }],
        "abc": [0.5, 0.53828579, 0.67638179],
        "properties": { "magmom": -0.0 },
        "label": "B",
        "xyz": [1.993942325, 3.798526808659484, 4.773030256295804]
      },
      {
        "species": [{ "element": "B", "occu": 1 }],
        "abc": [0.5, 0.32361821, 0.53828579],
        "properties": { "magmom": -0.0 },
        "label": "B",
        "xyz": [1.993942325, 2.2836799137041957, 3.798526808659484]
      },
      {
        "species": [{ "element": "B", "occu": 1 }],
        "abc": [0.5, 0.67638179, 0.46171421],
        "properties": { "magmom": -0.0 },
        "label": "B",
        "xyz": [1.993942325, 4.773030256295804, 3.2581833613405156]
      },
      {
        "species": [{ "element": "B", "occu": 1 }],
        "abc": [0.2025426, -0.0, 0.0],
        "properties": { "magmom": 0.0 },
        "label": "B",
        "xyz": [0.80771652551109, 0.0, 0.0]
      },
      {
        "species": [{ "element": "B", "occu": 1 }],
        "abc": [0.7974574, 0.5, 0.5],
        "properties": { "magmom": 0.0 },
        "label": "B",
        "xyz": [3.18016812448891, 3.528355085, 3.528355085]
      },
      {
        "species": [{ "element": "B", "occu": 1 }],
        "abc": [0.7974574, -0.0, 0.0],
        "properties": { "magmom": 0.0 },
        "label": "B",
        "xyz": [3.18016812448891, 0.0, 0.0]
      },
      {
        "species": [{ "element": "B", "occu": 1 }],
        "abc": [0.2025426, 0.5, 0.5],
        "properties": { "magmom": 0.0 },
        "label": "B",
        "xyz": [0.80771652551109, 3.528355085, 3.528355085]
      },
      {
        "species": [{ "element": "B", "occu": 1 }],
        "abc": [0.5, 0.08692736, 0.58692736],
        "properties": { "magmom": 0.0 },
        "label": "B",
        "xyz": [1.993942325, 0.6134211853632512, 4.141776270363251]
      },
      {
        "species": [{ "element": "B", "occu": 1 }],
        "abc": [0.5, 0.41307264, 0.08692736],
        "properties": { "magmom": 0.0 },
        "label": "B",
        "xyz": [1.993942325, 2.9149338996367486, 0.6134211853632512]
      },
      {
        "species": [{ "element": "B", "occu": 1 }],
        "abc": [0.5, 0.58692736, 0.91307264],
        "properties": { "magmom": 0.0 },
        "label": "B",
        "xyz": [1.993942325, 4.141776270363251, 6.443288984636748]
      },
      {
        "species": [{ "element": "B", "occu": 1 }],
        "abc": [0.5, 0.91307264, 0.41307264],
        "properties": { "magmom": 0.0 },
        "label": "B",
        "xyz": [1.993942325, 6.443288984636748, 2.9149338996367486]
      },
      {
        "species": [{ "element": "B", "occu": 1 }],
        "abc": [0.5, 0.17638179, 0.03828579],
        "properties": { "magmom": -0.0 },
        "label": "B",
        "xyz": [1.993942325, 1.2446751712958044, 0.2701717236594843]
      },
      {
        "species": [{ "element": "B", "occu": 1 }],
        "abc": [0.5, 0.96171421, 0.17638179],
        "properties": { "magmom": -0.0 },
        "label": "B",
        "xyz": [1.993942325, 6.786538446340516, 1.2446751712958044]
      },
      {
        "species": [{ "element": "B", "occu": 1 }],
        "abc": [0.5, 0.03828579, 0.82361821],
        "properties": { "magmom": -0.0 },
        "label": "B",
        "xyz": [1.993942325, 0.2701717236594843, 5.8120349987041955]
      },
      {
        "species": [{ "element": "B", "occu": 1 }],
        "abc": [0.5, 0.82361821, 0.96171421],
        "properties": { "magmom": -0.0 },
        "label": "B",
        "xyz": [1.993942325, 5.8120349987041955, 6.786538446340516]
      }
    ]
  },
  "task_ids": null,
  "uncorrected_energy_per_atom": null,
  "energy_per_atom": -13.315557638000001,
  "formation_energy_per_atom": -0.653387246666667,
  "energy_above_hull": 0.0,
  "is_stable": true,
  "equilibrium_reaction_energy_per_atom": null,
  "decomposes_to": null,
  "xas": null,
  "grain_boundaries": null,
  "band_gap": 0.0,
  "cbm": null,
  "vbm": null,
  "efermi": 5.88881192,
  "is_gap_direct": null,
  "is_metal": null,
  "es_source_calc_id": null,
  "bandstructure": null,
  "dos": null,
  "dos_energy_up": null,
  "dos_energy_down": null,
  "is_magnetic": null,
  "ordering": null,
  "total_magnetization": 0.0,
  "total_magnetization_normalized_vol": null,
  "total_magnetization_normalized_formula_units": null,
  "num_magnetic_sites": null,
  "num_unique_magnetic_sites": null,
  "types_of_magnetic_species": null,
  "bulk_modulus": null,
  "shear_modulus": null,
  "universal_anisotropy": null,
  "homogeneous_poisson": null,
  "e_total": null,
  "e_ionic": null,
  "e_electronic": null,
  "n": null,
  "e_ij_max": null,
  "weighted_surface_energy_EV_PER_ANG2": null,
  "weighted_surface_energy": null,
  "weighted_work_function": null,
  "surface_anisotropy": null,
  "shape_factor": null,
  "has_reconstructed": null,
  "possible_species": null,
  "has_props": null,
  "theoretical": null,
  "database_IDs": null,
  "fields_not_requested": [
    "builder_meta",
    "nsites",
    "elements",
    "nelements",
    "composition",
    "composition_reduced",
    "chemsys",
    "symmetry",
    "property_name",
    "deprecated",
    "deprecation_reasons",
    "last_updated",
    "origins",
    "warnings",
    "task_ids",
    "uncorrected_energy_per_atom",
    "equilibrium_reaction_energy_per_atom",
    "decomposes_to",
    "xas",
    "grain_boundaries",
    "cbm",
    "vbm",
    "is_gap_direct",
    "is_metal",
    "es_source_calc_id",
    "bandstructure",
    "dos",
    "dos_energy_up",
    "dos_energy_down",
    "is_magnetic",
    "ordering",
    "total_magnetization_normalized_vol",
    "total_magnetization_normalized_formula_units",
    "num_magnetic_sites",
    "num_unique_magnetic_sites",
    "types_of_magnetic_species",
    "bulk_modulus",
    "shear_modulus",
    "universal_anisotropy",
    "homogeneous_poisson",
    "e_total",
    "e_ionic",
    "e_electronic",
    "n",
    "e_ij_max",
    "weighted_surface_energy_EV_PER_ANG2",
    "weighted_surface_energy",
    "weighted_work_function",
    "surface_anisotropy",
    "shape_factor",
    "has_reconstructed",
    "possible_species",
    "has_props",
    "theoretical",
    "database_IDs"
  ]
}
