{"builder_meta": null, "nsites": null, "elements": null, "nelements": null, "composition": null, "composition_reduced": null, "formula_pretty": "ErBi3", "formula_anonymous": "AB3", "chemsys": null, "volume": 242.1026805291506, "density": 10.894554789059775, "density_atomic": 30.262835066143825, "symmetry": null, "property_name": null, "material_id": "mp-1184182", "deprecated": null, "deprecation_reasons": null, "last_updated": null, "origins": null, "warnings": null, "structure": {"@module": "pymatgen.core.structure", "@class": "Structure", "charge": 0, "lattice": {"matrix": [[3.411621, -5.909102, 0.0], [3.411621, 5.909102, 0.0], [0.0, 0.0, 6.004645]], "pbc": [true, true, true], "a": 6.823242945553456, "b": 6.823242945553456, "c": 6.004645, "alpha": 90.0, "beta": 90.0, "gamma": 120.00000916826679, "volume": 242.1026805291506}, "properties": {}, "sites": [{"species": [{"element": "Er", "occu": 1}], "abc": [0.333333, 0.666667, 0.75], "properties": {"magmom": -0.0}, "label": "Er", "xyz": [3.411621, 1.9697046060680001, 4.50348375]}, {"species": [{"element": "Er", "occu": 1}], "abc": [0.666667, 0.333333, 0.25], "properties": {"magmom": -0.0}, "label": "Er", "xyz": [3.411621, -1.9697046060680001, 1.50116125]}, {"species": [{"element": "Bi", "occu": 1}], "abc": [0.172553999999999, 0.345107999999999, 0.25], "properties": {"magmom": 0.0}, "label": "Bi", "xyz": [1.7660665501019932, 1.019639186508, 1.50116125]}, {"species": [{"element": "Bi", "occu": 1}], "abc": [0.654891999999999, 0.827446, 0.25], "properties": {"magmom": 0.0}, "label": "Bi", "xyz": [5.057175449897997, 1.0196391865080057, 1.50116125]}, {"species": [{"element": "Bi", "occu": 1}], "abc": [0.172553999999999, 0.827446, 0.25], "properties": {"magmom": 0.0}, "label": "Bi", "xyz": [3.4116209999999967, 3.869823626984006, 1.50116125]}, {"species": [{"element": "Bi", "occu": 1}], "abc": [0.827446, 0.654891999999999, 0.75], "properties": {"magmom": 0.0}, "label": "Bi", "xyz": [5.057175449897997, -1.0196391865080057, 4.50348375]}, {"species": [{"element": "Bi", "occu": 1}], "abc": [0.345107999999999, 0.172553999999999, 0.75], "properties": {"magmom": 0.0}, "label": "Bi", "xyz": [1.7660665501019932, -1.019639186508, 4.50348375]}, {"species": [{"element": "Bi", "occu": 1}], "abc": [0.827446, 0.172553999999999, 0.75], "properties": {"magmom": 0.0}, "label": "Bi", "xyz": [3.4116209999999967, -3.869823626984006, 4.50348375]}]}, "task_ids": null, "uncorrected_energy_per_atom": null, "energy_per_atom": -52.752856275, "formation_energy_per_atom": -0.39479217458333604, "energy_above_hull": 0.10989391999999701, "is_stable": false, "equilibrium_reaction_energy_per_atom": null, "decomposes_to": null, "xas": null, "grain_boundaries": null, "band_gap": 0.0, "cbm": null, "vbm": null, "efermi": 6.22559185, "is_gap_direct": null, "is_metal": null, "es_source_calc_id": null, "bandstructure": null, "dos": null, "dos_energy_up": null, "dos_energy_down": null, "is_magnetic": null, "ordering": null, "total_magnetization": 0.0005044, "total_magnetization_normalized_vol": null, "total_magnetization_normalized_formula_units": null, "num_magnetic_sites": null, "num_unique_magnetic_sites": null, "types_of_magnetic_species": null, "bulk_modulus": null, "shear_modulus": null, "universal_anisotropy": null, "homogeneous_poisson": null, "e_total": null, "e_ionic": null, "e_electronic": null, "n": null, "e_ij_max": null, "weighted_surface_energy_EV_PER_ANG2": null, "weighted_surface_energy": null, "weighted_work_function": null, "surface_anisotropy": null, "shape_factor": null, "has_reconstructed": null, "possible_species": null, "has_props": null, "theoretical": null, "database_IDs": null, "fields_not_requested": ["builder_meta", "nsites", "elements", "nelements", "composition", "composition_reduced", "chemsys", "symmetry", "property_name", "deprecated", "deprecation_reasons", "last_updated", "origins", "warnings", "task_ids", "uncorrected_energy_per_atom", "equilibrium_reaction_energy_per_atom", "decomposes_to", "xas", "grain_boundaries", "cbm", "vbm", "is_gap_direct", "is_metal", "es_source_calc_id", "bandstructure", "dos", "dos_energy_up", "dos_energy_down", "is_magnetic", "ordering", "total_magnetization_normalized_vol", "total_magnetization_normalized_formula_units", "num_magnetic_sites", "num_unique_magnetic_sites", "types_of_magnetic_species", "bulk_modulus", "shear_modulus", "universal_anisotropy", "homogeneous_poisson", "e_total", "e_ionic", "e_electronic", "n", "e_ij_max", "weighted_surface_energy_EV_PER_ANG2", "weighted_surface_energy", "weighted_work_function", "surface_anisotropy", "shape_factor", "has_reconstructed", "possible_species", "has_props", "theoretical", "database_IDs"]}