{"builder_meta": null, "nsites": null, "elements": null, "nelements": null, "composition": null, "composition_reduced": null, "formula_pretty": "ErC2", "formula_anonymous": "AB2", "chemsys": null, "volume": 40.41139679175767, "density": 7.859876225304301, "density_atomic": 13.470465597252556, "symmetry": null, "property_name": null, "material_id": "mp-1579", "deprecated": null, "deprecation_reasons": null, "last_updated": null, "origins": null, "warnings": null, "structure": {"@module": "pymatgen.core.structure", "@class": "Structure", "charge": 0, "lattice": {"matrix": [[-1.812857999999999, 1.812857999999999, 3.074088], [1.812857999999999, -1.812857999999999, 3.074088], [1.812857999999999, 1.812857999999999, -3.074088]], "pbc": [true, true, true], "a": 4.0028646352421156, "b": 4.0028646352421156, "c": 4.0028646352421156, "alpha": 126.1414694237477, "beta": 126.1414694237477, "gamma": 79.65575044640616, "volume": 40.41139679175762}, "properties": {}, "sites": [{"species": [{"element": "Er", "occu": 1}], "abc": [0.0, 0.0, 0.0], "properties": {"magmom": -0.0}, "label": "Er", "xyz": [0.0, 0.0, 0.0]}, {"species": [{"element": "C", "occu": 1}], "abc": [0.606147, 0.606147, 0.0], "properties": {"magmom": 0.0}, "label": "C", "xyz": [0.0, 0.0, 3.7266984378720003]}, {"species": [{"element": "C", "occu": 1}], "abc": [0.393853, 0.393853, 0.0], "properties": {"magmom": 0.0}, "label": "C", "xyz": [0.0, 0.0, 2.421477562128]}]}, "task_ids": null, "uncorrected_energy_per_atom": null, "energy_per_atom": -7.870487059999999, "formation_energy_per_atom": -0.195470461666666, "energy_above_hull": 0.08034501604166801, "is_stable": false, "equilibrium_reaction_energy_per_atom": null, "decomposes_to": null, "xas": null, "grain_boundaries": null, "band_gap": 0.0, "cbm": null, "vbm": null, "efermi": 4.42875929, "is_gap_direct": null, "is_metal": null, "es_source_calc_id": null, "bandstructure": null, "dos": null, "dos_energy_up": null, "dos_energy_down": null, "is_magnetic": null, "ordering": null, "total_magnetization": 0.0006112, "total_magnetization_normalized_vol": null, "total_magnetization_normalized_formula_units": null, "num_magnetic_sites": null, "num_unique_magnetic_sites": null, "types_of_magnetic_species": null, "bulk_modulus": null, "shear_modulus": null, "universal_anisotropy": null, "homogeneous_poisson": null, "e_total": null, "e_ionic": null, "e_electronic": null, "n": null, "e_ij_max": null, "weighted_surface_energy_EV_PER_ANG2": null, "weighted_surface_energy": null, "weighted_work_function": null, "surface_anisotropy": null, "shape_factor": null, "has_reconstructed": null, "possible_species": null, "has_props": null, "theoretical": null, "database_IDs": null, "fields_not_requested": ["builder_meta", "nsites", "elements", "nelements", "composition", "composition_reduced", "chemsys", "symmetry", "property_name", "deprecated", "deprecation_reasons", "last_updated", "origins", "warnings", "task_ids", "uncorrected_energy_per_atom", "equilibrium_reaction_energy_per_atom", "decomposes_to", "xas", "grain_boundaries", "cbm", "vbm", "is_gap_direct", "is_metal", "es_source_calc_id", "bandstructure", "dos", "dos_energy_up", "dos_energy_down", "is_magnetic", "ordering", "total_magnetization_normalized_vol", "total_magnetization_normalized_formula_units", "num_magnetic_sites", "num_unique_magnetic_sites", "types_of_magnetic_species", "bulk_modulus", "shear_modulus", "universal_anisotropy", "homogeneous_poisson", "e_total", "e_ionic", "e_electronic", "n", "e_ij_max", "weighted_surface_energy_EV_PER_ANG2", "weighted_surface_energy", "weighted_work_function", "surface_anisotropy", "shape_factor", "has_reconstructed", "possible_species", "has_props", "theoretical", "database_IDs"]}