{"builder_meta": null, "nsites": null, "elements": null, "nelements": null, "composition": null, "composition_reduced": null, "formula_pretty": "ErCd3", "formula_anonymous": "AB3", "chemsys": null, "volume": 182.91050822569656, "density": 9.159984113689942, "density_atomic": 22.86381352821207, "symmetry": null, "property_name": null, "material_id": "mp-7303", "deprecated": null, "deprecation_reasons": null, "last_updated": null, "origins": null, "warnings": null, "structure": {"@module": "pymatgen.core.structure", "@class": "Structure", "charge": 0, "lattice": {"matrix": [[4.8144089999999995, 0.0, 0.0], [0.0, 5.9180126, -2.48423698], [-0.0, 0.00356747, 6.41827719]], "pbc": [true, true, true], "a": 4.8144089999999995, "b": 6.41827909229244, "c": 6.4182781814530685, "alpha": 112.73962634993934, "beta": 90.0, "gamma": 90.0, "volume": 182.91050822569653}, "properties": {}, "sites": [{"species": [{"element": "Er", "occu": 1}], "abc": [0.25, 0.63261704, 0.36738296], "properties": {"magmom": -0.0}, "label": "Er", "xyz": [1.2036022499999999, 3.745146241383015, 0.7863950272165434]}, {"species": [{"element": "Er", "occu": 1}], "abc": [0.75, 0.36738296, 0.63261704], "properties": {"magmom": -0.0}, "label": "Er", "xyz": [3.6108067499999996, 2.1764338286169846, 3.1476451827834566]}, {"species": [{"element": "Cd", "occu": 1}], "abc": [0.75, 0.8802898, 0.69037689], "properties": {"magmom": 0.0}, "label": "Cd", "xyz": [3.6108067499999996, 5.212029026895249, 2.244181771313335]}, {"species": [{"element": "Cd", "occu": 1}], "abc": [0.25, 0.119710199999999, 0.30962311], "properties": {"magmom": 0.0}, "label": "Cd", "xyz": [1.2036022499999999, 0.7095510431047458, 1.6898584386866673]}, {"species": [{"element": "Cd", "occu": 1}], "abc": [0.75, 0.82301438, 0.17698562], "properties": {"magmom": -0.0}, "label": "Cd", "xyz": [3.6108067499999996, 4.8712408617109695, -0.9086199900637646]}, {"species": [{"element": "Cd", "occu": 1}], "abc": [0.25, 0.17698562, 0.82301438], "properties": {"magmom": -0.0}, "label": "Cd", "xyz": [1.2036022499999999, 1.0503392082890306, 4.842660200063765]}, {"species": [{"element": "Cd", "occu": 1}], "abc": [0.75, 0.30962311, 0.119710199999999], "properties": {"magmom": 0.0}, "label": "Cd", "xyz": [3.6108067499999996, 1.8327805287783798, -0.0008439336542761522]}, {"species": [{"element": "Cd", "occu": 1}], "abc": [0.25, 0.69037689, 0.8802898], "properties": {"magmom": 0.0}, "label": "Cd", "xyz": [1.2036022499999999, 4.08879954122162, 3.9348841436542705]}]}, "task_ids": null, "uncorrected_energy_per_atom": null, "energy_per_atom": -2.09246049375, "formation_energy_per_atom": -0.23052314874999702, "energy_above_hull": 0.0, "is_stable": true, "equilibrium_reaction_energy_per_atom": null, "decomposes_to": null, "xas": null, "grain_boundaries": null, "band_gap": 0.0, "cbm": null, "vbm": null, "efermi": 3.02830896, "is_gap_direct": null, "is_metal": null, "es_source_calc_id": null, "bandstructure": null, "dos": null, "dos_energy_up": null, "dos_energy_down": null, "is_magnetic": null, "ordering": null, "total_magnetization": 2.499999999999999e-06, "total_magnetization_normalized_vol": null, "total_magnetization_normalized_formula_units": null, "num_magnetic_sites": null, "num_unique_magnetic_sites": null, "types_of_magnetic_species": null, "bulk_modulus": null, "shear_modulus": null, "universal_anisotropy": null, "homogeneous_poisson": null, "e_total": null, "e_ionic": null, "e_electronic": null, "n": null, "e_ij_max": null, "weighted_surface_energy_EV_PER_ANG2": null, "weighted_surface_energy": null, "weighted_work_function": null, "surface_anisotropy": null, "shape_factor": null, "has_reconstructed": null, "possible_species": null, "has_props": null, "theoretical": null, "database_IDs": null, "fields_not_requested": ["builder_meta", "nsites", "elements", "nelements", "composition", "composition_reduced", "chemsys", "symmetry", "property_name", "deprecated", "deprecation_reasons", "last_updated", "origins", "warnings", "task_ids", "uncorrected_energy_per_atom", "equilibrium_reaction_energy_per_atom", "decomposes_to", "xas", "grain_boundaries", "cbm", "vbm", "is_gap_direct", "is_metal", "es_source_calc_id", "bandstructure", "dos", "dos_energy_up", "dos_energy_down", "is_magnetic", "ordering", "total_magnetization_normalized_vol", "total_magnetization_normalized_formula_units", "num_magnetic_sites", "num_unique_magnetic_sites", "types_of_magnetic_species", "bulk_modulus", "shear_modulus", "universal_anisotropy", "homogeneous_poisson", "e_total", "e_ionic", "e_electronic", "n", "e_ij_max", "weighted_surface_energy_EV_PER_ANG2", "weighted_surface_energy", "weighted_work_function", "surface_anisotropy", "shape_factor", "has_reconstructed", "possible_species", "has_props", "theoretical", "database_IDs"]}