{"builder_meta": null, "nsites": null, "elements": null, "nelements": null, "composition": null, "composition_reduced": null, "formula_pretty": "ErCl3", "formula_anonymous": "AB3", "chemsys": null, "volume": 283.7214923356649, "density": 3.202812551031015, "density_atomic": 35.46518654195811, "symmetry": null, "property_name": null, "material_id": "mp-863029", "deprecated": null, "deprecation_reasons": null, "last_updated": null, "origins": null, "warnings": null, "structure": {"@module": "pymatgen.core.structure", "@class": "Structure", "charge": 0, "lattice": {"matrix": [[9.63006142, -7.19e-06, 4.4e-07], [-4.81503467, 8.33997107, -2.3700000000000003e-05], [1.6e-07, -1.077e-05, 3.53263544]], "pbc": [true, true, true], "a": 9.630061420002695, "b": 9.630144148573304, "c": 3.532635440016421, "alpha": 90.00029358013438, "beta": 89.99999478697215, "gamma": 119.99978580962191, "volume": 283.7214923356649}, "properties": {}, "sites": [{"species": [{"element": "Er", "occu": 1}], "abc": [0.33333261000000003, 0.66666664, 0.75000288], "properties": {"magmom": 0.0}, "label": "Er", "xyz": [-9.357343041628681e-06, 5.559970016741622, 2.6494711006570477]}, {"species": [{"element": "Er", "occu": 1}], "abc": [0.66666639, 0.33333436, 0.24999812000000002], "properties": {"magmom": 0.0}, "label": "Er", "xyz": [4.815021822247114, 2.779991433225869, 0.8831446119542524]}, {"species": [{"element": "Cl", "occu": 1}], "abc": [0.21674662, 0.43349302, 0.25000027], "properties": {"magmom": -0.0}, "label": "Cl", "xyz": [-6.173255596374885e-07, 3.6153149949358263, 0.8831496353955076]}, {"species": [{"element": "Cl", "occu": 1}], "abc": [0.56650903, 0.78325458, 0.25000262], "properties": {"magmom": -0.0}, "label": "Cl", "xyz": [1.6841188357487529, 6.532313771916859, 0.88314980163528]}, {"species": [{"element": "Cl", "occu": 1}], "abc": [0.2167432, 0.78325226, 0.25000278], "properties": {"magmom": 0.0}, "label": "Cl", "xyz": [-1.6841364188880656, 6.532296937998571, 0.8831502130149691]}, {"species": [{"element": "Cl", "occu": 1}], "abc": [0.7832553800000001, 0.56650798, 0.7500027300000001], "properties": {"magmom": -0.0}, "label": "Cl", "xyz": [4.81504197241421, 4.724646454988555, 2.6494731424879925]}, {"species": [{"element": "Cl", "occu": 1}], "abc": [0.43349097000000003, 0.21674642, 0.74999938], "properties": {"magmom": -0.0}, "label": "Cl", "xyz": [3.1309032592168973, 1.8076476780326727, 2.6494694436119]}, {"species": [{"element": "Cl", "occu": 1}], "abc": [0.7832538, 0.21674574, 0.74999922], "properties": {"magmom": 0.0}, "label": "Cl", "xyz": [6.499144068773465, 1.8076394920593204, 2.6494690323019907]}]}, "task_ids": null, "uncorrected_energy_per_atom": null, "energy_per_atom": -15.5275957875, "formation_energy_per_atom": -2.431907822708332, "energy_above_hull": 0.0, "is_stable": true, "equilibrium_reaction_energy_per_atom": null, "decomposes_to": null, "xas": null, "grain_boundaries": null, "band_gap": 3.7739000000000003, "cbm": null, "vbm": null, "efermi": -2.56125236, "is_gap_direct": null, "is_metal": null, "es_source_calc_id": null, "bandstructure": null, "dos": null, "dos_energy_up": null, "dos_energy_down": null, "is_magnetic": null, "ordering": null, "total_magnetization": 0.0, "total_magnetization_normalized_vol": null, "total_magnetization_normalized_formula_units": null, "num_magnetic_sites": null, "num_unique_magnetic_sites": null, "types_of_magnetic_species": null, "bulk_modulus": null, "shear_modulus": null, "universal_anisotropy": null, "homogeneous_poisson": null, "e_total": null, "e_ionic": null, "e_electronic": null, "n": null, "e_ij_max": null, "weighted_surface_energy_EV_PER_ANG2": null, "weighted_surface_energy": null, "weighted_work_function": null, "surface_anisotropy": null, "shape_factor": null, "has_reconstructed": null, "possible_species": null, "has_props": null, "theoretical": null, "database_IDs": null, "fields_not_requested": ["builder_meta", "nsites", "elements", "nelements", "composition", "composition_reduced", "chemsys", "symmetry", "property_name", "deprecated", "deprecation_reasons", "last_updated", "origins", "warnings", "task_ids", "uncorrected_energy_per_atom", "equilibrium_reaction_energy_per_atom", "decomposes_to", "xas", "grain_boundaries", "cbm", "vbm", "is_gap_direct", "is_metal", "es_source_calc_id", "bandstructure", "dos", "dos_energy_up", "dos_energy_down", "is_magnetic", "ordering", "total_magnetization_normalized_vol", "total_magnetization_normalized_formula_units", "num_magnetic_sites", "num_unique_magnetic_sites", "types_of_magnetic_species", "bulk_modulus", "shear_modulus", "universal_anisotropy", "homogeneous_poisson", "e_total", "e_ionic", "e_electronic", "n", "e_ij_max", "weighted_surface_energy_EV_PER_ANG2", "weighted_surface_energy", "weighted_work_function", "surface_anisotropy", "shape_factor", "has_reconstructed", "possible_species", "has_props", "theoretical", "database_IDs"]}