{"builder_meta": null, "nsites": null, "elements": null, "nelements": null, "composition": null, "composition_reduced": null, "formula_pretty": "ErCo5", "formula_anonymous": "AB5", "chemsys": null, "volume": 81.56513250123555, "density": 9.404073080051809, "density_atomic": 13.594188750205925, "symmetry": null, "property_name": null, "material_id": "mp-1974728", "deprecated": null, "deprecation_reasons": null, "last_updated": null, "origins": null, "warnings": null, "structure": {"@module": "pymatgen.core.structure", "@class": "Structure", "charge": 0, "lattice": {"matrix": [[4.97980412, 0.01722317, 2.036e-05], [-2.47525702, 4.19390027, -1.6320000000000003e-05], [1.634e-05, -6.04e-06, 3.89752198]], "pbc": [true, true, true], "a": 4.979833904014104, "b": 4.869876465582233, "c": 3.897521980038932, "alpha": 90.00039056928333, "beta": 89.9995258480703, "gamma": 120.35111478136164, "volume": 81.56513250123554}, "properties": {}, "sites": [{"species": [{"element": "Er", "occu": 1}], "abc": [-3.93e-06, -2.88e-06, 2.95e-06], "properties": {"magmom": -0.5690000000000001}, "label": "Er", "xyz": [-1.2441841770999998e-05, -1.21461376537e-05, 1.14976568278e-05]}, {"species": [{"element": "Co", "occu": 1}], "abc": [0.32705448, 0.65456843, -7.129999999999999e-06], "properties": {"magmom": 1.752}, "label": "Co", "xyz": [0.008442145424074782, 2.750827630261843, -3.18130592822e-05]}, {"species": [{"element": "Co", "occu": 1}], "abc": [0.67294972, 0.3454294, -9.6e-06], "properties": {"magmom": 1.752}, "label": "Co", "xyz": [2.4961312407875944, 1.4602867814129346, -2.9352362516800002e-05]}, {"species": [{"element": "Co", "occu": 1}], "abc": [0.50000557, -2.029999999999998e-06, 0.50000302], "properties": {"magmom": 1.803}, "label": "Co", "xyz": [2.489942992330046, 0.008600147297267999, 1.9487829406629145]}, {"species": [{"element": "Co", "occu": 1}], "abc": [0.499988999999999, 0.50000113, 0.5000065], "properties": {"magmom": 1.776}, "label": "Co", "xyz": [1.2522241452204523, 2.1055632496131755, 1.9487883436504687]}, {"species": [{"element": "Co", "occu": 1}], "abc": [5.16e-06, 0.50000594, 0.50000425], "properties": {"magmom": 1.778}, "label": "Co", "xyz": [-1.2376093471679945, 2.0969721156134913, 1.9487693944765319]}]}, "task_ids": null, "uncorrected_energy_per_atom": null, "energy_per_atom": -16.79651746, "formation_energy_per_atom": -0.11375232388888801, "energy_above_hull": 0.000218487424241, "is_stable": false, "equilibrium_reaction_energy_per_atom": null, "decomposes_to": null, "xas": null, "grain_boundaries": null, "band_gap": 0.0, "cbm": null, "vbm": null, "efermi": 8.09909428, "is_gap_direct": null, "is_metal": null, "es_source_calc_id": null, "bandstructure": null, "dos": null, "dos_energy_up": null, "dos_energy_down": null, "is_magnetic": null, "ordering": null, "total_magnetization": 7.9636843, "total_magnetization_normalized_vol": null, "total_magnetization_normalized_formula_units": null, "num_magnetic_sites": null, "num_unique_magnetic_sites": null, "types_of_magnetic_species": null, "bulk_modulus": null, "shear_modulus": null, "universal_anisotropy": null, "homogeneous_poisson": null, "e_total": null, "e_ionic": null, "e_electronic": null, "n": null, "e_ij_max": null, "weighted_surface_energy_EV_PER_ANG2": null, "weighted_surface_energy": null, "weighted_work_function": null, "surface_anisotropy": null, "shape_factor": null, "has_reconstructed": null, "possible_species": null, "has_props": null, "theoretical": null, "database_IDs": null, "fields_not_requested": ["builder_meta", "nsites", "elements", "nelements", "composition", "composition_reduced", "chemsys", "symmetry", "property_name", "deprecated", "deprecation_reasons", "last_updated", "origins", "warnings", "task_ids", "uncorrected_energy_per_atom", "equilibrium_reaction_energy_per_atom", "decomposes_to", "xas", "grain_boundaries", "cbm", "vbm", "is_gap_direct", "is_metal", "es_source_calc_id", "bandstructure", "dos", "dos_energy_up", "dos_energy_down", "is_magnetic", "ordering", "total_magnetization_normalized_vol", "total_magnetization_normalized_formula_units", "num_magnetic_sites", "num_unique_magnetic_sites", "types_of_magnetic_species", "bulk_modulus", "shear_modulus", "universal_anisotropy", "homogeneous_poisson", "e_total", "e_ionic", "e_electronic", "n", "e_ij_max", "weighted_surface_energy_EV_PER_ANG2", "weighted_surface_energy", "weighted_work_function", "surface_anisotropy", "shape_factor", "has_reconstructed", "possible_species", "has_props", "theoretical", "database_IDs"]}