{
  "builder_meta": null,
  "nsites": null,
  "elements": null,
  "nelements": null,
  "composition": null,
  "composition_reduced": null,
  "formula_pretty": "ErCo3",
  "formula_anonymous": "AB3",
  "chemsys": null,
  "volume": 171.0885062014703,
  "density": 10.018020513642899,
  "density_atomic": 14.25737551678919,
  "symmetry": null,
  "property_name": null,
  "material_id": "mp-411",
  "deprecated": null,
  "deprecation_reasons": null,
  "last_updated": null,
  "origins": null,
  "warnings": null,
  "structure": {
    "@module": "pymatgen.core.structure",
    "@class": "Structure",
    "charge": 0,
    "lattice": {
      "matrix": [
        [8.11057964, -2.4874030400000002, -0.028776450000000002],
        [8.11057963, 2.48740097, -0.02877537],
        [7.36277967, 3.0000000000000004e-8, 4.21414192]
      ],
      "pbc": [true, true, true],
      "a": 8.483484193670568,
      "b": 8.483483573511917,
      "c": 8.483484931964375,
      "alpha": 34.099921977042214,
      "beta": 34.099934733575765,
      "gamma": 34.09989481609489,
      "volume": 171.08850620147032
    },
    "properties": {},
    "sites": [
      {
        "species": [{ "element": "Er", "occu": 1 }],
        "abc": [0.8582313500000001, 0.8582313500000001, 0.8582313500000001],
        "properties": { "magmom": -0.657 },
        "label": "Er",
        "xyz": [20.24047575479377, -1.750791954160007e-6, 3.5673159329196356]
      },
      {
        "species": [{ "element": "Er", "occu": 1 }],
        "abc": [0.14176865, 0.14176865, 0.14176865],
        "properties": { "magmom": -0.657 },
        "label": "Er",
        "xyz": [3.3434631852062306, -2.8920804602719297e-7, 0.5892741670803651]
      },
      {
        "species": [{ "element": "Er", "occu": 1 }],
        "abc": [-0.0, -0.0, 0.0],
        "properties": { "magmom": -0.5690000000000001 },
        "label": "Er",
        "xyz": [0.0, 0.0, 0.0]
      },
      {
        "species": [{ "element": "Co", "occu": 1 }],
        "abc": [0.42430942, 0.90851571, 0.42430942],
        "properties": { "magmom": 1.564 },
        "label": "Co",
        "xyz": [13.934081125338686, 1.2044143298348844, 1.7497471193576648]
      },
      {
        "species": [{ "element": "Co", "occu": 1 }],
        "abc": [0.32871384, 0.32871584, 0.32871684],
        "properties": { "magmom": 1.742 },
        "label": "Co",
        "xyz": [7.752405440791199, 4.304225796368584e-6, 1.3663412779520043]
      },
      {
        "species": [{ "element": "Co", "occu": 1 }],
        "abc": [0.67128616, 0.67128416, 0.67128316],
        "properties": { "magmom": 1.742 },
        "label": "Co",
        "xyz": [15.831533499208799, -6.344225796555784e-6, 2.790248822047996]
      },
      {
        "species": [{ "element": "Co", "occu": 1 }],
        "abc": [0.5756905800000001, 0.5756905800000001, 0.09148429],
        "properties": { "magmom": 1.564 },
        "label": "Co",
        "xyz": [10.011947258955063, -1.1889349719339242e-6, 0.3523957408745812]
      },
      {
        "species": [{ "element": "Co", "occu": 1 }],
        "abc": [0.5756905800000001, 0.09148429, 0.5756905800000001],
        "properties": { "magmom": 1.564 },
        "label": "Co",
        "xyz": [9.649857814661313, -1.2044163698348849, 2.406842980642336]
      },
      {
        "species": [{ "element": "Co", "occu": 1 }],
        "abc": [0.42430942, 0.42430942, 0.90851571],
        "properties": { "magmom": 1.564 },
        "label": "Co",
        "xyz": [13.571991681044938, -8.510650281422533e-7, 3.804194359125419]
      },
      {
        "species": [{ "element": "Co", "occu": 1 }],
        "abc": [0.09148429, 0.5756905800000001, 0.5756905800000001],
        "properties": { "magmom": 1.564 },
        "label": "Co",
        "xyz": [9.64985780981925, 1.2044150233243385, 2.406843503585129]
      },
      {
        "species": [{ "element": "Co", "occu": 1 }],
        "abc": [0.90851571, 0.42430942, 0.42430942],
        "properties": { "magmom": 1.564 },
        "label": "Co",
        "xyz": [13.93408113018075, -1.2044170633243387, 1.7497465964148715]
      },
      {
        "species": [{ "element": "Co", "occu": 1 }],
        "abc": [0.5, 0.5, 0.5],
        "properties": { "magmom": 1.429 },
        "label": "Co",
        "xyz": [11.791969470000002, -1.020000000149111e-6, 2.0782950500000004]
      }
    ]
  },
  "task_ids": null,
  "uncorrected_energy_per_atom": null,
  "energy_per_atom": -6.6791451991666655,
  "formation_energy_per_atom": -0.187152956666664,
  "energy_above_hull": 0.0,
  "is_stable": true,
  "equilibrium_reaction_energy_per_atom": null,
  "decomposes_to": null,
  "xas": null,
  "grain_boundaries": null,
  "band_gap": 0.0,
  "cbm": null,
  "vbm": null,
  "efermi": 4.73625646,
  "is_gap_direct": null,
  "is_metal": null,
  "es_source_calc_id": null,
  "bandstructure": null,
  "dos": null,
  "dos_energy_up": null,
  "dos_energy_down": null,
  "is_magnetic": null,
  "ordering": null,
  "total_magnetization": 11.8462948,
  "total_magnetization_normalized_vol": null,
  "total_magnetization_normalized_formula_units": null,
  "num_magnetic_sites": null,
  "num_unique_magnetic_sites": null,
  "types_of_magnetic_species": null,
  "bulk_modulus": null,
  "shear_modulus": null,
  "universal_anisotropy": null,
  "homogeneous_poisson": null,
  "e_total": null,
  "e_ionic": null,
  "e_electronic": null,
  "n": null,
  "e_ij_max": null,
  "weighted_surface_energy_EV_PER_ANG2": null,
  "weighted_surface_energy": null,
  "weighted_work_function": null,
  "surface_anisotropy": null,
  "shape_factor": null,
  "has_reconstructed": null,
  "possible_species": null,
  "has_props": null,
  "theoretical": null,
  "database_IDs": null,
  "fields_not_requested": [
    "builder_meta",
    "nsites",
    "elements",
    "nelements",
    "composition",
    "composition_reduced",
    "chemsys",
    "symmetry",
    "property_name",
    "deprecated",
    "deprecation_reasons",
    "last_updated",
    "origins",
    "warnings",
    "task_ids",
    "uncorrected_energy_per_atom",
    "equilibrium_reaction_energy_per_atom",
    "decomposes_to",
    "xas",
    "grain_boundaries",
    "cbm",
    "vbm",
    "is_gap_direct",
    "is_metal",
    "es_source_calc_id",
    "bandstructure",
    "dos",
    "dos_energy_up",
    "dos_energy_down",
    "is_magnetic",
    "ordering",
    "total_magnetization_normalized_vol",
    "total_magnetization_normalized_formula_units",
    "num_magnetic_sites",
    "num_unique_magnetic_sites",
    "types_of_magnetic_species",
    "bulk_modulus",
    "shear_modulus",
    "universal_anisotropy",
    "homogeneous_poisson",
    "e_total",
    "e_ionic",
    "e_electronic",
    "n",
    "e_ij_max",
    "weighted_surface_energy_EV_PER_ANG2",
    "weighted_surface_energy",
    "weighted_work_function",
    "surface_anisotropy",
    "shape_factor",
    "has_reconstructed",
    "possible_species",
    "has_props",
    "theoretical",
    "database_IDs"
  ]
}
