{"builder_meta": null, "nsites": null, "elements": null, "nelements": null, "composition": null, "composition_reduced": null, "formula_pretty": "ErCo2", "formula_anonymous": "AB2", "chemsys": null, "volume": 89.31411052725267, "density": 10.602173523971716, "density_atomic": 14.885685087875444, "symmetry": null, "property_name": null, "material_id": "mp-537", "deprecated": null, "deprecation_reasons": null, "last_updated": null, "origins": null, "warnings": null, "structure": {"@module": "pymatgen.core.structure", "@class": "Structure", "charge": 0, "lattice": {"matrix": [[4.34516644, -0.00019262, 2.50865206], [1.44821012, 4.09672459, 2.50864893], [1.07e-06, -2.09e-06, 5.01729996]], "pbc": [true, true, true], "a": 5.017350554480619, "b": 5.0173483407046024, "c": 5.01729996000055, "alpha": 60.000351252230374, "beta": 60.000293925144945, "gamma": 60.00432454558013, "volume": 89.31411052725267}, "properties": {}, "sites": [{"species": [{"element": "Er", "occu": 1}], "abc": [0.12500618, 0.12500196, 0.12499443], "properties": {"magmom": -0.632}, "label": "Er", "xyz": [0.7242018953644744, 0.5120742634014461, 1.2543175928108563]}, {"species": [{"element": "Er", "occu": 1}], "abc": [0.87499382, 0.87499804, 0.87500557], "properties": {"magmom": -0.632}, "label": "Er", "xyz": [5.069175734635525, 3.584455616598554, 8.780283357189145]}, {"species": [{"element": "Co", "occu": 1}], "abc": [0.5, -0.0, 0.5], "properties": {"magmom": 1.385}, "label": "Co", "xyz": [2.172583755, -9.7355e-05, 3.76297601]}, {"species": [{"element": "Co", "occu": 1}], "abc": [0.0, 0.5, 0.5], "properties": {"magmom": 1.385}, "label": "Co", "xyz": [0.7241055949999999, 2.04836125, 3.7629744450000002]}, {"species": [{"element": "Co", "occu": 1}], "abc": [0.5, 0.5, 0.5], "properties": {"magmom": 1.3860000000000001}, "label": "Co", "xyz": [2.8966888149999996, 2.04826494, 5.017300475000001]}, {"species": [{"element": "Co", "occu": 1}], "abc": [0.5, 0.5, 0.0], "properties": {"magmom": 1.3860000000000001}, "label": "Co", "xyz": [2.89668828, 2.048265985, 2.5086504950000004]}]}, "task_ids": null, "uncorrected_energy_per_atom": null, "energy_per_atom": -6.505107469999996, "formation_energy_per_atom": -0.226923386666662, "energy_above_hull": 0.0, "is_stable": true, "equilibrium_reaction_energy_per_atom": null, "decomposes_to": null, "xas": null, "grain_boundaries": null, "band_gap": 0.0, "cbm": null, "vbm": null, "efermi": 4.51745267, "is_gap_direct": null, "is_metal": null, "es_source_calc_id": null, "bandstructure": null, "dos": null, "dos_energy_up": null, "dos_energy_down": null, "is_magnetic": null, "ordering": null, "total_magnetization": 4.0870044, "total_magnetization_normalized_vol": null, "total_magnetization_normalized_formula_units": null, "num_magnetic_sites": null, "num_unique_magnetic_sites": null, "types_of_magnetic_species": null, "bulk_modulus": null, "shear_modulus": null, "universal_anisotropy": null, "homogeneous_poisson": null, "e_total": null, "e_ionic": null, "e_electronic": null, "n": null, "e_ij_max": null, "weighted_surface_energy_EV_PER_ANG2": null, "weighted_surface_energy": null, "weighted_work_function": null, "surface_anisotropy": null, "shape_factor": null, "has_reconstructed": null, "possible_species": null, "has_props": null, "theoretical": null, "database_IDs": null, "fields_not_requested": ["builder_meta", "nsites", "elements", "nelements", "composition", "composition_reduced", "chemsys", "symmetry", "property_name", "deprecated", "deprecation_reasons", "last_updated", "origins", "warnings", "task_ids", "uncorrected_energy_per_atom", "equilibrium_reaction_energy_per_atom", "decomposes_to", "xas", "grain_boundaries", "cbm", "vbm", "is_gap_direct", "is_metal", "es_source_calc_id", "bandstructure", "dos", "dos_energy_up", "dos_energy_down", "is_magnetic", "ordering", "total_magnetization_normalized_vol", "total_magnetization_normalized_formula_units", "num_magnetic_sites", "num_unique_magnetic_sites", "types_of_magnetic_species", "bulk_modulus", "shear_modulus", "universal_anisotropy", "homogeneous_poisson", "e_total", "e_ionic", "e_electronic", "n", "e_ij_max", "weighted_surface_energy_EV_PER_ANG2", "weighted_surface_energy", "weighted_work_function", "surface_anisotropy", "shape_factor", "has_reconstructed", "possible_species", "has_props", "theoretical", "database_IDs"]}