{"builder_meta": null, "nsites": null, "elements": null, "nelements": null, "composition": null, "composition_reduced": null, "formula_pretty": "ErCu5", "formula_anonymous": "AB5", "chemsys": null, "volume": 83.02578032279744, "density": 9.69991704070903, "density_atomic": 13.837630053799574, "symmetry": null, "property_name": null, "material_id": "mp-30579", "deprecated": null, "deprecation_reasons": null, "last_updated": null, "origins": null, "warnings": null, "structure": {"@module": "pymatgen.core.structure", "@class": "Structure", "charge": 0, "lattice": {"matrix": [[4.24072379, -1e-08, 2.448383289999999], [1.41357258, 3.998193, 2.4483843], [1.009999999999998e-06, 1.009999999999998e-06, 4.89676557]], "pbc": [true, true, true], "a": 4.89676617757303, "b": 4.896766319180786, "c": 4.896765570000209, "alpha": 59.999969510973216, "beta": 59.9999854636886, "gamma": 60.00001602806667, "volume": 83.02578032279744}, "properties": {}, "sites": [{"species": [{"element": "Er", "occu": 1}], "abc": [0.0, 0.0, 0.0], "properties": {"magmom": 0.0}, "label": "Er", "xyz": [0.0, 0.0, 0.0]}, {"species": [{"element": "Cu", "occu": 1}], "abc": [0.25, 0.25, 0.25], "properties": {"magmom": -0.0}, "label": "Cu", "xyz": [1.413574345, 0.9995485000000001, 2.4483832899999998]}, {"species": [{"element": "Cu", "occu": 1}], "abc": [0.624027, 0.624026, 0.624026], "properties": {"magmom": 0.0}, "label": "Cu", "xyz": [3.52843281757567, 2.49497700904399, 6.111421772085449]}, {"species": [{"element": "Cu", "occu": 1}], "abc": [0.624026, 0.624027, 0.12791999], "properties": {"magmom": 0.0}, "label": "Cu", "xyz": [3.5284294893573893, 2.4949805061699304, 3.6821069432483835]}, {"species": [{"element": "Cu", "occu": 1}], "abc": [0.12791999, 0.624027, 0.624027], "properties": {"magmom": 0.0}, "label": "Cu", "xyz": [1.4245814314564922, 2.4949810121990703, 4.896769003899458]}, {"species": [{"element": "Cu", "occu": 1}], "abc": [0.624026, 0.12791999, 0.624027], "properties": {"magmom": 0.0}, "label": "Cu", "xyz": [2.8271467243436836, 0.5114494326050801, 4.896766054448086]}]}, "task_ids": null, "uncorrected_energy_per_atom": null, "energy_per_atom": -14.885784841666668, "formation_energy_per_atom": -0.19254898055555703, "energy_above_hull": 0.0, "is_stable": true, "equilibrium_reaction_energy_per_atom": null, "decomposes_to": null, "xas": null, "grain_boundaries": null, "band_gap": 0.0, "cbm": null, "vbm": null, "efermi": 5.91826411, "is_gap_direct": null, "is_metal": null, "es_source_calc_id": null, "bandstructure": null, "dos": null, "dos_energy_up": null, "dos_energy_down": null, "is_magnetic": null, "ordering": null, "total_magnetization": 8.099999999999999e-06, "total_magnetization_normalized_vol": null, "total_magnetization_normalized_formula_units": null, "num_magnetic_sites": null, "num_unique_magnetic_sites": null, "types_of_magnetic_species": null, "bulk_modulus": null, "shear_modulus": null, "universal_anisotropy": null, "homogeneous_poisson": null, "e_total": null, "e_ionic": null, "e_electronic": null, "n": null, "e_ij_max": null, "weighted_surface_energy_EV_PER_ANG2": null, "weighted_surface_energy": null, "weighted_work_function": null, "surface_anisotropy": null, "shape_factor": null, "has_reconstructed": null, "possible_species": null, "has_props": null, "theoretical": null, "database_IDs": null, "fields_not_requested": ["builder_meta", "nsites", "elements", "nelements", "composition", "composition_reduced", "chemsys", "symmetry", "property_name", "deprecated", "deprecation_reasons", "last_updated", "origins", "warnings", "task_ids", "uncorrected_energy_per_atom", "equilibrium_reaction_energy_per_atom", "decomposes_to", "xas", "grain_boundaries", "cbm", "vbm", "is_gap_direct", "is_metal", "es_source_calc_id", "bandstructure", "dos", "dos_energy_up", "dos_energy_down", "is_magnetic", "ordering", "total_magnetization_normalized_vol", "total_magnetization_normalized_formula_units", "num_magnetic_sites", "num_unique_magnetic_sites", "types_of_magnetic_species", "bulk_modulus", "shear_modulus", "universal_anisotropy", "homogeneous_poisson", "e_total", "e_ionic", "e_electronic", "n", "e_ij_max", "weighted_surface_energy_EV_PER_ANG2", "weighted_surface_energy", "weighted_work_function", "surface_anisotropy", "shape_factor", "has_reconstructed", "possible_species", "has_props", "theoretical", "database_IDs"]}