{
  "builder_meta": null,
  "nsites": null,
  "elements": null,
  "nelements": null,
  "composition": null,
  "composition_reduced": null,
  "formula_pretty": "ErF3",
  "formula_anonymous": "AB3",
  "chemsys": null,
  "volume": 183.5713985771102,
  "density": 8.114180722633286,
  "density_atomic": 11.473212411069387,
  "symmetry": null,
  "property_name": null,
  "material_id": "mp-9371",
  "deprecated": null,
  "deprecation_reasons": null,
  "last_updated": null,
  "origins": null,
  "warnings": null,
  "structure": {
    "@module": "pymatgen.core.structure",
    "@class": "Structure",
    "charge": 0,
    "lattice": {
      "matrix": [
        [4.3436757, 0.0, 0.0],
        [0.0, 6.24784654, 0.0],
        [0.0, 0.0, 6.76421292]
      ],
      "pbc": [true, true, true],
      "a": 4.3436757,
      "b": 6.24784654,
      "c": 6.76421292,
      "alpha": 90.0,
      "beta": 90.0,
      "gamma": 90.0,
      "volume": 183.5713985771102
    },
    "properties": {},
    "sites": [
      {
        "species": [{ "element": "Er", "occu": 1 }],
        "abc": [0.93864099, 0.6303151100000001, 0.75],
        "properties": { "magmom": 0.0 },
        "label": "Er",
        "xyz": [4.077152059286943, 3.93811207912322, 5.073159690000001]
      },
      {
        "species": [{ "element": "Er", "occu": 1 }],
        "abc": [0.43864099, 0.86968489, 0.25],
        "properties": { "magmom": 0.0 },
        "label": "Er",
        "xyz": [1.9053142092869433, 5.4336577308767815, 1.69105323]
      },
      {
        "species": [{ "element": "Er", "occu": 1 }],
        "abc": [0.56135901, 0.13031511, 0.75],
        "properties": { "magmom": 0.0 },
        "label": "Er",
        "xyz": [2.4383614907130573, 0.8141888091232196, 5.073159690000001]
      },
      {
        "species": [{ "element": "Er", "occu": 1 }],
        "abc": [0.06135901, 0.36968489, 0.25],
        "properties": { "magmom": 0.0 },
        "label": "Er",
        "xyz": [0.266523640713057, 2.3097344608767805, 1.69105323]
      },
      {
        "species": [{ "element": "F", "occu": 1 }],
        "abc": [0.37623517, 0.16601435, 0.43775116000000003],
        "properties": { "magmom": 0.0 },
        "label": "F",
        "xyz": [1.6342435654143692, 1.0372321822378492, 2.9610420522169876]
      },
      {
        "species": [{ "element": "F", "occu": 1 }],
        "abc": [0.8762351700000001, 0.33398565, 0.56224884],
        "properties": { "magmom": 0.0 },
        "label": "F",
        "xyz": [3.8060814154143694, 2.0866910877621514, 3.8031708677830127]
      },
      {
        "species": [{ "element": "F", "occu": 1 }],
        "abc": [0.12376483, 0.66601435, 0.06224884],
        "properties": { "magmom": 0.0 },
        "label": "F",
        "xyz": [0.5375942845856311, 4.161155452237849, 0.4210644077830128]
      },
      {
        "species": [{ "element": "F", "occu": 1 }],
        "abc": [0.62376483, 0.83398565, 0.93775116],
        "properties": { "magmom": 0.0 },
        "label": "F",
        "xyz": [2.7094321345856316, 5.210614357762151, 6.343148512216987]
      },
      {
        "species": [{ "element": "F", "occu": 1 }],
        "abc": [0.59123504, 0.52332504, 0.25],
        "properties": { "magmom": 0.0 },
        "label": "F",
        "xyz": [2.5681332762365283, 3.2696545404593618, 1.69105323]
      },
      {
        "species": [{ "element": "F", "occu": 1 }],
        "abc": [0.09123504, 0.97667496, 0.75],
        "properties": { "magmom": 0.0 },
        "label": "F",
        "xyz": [0.396295426236528, 6.102115269540638, 5.073159690000001]
      },
      {
        "species": [{ "element": "F", "occu": 1 }],
        "abc": [0.9087649600000001, 0.023325040000000002, 0.25],
        "properties": { "magmom": 0.0 },
        "label": "F",
        "xyz": [3.9473802737634727, 0.14573127045936163, 1.69105323]
      },
      {
        "species": [{ "element": "F", "occu": 1 }],
        "abc": [0.40876496, 0.47667496000000004, 0.75],
        "properties": { "magmom": 0.0 },
        "label": "F",
        "xyz": [1.7755424237634723, 2.978191999540639, 5.073159690000001]
      },
      {
        "species": [{ "element": "F", "occu": 1 }],
        "abc": [0.37623517, 0.16601435, 0.06224884],
        "properties": { "magmom": 0.0 },
        "label": "F",
        "xyz": [1.6342435654143692, 1.0372321822378492, 0.4210644077830128]
      },
      {
        "species": [{ "element": "F", "occu": 1 }],
        "abc": [0.8762351700000001, 0.33398565, 0.93775116],
        "properties": { "magmom": 0.0 },
        "label": "F",
        "xyz": [3.8060814154143694, 2.0866910877621514, 6.343148512216987]
      },
      {
        "species": [{ "element": "F", "occu": 1 }],
        "abc": [0.12376483, 0.66601435, 0.43775116000000003],
        "properties": { "magmom": 0.0 },
        "label": "F",
        "xyz": [0.5375942845856311, 4.161155452237849, 2.9610420522169876]
      },
      {
        "species": [{ "element": "F", "occu": 1 }],
        "abc": [0.62376483, 0.83398565, 0.56224884],
        "properties": { "magmom": 0.0 },
        "label": "F",
        "xyz": [2.7094321345856316, 5.210614357762151, 3.8031708677830127]
      }
    ]
  },
  "task_ids": null,
  "uncorrected_energy_per_atom": null,
  "energy_per_atom": -15.32450968125,
  "formation_energy_per_atom": -4.498629927083332,
  "energy_above_hull": 0.0,
  "is_stable": true,
  "equilibrium_reaction_energy_per_atom": null,
  "decomposes_to": null,
  "xas": null,
  "grain_boundaries": null,
  "band_gap": 7.6163,
  "cbm": null,
  "vbm": null,
  "efermi": -0.94615878,
  "is_gap_direct": null,
  "is_metal": null,
  "es_source_calc_id": null,
  "bandstructure": null,
  "dos": null,
  "dos_energy_up": null,
  "dos_energy_down": null,
  "is_magnetic": null,
  "ordering": null,
  "total_magnetization": 0.0,
  "total_magnetization_normalized_vol": null,
  "total_magnetization_normalized_formula_units": null,
  "num_magnetic_sites": null,
  "num_unique_magnetic_sites": null,
  "types_of_magnetic_species": null,
  "bulk_modulus": null,
  "shear_modulus": null,
  "universal_anisotropy": null,
  "homogeneous_poisson": null,
  "e_total": null,
  "e_ionic": null,
  "e_electronic": null,
  "n": null,
  "e_ij_max": null,
  "weighted_surface_energy_EV_PER_ANG2": null,
  "weighted_surface_energy": null,
  "weighted_work_function": null,
  "surface_anisotropy": null,
  "shape_factor": null,
  "has_reconstructed": null,
  "possible_species": null,
  "has_props": null,
  "theoretical": null,
  "database_IDs": null,
  "fields_not_requested": [
    "builder_meta",
    "nsites",
    "elements",
    "nelements",
    "composition",
    "composition_reduced",
    "chemsys",
    "symmetry",
    "property_name",
    "deprecated",
    "deprecation_reasons",
    "last_updated",
    "origins",
    "warnings",
    "task_ids",
    "uncorrected_energy_per_atom",
    "equilibrium_reaction_energy_per_atom",
    "decomposes_to",
    "xas",
    "grain_boundaries",
    "cbm",
    "vbm",
    "is_gap_direct",
    "is_metal",
    "es_source_calc_id",
    "bandstructure",
    "dos",
    "dos_energy_up",
    "dos_energy_down",
    "is_magnetic",
    "ordering",
    "total_magnetization_normalized_vol",
    "total_magnetization_normalized_formula_units",
    "num_magnetic_sites",
    "num_unique_magnetic_sites",
    "types_of_magnetic_species",
    "bulk_modulus",
    "shear_modulus",
    "universal_anisotropy",
    "homogeneous_poisson",
    "e_total",
    "e_ionic",
    "e_electronic",
    "n",
    "e_ij_max",
    "weighted_surface_energy_EV_PER_ANG2",
    "weighted_surface_energy",
    "weighted_work_function",
    "surface_anisotropy",
    "shape_factor",
    "has_reconstructed",
    "possible_species",
    "has_props",
    "theoretical",
    "database_IDs"
  ]
}
