{"builder_meta": null, "nsites": null, "elements": null, "nelements": null, "composition": null, "composition_reduced": null, "formula_pretty": "ErFe3", "formula_anonymous": "AB3", "chemsys": null, "volume": 184.14531815403495, "density": 9.057061919949204, "density_atomic": 15.345443179502913, "symmetry": null, "property_name": null, "material_id": "mp-569783", "deprecated": null, "deprecation_reasons": null, "last_updated": null, "origins": null, "warnings": null, "structure": {"@module": "pymatgen.core.structure", "@class": "Structure", "charge": 0, "lattice": {"matrix": [[4.8595499, -0.031572699999999, 7.07806395], [2.17268121, 4.34691431, 7.07806396], [-0.05145068, -0.031572670000000004, 8.5855428]], "pbc": [true, true, true], "a": 8.585756306014334, "b": 8.585755475240413, "c": 8.585755014941624, "alpha": 34.81522468780596, "beta": 34.815233724128454, "gamma": 34.81522777435632, "volume": 184.14531815403492}, "properties": {}, "sites": [{"species": [{"element": "Er", "occu": 1}], "abc": [0.14229219, 0.14229219, 0.14229219], "properties": {"magmom": -1.021}, "label": "Er", "xyz": [0.993310535293842, 0.6095468639265789, 3.235962129584755]}, {"species": [{"element": "Er", "occu": 1}], "abc": [0.0, -0.0, 0.0], "properties": {"magmom": -0.804}, "label": "Er", "xyz": [0.0, 0.0, 0.0]}, {"species": [{"element": "Er", "occu": 1}], "abc": [0.8577078100000001, 0.8577078100000001, 0.8577078100000001], "properties": {"magmom": -1.021}, "label": "Er", "xyz": [5.987469894706159, 3.6742220760734225, 19.50570858041525]}, {"species": [{"element": "Fe", "occu": 1}], "abc": [0.41969033, 0.41969033, 0.91811462], "properties": {"magmom": 2.626}, "label": "Fe", "xyz": [2.9041217736752247, 1.782119814444196, 13.823702359385848]}, {"species": [{"element": "Fe", "occu": 1}], "abc": [0.91811462, 0.41969033, 0.41969033], "properties": {"magmom": 2.626}, "label": "Fe", "xyz": [5.351883750951313, 1.782119799491468, 13.07233828388458]}, {"species": [{"element": "Fe", "occu": 1}], "abc": [0.58030967, 0.08188538000000001, 0.58030967], "properties": {"magmom": 2.626}, "label": "Fe", "xyz": [2.9680972981851674, 0.3193048612750605, 9.669332421131177]}, {"species": [{"element": "Fe", "occu": 1}], "abc": [0.58030967, 0.58030967, 0.08188538000000001], "properties": {"magmom": 2.626}, "label": "Fe", "xyz": [4.076658656324775, 2.501649125555805, 8.917968350614153]}, {"species": [{"element": "Fe", "occu": 1}], "abc": [0.41969033, 0.91811462, 0.41969033], "properties": {"magmom": 2.626}, "label": "Fe", "xyz": [4.012683131814833, 3.9644640787249403, 13.072338288868822]}, {"species": [{"element": "Fe", "occu": 1}], "abc": [0.08188538000000001, 0.58030967, 0.58030967], "properties": {"magmom": 2.626}, "label": "Fe", "xyz": [1.628896679048687, 2.501649140508533, 9.669332426115421]}, {"species": [{"element": "Fe", "occu": 1}], "abc": [0.33284027, 0.33284027, 0.33284027], "properties": {"magmom": 2.66}, "label": "Fe", "xyz": [2.323484843131916, 1.4258108106072143, 7.569343819367491]}, {"species": [{"element": "Fe", "occu": 1}], "abc": [0.6671597300000001, 0.6671597300000001, 0.6671597300000001], "properties": {"magmom": 2.66}, "label": "Fe", "xyz": [4.657295586868084, 2.857958129392787, 15.172326890632512]}, {"species": [{"element": "Fe", "occu": 1}], "abc": [0.5, 0.5, 0.5], "properties": {"magmom": 2.475}, "label": "Fe", "xyz": [3.4903902149999997, 2.1418844700000004, 11.370835355]}]}, "task_ids": null, "uncorrected_energy_per_atom": null, "energy_per_atom": -7.593747091666668, "formation_energy_per_atom": -0.09930148166666701, "energy_above_hull": 0.0, "is_stable": true, "equilibrium_reaction_energy_per_atom": null, "decomposes_to": null, "xas": null, "grain_boundaries": null, "band_gap": 0.0, "cbm": null, "vbm": null, "efermi": 4.52356318, "is_gap_direct": null, "is_metal": null, "es_source_calc_id": null, "bandstructure": null, "dos": null, "dos_energy_up": null, "dos_energy_down": null, "is_magnetic": null, "ordering": null, "total_magnetization": 19.7325616, "total_magnetization_normalized_vol": null, "total_magnetization_normalized_formula_units": null, "num_magnetic_sites": null, "num_unique_magnetic_sites": null, "types_of_magnetic_species": null, "bulk_modulus": null, "shear_modulus": null, "universal_anisotropy": null, "homogeneous_poisson": null, "e_total": null, "e_ionic": null, "e_electronic": null, "n": null, "e_ij_max": null, "weighted_surface_energy_EV_PER_ANG2": null, "weighted_surface_energy": null, "weighted_work_function": null, "surface_anisotropy": null, "shape_factor": null, "has_reconstructed": null, "possible_species": null, "has_props": null, "theoretical": null, "database_IDs": null, "fields_not_requested": ["builder_meta", "nsites", "elements", "nelements", "composition", "composition_reduced", "chemsys", "symmetry", "property_name", "deprecated", "deprecation_reasons", "last_updated", "origins", "warnings", "task_ids", "uncorrected_energy_per_atom", "equilibrium_reaction_energy_per_atom", "decomposes_to", "xas", "grain_boundaries", "cbm", "vbm", "is_gap_direct", "is_metal", "es_source_calc_id", "bandstructure", "dos", "dos_energy_up", "dos_energy_down", "is_magnetic", "ordering", "total_magnetization_normalized_vol", "total_magnetization_normalized_formula_units", "num_magnetic_sites", "num_unique_magnetic_sites", "types_of_magnetic_species", "bulk_modulus", "shear_modulus", "universal_anisotropy", "homogeneous_poisson", "e_total", "e_ionic", "e_electronic", "n", "e_ij_max", "weighted_surface_energy_EV_PER_ANG2", "weighted_surface_energy", "weighted_work_function", "surface_anisotropy", "shape_factor", "has_reconstructed", "possible_species", "has_props", "theoretical", "database_IDs"]}