{"builder_meta": null, "nsites": null, "elements": null, "nelements": null, "composition": null, "composition_reduced": null, "formula_pretty": "ErGa", "formula_anonymous": "AB", "chemsys": null, "volume": 91.58314024274662, "density": 8.59367495017005, "density_atomic": 22.895785060686656, "symmetry": null, "property_name": null, "material_id": "mp-1018077", "deprecated": null, "deprecation_reasons": null, "last_updated": null, "origins": null, "warnings": null, "structure": {"@module": "pymatgen.core.structure", "@class": "Structure", "charge": 0, "lattice": {"matrix": [[0.0, 0.0, 4.00428021], [4.2875856, 0.0, -0.0], [-2.14379179, 5.33431019, -0.0]], "pbc": [true, true, true], "a": 4.00428021, "b": 4.2875856, "c": 5.748974555693323, "alpha": 111.89457052298287, "beta": 90.0, "gamma": 90.0, "volume": 91.58314024274662}, "properties": {}, "sites": [{"species": [{"element": "Er", "occu": 1}], "abc": [0.25, 0.13848737, 0.27697474], "properties": {"magmom": -0.0}, "label": "Er", "xyz": [2.797444874635957e-07, 1.4774691779546005, 1.0010700525]}, {"species": [{"element": "Er", "occu": 1}], "abc": [0.75, 0.86151263, 0.72302526], "properties": {"magmom": -0.0}, "label": "Er", "xyz": [2.143793530255513, 3.8568410120453995, 3.0032101575]}, {"species": [{"element": "Ga", "occu": 1}], "abc": [0.25, 0.42328106, 0.8465591100000001], "properties": {"magmom": 0.0}, "label": "Ga", "xyz": [7.307841028980633e-06, 4.515808886910332, 1.0010700525]}, {"species": [{"element": "Ga", "occu": 1}], "abc": [0.75, 0.57671894, 0.15344089], "properties": {"magmom": 0.0}, "label": "Ga", "xyz": [2.143786502158971, 0.8185013030896691, 3.0032101575]}]}, "task_ids": null, "uncorrected_energy_per_atom": null, "energy_per_atom": -23.4154733625, "formation_energy_per_atom": -0.731367804166666, "energy_above_hull": 0.0, "is_stable": true, "equilibrium_reaction_energy_per_atom": null, "decomposes_to": null, "xas": null, "grain_boundaries": null, "band_gap": 0.0, "cbm": null, "vbm": null, "efermi": 3.13897836, "is_gap_direct": null, "is_metal": null, "es_source_calc_id": null, "bandstructure": null, "dos": null, "dos_energy_up": null, "dos_energy_down": null, "is_magnetic": null, "ordering": null, "total_magnetization": 0.00019989999999900002, "total_magnetization_normalized_vol": null, "total_magnetization_normalized_formula_units": null, "num_magnetic_sites": null, "num_unique_magnetic_sites": null, "types_of_magnetic_species": null, "bulk_modulus": null, "shear_modulus": null, "universal_anisotropy": null, "homogeneous_poisson": null, "e_total": null, "e_ionic": null, "e_electronic": null, "n": null, "e_ij_max": null, "weighted_surface_energy_EV_PER_ANG2": null, "weighted_surface_energy": null, "weighted_work_function": null, "surface_anisotropy": null, "shape_factor": null, "has_reconstructed": null, "possible_species": null, "has_props": null, "theoretical": null, "database_IDs": null, "fields_not_requested": ["builder_meta", "nsites", "elements", "nelements", "composition", "composition_reduced", "chemsys", "symmetry", "property_name", "deprecated", "deprecation_reasons", "last_updated", "origins", "warnings", "task_ids", "uncorrected_energy_per_atom", "equilibrium_reaction_energy_per_atom", "decomposes_to", "xas", "grain_boundaries", "cbm", "vbm", "is_gap_direct", "is_metal", "es_source_calc_id", "bandstructure", "dos", "dos_energy_up", "dos_energy_down", "is_magnetic", "ordering", "total_magnetization_normalized_vol", "total_magnetization_normalized_formula_units", "num_magnetic_sites", "num_unique_magnetic_sites", "types_of_magnetic_species", "bulk_modulus", "shear_modulus", "universal_anisotropy", "homogeneous_poisson", "e_total", "e_ionic", "e_electronic", "n", "e_ij_max", "weighted_surface_energy_EV_PER_ANG2", "weighted_surface_energy", "weighted_work_function", "surface_anisotropy", "shape_factor", "has_reconstructed", "possible_species", "has_props", "theoretical", "database_IDs"]}