{"builder_meta": null, "nsites": null, "elements": null, "nelements": null, "composition": null, "composition_reduced": null, "formula_pretty": "ErGa3", "formula_anonymous": "AB3", "chemsys": null, "volume": 148.80211126088628, "density": 8.40140498633382, "density_atomic": 18.600263907610785, "symmetry": null, "property_name": null, "material_id": "mp-1184195", "deprecated": null, "deprecation_reasons": null, "last_updated": null, "origins": null, "warnings": null, "structure": {"@module": "pymatgen.core.structure", "@class": "Structure", "charge": 0, "lattice": {"matrix": [[3.09749645, -5.36502064, 0.0], [3.09749645, 5.36502064, -0.0], [0.0, 0.0, 4.47710091]], "pbc": [true, true, true], "a": 6.194992391067855, "b": 6.194992391067855, "c": 4.47710091, "alpha": 90.0, "beta": 90.0, "gamma": 119.99999456485527, "volume": 148.80211126088628}, "properties": {}, "sites": [{"species": [{"element": "Er", "occu": 1}], "abc": [0.333333, 0.666667, 0.75], "properties": {"magmom": 0.0}, "label": "Er", "xyz": [3.09749645, 1.7883437900137602, 3.3578256824999997]}, {"species": [{"element": "Er", "occu": 1}], "abc": [0.666667, 0.333333, 0.25], "properties": {"magmom": 0.0}, "label": "Er", "xyz": [3.09749645, -1.7883437900137602, 1.1192752275]}, {"species": [{"element": "Ga", "occu": 1}], "abc": [0.14690991, 0.29381781, 0.25], "properties": {"magmom": -0.0}, "label": "Ga", "xyz": [1.365152548116594, 0.788163915679056, 1.1192752275]}, {"species": [{"element": "Ga", "occu": 1}], "abc": [0.70618219, 0.85309009, 0.25], "properties": {"magmom": -0.0}, "label": "Ga", "xyz": [4.829840351883406, 0.7881639156790556, 1.1192752275]}, {"species": [{"element": "Ga", "occu": 1}], "abc": [0.14690991, 0.85309009, 0.25], "properties": {"magmom": -0.0}, "label": "Ga", "xyz": [3.09749645, 3.788671241258915, 1.1192752275]}, {"species": [{"element": "Ga", "occu": 1}], "abc": [0.85309009, 0.70618219, 0.75], "properties": {"magmom": -0.0}, "label": "Ga", "xyz": [4.829840351883406, -0.7881639156790556, 3.3578256824999997]}, {"species": [{"element": "Ga", "occu": 1}], "abc": [0.29381781, 0.14690991, 0.75], "properties": {"magmom": -0.0}, "label": "Ga", "xyz": [1.365152548116594, -0.788163915679056, 3.3578256824999997]}, {"species": [{"element": "Ga", "occu": 1}], "abc": [0.85309009, 0.14690991, 0.75], "properties": {"magmom": -0.0}, "label": "Ga", "xyz": [3.09749645, -3.788671241258915, 3.3578256824999997]}]}, "task_ids": null, "uncorrected_energy_per_atom": null, "energy_per_atom": -17.62186979125, "formation_energy_per_atom": -0.558429037083332, "energy_above_hull": 0.0, "is_stable": true, "equilibrium_reaction_energy_per_atom": null, "decomposes_to": null, "xas": null, "grain_boundaries": null, "band_gap": 0.0, "cbm": null, "vbm": null, "efermi": 4.03372685, "is_gap_direct": null, "is_metal": null, "es_source_calc_id": null, "bandstructure": null, "dos": null, "dos_energy_up": null, "dos_energy_down": null, "is_magnetic": null, "ordering": null, "total_magnetization": 1e-07, "total_magnetization_normalized_vol": null, "total_magnetization_normalized_formula_units": null, "num_magnetic_sites": null, "num_unique_magnetic_sites": null, "types_of_magnetic_species": null, "bulk_modulus": null, "shear_modulus": null, "universal_anisotropy": null, "homogeneous_poisson": null, "e_total": null, "e_ionic": null, "e_electronic": null, "n": null, "e_ij_max": null, "weighted_surface_energy_EV_PER_ANG2": null, "weighted_surface_energy": null, "weighted_work_function": null, "surface_anisotropy": null, "shape_factor": null, "has_reconstructed": null, "possible_species": null, "has_props": null, "theoretical": null, "database_IDs": null, "fields_not_requested": ["builder_meta", "nsites", "elements", "nelements", "composition", "composition_reduced", "chemsys", "symmetry", "property_name", "deprecated", "deprecation_reasons", "last_updated", "origins", "warnings", "task_ids", "uncorrected_energy_per_atom", "equilibrium_reaction_energy_per_atom", "decomposes_to", "xas", "grain_boundaries", "cbm", "vbm", "is_gap_direct", "is_metal", "es_source_calc_id", "bandstructure", "dos", "dos_energy_up", "dos_energy_down", "is_magnetic", "ordering", "total_magnetization_normalized_vol", "total_magnetization_normalized_formula_units", "num_magnetic_sites", "num_unique_magnetic_sites", "types_of_magnetic_species", "bulk_modulus", "shear_modulus", "universal_anisotropy", "homogeneous_poisson", "e_total", "e_ionic", "e_electronic", "n", "e_ij_max", "weighted_surface_energy_EV_PER_ANG2", "weighted_surface_energy", "weighted_work_function", "surface_anisotropy", "shape_factor", "has_reconstructed", "possible_species", "has_props", "theoretical", "database_IDs"]}