{"builder_meta": null, "nsites": null, "elements": null, "nelements": null, "composition": null, "composition_reduced": null, "formula_pretty": "ErGa6", "formula_anonymous": "AB6", "chemsys": null, "volume": 259.1922570692335, "density": 7.50336222832473, "density_atomic": 18.513732647802392, "symmetry": null, "property_name": null, "material_id": "mp-1103883", "deprecated": null, "deprecation_reasons": null, "last_updated": null, "origins": null, "warnings": null, "structure": {"@module": "pymatgen.core.structure", "@class": "Structure", "charge": 0, "lattice": {"matrix": [[5.89158931, 8.13e-06, 1.061e-05], [8.13e-06, 5.89158931, 1.061e-05], [1.3350000000000001e-05, 1.3350000000000001e-05, 7.46718812]], "pbc": [true, true, true], "a": 5.891589310015163, "b": 5.891589310015163, "c": 7.4671881200238674, "alpha": 89.99979438284576, "beta": 89.99979438284576, "gamma": 89.99984187111141, "volume": 259.1922570692335}, "properties": {}, "sites": [{"species": [{"element": "Er", "occu": 1}], "abc": [0.50001234, 1.234e-05, 1.69e-06], "properties": {"magmom": -0.0}, "label": "Er", "xyz": [2.945867357334971, 7.67673349711e-05, 1.7924809777600003e-05]}, {"species": [{"element": "Er", "occu": 1}], "abc": [0.99998796, 0.49998796, 0.9999961900000001], "properties": {"magmom": 0.0}, "label": "Er", "xyz": [5.891535790115958, 2.9457452001159585, 7.467175584757775]}, {"species": [{"element": "Ga", "occu": 1}], "abc": [0.499996499999999, 0.50000389, 0.16142767], "properties": {"magmom": -0.0}, "label": "Ga", "xyz": [2.945780254528429, 2.9458237933133553, 1.2054213896674184]}, {"species": [{"element": "Ga", "occu": 1}], "abc": [3.89e-06, -3.5e-06, 0.16142767], "properties": {"magmom": -0.0}, "label": "Ga", "xyz": [2.50733133554e-05, -1.84654715648e-05, 1.2054107796674183]}, {"species": [{"element": "Ga", "occu": 1}], "abc": [3.53e-06, -4.139999999999998e-06, 0.8385737400000001], "properties": {"magmom": -0.0}, "label": "Ga", "xyz": [3.19922360351e-05, -1.3196191615499982e-05, 6.261787869065498]}, {"species": [{"element": "Ga", "occu": 1}], "abc": [0.49999586, 0.50000353, 0.8385737400000001], "properties": {"magmom": -0.0}, "label": "Ga", "xyz": [2.945785523808384, 2.9458307122360345, 6.261798479065498]}, {"species": [{"element": "Ga", "occu": 1}], "abc": [0.82182078, 0.67818055, 0.35156628], "properties": {"magmom": 0.0}, "label": "Ga", "xyz": [4.841840729201571, 3.9955726534427, 2.6252274644227054]}, {"species": [{"element": "Ga", "occu": 1}], "abc": [0.3218198, 0.8218198, 0.35156783], "properties": {"magmom": 0.0}, "label": "Ga", "xyz": [1.8960414682518423, 4.841832058251842, 2.625235257566336]}, {"species": [{"element": "Ga", "occu": 1}], "abc": [0.67818184, 0.17818184, 0.35157054], "properties": {"magmom": 0.0}, "label": "Ga", "xyz": [3.9955750208651986, 1.0497844308651987, 2.6252524456486297]}, {"species": [{"element": "Ga", "occu": 1}], "abc": [0.17818055, 0.32182078000000003, 0.35156628], "properties": {"magmom": 0.0}, "label": "Ga", "xyz": [1.0497739334426999, 1.8960420092015713, 2.625216854422705]}, {"species": [{"element": "Ga", "occu": 1}], "abc": [0.67817925, 0.8218194400000001, 0.64843359], "properties": {"magmom": 0.0}, "label": "Ga", "xyz": [3.995568957544291, 4.841836797639916, 4.841991514843052]}, {"species": [{"element": "Ga", "occu": 1}], "abc": [0.17817959, 0.67817959, 0.64843176], "properties": {"magmom": 0.0}, "label": "Ga", "xyz": [1.0497751378682456, 3.9955657278682453, 4.841971020873592]}, {"species": [{"element": "Ga", "occu": 1}], "abc": [0.82181769, 0.32181769, 0.64842945], "properties": {"magmom": -0.0}, "label": "Ga", "xyz": [4.841823590083871, 1.8960330000838708, 4.841956819669515]}, {"species": [{"element": "Ga", "occu": 1}], "abc": [0.32181944, 0.17817925, 0.64843359], "properties": {"magmom": 0.0}, "label": "Ga", "xyz": [1.8960380776399155, 1.0497702375442912, 4.841980904843052]}]}, "task_ids": null, "uncorrected_energy_per_atom": null, "energy_per_atom": -14.981114362142858, "formation_energy_per_atom": -0.32652995261904605, "energy_above_hull": 0.0, "is_stable": true, "equilibrium_reaction_energy_per_atom": null, "decomposes_to": null, "xas": null, "grain_boundaries": null, "band_gap": 0.0, "cbm": null, "vbm": null, "efermi": 3.83221128, "is_gap_direct": null, "is_metal": null, "es_source_calc_id": null, "bandstructure": null, "dos": null, "dos_energy_up": null, "dos_energy_down": null, "is_magnetic": null, "ordering": null, "total_magnetization": 5e-07, "total_magnetization_normalized_vol": null, "total_magnetization_normalized_formula_units": null, "num_magnetic_sites": null, "num_unique_magnetic_sites": null, "types_of_magnetic_species": null, "bulk_modulus": null, "shear_modulus": null, "universal_anisotropy": null, "homogeneous_poisson": null, "e_total": null, "e_ionic": null, "e_electronic": null, "n": null, "e_ij_max": null, "weighted_surface_energy_EV_PER_ANG2": null, "weighted_surface_energy": null, "weighted_work_function": null, "surface_anisotropy": null, "shape_factor": null, "has_reconstructed": null, "possible_species": null, "has_props": null, "theoretical": null, "database_IDs": null, "fields_not_requested": ["builder_meta", "nsites", "elements", "nelements", "composition", "composition_reduced", "chemsys", "symmetry", "property_name", "deprecated", "deprecation_reasons", "last_updated", "origins", "warnings", "task_ids", "uncorrected_energy_per_atom", "equilibrium_reaction_energy_per_atom", "decomposes_to", "xas", "grain_boundaries", "cbm", "vbm", "is_gap_direct", "is_metal", "es_source_calc_id", "bandstructure", "dos", "dos_energy_up", "dos_energy_down", "is_magnetic", "ordering", "total_magnetization_normalized_vol", "total_magnetization_normalized_formula_units", "num_magnetic_sites", "num_unique_magnetic_sites", "types_of_magnetic_species", "bulk_modulus", "shear_modulus", "universal_anisotropy", "homogeneous_poisson", "e_total", "e_ionic", "e_electronic", "n", "e_ij_max", "weighted_surface_energy_EV_PER_ANG2", "weighted_surface_energy", "weighted_work_function", "surface_anisotropy", "shape_factor", "has_reconstructed", "possible_species", "has_props", "theoretical", "database_IDs"]}