{"builder_meta": null, "nsites": null, "elements": null, "nelements": null, "composition": null, "composition_reduced": null, "formula_pretty": "ErGe3", "formula_anonymous": "AB3", "chemsys": null, "volume": 160.68626000555088, "density": 7.9609143571059064, "density_atomic": 20.08578250069386, "symmetry": null, "property_name": null, "material_id": "mp-513", "deprecated": null, "deprecation_reasons": null, "last_updated": null, "origins": null, "warnings": null, "structure": {"@module": "pymatgen.core.structure", "@class": "Structure", "charge": 0, "lattice": {"matrix": [[3.87459034, -0.0, -0.0], [-0.0, 3.92015536, -0.75841386], [0.0, 0.01277382, 10.57665185]], "pbc": [true, true, true], "a": 3.87459034, "b": 3.9928448040935463, "c": 10.576659563708468, "alpha": 100.88027326045484, "beta": 90.0, "gamma": 90.0, "volume": 160.68626000555088}, "properties": {}, "sites": [{"species": [{"element": "Er", "occu": 1}], "abc": [0.25, 0.58318556, 0.16637012], "properties": {"magmom": 0.0}, "label": "Er", "xyz": [0.968647585, 2.28830318087486, 1.3173428258268605]}, {"species": [{"element": "Er", "occu": 1}], "abc": [0.75, 0.41681444, 0.83362988], "properties": {"magmom": 0.0}, "label": "Er", "xyz": [2.905942755, 1.64462599912514, 8.500895164173139]}, {"species": [{"element": "Ge", "occu": 1}], "abc": [0.25, 0.18943866, 0.37887632], "properties": {"magmom": -0.0}, "label": "Ge", "xyz": [0.968647585, 0.74746867630416, 3.8635700254853638]}, {"species": [{"element": "Ge", "occu": 1}], "abc": [0.75, 0.81056134, 0.6211236800000001], "properties": {"magmom": -0.0}, "label": "Ge", "xyz": [2.905942755, 3.18546050369584, 5.954667964514636]}, {"species": [{"element": "Ge", "occu": 1}], "abc": [0.75, 0.03890064, 0.07780128], "properties": {"magmom": -0.0}, "label": "Ge", "xyz": [2.905942755, 0.15349037194992002, 0.7933742675054974]}, {"species": [{"element": "Ge", "occu": 1}], "abc": [0.25, 0.9610993600000001, 0.92219872], "properties": {"magmom": -0.0}, "label": "Ge", "xyz": [0.968647585, 3.77943880805008, 9.024863722494503]}, {"species": [{"element": "Ge", "occu": 1}], "abc": [0.75, 0.69146176, 0.38292351], "properties": {"magmom": -0.0}, "label": "Ge", "xyz": [2.905942755, 2.715528920689542, 3.5256344680060003]}, {"species": [{"element": "Ge", "occu": 1}], "abc": [0.25, 0.30853824, 0.61707649], "properties": {"magmom": -0.0}, "label": "Ge", "xyz": [0.968647585, 1.2174002593104583, 6.292603521993999]}]}, "task_ids": null, "uncorrected_energy_per_atom": null, "energy_per_atom": -5.05169500375, "formation_energy_per_atom": -0.44249440999999906, "energy_above_hull": 0.005653073333333001, "is_stable": false, "equilibrium_reaction_energy_per_atom": null, "decomposes_to": null, "xas": null, "grain_boundaries": null, "band_gap": 0.0, "cbm": null, "vbm": null, "efermi": 5.63176706, "is_gap_direct": null, "is_metal": null, "es_source_calc_id": null, "bandstructure": null, "dos": null, "dos_energy_up": null, "dos_energy_down": null, "is_magnetic": null, "ordering": null, "total_magnetization": 0.0, "total_magnetization_normalized_vol": null, "total_magnetization_normalized_formula_units": null, "num_magnetic_sites": null, "num_unique_magnetic_sites": null, "types_of_magnetic_species": null, "bulk_modulus": null, "shear_modulus": null, "universal_anisotropy": null, "homogeneous_poisson": null, "e_total": null, "e_ionic": null, "e_electronic": null, "n": null, "e_ij_max": null, "weighted_surface_energy_EV_PER_ANG2": null, "weighted_surface_energy": null, "weighted_work_function": null, "surface_anisotropy": null, "shape_factor": null, "has_reconstructed": null, "possible_species": null, "has_props": null, "theoretical": null, "database_IDs": null, "fields_not_requested": ["builder_meta", "nsites", "elements", "nelements", "composition", "composition_reduced", "chemsys", "symmetry", "property_name", "deprecated", "deprecation_reasons", "last_updated", "origins", "warnings", "task_ids", "uncorrected_energy_per_atom", "equilibrium_reaction_energy_per_atom", "decomposes_to", "xas", "grain_boundaries", "cbm", "vbm", "is_gap_direct", "is_metal", "es_source_calc_id", "bandstructure", "dos", "dos_energy_up", "dos_energy_down", "is_magnetic", "ordering", "total_magnetization_normalized_vol", "total_magnetization_normalized_formula_units", "num_magnetic_sites", "num_unique_magnetic_sites", "types_of_magnetic_species", "bulk_modulus", "shear_modulus", "universal_anisotropy", "homogeneous_poisson", "e_total", "e_ionic", "e_electronic", "n", "e_ij_max", "weighted_surface_energy_EV_PER_ANG2", "weighted_surface_energy", "weighted_work_function", "surface_anisotropy", "shape_factor", "has_reconstructed", "possible_species", "has_props", "theoretical", "database_IDs"]}