{
  "builder_meta": null,
  "nsites": null,
  "elements": null,
  "nelements": null,
  "composition": null,
  "composition_reduced": null,
  "formula_pretty": "ErH3",
  "formula_anonymous": "AB3",
  "chemsys": null,
  "volume": 217.23215589349837,
  "density": 7.809928704646585,
  "density_atomic": 9.051339828895765,
  "symmetry": null,
  "property_name": null,
  "material_id": "mp-1190750",
  "deprecated": null,
  "deprecation_reasons": null,
  "last_updated": null,
  "origins": null,
  "warnings": null,
  "structure": {
    "@module": "pymatgen.core.structure",
    "@class": "Structure",
    "charge": 0,
    "lattice": {
      "matrix": [
        [-3.10751777, -5.3823827, -7.799999999999997e-7],
        [-3.10750274, 5.38237466, 1.34e-6],
        [-1.57e-6, -3.46e-6, -6.49392542]
      ],
      "pbc": [true, true, true],
      "a": 6.215039036090254,
      "b": 6.215024558255537,
      "c": 6.493925420001112,
      "alpha": 90.00003186495604,
      "beta": 89.99995944562014,
      "gamma": 120.00012015282256,
      "volume": 217.23215589349834
    },
    "properties": {},
    "sites": [
      {
        "species": [{ "element": "Er", "occu": 1 }],
        "abc": [0.33739536000000003, 0.33739263, 0.75000007],
        "properties": { "magmom": -0.0 },
        "label": "Er",
        "xyz": [-2.0969117763964635, -2.0001541758584876e-5, -4.870444330637036]
      },
      {
        "species": [{ "element": "Er", "occu": 1 }],
        "abc": [0.66261136, 7.9e-7, 0.75000046],
        "properties": { "magmom": 0.0 },
        "label": "Er",
        "xyz": [-2.059080208231754, -3.566426263813082, -4.870447569041496]
      },
      {
        "species": [{ "element": "Er", "occu": 1 }],
        "abc": [1.64e-6, 0.6626098300000001, 0.75000009],
        "properties": { "magmom": 0.0 },
        "label": "Er",
        "xyz": [-2.0590681361052185, 3.566402936350969, -4.870443761557395]
      },
      {
        "species": [{ "element": "Er", "occu": 1 }],
        "abc": [0.33738864, -7.9e-7, 0.24999954],
        "properties": { "magmom": 0.0 },
        "label": "Er",
        "xyz": [-1.048439131768246, -1.8159598961869179, -1.6234786309585045]
      },
      {
        "species": [{ "element": "Er", "occu": 1 }],
        "abc": [0.99999836, 0.33739017, 0.24999991],
        "properties": { "magmom": 0.0 },
        "label": "Er",
        "xyz": [-4.155953943894781, -3.5664144363509687, -1.6234810984426054]
      },
      {
        "species": [{ "element": "Er", "occu": 1 }],
        "abc": [0.66260464, 0.66260737, 0.24999993],
        "properties": { "magmom": -0.0 },
        "label": "Er",
        "xyz": [-4.118110303603537, 8.501541758819975e-6, -1.623480529362964]
      },
      {
        "species": [{ "element": "H", "occu": 1 }],
        "abc": [0.67964387, 0.64736551, 0.5901696200000001],
        "properties": { "magmom": 0.0 },
        "label": "H",
        "xyz": [-4.123696425969372, -0.17374173325395798, -3.8325171600821757]
      },
      {
        "species": [{ "element": "H", "occu": 1 }],
        "abc": [0.35263637000000003, 0.03227837, 0.59016987],
        "properties": { "magmom": -0.0 },
        "label": "H",
        "xyz": [-1.1961298359077246, -1.724291658512445, -3.8325193527144483]
      },
      {
        "species": [{ "element": "H", "occu": 1 }],
        "abc": [0.96772197, 0.32035858, 0.59016881],
        "properties": { "magmom": -0.0 },
        "label": "H",
        "xyz": [-4.002729309891948, -3.4843621286164193, -3.8325125628927896]
      },
      {
        "species": [{ "element": "H", "occu": 1 }],
        "abc": [0.67964088, 0.03227383, 0.09016952],
        "properties": { "magmom": -0.0 },
        "label": "H",
        "xyz": [-2.2122872685398782, -3.4843777819381674, -0.5855546249101526]
      },
      {
        "species": [{ "element": "H", "occu": 1 }],
        "abc": [0.9677245800000001, 0.64736891, 0.09017036],
        "properties": { "magmom": 0.0 },
        "label": "H",
        "xyz": [-5.018922131999066, -1.7242823328903916, -0.5855594802853843]
      },
      {
        "species": [{ "element": "H", "occu": 1 }],
        "abc": [0.35262912, 0.32035624, 0.09016951000000001],
        "properties": { "magmom": 0.0 },
        "label": "H",
        "xyz": [-2.0913092917616907, -0.1737078786418502, -0.5855539188712963]
      },
      {
        "species": [{ "element": "H", "occu": 1 }],
        "abc": [0.32035613, 0.35263449, 0.40983038],
        "properties": { "magmom": 0.0 },
        "label": "H",
        "xyz": [-2.0913256540306295, 0.17373023325395756, -2.661407699917824]
      },
      {
        "species": [{ "element": "H", "occu": 1 }],
        "abc": [0.64736363, 0.96772163, 0.40983013],
        "properties": { "magmom": -0.0 },
        "label": "H",
        "xyz": [-5.018892244092275, 1.7242801585124452, -2.661405507285552]
      },
      {
        "species": [{ "element": "H", "occu": 1 }],
        "abc": [0.03227803, 0.67964142, 0.40983119],
        "properties": { "magmom": -0.0 },
        "label": "H",
        "xyz": [-2.2122927701080526, 3.484350628616419, -2.6614122971072107]
      },
      {
        "species": [{ "element": "H", "occu": 1 }],
        "abc": [0.32035912, 0.96772617, 0.90983048],
        "properties": { "magmom": -0.0 },
        "label": "H",
        "xyz": [-4.002734811460122, 3.484366281938168, -5.908370235089847]
      },
      {
        "species": [{ "element": "H", "occu": 1 }],
        "abc": [0.03227542, 0.35263109, 0.90982964],
        "properties": { "magmom": 0.0 },
        "label": "H",
        "xyz": [-1.1960999480009347, 1.7242708328903908, -5.908365379714616]
      },
      {
        "species": [{ "element": "H", "occu": 1 }],
        "abc": [0.64737088, 0.67964376, 0.90983049],
        "properties": { "magmom": 0.0 },
        "label": "H",
        "xyz": [-4.12371278823831, 0.17369637864185064, -5.908370941128704]
      },
      {
        "species": [{ "element": "H", "occu": 1 }],
        "abc": [0.33333628, 0.66666766, 0.6882852700000001],
        "properties": { "magmom": 0.0 },
        "label": "H",
        "xyz": [-3.1075210742129578, 1.7941093116041054, -4.469672577732197]
      },
      {
        "species": [{ "element": "H", "occu": 1 }],
        "abc": [0.33333063, 0.66666506, 0.18827931],
        "properties": { "magmom": 0.0 },
        "label": "H",
        "xyz": [-3.1074946522210767, 1.7941274579128659, -1.2226711639357712]
      },
      {
        "species": [{ "element": "H", "occu": 1 }],
        "abc": [0.66666372, 0.33333234, 0.31171473],
        "properties": { "magmom": 0.0 },
        "label": "H",
        "xyz": [-3.107501005787042, -1.794120811604105, -2.0242522822678026]
      },
      {
        "species": [{ "element": "H", "occu": 1 }],
        "abc": [0.66666937, 0.33333494, 0.81172069],
        "properties": { "magmom": 0.0 },
        "label": "H",
        "xyz": [-3.107527427778924, -1.7941389579128662, -5.271253696064229]
      },
      {
        "species": [{ "element": "H", "occu": 1 }],
        "abc": [2.33e-6, 8.8e-7, 0.74999733],
        "properties": { "magmom": -0.0 },
        "label": "H",
        "xyz": [-1.11526146234e-5, -1.0399452752e-5, -4.870426726219767]
      },
      {
        "species": [{ "element": "H", "occu": 1 }],
        "abc": [0.9999976700000001, 0.99999912, 0.25000267],
        "properties": { "magmom": -0.0 },
        "label": "H",
        "xyz": [-6.215010927385377, -1.1005472486290816e-6, -1.623498133780233]
      }
    ]
  },
  "task_ids": null,
  "uncorrected_energy_per_atom": null,
  "energy_per_atom": -11.793423444583333,
  "formation_energy_per_atom": -0.720730351979166,
  "energy_above_hull": 0.0,
  "is_stable": true,
  "equilibrium_reaction_energy_per_atom": null,
  "decomposes_to": null,
  "xas": null,
  "grain_boundaries": null,
  "band_gap": 0.0,
  "cbm": null,
  "vbm": null,
  "efermi": 2.57830645,
  "is_gap_direct": null,
  "is_metal": null,
  "es_source_calc_id": null,
  "bandstructure": null,
  "dos": null,
  "dos_energy_up": null,
  "dos_energy_down": null,
  "is_magnetic": null,
  "ordering": null,
  "total_magnetization": 0.0,
  "total_magnetization_normalized_vol": null,
  "total_magnetization_normalized_formula_units": null,
  "num_magnetic_sites": null,
  "num_unique_magnetic_sites": null,
  "types_of_magnetic_species": null,
  "bulk_modulus": null,
  "shear_modulus": null,
  "universal_anisotropy": null,
  "homogeneous_poisson": null,
  "e_total": null,
  "e_ionic": null,
  "e_electronic": null,
  "n": null,
  "e_ij_max": null,
  "weighted_surface_energy_EV_PER_ANG2": null,
  "weighted_surface_energy": null,
  "weighted_work_function": null,
  "surface_anisotropy": null,
  "shape_factor": null,
  "has_reconstructed": null,
  "possible_species": null,
  "has_props": null,
  "theoretical": null,
  "database_IDs": null,
  "fields_not_requested": [
    "builder_meta",
    "nsites",
    "elements",
    "nelements",
    "composition",
    "composition_reduced",
    "chemsys",
    "symmetry",
    "property_name",
    "deprecated",
    "deprecation_reasons",
    "last_updated",
    "origins",
    "warnings",
    "task_ids",
    "uncorrected_energy_per_atom",
    "equilibrium_reaction_energy_per_atom",
    "decomposes_to",
    "xas",
    "grain_boundaries",
    "cbm",
    "vbm",
    "is_gap_direct",
    "is_metal",
    "es_source_calc_id",
    "bandstructure",
    "dos",
    "dos_energy_up",
    "dos_energy_down",
    "is_magnetic",
    "ordering",
    "total_magnetization_normalized_vol",
    "total_magnetization_normalized_formula_units",
    "num_magnetic_sites",
    "num_unique_magnetic_sites",
    "types_of_magnetic_species",
    "bulk_modulus",
    "shear_modulus",
    "universal_anisotropy",
    "homogeneous_poisson",
    "e_total",
    "e_ionic",
    "e_electronic",
    "n",
    "e_ij_max",
    "weighted_surface_energy_EV_PER_ANG2",
    "weighted_surface_energy",
    "weighted_work_function",
    "surface_anisotropy",
    "shape_factor",
    "has_reconstructed",
    "possible_species",
    "has_props",
    "theoretical",
    "database_IDs"
  ]
}
