{
  "builder_meta": null,
  "nsites": null,
  "elements": null,
  "nelements": null,
  "composition": null,
  "composition_reduced": null,
  "formula_pretty": "ErHg3",
  "formula_anonymous": "AB3",
  "chemsys": null,
  "volume": 183.9372426947635,
  "density": 13.885199964288537,
  "density_atomic": 22.99215533684544,
  "symmetry": null,
  "property_name": null,
  "material_id": "mp-866102",
  "deprecated": null,
  "deprecation_reasons": null,
  "last_updated": null,
  "origins": null,
  "warnings": null,
  "structure": {
    "@module": "pymatgen.core.structure",
    "@class": "Structure",
    "charge": 0,
    "lattice": {
      "matrix": [
        [6.56379715, -1.3580000000000002e-5, 3e-7],
        [-3.28190943, 5.68437776, 9.08e-6],
        [-1.04e-6, 6.74e-6, 4.92983187]
      ],
      "pbc": [true, true, true],
      "a": 6.563797150014055,
      "b": 6.563770259933539,
      "c": 4.929831870004717,
      "alpha": 89.99984685710605,
      "beta": 90.00000946859271,
      "gamma": 120.00036347291535,
      "volume": 183.93724269476348
    },
    "properties": {},
    "sites": [
      {
        "species": [{ "element": "Er", "occu": 1 }],
        "abc": [0.33333172, 0.66666731, 0.7500016700000001],
        "properties": { "magmom": -0.0 },
        "label": "Er",
        "xyz": [-2.071762287219077e-5, 3.789589358649524, 3.6973882886579137]
      },
      {
        "species": [{ "element": "Er", "occu": 1 }],
        "abc": [0.66666824, 0.33333283, 0.24999755],
        "properties": { "magmom": -0.0 },
        "label": "Er",
        "xyz": [3.2819066756044775, 1.8947823571586488, 1.232449116074487]
      },
      {
        "species": [{ "element": "Hg", "occu": 1 }],
        "abc": [0.16672079, 0.3334378, 0.25000277],
        "properties": { "magmom": -0.0 },
        "label": "Hg",
        "xyz": [8.5261064139783e-6, 1.8953858356136697, 1.2324747007657408]
      },
      {
        "species": [{ "element": "Hg", "occu": 1 }],
        "abc": [0.66656325, 0.8332799200000001, 0.24999809],
        "properties": { "magmom": -0.0 },
        "label": "Hg",
        "xyz": [1.640436473369079, 4.736670478160772, 1.2324563176717769]
      },
      {
        "species": [{ "element": "Hg", "occu": 1 }],
        "abc": [0.1667203, 0.83328216, 0.25000091],
        "properties": { "magmom": -0.0 },
        "label": "Hg",
        "xyz": [-1.6404386087685698, 4.736689999053222, 1.2324700698651048]
      },
      {
        "species": [{ "element": "Hg", "occu": 1 }],
        "abc": [0.83327936, 0.66656333, 0.74999613],
        "properties": { "magmom": -0.0 },
        "label": "Hg",
        "xyz": [3.2818754299066475, 3.7889915077237486, 3.6973611264295076]
      },
      {
        "species": [{ "element": "Hg", "occu": 1 }],
        "abc": [0.33343667, 0.16672088000000002, 0.75000087],
        "properties": { "magmom": -0.0 },
        "label": "Hg",
        "xyz": [1.6414470560006873, 0.9477049893355141, 3.6973798053103186]
      },
      {
        "species": [{ "element": "Hg", "occu": 1 }],
        "abc": [0.83327967, 0.16671876, 0.74999801],
        "properties": { "magmom": -0.0 },
        "label": "Hg",
        "xyz": [4.922322072499103, 0.9476861505674464, 3.697365855924821]
      }
    ]
  },
  "task_ids": null,
  "uncorrected_energy_per_atom": null,
  "energy_per_atom": -45.8819873625,
  "formation_energy_per_atom": -0.374773678958334,
  "energy_above_hull": 0.0,
  "is_stable": true,
  "equilibrium_reaction_energy_per_atom": null,
  "decomposes_to": null,
  "xas": null,
  "grain_boundaries": null,
  "band_gap": 0.0,
  "cbm": null,
  "vbm": null,
  "efermi": 3.58784173,
  "is_gap_direct": null,
  "is_metal": null,
  "es_source_calc_id": null,
  "bandstructure": null,
  "dos": null,
  "dos_energy_up": null,
  "dos_energy_down": null,
  "is_magnetic": null,
  "ordering": null,
  "total_magnetization": 2.7e-6,
  "total_magnetization_normalized_vol": null,
  "total_magnetization_normalized_formula_units": null,
  "num_magnetic_sites": null,
  "num_unique_magnetic_sites": null,
  "types_of_magnetic_species": null,
  "bulk_modulus": null,
  "shear_modulus": null,
  "universal_anisotropy": null,
  "homogeneous_poisson": null,
  "e_total": null,
  "e_ionic": null,
  "e_electronic": null,
  "n": null,
  "e_ij_max": null,
  "weighted_surface_energy_EV_PER_ANG2": null,
  "weighted_surface_energy": null,
  "weighted_work_function": null,
  "surface_anisotropy": null,
  "shape_factor": null,
  "has_reconstructed": null,
  "possible_species": null,
  "has_props": null,
  "theoretical": null,
  "database_IDs": null,
  "fields_not_requested": [
    "builder_meta",
    "nsites",
    "elements",
    "nelements",
    "composition",
    "composition_reduced",
    "chemsys",
    "symmetry",
    "property_name",
    "deprecated",
    "deprecation_reasons",
    "last_updated",
    "origins",
    "warnings",
    "task_ids",
    "uncorrected_energy_per_atom",
    "equilibrium_reaction_energy_per_atom",
    "decomposes_to",
    "xas",
    "grain_boundaries",
    "cbm",
    "vbm",
    "is_gap_direct",
    "is_metal",
    "es_source_calc_id",
    "bandstructure",
    "dos",
    "dos_energy_up",
    "dos_energy_down",
    "is_magnetic",
    "ordering",
    "total_magnetization_normalized_vol",
    "total_magnetization_normalized_formula_units",
    "num_magnetic_sites",
    "num_unique_magnetic_sites",
    "types_of_magnetic_species",
    "bulk_modulus",
    "shear_modulus",
    "universal_anisotropy",
    "homogeneous_poisson",
    "e_total",
    "e_ionic",
    "e_electronic",
    "n",
    "e_ij_max",
    "weighted_surface_energy_EV_PER_ANG2",
    "weighted_surface_energy",
    "weighted_work_function",
    "surface_anisotropy",
    "shape_factor",
    "has_reconstructed",
    "possible_species",
    "has_props",
    "theoretical",
    "database_IDs"
  ]
}
