{"builder_meta": null, "nsites": null, "elements": null, "nelements": null, "composition": null, "composition_reduced": null, "formula_pretty": "ErI3", "formula_anonymous": "AB3", "chemsys": null, "volume": 417.23909072830384, "density": 4.361669912738242, "density_atomic": 52.15488634103798, "symmetry": null, "property_name": null, "material_id": "mp-866003", "deprecated": null, "deprecation_reasons": null, "last_updated": null, "origins": null, "warnings": null, "structure": {"@module": "pymatgen.core.structure", "@class": "Structure", "charge": 0, "lattice": {"matrix": [[11.03437078, 0.0017718900000000001, 0.0], [-5.51565548, 9.55610856, 0.0], [0.0, 0.0, 3.9565448400000003]], "pbc": [true, true, true], "a": 11.034370922264303, "b": 11.033660597669266, "c": 3.9565448400000003, "alpha": 90.0, "beta": 90.0, "gamma": 119.98375535367624, "volume": 417.23909072830384}, "properties": {}, "sites": [{"species": [{"element": "Er", "occu": 1}], "abc": [0.33317661, 0.66662495, 0.749999], "properties": {"magmom": -0.0}, "label": "Er", "xyz": [-0.00047930860877087866, 6.370930743308065, 2.9674046734551602]}, {"species": [{"element": "Er", "occu": 1}], "abc": [0.6667628, 0.33334353, 0.249999], "properties": {"magmom": 0.0}, "label": "Er", "xyz": [5.51869988954394, 3.186648390791309, 0.9891322534551601]}, {"species": [{"element": "I", "occu": 1}], "abc": [0.21352248000000001, 0.42714823, 0.249999], "properties": {"magmom": 0.0}, "label": "I", "xyz": [8.37386133336615e-05, 4.082253195438936, 0.9891322534551601]}, {"species": [{"element": "I", "occu": 1}], "abc": [0.57275434, 0.78654161, 0.249999], "properties": {"magmom": 0.0}, "label": "I", "xyz": [1.981691211969662, 7.5172918698046844, 0.9891322534551601]}, {"species": [{"element": "I", "occu": 1}], "abc": [0.21336436, 0.78628907, 0.249999], "properties": {"magmom": -0.0}, "label": "I", "xyz": [-1.9825581583322034, 7.51424177063728, 0.9891322534551601]}, {"species": [{"element": "I", "occu": 1}], "abc": [0.78669352, 0.57285354, 0.749999], "properties": {"magmom": -0.0}, "label": "I", "xyz": [5.521005222764947, 5.475644551601455, 2.9674046734551602]}, {"species": [{"element": "I", "occu": 1}], "abc": [0.42725185, 0.21368635, 0.749999], "properties": {"magmom": 0.0}, "label": "I", "xyz": [3.535835041962245, 2.0427670016706525, 2.9674046734551602]}, {"species": [{"element": "I", "occu": 1}], "abc": [0.78647204, 0.2135137, 0.749999], "properties": {"magmom": -0.0}, "label": "I", "xyz": [7.500556088002915, 2.0417536381902277, 2.9674046734551602]}]}, "task_ids": null, "uncorrected_energy_per_atom": null, "energy_per_atom": -3.912359278749999, "formation_energy_per_atom": -1.627420114999998, "energy_above_hull": 0.0, "is_stable": true, "equilibrium_reaction_energy_per_atom": null, "decomposes_to": null, "xas": null, "grain_boundaries": null, "band_gap": 2.0376, "cbm": null, "vbm": null, "efermi": 0.1847694, "is_gap_direct": null, "is_metal": null, "es_source_calc_id": null, "bandstructure": null, "dos": null, "dos_energy_up": null, "dos_energy_down": null, "is_magnetic": null, "ordering": null, "total_magnetization": 0.0, "total_magnetization_normalized_vol": null, "total_magnetization_normalized_formula_units": null, "num_magnetic_sites": null, "num_unique_magnetic_sites": null, "types_of_magnetic_species": null, "bulk_modulus": null, "shear_modulus": null, "universal_anisotropy": null, "homogeneous_poisson": null, "e_total": null, "e_ionic": null, "e_electronic": null, "n": null, "e_ij_max": null, "weighted_surface_energy_EV_PER_ANG2": null, "weighted_surface_energy": null, "weighted_work_function": null, "surface_anisotropy": null, "shape_factor": null, "has_reconstructed": null, "possible_species": null, "has_props": null, "theoretical": null, "database_IDs": null, "fields_not_requested": ["builder_meta", "nsites", "elements", "nelements", "composition", "composition_reduced", "chemsys", "symmetry", "property_name", "deprecated", "deprecation_reasons", "last_updated", "origins", "warnings", "task_ids", "uncorrected_energy_per_atom", "equilibrium_reaction_energy_per_atom", "decomposes_to", "xas", "grain_boundaries", "cbm", "vbm", "is_gap_direct", "is_metal", "es_source_calc_id", "bandstructure", "dos", "dos_energy_up", "dos_energy_down", "is_magnetic", "ordering", "total_magnetization_normalized_vol", "total_magnetization_normalized_formula_units", "num_magnetic_sites", "num_unique_magnetic_sites", "types_of_magnetic_species", "bulk_modulus", "shear_modulus", "universal_anisotropy", "homogeneous_poisson", "e_total", "e_ionic", "e_electronic", "n", "e_ij_max", "weighted_surface_energy_EV_PER_ANG2", "weighted_surface_energy", "weighted_work_function", "surface_anisotropy", "shape_factor", "has_reconstructed", "possible_species", "has_props", "theoretical", "database_IDs"]}