{"builder_meta": null, "nsites": null, "elements": null, "nelements": null, "composition": null, "composition_reduced": null, "formula_pretty": "ErLu3", "formula_anonymous": "AB3", "chemsys": null, "volume": 236.60145834178468, "density": 9.715567506583497, "density_atomic": 29.575182292723085, "symmetry": null, "property_name": null, "material_id": "mp-985437", "deprecated": null, "deprecation_reasons": null, "last_updated": null, "origins": null, "warnings": null, "structure": {"@module": "pymatgen.core.structure", "@class": "Structure", "charge": 0, "lattice": {"matrix": [[7.0704245, 0.00112552, 0.0], [-3.53424259, 6.12298153, 0.0], [0.0, 0.0, 5.46473461]], "pbc": [true, true, true], "a": 7.070424589584102, "b": 7.069778886336619, "c": 5.46473461, "alpha": 90.0, "beta": 90.0, "gamma": 119.98482614314324, "volume": 236.60145834178468}, "properties": {}, "sites": [{"species": [{"element": "Er", "occu": 1}], "abc": [0.33332156, 0.66667024, 0.75], "properties": {"magmom": -0.0}, "label": "Er", "xyz": [0.0005505685086983902, 4.0823847262028785, 4.0985509575]}, {"species": [{"element": "Er", "occu": 1}], "abc": [0.66667318, 0.333317, 0.25], "properties": {"magmom": -0.0}, "label": "Er", "xyz": [3.5356392479938803, 2.041644188632563, 1.3661836525]}, {"species": [{"element": "Lu", "occu": 1}], "abc": [0.16616145000000002, 0.33253154, 0.25], "properties": {"magmom": -0.0}, "label": "Lu", "xyz": [-0.0004151441507636022, 2.03627149559766, 1.3661836525]}, {"species": [{"element": "Lu", "occu": 1}], "abc": [0.66744674, 0.83380146, 0.25], "properties": {"magmom": -0.0}, "label": "Lu", "xyz": [1.7722751514049486, 5.106102163921839, 1.3661836525]}, {"species": [{"element": "Lu", "occu": 1}], "abc": [0.16623125, 0.83376171, 0.25], "properties": {"magmom": -0.0}, "label": "Lu", "xyz": [-1.771390642727604, 5.105294647347716, 1.3661836525]}, {"species": [{"element": "Lu", "occu": 1}], "abc": [0.8338300200000001, 0.66752412, 0.75], "properties": {"magmom": -0.0}, "label": "Lu", "xyz": [3.5363400274872188, 4.0881763499536135, 4.0985509575]}, {"species": [{"element": "Lu", "occu": 1}], "abc": [0.33256199000000003, 0.16621236, 0.75], "properties": {"magmom": -0.0}, "label": "Lu", "xyz": [1.7639196401683428, 1.0180895155086955, 4.0985509575]}, {"species": [{"element": "Lu", "occu": 1}], "abc": [0.83377482, 0.16617957, 0.75], "properties": {"magmom": -0.0}, "label": "Lu", "xyz": [5.307823000929203, 1.0184528680087483, 4.0985509575]}]}, "task_ids": null, "uncorrected_energy_per_atom": null, "energy_per_atom": -37.03720774625, "formation_energy_per_atom": 0.0040611829166720004, "energy_above_hull": 0.0040611829166720004, "is_stable": false, "equilibrium_reaction_energy_per_atom": null, "decomposes_to": null, "xas": null, "grain_boundaries": null, "band_gap": 0.0, "cbm": null, "vbm": null, "efermi": 2.9293697, "is_gap_direct": null, "is_metal": null, "es_source_calc_id": null, "bandstructure": null, "dos": null, "dos_energy_up": null, "dos_energy_down": null, "is_magnetic": null, "ordering": null, "total_magnetization": 0.000248599999999, "total_magnetization_normalized_vol": null, "total_magnetization_normalized_formula_units": null, "num_magnetic_sites": null, "num_unique_magnetic_sites": null, "types_of_magnetic_species": null, "bulk_modulus": null, "shear_modulus": null, "universal_anisotropy": null, "homogeneous_poisson": null, "e_total": null, "e_ionic": null, "e_electronic": null, "n": null, "e_ij_max": null, "weighted_surface_energy_EV_PER_ANG2": null, "weighted_surface_energy": null, "weighted_work_function": null, "surface_anisotropy": null, "shape_factor": null, "has_reconstructed": null, "possible_species": null, "has_props": null, "theoretical": null, "database_IDs": null, "fields_not_requested": ["builder_meta", "nsites", "elements", "nelements", "composition", "composition_reduced", "chemsys", "symmetry", "property_name", "deprecated", "deprecation_reasons", "last_updated", "origins", "warnings", "task_ids", "uncorrected_energy_per_atom", "equilibrium_reaction_energy_per_atom", "decomposes_to", "xas", "grain_boundaries", "cbm", "vbm", "is_gap_direct", "is_metal", "es_source_calc_id", "bandstructure", "dos", "dos_energy_up", "dos_energy_down", "is_magnetic", "ordering", "total_magnetization_normalized_vol", "total_magnetization_normalized_formula_units", "num_magnetic_sites", "num_unique_magnetic_sites", "types_of_magnetic_species", "bulk_modulus", "shear_modulus", "universal_anisotropy", "homogeneous_poisson", "e_total", "e_ionic", "e_electronic", "n", "e_ij_max", "weighted_surface_energy_EV_PER_ANG2", "weighted_surface_energy", "weighted_work_function", "surface_anisotropy", "shape_factor", "has_reconstructed", "possible_species", "has_props", "theoretical", "database_IDs"]}