{"builder_meta": null, "nsites": null, "elements": null, "nelements": null, "composition": null, "composition_reduced": null, "formula_pretty": "ErMg2", "formula_anonymous": "AB2", "chemsys": null, "volume": 151.07942572602425, "density": 4.7453040815487935, "density_atomic": 25.17990428767071, "symmetry": null, "property_name": null, "material_id": "mp-1184269", "deprecated": null, "deprecation_reasons": null, "last_updated": null, "origins": null, "warnings": null, "structure": {"@module": "pymatgen.core.structure", "@class": "Structure", "charge": 0, "lattice": {"matrix": [[0.0, 4.22727787, 4.22727787], [4.22723207, 4.581e-05, 4.22723207], [4.22727787, 4.22727787, 0.0]], "pbc": [true, true, true], "a": 5.97827369567365, "b": 5.97820892486801, "c": 5.97827369567365, "alpha": 59.999641519271165, "beta": 60.00000000000001, "gamma": 59.999641519271165, "volume": 151.07942572602428}, "properties": {}, "sites": [{"species": [{"element": "Er", "occu": 1}], "abc": [0.7500009400000001, 0.7499961900000001, 0.7500009400000001], "properties": {"magmom": 0.003}, "label": "Er", "xyz": [6.340870322887012, 6.3409591096078595, 6.340870322887012]}, {"species": [{"element": "Er", "occu": 1}], "abc": [0.49999906, 0.50000381, 0.49999906], "properties": {"magmom": 0.003}, "label": "Er", "xyz": [4.2272671021129895, 4.227292827892141, 4.2272671021129895]}, {"species": [{"element": "Mg", "occu": 1}], "abc": [0.125, 0.625, 0.125], "properties": {"magmom": 0.0}, "label": "Mg", "xyz": [3.1704297775, 1.05684809875, 3.1704297775]}, {"species": [{"element": "Mg", "occu": 1}], "abc": [0.125, 0.125, 0.125], "properties": {"magmom": 0.0}, "label": "Mg", "xyz": [1.0568137425000002, 1.05682519375, 1.0568137425000002]}, {"species": [{"element": "Mg", "occu": 1}], "abc": [0.625, 0.125, 0.125], "properties": {"magmom": 0.0}, "label": "Mg", "xyz": [1.0568137425000002, 3.17046412875, 3.1704526775]}, {"species": [{"element": "Mg", "occu": 1}], "abc": [0.125, 0.125, 0.625], "properties": {"magmom": 0.0}, "label": "Mg", "xyz": [3.1704526775, 3.17046412875, 1.0568137425000002]}]}, "task_ids": null, "uncorrected_energy_per_atom": null, "energy_per_atom": -2.644355899999998, "formation_energy_per_atom": -0.03480295333333, "energy_above_hull": 0.004528138333334, "is_stable": false, "equilibrium_reaction_energy_per_atom": null, "decomposes_to": null, "xas": null, "grain_boundaries": null, "band_gap": 0.0, "cbm": null, "vbm": null, "efermi": 3.19555283, "is_gap_direct": null, "is_metal": null, "es_source_calc_id": null, "bandstructure": null, "dos": null, "dos_energy_up": null, "dos_energy_down": null, "is_magnetic": null, "ordering": null, "total_magnetization": 0.0113929, "total_magnetization_normalized_vol": null, "total_magnetization_normalized_formula_units": null, "num_magnetic_sites": null, "num_unique_magnetic_sites": null, "types_of_magnetic_species": null, "bulk_modulus": null, "shear_modulus": null, "universal_anisotropy": null, "homogeneous_poisson": null, "e_total": null, "e_ionic": null, "e_electronic": null, "n": null, "e_ij_max": null, "weighted_surface_energy_EV_PER_ANG2": null, "weighted_surface_energy": null, "weighted_work_function": null, "surface_anisotropy": null, "shape_factor": null, "has_reconstructed": null, "possible_species": null, "has_props": null, "theoretical": null, "database_IDs": null, "fields_not_requested": ["builder_meta", "nsites", "elements", "nelements", "composition", "composition_reduced", "chemsys", "symmetry", "property_name", "deprecated", "deprecation_reasons", "last_updated", "origins", "warnings", "task_ids", "uncorrected_energy_per_atom", "equilibrium_reaction_energy_per_atom", "decomposes_to", "xas", "grain_boundaries", "cbm", "vbm", "is_gap_direct", "is_metal", "es_source_calc_id", "bandstructure", "dos", "dos_energy_up", "dos_energy_down", "is_magnetic", "ordering", "total_magnetization_normalized_vol", "total_magnetization_normalized_formula_units", "num_magnetic_sites", "num_unique_magnetic_sites", "types_of_magnetic_species", "bulk_modulus", "shear_modulus", "universal_anisotropy", "homogeneous_poisson", "e_total", "e_ionic", "e_electronic", "n", "e_ij_max", "weighted_surface_energy_EV_PER_ANG2", "weighted_surface_energy", "weighted_work_function", "surface_anisotropy", "shape_factor", "has_reconstructed", "possible_species", "has_props", "theoretical", "database_IDs"]}