{
  "builder_meta": null,
  "nsites": null,
  "elements": null,
  "nelements": null,
  "composition": null,
  "composition_reduced": null,
  "formula_pretty": "ErMg5",
  "formula_anonymous": "AB5",
  "chemsys": null,
  "volume": 144.70542161662573,
  "density": 3.313884914965193,
  "density_atomic": 24.11757026943762,
  "symmetry": null,
  "property_name": null,
  "material_id": "mp-1184241",
  "deprecated": null,
  "deprecation_reasons": null,
  "last_updated": null,
  "origins": null,
  "warnings": null,
  "structure": {
    "@module": "pymatgen.core.structure",
    "@class": "Structure",
    "charge": 0,
    "lattice": {
      "matrix": [
        [1.60821883, -8.54244185, 0.0],
        [1.60821883, 8.54244185, 0.0],
        [0.0, 0.0, 5.26656724]
      ],
      "pbc": [true, true, true],
      "a": 8.69250715074759,
      "b": 8.69250715074759,
      "c": 5.26656724,
      "alpha": 90.0,
      "beta": 90.0,
      "gamma": 158.67632660095404,
      "volume": 144.70542161662573
    },
    "properties": {},
    "sites": [
      {
        "species": [{ "element": "Er", "occu": 1 }],
        "abc": [0.22095029, 0.77904971, -0.0],
        "properties": { "magmom": 0.0 },
        "label": "Er",
        "xyz": [1.6082188300000002, 4.767531841868728, 0.0]
      },
      {
        "species": [{ "element": "Mg", "occu": 1 }],
        "abc": [0.0017454999999990002, 0.998254499999999, 0.5],
        "properties": { "magmom": -0.0 },
        "label": "Mg",
        "xyz": [1.6082188299999969, 8.51262018550165, 2.63328362]
      },
      {
        "species": [{ "element": "Mg", "occu": 1 }],
        "abc": [0.66270162, 0.33729838, 0.5],
        "properties": { "magmom": 0.0 },
        "label": "Mg",
        "xyz": [1.60821883, -2.7797382555015933, 2.63328362]
      },
      {
        "species": [{ "element": "Mg", "occu": 1 }],
        "abc": [0.3343854, 0.6656146, 0.5],
        "properties": { "magmom": -0.0 },
        "label": "Mg",
        "xyz": [1.6082188299999998, 2.8295061800220194, 2.63328362]
      },
      {
        "species": [{ "element": "Mg", "occu": 1 }],
        "abc": [0.55346838, 0.44653162, -0.0],
        "properties": { "magmom": 0.0 },
        "label": "Mg",
        "xyz": [1.60821883, -0.9135010539274053, 0.0]
      },
      {
        "species": [{ "element": "Mg", "occu": 1 }],
        "abc": [0.89341481, 0.10658519, 0.0],
        "properties": { "magmom": 0.0 },
        "label": "Mg",
        "xyz": [1.60821883, -6.721446274707597, 0.0]
      }
    ]
  },
  "task_ids": null,
  "uncorrected_energy_per_atom": null,
  "energy_per_atom": -2.103969264999998,
  "formation_energy_per_atom": 0.016042215833335,
  "energy_above_hull": 0.038088450000001,
  "is_stable": false,
  "equilibrium_reaction_energy_per_atom": null,
  "decomposes_to": null,
  "xas": null,
  "grain_boundaries": null,
  "band_gap": 0.0,
  "cbm": null,
  "vbm": null,
  "efermi": 3.28609939,
  "is_gap_direct": null,
  "is_metal": null,
  "es_source_calc_id": null,
  "bandstructure": null,
  "dos": null,
  "dos_energy_up": null,
  "dos_energy_down": null,
  "is_magnetic": null,
  "ordering": null,
  "total_magnetization": 1.6e-6,
  "total_magnetization_normalized_vol": null,
  "total_magnetization_normalized_formula_units": null,
  "num_magnetic_sites": null,
  "num_unique_magnetic_sites": null,
  "types_of_magnetic_species": null,
  "bulk_modulus": null,
  "shear_modulus": null,
  "universal_anisotropy": null,
  "homogeneous_poisson": null,
  "e_total": null,
  "e_ionic": null,
  "e_electronic": null,
  "n": null,
  "e_ij_max": null,
  "weighted_surface_energy_EV_PER_ANG2": null,
  "weighted_surface_energy": null,
  "weighted_work_function": null,
  "surface_anisotropy": null,
  "shape_factor": null,
  "has_reconstructed": null,
  "possible_species": null,
  "has_props": null,
  "theoretical": null,
  "database_IDs": null,
  "fields_not_requested": [
    "builder_meta",
    "nsites",
    "elements",
    "nelements",
    "composition",
    "composition_reduced",
    "chemsys",
    "symmetry",
    "property_name",
    "deprecated",
    "deprecation_reasons",
    "last_updated",
    "origins",
    "warnings",
    "task_ids",
    "uncorrected_energy_per_atom",
    "equilibrium_reaction_energy_per_atom",
    "decomposes_to",
    "xas",
    "grain_boundaries",
    "cbm",
    "vbm",
    "is_gap_direct",
    "is_metal",
    "es_source_calc_id",
    "bandstructure",
    "dos",
    "dos_energy_up",
    "dos_energy_down",
    "is_magnetic",
    "ordering",
    "total_magnetization_normalized_vol",
    "total_magnetization_normalized_formula_units",
    "num_magnetic_sites",
    "num_unique_magnetic_sites",
    "types_of_magnetic_species",
    "bulk_modulus",
    "shear_modulus",
    "universal_anisotropy",
    "homogeneous_poisson",
    "e_total",
    "e_ionic",
    "e_electronic",
    "n",
    "e_ij_max",
    "weighted_surface_energy_EV_PER_ANG2",
    "weighted_surface_energy",
    "weighted_work_function",
    "surface_anisotropy",
    "shape_factor",
    "has_reconstructed",
    "possible_species",
    "has_props",
    "theoretical",
    "database_IDs"
  ]
}
