{
  "builder_meta": null,
  "nsites": null,
  "elements": null,
  "nelements": null,
  "composition": null,
  "composition_reduced": null,
  "formula_pretty": "ErMn2",
  "formula_anonymous": "AB2",
  "chemsys": null,
  "volume": 228.95154229969273,
  "density": 8.040018233523375,
  "density_atomic": 19.079295191641062,
  "symmetry": null,
  "property_name": null,
  "material_id": "mp-11855",
  "deprecated": null,
  "deprecation_reasons": null,
  "last_updated": null,
  "origins": null,
  "warnings": null,
  "structure": {
    "@module": "pymatgen.core.structure",
    "@class": "Structure",
    "charge": 0,
    "lattice": {
      "matrix": [
        [5.45934381, 1.145e-5, 5.379999999999998e-6],
        [-2.72966216, 4.7279465, -7.99e-6],
        [8.589999999999999e-6, -8.64e-6, 8.8701313]
      ],
      "pbc": [true, true, true],
      "a": 5.459343810014658,
      "b": 5.459352856764431,
      "c": 8.870131300008367,
      "alpha": 90.00015993019353,
      "beta": 89.99988805075263,
      "gamma": 119.99970692037726,
      "volume": 228.95154229969273
    },
    "properties": {},
    "sites": [
      {
        "species": [{ "element": "Er", "occu": 1 }],
        "abc": [0.333333, 0.666666, 0.43198774],
        "properties": { "magmom": 0.426 },
        "label": "Er",
        "xyz": [1.0207434856430193e-5, 3.1519612656577762, 3.8317844404604626]
      },
      {
        "species": [{ "element": "Er", "occu": 1 }],
        "abc": [0.666667, 0.333333999999999, 0.93199614],
        "properties": { "magmom": 0.426 },
        "label": "Er",
        "xyz": [2.7296831591866755, 1.5759848995214956, 8.266929056222983]
      },
      {
        "species": [{ "element": "Er", "occu": 1 }],
        "abc": [0.666667, 0.333333999999999, 0.56801226],
        "properties": { "magmom": 0.426 },
        "label": "Er",
        "xyz": [2.7296800325651462, 1.575988044342219, 5.038344249539539]
      },
      {
        "species": [{ "element": "Er", "occu": 1 }],
        "abc": [0.333333, 0.666666, 0.06800386],
        "properties": { "magmom": 0.426 },
        "label": "Er",
        "xyz": [7.080813327230193e-6, 3.1519644104784996, 0.603199633777018]
      },
      {
        "species": [{ "element": "Mn", "occu": 1 }],
        "abc": [0.16832312, 0.33664623, 0.7500121200000001],
        "properties": { "magmom": -3.571 },
        "label": "Mn",
        "xyz": [9.750518341110515e-6, 1.591640812061702, 6.652704196766365]
      },
      {
        "species": [{ "element": "Mn", "occu": 1 }],
        "abc": [0.83167588, 0.16832412, 0.24998588],
        "properties": { "magmom": -3.571 },
        "label": "Mn",
        "xyz": [4.0809387338037135, 0.7958347968304027, 2.21741070825256]
      },
      {
        "species": [{ "element": "Mn", "occu": 1 }],
        "abc": [0.33664623, 0.16832312, 0.24998888],
        "properties": { "magmom": -3.571 },
        "label": "Mn",
        "xyz": [1.3784044079976763, 0.7958244007684903, 2.2174346553949325]
      },
      {
        "species": [{ "element": "Mn", "occu": 1 }],
        "abc": [0.6633537700000001, 0.8316768800000001, 0.75001112],
        "properties": { "magmom": -3.571 },
        "label": "Mn",
        "xyz": [1.3512858320023236, 3.93212490923151, 6.6526940346050685]
      },
      {
        "species": [{ "element": "Mn", "occu": 1 }],
        "abc": [-0.0, -0.0, -0.0],
        "properties": { "magmom": 3.832 },
        "label": "Mn",
        "xyz": [0.0, 0.0, 0.0]
      },
      {
        "species": [{ "element": "Mn", "occu": 1 }],
        "abc": [-0.0, -0.0, 0.5],
        "properties": { "magmom": 3.833 },
        "label": "Mn",
        "xyz": [4.2949999999999995e-6, -4.32e-6, 4.43506565]
      },
      {
        "species": [{ "element": "Mn", "occu": 1 }],
        "abc": [0.8316768800000001, 0.6633537700000001, 0.24998788],
        "properties": { "magmom": -3.571 },
        "label": "Mn",
        "xyz": [2.7296804894816593, 3.136308497938298, 2.217424493233636]
      },
      {
        "species": [{ "element": "Mn", "occu": 1 }],
        "abc": [0.16832412, 0.83167588, 0.75001412],
        "properties": { "magmom": -3.571 },
        "label": "Mn",
        "xyz": [-1.3512484938037128, 3.9321145131695974, 6.6527179817474416]
      }
    ]
  },
  "task_ids": null,
  "uncorrected_energy_per_atom": null,
  "energy_per_atom": -21.226668552499998,
  "formation_energy_per_atom": -0.12930037993294902,
  "energy_above_hull": 0.0,
  "is_stable": true,
  "equilibrium_reaction_energy_per_atom": null,
  "decomposes_to": null,
  "xas": null,
  "grain_boundaries": null,
  "band_gap": 0.0,
  "cbm": null,
  "vbm": null,
  "efermi": 4.59847868,
  "is_gap_direct": null,
  "is_metal": null,
  "es_source_calc_id": null,
  "bandstructure": null,
  "dos": null,
  "dos_energy_up": null,
  "dos_energy_down": null,
  "is_magnetic": null,
  "ordering": null,
  "total_magnetization": 11.9686227,
  "total_magnetization_normalized_vol": null,
  "total_magnetization_normalized_formula_units": null,
  "num_magnetic_sites": null,
  "num_unique_magnetic_sites": null,
  "types_of_magnetic_species": null,
  "bulk_modulus": null,
  "shear_modulus": null,
  "universal_anisotropy": null,
  "homogeneous_poisson": null,
  "e_total": null,
  "e_ionic": null,
  "e_electronic": null,
  "n": null,
  "e_ij_max": null,
  "weighted_surface_energy_EV_PER_ANG2": null,
  "weighted_surface_energy": null,
  "weighted_work_function": null,
  "surface_anisotropy": null,
  "shape_factor": null,
  "has_reconstructed": null,
  "possible_species": null,
  "has_props": null,
  "theoretical": null,
  "database_IDs": null,
  "fields_not_requested": [
    "builder_meta",
    "nsites",
    "elements",
    "nelements",
    "composition",
    "composition_reduced",
    "chemsys",
    "symmetry",
    "property_name",
    "deprecated",
    "deprecation_reasons",
    "last_updated",
    "origins",
    "warnings",
    "task_ids",
    "uncorrected_energy_per_atom",
    "equilibrium_reaction_energy_per_atom",
    "decomposes_to",
    "xas",
    "grain_boundaries",
    "cbm",
    "vbm",
    "is_gap_direct",
    "is_metal",
    "es_source_calc_id",
    "bandstructure",
    "dos",
    "dos_energy_up",
    "dos_energy_down",
    "is_magnetic",
    "ordering",
    "total_magnetization_normalized_vol",
    "total_magnetization_normalized_formula_units",
    "num_magnetic_sites",
    "num_unique_magnetic_sites",
    "types_of_magnetic_species",
    "bulk_modulus",
    "shear_modulus",
    "universal_anisotropy",
    "homogeneous_poisson",
    "e_total",
    "e_ionic",
    "e_electronic",
    "n",
    "e_ij_max",
    "weighted_surface_energy_EV_PER_ANG2",
    "weighted_surface_energy",
    "weighted_work_function",
    "surface_anisotropy",
    "shape_factor",
    "has_reconstructed",
    "possible_species",
    "has_props",
    "theoretical",
    "database_IDs"
  ]
}
