{
  "builder_meta": null,
  "nsites": null,
  "elements": null,
  "nelements": null,
  "composition": null,
  "composition_reduced": null,
  "formula_pretty": "ErNi3",
  "formula_anonymous": "AB3",
  "chemsys": null,
  "volume": 165.2912233444948,
  "density": 10.347702857282641,
  "density_atomic": 13.774268612041233,
  "symmetry": null,
  "property_name": null,
  "material_id": "mp-1051",
  "deprecated": null,
  "deprecation_reasons": null,
  "last_updated": null,
  "origins": null,
  "warnings": null,
  "structure": {
    "@module": "pymatgen.core.structure",
    "@class": "Structure",
    "charge": 0,
    "lattice": {
      "matrix": [
        [4.67595192, -0.0052673500000000005, 7.05101169],
        [2.12161087, 4.1669307700000005, 7.05101169],
        [-0.008600720000000001, -0.0052653100000000005, 8.46056824]
      ],
      "pbc": [true, true, true],
      "a": 8.46057444596077,
      "b": 8.460573891775406,
      "c": 8.460574249988627,
      "alpha": 33.608993478594854,
      "beta": 33.60900094116444,
      "gamma": 33.6090105292369,
      "volume": 165.29122334449482
    },
    "properties": {},
    "sites": [
      {
        "species": [{ "element": "Er", "occu": 1 }],
        "abc": [0.86119315, 0.86119315, 0.86119315],
        "properties": { "magmom": -0.11900000000000001 },
        "label": "Er",
        "xyz": [5.84660763029382, 3.5794615810049466, 19.4307493493914]
      },
      {
        "species": [{ "element": "Er", "occu": 1 }],
        "abc": [0.13880685, 0.13880685, 0.13880685],
        "properties": { "magmom": -0.11900000000000001 },
        "label": "Er",
        "xyz": [0.9423544397061795, 0.5769365289950537, 3.1318422706085975]
      },
      {
        "species": [{ "element": "Er", "occu": 1 }],
        "abc": [0.0, 0.0, -0.0],
        "properties": { "magmom": -0.114 },
        "label": "Er",
        "xyz": [0.0, 0.0, 0.0]
      },
      {
        "species": [{ "element": "Ni", "occu": 1 }],
        "abc": [0.41724992, 0.41724992, 0.9199197100000001],
        "properties": { "magmom": 0.314 },
        "label": "Ni",
        "xyz": [2.8283705584742855, 1.7316100666136665, 13.667111608919141]
      },
      {
        "species": [{ "element": "Ni", "occu": 1 }],
        "abc": [0.41724992, 0.9199197100000001, 0.41724992],
        "properties": { "magmom": 0.314 },
        "label": "Ni",
        "xyz": [3.8991635710751518, 3.8288469939860903, 12.958570113937517]
      },
      {
        "species": [{ "element": "Ni", "occu": 1 }],
        "abc": [0.9199197100000001, 0.41724992, 0.41724992],
        "properties": { "magmom": 0.314 },
        "label": "Ni",
        "xyz": [5.183153650267031, 1.7316090411672946, 12.958570113937517]
      },
      {
        "species": [{ "element": "Ni", "occu": 1 }],
        "abc": [0.5, 0.5, 0.5],
        "properties": { "magmom": 0.149 },
        "label": "Ni",
        "xyz": [3.3944810350000005, 2.0781990550000002, 11.28129581]
      },
      {
        "species": [{ "element": "Ni", "occu": 1 }],
        "abc": [0.33330999, 0.33330899, 0.33330799],
        "properties": { "magmom": 0.401 },
        "label": "Ni",
        "xyz": [2.262826775252649, 1.3853648560799692, 7.520313215088114]
      },
      {
        "species": [{ "element": "Ni", "occu": 1 }],
        "abc": [0.66669001, 0.66669101, 0.66669201],
        "properties": { "magmom": 0.401 },
        "label": "Ni",
        "xyz": [4.526135294747351, 2.7710332539200317, 15.042278404911887]
      },
      {
        "species": [{ "element": "Ni", "occu": 1 }],
        "abc": [0.5827500800000001, 0.08008029, 0.5827500800000001],
        "properties": { "magmom": 0.314 },
        "label": "Ni",
        "xyz": [2.889798498924849, 0.32755111601391057, 9.604021506062486]
      },
      {
        "species": [{ "element": "Ni", "occu": 1 }],
        "abc": [0.5827500800000001, 0.5827500800000001, 0.08008029],
        "properties": { "magmom": 0.314 },
        "label": "Ni",
        "xyz": [3.9605915115257146, 2.424788043386334, 8.895480011080862]
      },
      {
        "species": [{ "element": "Ni", "occu": 1 }],
        "abc": [0.08008029, 0.5827500800000001, 0.5827500800000001],
        "properties": { "magmom": 0.314 },
        "label": "Ni",
        "xyz": [1.605808419732969, 2.424789068832706, 9.604021506062486]
      }
    ]
  },
  "task_ids": null,
  "uncorrected_energy_per_atom": null,
  "energy_per_atom": -5.913488341666668,
  "formation_energy_per_atom": -0.43645612916666704,
  "energy_above_hull": 0.0,
  "is_stable": true,
  "equilibrium_reaction_energy_per_atom": null,
  "decomposes_to": null,
  "xas": null,
  "grain_boundaries": null,
  "band_gap": 0.0,
  "cbm": null,
  "vbm": null,
  "efermi": 6.27022527,
  "is_gap_direct": null,
  "is_metal": null,
  "es_source_calc_id": null,
  "bandstructure": null,
  "dos": null,
  "dos_energy_up": null,
  "dos_energy_down": null,
  "is_magnetic": null,
  "ordering": null,
  "total_magnetization": 2.2389622,
  "total_magnetization_normalized_vol": null,
  "total_magnetization_normalized_formula_units": null,
  "num_magnetic_sites": null,
  "num_unique_magnetic_sites": null,
  "types_of_magnetic_species": null,
  "bulk_modulus": null,
  "shear_modulus": null,
  "universal_anisotropy": null,
  "homogeneous_poisson": null,
  "e_total": null,
  "e_ionic": null,
  "e_electronic": null,
  "n": null,
  "e_ij_max": null,
  "weighted_surface_energy_EV_PER_ANG2": null,
  "weighted_surface_energy": null,
  "weighted_work_function": null,
  "surface_anisotropy": null,
  "shape_factor": null,
  "has_reconstructed": null,
  "possible_species": null,
  "has_props": null,
  "theoretical": null,
  "database_IDs": null,
  "fields_not_requested": [
    "builder_meta",
    "nsites",
    "elements",
    "nelements",
    "composition",
    "composition_reduced",
    "chemsys",
    "symmetry",
    "property_name",
    "deprecated",
    "deprecation_reasons",
    "last_updated",
    "origins",
    "warnings",
    "task_ids",
    "uncorrected_energy_per_atom",
    "equilibrium_reaction_energy_per_atom",
    "decomposes_to",
    "xas",
    "grain_boundaries",
    "cbm",
    "vbm",
    "is_gap_direct",
    "is_metal",
    "es_source_calc_id",
    "bandstructure",
    "dos",
    "dos_energy_up",
    "dos_energy_down",
    "is_magnetic",
    "ordering",
    "total_magnetization_normalized_vol",
    "total_magnetization_normalized_formula_units",
    "num_magnetic_sites",
    "num_unique_magnetic_sites",
    "types_of_magnetic_species",
    "bulk_modulus",
    "shear_modulus",
    "universal_anisotropy",
    "homogeneous_poisson",
    "e_total",
    "e_ionic",
    "e_electronic",
    "n",
    "e_ij_max",
    "weighted_surface_energy_EV_PER_ANG2",
    "weighted_surface_energy",
    "weighted_work_function",
    "surface_anisotropy",
    "shape_factor",
    "has_reconstructed",
    "possible_species",
    "has_props",
    "theoretical",
    "database_IDs"
  ]
}
