{"builder_meta": null, "nsites": null, "elements": null, "nelements": null, "composition": null, "composition_reduced": null, "formula_pretty": "ErNi5", "formula_anonymous": "AB5", "chemsys": null, "volume": 78.10290260239792, "density": 9.795455693792139, "density_atomic": 13.017150433732986, "symmetry": null, "property_name": null, "material_id": "mp-853", "deprecated": null, "deprecation_reasons": null, "last_updated": null, "origins": null, "warnings": null, "structure": {"@module": "pymatgen.core.structure", "@class": "Structure", "charge": 0, "lattice": {"matrix": [[4.8033689299999995, 0.00015415, 0.0], [-2.4015530800000002, 4.15993003, 0.0], [0.0, 0.0, 3.90865337]], "pbc": [true, true, true], "a": 4.803368932473495, "b": 4.803381626578643, "c": 3.90865337, "alpha": 90.0, "beta": 90.0, "gamma": 119.99626420652613, "volume": 78.1029026023979}, "properties": {}, "sites": [{"species": [{"element": "Er", "occu": 1}], "abc": [0.0, -0.0, 0.0], "properties": {"magmom": -0.159}, "label": "Er", "xyz": [0.0, 0.0, 0.0]}, {"species": [{"element": "Ni", "occu": 1}], "abc": [0.0, 0.5, 0.5], "properties": {"magmom": 0.487}, "label": "Ni", "xyz": [-1.2007765400000001, 2.079965015, 1.954326685]}, {"species": [{"element": "Ni", "occu": 1}], "abc": [0.33334001, 0.66662572, -0.0], "properties": {"magmom": 0.38}, "label": "Ni", "xyz": [0.0002179960866715014, 2.773167735760913, 0.0]}, {"species": [{"element": "Ni", "occu": 1}], "abc": [0.66665999, 0.33337428, -0.0], "properties": {"magmom": 0.38}, "label": "Ni", "xyz": [2.401597853913328, 1.386916444239087, 0.0]}, {"species": [{"element": "Ni", "occu": 1}], "abc": [0.5, -0.0, 0.5], "properties": {"magmom": 0.487}, "label": "Ni", "xyz": [2.4016844649999998, 7.7075e-05, 1.954326685]}, {"species": [{"element": "Ni", "occu": 1}], "abc": [0.5, 0.5, 0.5], "properties": {"magmom": 0.487}, "label": "Ni", "xyz": [1.2009079249999997, 2.08004209, 1.954326685]}]}, "task_ids": null, "uncorrected_energy_per_atom": null, "energy_per_atom": -5.914515475000001, "formation_energy_per_atom": -0.336448439999999, "energy_above_hull": 0.0, "is_stable": true, "equilibrium_reaction_energy_per_atom": null, "decomposes_to": null, "xas": null, "grain_boundaries": null, "band_gap": 0.0, "cbm": null, "vbm": null, "efermi": 6.58184248, "is_gap_direct": null, "is_metal": null, "es_source_calc_id": null, "bandstructure": null, "dos": null, "dos_energy_up": null, "dos_energy_down": null, "is_magnetic": null, "ordering": null, "total_magnetization": 1.8621736, "total_magnetization_normalized_vol": null, "total_magnetization_normalized_formula_units": null, "num_magnetic_sites": null, "num_unique_magnetic_sites": null, "types_of_magnetic_species": null, "bulk_modulus": null, "shear_modulus": null, "universal_anisotropy": null, "homogeneous_poisson": null, "e_total": null, "e_ionic": null, "e_electronic": null, "n": null, "e_ij_max": null, "weighted_surface_energy_EV_PER_ANG2": null, "weighted_surface_energy": null, "weighted_work_function": null, "surface_anisotropy": null, "shape_factor": null, "has_reconstructed": null, "possible_species": null, "has_props": null, "theoretical": null, "database_IDs": null, "fields_not_requested": ["builder_meta", "nsites", "elements", "nelements", "composition", "composition_reduced", "chemsys", "symmetry", "property_name", "deprecated", "deprecation_reasons", "last_updated", "origins", "warnings", "task_ids", "uncorrected_energy_per_atom", "equilibrium_reaction_energy_per_atom", "decomposes_to", "xas", "grain_boundaries", "cbm", "vbm", "is_gap_direct", "is_metal", "es_source_calc_id", "bandstructure", "dos", "dos_energy_up", "dos_energy_down", "is_magnetic", "ordering", "total_magnetization_normalized_vol", "total_magnetization_normalized_formula_units", "num_magnetic_sites", "num_unique_magnetic_sites", "types_of_magnetic_species", "bulk_modulus", "shear_modulus", "universal_anisotropy", "homogeneous_poisson", "e_total", "e_ionic", "e_electronic", "n", "e_ij_max", "weighted_surface_energy_EV_PER_ANG2", "weighted_surface_energy", "weighted_work_function", "surface_anisotropy", "shape_factor", "has_reconstructed", "possible_species", "has_props", "theoretical", "database_IDs"]}