{
  "builder_meta": null,
  "nsites": null,
  "elements": null,
  "nelements": null,
  "composition": null,
  "composition_reduced": null,
  "formula_pretty": "ErNi",
  "formula_anonymous": "AB",
  "chemsys": null,
  "volume": 152.45801793571363,
  "density": 9.844094590033043,
  "density_atomic": 19.057252241964203,
  "symmetry": null,
  "property_name": null,
  "material_id": "mp-567314",
  "deprecated": null,
  "deprecation_reasons": null,
  "last_updated": null,
  "origins": null,
  "warnings": null,
  "structure": {
    "@module": "pymatgen.core.structure",
    "@class": "Structure",
    "charge": 0,
    "lattice": {
      "matrix": [
        [4.07429119, -0.0, 0.0],
        [0.0, 5.34553912, 0.0],
        [0.0, 0.0, 7.00013946]
      ],
      "pbc": [true, true, true],
      "a": 4.07429119,
      "b": 5.34553912,
      "c": 7.00013946,
      "alpha": 90.0,
      "beta": 90.0,
      "gamma": 90.0,
      "volume": 152.45801793571363
    },
    "properties": {},
    "sites": [
      {
        "species": [{ "element": "Er", "occu": 1 }],
        "abc": [0.75, 0.86738718, 0.8196399],
        "properties": { "magmom": 0.0 },
        "label": "Er",
        "xyz": [3.0557183925, 4.636652102876481, 5.737593606980454]
      },
      {
        "species": [{ "element": "Er", "occu": 1 }],
        "abc": [0.25, 0.13261282, 0.1803601],
        "properties": { "magmom": 0.0 },
        "label": "Er",
        "xyz": [1.0185727975, 0.7088870171235183, 1.262545853019546]
      },
      {
        "species": [{ "element": "Er", "occu": 1 }],
        "abc": [0.25, 0.36738718000000004, 0.6803601],
        "properties": { "magmom": 0.0 },
        "label": "Er",
        "xyz": [1.0185727975, 1.9638825428764817, 4.762615583019546]
      },
      {
        "species": [{ "element": "Er", "occu": 1 }],
        "abc": [0.75, 0.63261282, 0.3196399],
        "properties": { "magmom": 0.0 },
        "label": "Er",
        "xyz": [3.0557183925, 3.381656577123518, 2.237523876980454]
      },
      {
        "species": [{ "element": "Ni", "occu": 1 }],
        "abc": [0.25, 0.87640629, 0.53550102],
        "properties": { "magmom": 0.0 },
        "label": "Ni",
        "xyz": [1.0185727975, 4.684864108209065, 3.748581820972249]
      },
      {
        "species": [{ "element": "Ni", "occu": 1 }],
        "abc": [0.75, 0.12359371000000001, 0.46449898],
        "properties": { "magmom": 0.0 },
        "label": "Ni",
        "xyz": [3.0557183925, 0.6606750117909352, 3.2515576390277507]
      },
      {
        "species": [{ "element": "Ni", "occu": 1 }],
        "abc": [0.75, 0.37640629000000003, 0.96449898],
        "properties": { "magmom": 0.0 },
        "label": "Ni",
        "xyz": [3.0557183925, 2.012094548209065, 6.751627369027751]
      },
      {
        "species": [{ "element": "Ni", "occu": 1 }],
        "abc": [0.25, 0.62359371, 0.03550102],
        "properties": { "magmom": 0.0 },
        "label": "Ni",
        "xyz": [1.0185727975, 3.3334445717909347, 0.2485120909722492]
      }
    ]
  },
  "task_ids": null,
  "uncorrected_energy_per_atom": null,
  "energy_per_atom": -5.656235038750001,
  "formation_energy_per_atom": -0.48230729374999903,
  "energy_above_hull": 0.0,
  "is_stable": true,
  "equilibrium_reaction_energy_per_atom": null,
  "decomposes_to": null,
  "xas": null,
  "grain_boundaries": null,
  "band_gap": 0.0,
  "cbm": null,
  "vbm": null,
  "efermi": 4.81056313,
  "is_gap_direct": null,
  "is_metal": null,
  "es_source_calc_id": null,
  "bandstructure": null,
  "dos": null,
  "dos_energy_up": null,
  "dos_energy_down": null,
  "is_magnetic": null,
  "ordering": null,
  "total_magnetization": 1e-7,
  "total_magnetization_normalized_vol": null,
  "total_magnetization_normalized_formula_units": null,
  "num_magnetic_sites": null,
  "num_unique_magnetic_sites": null,
  "types_of_magnetic_species": null,
  "bulk_modulus": null,
  "shear_modulus": null,
  "universal_anisotropy": null,
  "homogeneous_poisson": null,
  "e_total": null,
  "e_ionic": null,
  "e_electronic": null,
  "n": null,
  "e_ij_max": null,
  "weighted_surface_energy_EV_PER_ANG2": null,
  "weighted_surface_energy": null,
  "weighted_work_function": null,
  "surface_anisotropy": null,
  "shape_factor": null,
  "has_reconstructed": null,
  "possible_species": null,
  "has_props": null,
  "theoretical": null,
  "database_IDs": null,
  "fields_not_requested": [
    "builder_meta",
    "nsites",
    "elements",
    "nelements",
    "composition",
    "composition_reduced",
    "chemsys",
    "symmetry",
    "property_name",
    "deprecated",
    "deprecation_reasons",
    "last_updated",
    "origins",
    "warnings",
    "task_ids",
    "uncorrected_energy_per_atom",
    "equilibrium_reaction_energy_per_atom",
    "decomposes_to",
    "xas",
    "grain_boundaries",
    "cbm",
    "vbm",
    "is_gap_direct",
    "is_metal",
    "es_source_calc_id",
    "bandstructure",
    "dos",
    "dos_energy_up",
    "dos_energy_down",
    "is_magnetic",
    "ordering",
    "total_magnetization_normalized_vol",
    "total_magnetization_normalized_formula_units",
    "num_magnetic_sites",
    "num_unique_magnetic_sites",
    "types_of_magnetic_species",
    "bulk_modulus",
    "shear_modulus",
    "universal_anisotropy",
    "homogeneous_poisson",
    "e_total",
    "e_ionic",
    "e_electronic",
    "n",
    "e_ij_max",
    "weighted_surface_energy_EV_PER_ANG2",
    "weighted_surface_energy",
    "weighted_work_function",
    "surface_anisotropy",
    "shape_factor",
    "has_reconstructed",
    "possible_species",
    "has_props",
    "theoretical",
    "database_IDs"
  ]
}
