{
  "builder_meta": null,
  "nsites": null,
  "elements": null,
  "nelements": null,
  "composition": null,
  "composition_reduced": null,
  "formula_pretty": "ErNi4",
  "formula_anonymous": "AB4",
  "chemsys": null,
  "volume": 203.1341305016467,
  "density": 9.85935997114024,
  "density_atomic": 13.542275366776446,
  "symmetry": null,
  "property_name": null,
  "material_id": "mp-1104276",
  "deprecated": null,
  "deprecation_reasons": null,
  "last_updated": null,
  "origins": null,
  "warnings": null,
  "structure": {
    "@module": "pymatgen.core.structure",
    "@class": "Structure",
    "charge": 0,
    "lattice": {
      "matrix": [
        [4.759249, 0.0, -0.796130999999999],
        [2.379623999999999, -4.206, -0.398066],
        [-0.00415, 0.0, -10.147183]
      ],
      "pbc": [true, true, true],
      "a": 4.825378287052943,
      "b": 4.848866148052759,
      "c": 10.147183848634507,
      "alpha": 85.30256228159135,
      "beta": 80.52687758646434,
      "gamma": 60.160114557626706,
      "volume": 203.1341305016467
    },
    "properties": {},
    "sites": [
      {
        "species": [{ "element": "Er", "occu": 1 }],
        "abc": [0.0, 0.0, 0.0],
        "properties": { "magmom": 0.064 },
        "label": "Er",
        "xyz": [0.0, 0.0, 0.0]
      },
      {
        "species": [{ "element": "Er", "occu": 1 }],
        "abc": [0.8677800000000001, 0.0, 0.355429],
        "properties": { "magmom": 0.063 },
        "label": "Er",
        "xyz": [4.12850606687, 0.0, -4.297469665686999]
      },
      {
        "species": [{ "element": "Er", "occu": 1 }],
        "abc": [0.13222, 0.0, 0.644571],
        "properties": { "magmom": 0.063 },
        "label": "Er",
        "xyz": [0.62659293313, 0.0, -6.645844334313]
      },
      {
        "species": [{ "element": "Ni", "occu": 1 }],
        "abc": [0.333607999999999, 0.332785, 0.0],
        "properties": { "magmom": -0.258 },
        "label": "Ni",
        "xyz": [2.379626713231995, -1.3996937100000002, -0.39806606445799886]
      },
      {
        "species": [{ "element": "Ni", "occu": 1 }],
        "abc": [0.666392, 0.667215, 0.0],
        "properties": { "magmom": -0.258 },
        "label": "Ni",
        "xyz": [4.759246286767999, -2.80630629, -0.7961309355419993]
      },
      {
        "species": [{ "element": "Ni", "occu": 1 }],
        "abc": [0.421815999999999, 0.0, 0.199954],
        "properties": { "magmom": -0.275 },
        "label": "Ni",
        "xyz": [2.0066975670839953, 0.0, -2.3647906234779987]
      },
      {
        "species": [{ "element": "Ni", "occu": 1 }],
        "abc": [0.578183999999999, 0.0, 0.800045999999999],
        "properties": { "magmom": -0.275 },
        "label": "Ni",
        "xyz": [2.7484014329159954, 0.0, -8.57852337652199]
      },
      {
        "species": [{ "element": "Ni", "occu": 1 }],
        "abc": [0.927959, 0.502096, 0.198154],
        "properties": { "magmom": -0.275 },
        "label": "Ni",
        "xyz": [5.610365295594999, -2.1118157760000003, -2.949349173146999]
      },
      {
        "species": [{ "element": "Ni", "occu": 1 }],
        "abc": [0.430054999999999, 0.497903999999999, 0.198154],
        "properties": { "magmom": -0.275 },
        "label": "Ni",
        "xyz": [3.2307407976909923, -2.094184223999996, -2.5512836710509985]
      },
      {
        "species": [{ "element": "Ni", "occu": 1 }],
        "abc": [0.072041, 0.497903999999999, 0.801846],
        "properties": { "magmom": -0.275 },
        "label": "Ni",
        "xyz": [1.524357704404997, -2.094184223999996, -8.392030826852999]
      },
      {
        "species": [{ "element": "Ni", "occu": 1 }],
        "abc": [0.569944999999999, 0.502096, 0.801846],
        "properties": { "magmom": -0.275 },
        "label": "Ni",
        "xyz": [3.9039822023089945, -2.1118157760000003, -8.790096328948998]
      },
      {
        "species": [{ "element": "Ni", "occu": 1 }],
        "abc": [0.188919, 0.344435999999999, 0.404701],
        "properties": { "magmom": -0.147 },
        "label": "Ni",
        "xyz": [1.7170612247449972, -1.448697815999996, -4.394087640447999]
      },
      {
        "species": [{ "element": "Ni", "occu": 1 }],
        "abc": [0.533355, 0.655563999999999, 0.404701],
        "properties": { "magmom": -0.147 },
        "label": "Ni",
        "xyz": [4.0966855691809965, -2.7573021839999963, -4.792153296011999]
      },
      {
        "species": [{ "element": "Ni", "occu": 1 }],
        "abc": [0.811080999999999, 0.655563999999999, 0.595299],
        "properties": { "magmom": -0.147 },
        "label": "Ni",
        "xyz": [5.417661775254992, -2.7573021839999963, -6.947292359551998]
      },
      {
        "species": [{ "element": "Ni", "occu": 1 }],
        "abc": [0.466645, 0.344435999999999, 0.595299],
        "properties": { "magmom": -0.147 },
        "label": "Ni",
        "xyz": [3.038037430818997, -1.448697815999996, -6.549226703987999]
      }
    ]
  },
  "task_ids": null,
  "uncorrected_energy_per_atom": null,
  "energy_per_atom": -5.911443916666667,
  "formation_energy_per_atom": -0.37379081066666603,
  "energy_above_hull": 0.006549951333332001,
  "is_stable": false,
  "equilibrium_reaction_energy_per_atom": null,
  "decomposes_to": null,
  "xas": null,
  "grain_boundaries": null,
  "band_gap": 0.0,
  "cbm": null,
  "vbm": null,
  "efermi": 6.32019363,
  "is_gap_direct": null,
  "is_metal": null,
  "es_source_calc_id": null,
  "bandstructure": null,
  "dos": null,
  "dos_energy_up": null,
  "dos_energy_down": null,
  "is_magnetic": null,
  "ordering": null,
  "total_magnetization": 2.4147656,
  "total_magnetization_normalized_vol": null,
  "total_magnetization_normalized_formula_units": null,
  "num_magnetic_sites": null,
  "num_unique_magnetic_sites": null,
  "types_of_magnetic_species": null,
  "bulk_modulus": null,
  "shear_modulus": null,
  "universal_anisotropy": null,
  "homogeneous_poisson": null,
  "e_total": null,
  "e_ionic": null,
  "e_electronic": null,
  "n": null,
  "e_ij_max": null,
  "weighted_surface_energy_EV_PER_ANG2": null,
  "weighted_surface_energy": null,
  "weighted_work_function": null,
  "surface_anisotropy": null,
  "shape_factor": null,
  "has_reconstructed": null,
  "possible_species": null,
  "has_props": null,
  "theoretical": null,
  "database_IDs": null,
  "fields_not_requested": [
    "builder_meta",
    "nsites",
    "elements",
    "nelements",
    "composition",
    "composition_reduced",
    "chemsys",
    "symmetry",
    "property_name",
    "deprecated",
    "deprecation_reasons",
    "last_updated",
    "origins",
    "warnings",
    "task_ids",
    "uncorrected_energy_per_atom",
    "equilibrium_reaction_energy_per_atom",
    "decomposes_to",
    "xas",
    "grain_boundaries",
    "cbm",
    "vbm",
    "is_gap_direct",
    "is_metal",
    "es_source_calc_id",
    "bandstructure",
    "dos",
    "dos_energy_up",
    "dos_energy_down",
    "is_magnetic",
    "ordering",
    "total_magnetization_normalized_vol",
    "total_magnetization_normalized_formula_units",
    "num_magnetic_sites",
    "num_unique_magnetic_sites",
    "types_of_magnetic_species",
    "bulk_modulus",
    "shear_modulus",
    "universal_anisotropy",
    "homogeneous_poisson",
    "e_total",
    "e_ionic",
    "e_electronic",
    "n",
    "e_ij_max",
    "weighted_surface_energy_EV_PER_ANG2",
    "weighted_surface_energy",
    "weighted_work_function",
    "surface_anisotropy",
    "shape_factor",
    "has_reconstructed",
    "possible_species",
    "has_props",
    "theoretical",
    "database_IDs"
  ]
}
