{
  "builder_meta": null,
  "nsites": null,
  "elements": null,
  "nelements": null,
  "composition": null,
  "composition_reduced": null,
  "formula_pretty": "ErNi2",
  "formula_anonymous": "AB2",
  "chemsys": null,
  "volume": 87.39339120903063,
  "density": 10.816961431627528,
  "density_atomic": 14.565565201505104,
  "symmetry": null,
  "property_name": null,
  "material_id": "mp-1939",
  "deprecated": null,
  "deprecation_reasons": null,
  "last_updated": null,
  "origins": null,
  "warnings": null,
  "structure": {
    "@module": "pymatgen.core.structure",
    "@class": "Structure",
    "charge": 0,
    "lattice": {
      "matrix": [
        [4.31382142, -1.02e-6, 2.49058384],
        [1.43793946, 4.06710488, 2.49058283],
        [1.02e-6, -0.0, 4.9811666599999995]
      ],
      "pbc": [true, true, true],
      "a": 4.981170857109903,
      "b": 4.981166010949215,
      "c": 4.981166660000104,
      "alpha": 59.999998419795325,
      "beta": 60.00000936651149,
      "gamma": 60.00001130761792,
      "volume": 87.39339120903061
    },
    "properties": {},
    "sites": [
      {
        "species": [{ "element": "Er", "occu": 1 }],
        "abc": [0.125001, 0.125, 0.125],
        "properties": { "magmom": 0.0 },
        "label": "Er",
        "xyz": [0.71897455132142, 0.50838798249898, 1.24529415683384]
      },
      {
        "species": [{ "element": "Er", "occu": 1 }],
        "abc": [0.874999, 0.875, 0.875],
        "properties": { "magmom": 0.0 },
        "label": "Er",
        "xyz": [5.03278734867858, 3.5587158775010197, 8.71703917316616]
      },
      {
        "species": [{ "element": "Ni", "occu": 1 }],
        "abc": [0.5, -0.0, 0.5],
        "properties": { "magmom": -0.0 },
        "label": "Ni",
        "xyz": [2.15691122, -5.1e-7, 3.73587525]
      },
      {
        "species": [{ "element": "Ni", "occu": 1 }],
        "abc": [0.0, 0.5, 0.5],
        "properties": { "magmom": -0.0 },
        "label": "Ni",
        "xyz": [0.71897024, 2.03355244, 3.735874745]
      },
      {
        "species": [{ "element": "Ni", "occu": 1 }],
        "abc": [0.5, 0.5, 0.5],
        "properties": { "magmom": -0.0 },
        "label": "Ni",
        "xyz": [2.87588095, 2.03355193, 4.981166665]
      },
      {
        "species": [{ "element": "Ni", "occu": 1 }],
        "abc": [0.5, 0.5, 0.0],
        "properties": { "magmom": -0.0 },
        "label": "Ni",
        "xyz": [2.87588044, 2.03355193, 2.490583335]
      }
    ]
  },
  "task_ids": null,
  "uncorrected_energy_per_atom": null,
  "energy_per_atom": -5.856247200000001,
  "formation_energy_per_atom": -0.48024980999999806,
  "energy_above_hull": 0.0,
  "is_stable": true,
  "equilibrium_reaction_energy_per_atom": null,
  "decomposes_to": null,
  "xas": null,
  "grain_boundaries": null,
  "band_gap": 0.0,
  "cbm": null,
  "vbm": null,
  "efermi": 6.03758261,
  "is_gap_direct": null,
  "is_metal": null,
  "es_source_calc_id": null,
  "bandstructure": null,
  "dos": null,
  "dos_energy_up": null,
  "dos_energy_down": null,
  "is_magnetic": null,
  "ordering": null,
  "total_magnetization": 3.7e-6,
  "total_magnetization_normalized_vol": null,
  "total_magnetization_normalized_formula_units": null,
  "num_magnetic_sites": null,
  "num_unique_magnetic_sites": null,
  "types_of_magnetic_species": null,
  "bulk_modulus": null,
  "shear_modulus": null,
  "universal_anisotropy": null,
  "homogeneous_poisson": null,
  "e_total": null,
  "e_ionic": null,
  "e_electronic": null,
  "n": null,
  "e_ij_max": null,
  "weighted_surface_energy_EV_PER_ANG2": null,
  "weighted_surface_energy": null,
  "weighted_work_function": null,
  "surface_anisotropy": null,
  "shape_factor": null,
  "has_reconstructed": null,
  "possible_species": null,
  "has_props": null,
  "theoretical": null,
  "database_IDs": null,
  "fields_not_requested": [
    "builder_meta",
    "nsites",
    "elements",
    "nelements",
    "composition",
    "composition_reduced",
    "chemsys",
    "symmetry",
    "property_name",
    "deprecated",
    "deprecation_reasons",
    "last_updated",
    "origins",
    "warnings",
    "task_ids",
    "uncorrected_energy_per_atom",
    "equilibrium_reaction_energy_per_atom",
    "decomposes_to",
    "xas",
    "grain_boundaries",
    "cbm",
    "vbm",
    "is_gap_direct",
    "is_metal",
    "es_source_calc_id",
    "bandstructure",
    "dos",
    "dos_energy_up",
    "dos_energy_down",
    "is_magnetic",
    "ordering",
    "total_magnetization_normalized_vol",
    "total_magnetization_normalized_formula_units",
    "num_magnetic_sites",
    "num_unique_magnetic_sites",
    "types_of_magnetic_species",
    "bulk_modulus",
    "shear_modulus",
    "universal_anisotropy",
    "homogeneous_poisson",
    "e_total",
    "e_ionic",
    "e_electronic",
    "n",
    "e_ij_max",
    "weighted_surface_energy_EV_PER_ANG2",
    "weighted_surface_energy",
    "weighted_work_function",
    "surface_anisotropy",
    "shape_factor",
    "has_reconstructed",
    "possible_species",
    "has_props",
    "theoretical",
    "database_IDs"
  ]
}
