{
  "builder_meta": null,
  "nsites": null,
  "elements": null,
  "nelements": null,
  "composition": null,
  "composition_reduced": null,
  "formula_pretty": "ErO2",
  "formula_anonymous": "AB2",
  "chemsys": null,
  "volume": 87.42669899288738,
  "density": 7.56920631880858,
  "density_atomic": 14.571116498814563,
  "symmetry": null,
  "property_name": null,
  "material_id": "mp-1206338",
  "deprecated": null,
  "deprecation_reasons": null,
  "last_updated": null,
  "origins": null,
  "warnings": null,
  "structure": {
    "@module": "pymatgen.core.structure",
    "@class": "Structure",
    "charge": 0,
    "lattice": {
      "matrix": [
        [3.607727, 0.0, 0.0],
        [0.0, 4.157218, 0.0],
        [0.0, 1.818760999999999, 5.829182]
      ],
      "pbc": [true, true, true],
      "a": 3.607727,
      "b": 4.157218,
      "c": 6.106329041596514,
      "alpha": 72.67157468623941,
      "beta": 90.0,
      "gamma": 90.0,
      "volume": 87.42669899288738
    },
    "properties": {},
    "sites": [
      {
        "species": [{ "element": "Er", "occu": 1 }],
        "abc": [0.25, 0.171088, 0.185794],
        "properties": { "magmom": -0.001 },
        "label": "Er",
        "xyz": [0.90193175, 1.0491649944179997, 1.083027040508]
      },
      {
        "species": [{ "element": "Er", "occu": 1 }],
        "abc": [0.75, 0.828912, 0.814206],
        "properties": { "magmom": -0.001 },
        "label": "Er",
        "xyz": [2.70579525, 4.926814005581999, 4.746154959492]
      },
      {
        "species": [{ "element": "O", "occu": 1 }],
        "abc": [0.25, 0.817488, 0.553126999999999],
        "properties": { "magmom": 0.784 },
        "label": "O",
        "xyz": [0.90193175, 4.404481644030998, 3.2242779521139946]
      },
      {
        "species": [{ "element": "O", "occu": 1 }],
        "abc": [0.75, 0.182511999999999, 0.446872999999999],
        "properties": { "magmom": 0.784 },
        "label": "O",
        "xyz": [2.70579525, 1.5714973559689938, 2.6049040478859946]
      },
      {
        "species": [{ "element": "O", "occu": 1 }],
        "abc": [0.25, 0.7331259999999991, 0.047604999999999],
        "properties": { "magmom": 0.054 },
        "label": "O",
        "xyz": [0.90193175, 3.1343467208729945, 0.2774982091099942]
      },
      {
        "species": [{ "element": "O", "occu": 1 }],
        "abc": [0.75, 0.266874, 0.952395],
        "properties": { "magmom": 0.054 },
        "label": "O",
        "xyz": [2.70579525, 2.8416322791269994, 5.55168379089]
      }
    ]
  },
  "task_ids": null,
  "uncorrected_energy_per_atom": null,
  "energy_per_atom": -8.020952553333332,
  "formation_energy_per_atom": -3.199738946666665,
  "energy_above_hull": 0.181172800833333,
  "is_stable": false,
  "equilibrium_reaction_energy_per_atom": null,
  "decomposes_to": null,
  "xas": null,
  "grain_boundaries": null,
  "band_gap": 0.0,
  "cbm": null,
  "vbm": null,
  "efermi": 0.69238714,
  "is_gap_direct": null,
  "is_metal": null,
  "es_source_calc_id": null,
  "bandstructure": null,
  "dos": null,
  "dos_energy_up": null,
  "dos_energy_down": null,
  "is_magnetic": null,
  "ordering": null,
  "total_magnetization": 1.9992617,
  "total_magnetization_normalized_vol": null,
  "total_magnetization_normalized_formula_units": null,
  "num_magnetic_sites": null,
  "num_unique_magnetic_sites": null,
  "types_of_magnetic_species": null,
  "bulk_modulus": null,
  "shear_modulus": null,
  "universal_anisotropy": null,
  "homogeneous_poisson": null,
  "e_total": null,
  "e_ionic": null,
  "e_electronic": null,
  "n": null,
  "e_ij_max": null,
  "weighted_surface_energy_EV_PER_ANG2": null,
  "weighted_surface_energy": null,
  "weighted_work_function": null,
  "surface_anisotropy": null,
  "shape_factor": null,
  "has_reconstructed": null,
  "possible_species": null,
  "has_props": null,
  "theoretical": null,
  "database_IDs": null,
  "fields_not_requested": [
    "builder_meta",
    "nsites",
    "elements",
    "nelements",
    "composition",
    "composition_reduced",
    "chemsys",
    "symmetry",
    "property_name",
    "deprecated",
    "deprecation_reasons",
    "last_updated",
    "origins",
    "warnings",
    "task_ids",
    "uncorrected_energy_per_atom",
    "equilibrium_reaction_energy_per_atom",
    "decomposes_to",
    "xas",
    "grain_boundaries",
    "cbm",
    "vbm",
    "is_gap_direct",
    "is_metal",
    "es_source_calc_id",
    "bandstructure",
    "dos",
    "dos_energy_up",
    "dos_energy_down",
    "is_magnetic",
    "ordering",
    "total_magnetization_normalized_vol",
    "total_magnetization_normalized_formula_units",
    "num_magnetic_sites",
    "num_unique_magnetic_sites",
    "types_of_magnetic_species",
    "bulk_modulus",
    "shear_modulus",
    "universal_anisotropy",
    "homogeneous_poisson",
    "e_total",
    "e_ionic",
    "e_electronic",
    "n",
    "e_ij_max",
    "weighted_surface_energy_EV_PER_ANG2",
    "weighted_surface_energy",
    "weighted_work_function",
    "surface_anisotropy",
    "shape_factor",
    "has_reconstructed",
    "possible_species",
    "has_props",
    "theoretical",
    "database_IDs"
  ]
}
