{
  "builder_meta": null,
  "nsites": null,
  "elements": null,
  "nelements": null,
  "composition": null,
  "composition_reduced": null,
  "formula_pretty": "ErO3",
  "formula_anonymous": "AB3",
  "chemsys": null,
  "volume": 121.24183456855168,
  "density": 5.896363928159246,
  "density_atomic": 15.15522932106896,
  "symmetry": null,
  "property_name": null,
  "material_id": "mp-1025483",
  "deprecated": null,
  "deprecation_reasons": null,
  "last_updated": null,
  "origins": null,
  "warnings": null,
  "structure": {
    "@module": "pymatgen.core.structure",
    "@class": "Structure",
    "charge": 0,
    "lattice": {
      "matrix": [
        [3.221461, -5.579733, 0.0],
        [3.221461, 5.579733, 0.0],
        [0.0, 0.0, 3.372533]
      ],
      "pbc": [true, true, true],
      "a": 6.442921024334382,
      "b": 6.442921024334382,
      "c": 3.372533,
      "alpha": 90.0,
      "beta": 90.0,
      "gamma": 119.99998998132693,
      "volume": 121.24183456855168
    },
    "properties": {},
    "sites": [
      {
        "species": [{ "element": "Er", "occu": 1 }],
        "abc": [0.666667, 0.333333, 0.75],
        "properties": { "magmom": -0.031 },
        "label": "Er",
        "xyz": [3.2214610000000006, -1.859914719822, 2.5293997499999996]
      },
      {
        "species": [{ "element": "Er", "occu": 1 }],
        "abc": [0.333333, 0.666667, 0.25],
        "properties": { "magmom": -0.031 },
        "label": "Er",
        "xyz": [3.2214610000000006, 1.859914719822, 0.84313325]
      },
      {
        "species": [{ "element": "O", "occu": 1 }],
        "abc": [0.577452, 0.635181, 0.75],
        "properties": { "magmom": 0.839 },
        "label": "O",
        "xyz": [3.906449916813, 0.3221124063570002, 2.5293997499999996]
      },
      {
        "species": [{ "element": "O", "occu": 1 }],
        "abc": [0.422548, 0.364819, 0.25],
        "properties": { "magmom": 0.839 },
        "label": "O",
        "xyz": [2.5364720831870002, -0.3221124063569998, 0.84313325]
      },
      {
        "species": [{ "element": "O", "occu": 1 }],
        "abc": [0.057728999999999, 0.422548, 0.75],
        "properties": { "magmom": 0.839 },
        "label": "O",
        "xyz": [1.5471936246969966, 2.0355926133270055, 2.5293997499999996]
      },
      {
        "species": [{ "element": "O", "occu": 1 }],
        "abc": [0.942271, 0.577452, 0.25],
        "properties": { "magmom": 0.839 },
        "label": "O",
        "xyz": [4.895728375303, -2.035592613327, 0.84313325]
      },
      {
        "species": [{ "element": "O", "occu": 1 }],
        "abc": [0.364819, 0.942271, 0.75],
        "properties": { "magmom": 0.839 },
        "label": "O",
        "xyz": [4.21073945849, 3.2220279803159997, 2.5293997499999996]
      },
      {
        "species": [{ "element": "O", "occu": 1 }],
        "abc": [0.635181, 0.057728999999999, 0.25],
        "properties": { "magmom": 0.839 },
        "label": "O",
        "xyz": [2.232182541509997, -3.2220279803160055, 0.84313325]
      }
    ]
  },
  "task_ids": null,
  "uncorrected_energy_per_atom": null,
  "energy_per_atom": -6.9300178500000005,
  "formation_energy_per_atom": -2.077117393749999,
  "energy_above_hull": 0.45856641687500005,
  "is_stable": false,
  "equilibrium_reaction_energy_per_atom": null,
  "decomposes_to": null,
  "xas": null,
  "grain_boundaries": null,
  "band_gap": 0.20980000000000001,
  "cbm": null,
  "vbm": null,
  "efermi": -0.37804288,
  "is_gap_direct": null,
  "is_metal": null,
  "es_source_calc_id": null,
  "bandstructure": null,
  "dos": null,
  "dos_energy_up": null,
  "dos_energy_down": null,
  "is_magnetic": null,
  "ordering": null,
  "total_magnetization": 6.000196,
  "total_magnetization_normalized_vol": null,
  "total_magnetization_normalized_formula_units": null,
  "num_magnetic_sites": null,
  "num_unique_magnetic_sites": null,
  "types_of_magnetic_species": null,
  "bulk_modulus": null,
  "shear_modulus": null,
  "universal_anisotropy": null,
  "homogeneous_poisson": null,
  "e_total": null,
  "e_ionic": null,
  "e_electronic": null,
  "n": null,
  "e_ij_max": null,
  "weighted_surface_energy_EV_PER_ANG2": null,
  "weighted_surface_energy": null,
  "weighted_work_function": null,
  "surface_anisotropy": null,
  "shape_factor": null,
  "has_reconstructed": null,
  "possible_species": null,
  "has_props": null,
  "theoretical": null,
  "database_IDs": null,
  "fields_not_requested": [
    "builder_meta",
    "nsites",
    "elements",
    "nelements",
    "composition",
    "composition_reduced",
    "chemsys",
    "symmetry",
    "property_name",
    "deprecated",
    "deprecation_reasons",
    "last_updated",
    "origins",
    "warnings",
    "task_ids",
    "uncorrected_energy_per_atom",
    "equilibrium_reaction_energy_per_atom",
    "decomposes_to",
    "xas",
    "grain_boundaries",
    "cbm",
    "vbm",
    "is_gap_direct",
    "is_metal",
    "es_source_calc_id",
    "bandstructure",
    "dos",
    "dos_energy_up",
    "dos_energy_down",
    "is_magnetic",
    "ordering",
    "total_magnetization_normalized_vol",
    "total_magnetization_normalized_formula_units",
    "num_magnetic_sites",
    "num_unique_magnetic_sites",
    "types_of_magnetic_species",
    "bulk_modulus",
    "shear_modulus",
    "universal_anisotropy",
    "homogeneous_poisson",
    "e_total",
    "e_ionic",
    "e_electronic",
    "n",
    "e_ij_max",
    "weighted_surface_energy_EV_PER_ANG2",
    "weighted_surface_energy",
    "weighted_work_function",
    "surface_anisotropy",
    "shape_factor",
    "has_reconstructed",
    "possible_species",
    "has_props",
    "theoretical",
    "database_IDs"
  ]
}
