{
  "builder_meta": null,
  "nsites": null,
  "elements": null,
  "nelements": null,
  "composition": null,
  "composition_reduced": null,
  "formula_pretty": "ErOs2",
  "formula_anonymous": "AB2",
  "chemsys": null,
  "volume": 215.0302694672527,
  "density": 16.918711942694106,
  "density_atomic": 17.91918912227106,
  "symmetry": null,
  "property_name": null,
  "material_id": "mp-1102333",
  "deprecated": null,
  "deprecation_reasons": null,
  "last_updated": null,
  "origins": null,
  "warnings": null,
  "structure": {
    "@module": "pymatgen.core.structure",
    "@class": "Structure",
    "charge": 0,
    "lattice": {
      "matrix": [
        [5.320301, 0.0, 0.0],
        [-2.660151, 4.607516, 0.0],
        [0.0, 0.0, 8.771958]
      ],
      "pbc": [true, true, true],
      "a": 5.320301,
      "b": 5.320301404343273,
      "c": 8.771958,
      "alpha": 90.0,
      "beta": 90.0,
      "gamma": 120.00000370358083,
      "volume": 215.0302694672527
    },
    "properties": {},
    "sites": [
      {
        "species": [{ "element": "Er", "occu": 1 }],
        "abc": [0.333333, 0.666667, 0.434398],
        "properties": { "magmom": 0.002 },
        "label": "Er",
        "xyz": [-2.993484000235469e-6, 3.0716788691720005, 3.810521011284]
      },
      {
        "species": [{ "element": "Er", "occu": 1 }],
        "abc": [0.666667, 0.333333, 0.565601999999999],
        "properties": { "magmom": 0.002 },
        "label": "Er",
        "xyz": [2.660152993484, 1.535837130828, 4.961436988715992]
      },
      {
        "species": [{ "element": "Er", "occu": 1 }],
        "abc": [0.666667, 0.333333, 0.934398],
        "properties": { "magmom": 0.002 },
        "label": "Er",
        "xyz": [2.660152993484, 1.535837130828, 8.196500011284]
      },
      {
        "species": [{ "element": "Er", "occu": 1 }],
        "abc": [0.333333, 0.666667, 0.065602],
        "properties": { "magmom": 0.002 },
        "label": "Er",
        "xyz": [-2.993484000235469e-6, 3.0716788691720005, 0.575457988716]
      },
      {
        "species": [{ "element": "Os", "occu": 1 }],
        "abc": [0.0, 0.0, 0.5],
        "properties": { "magmom": 0.018000000000000002 },
        "label": "Os",
        "xyz": [0.0, 0.0, 4.385979]
      },
      {
        "species": [{ "element": "Os", "occu": 1 }],
        "abc": [0.0, 0.0, 0.0],
        "properties": { "magmom": 0.018000000000000002 },
        "label": "Os",
        "xyz": [0.0, 0.0, 0.0]
      },
      {
        "species": [{ "element": "Os", "occu": 1 }],
        "abc": [0.826913, 0.173087, 0.25],
        "properties": { "magmom": 0.03 },
        "label": "Os",
        "xyz": [3.9389885046760003, 0.7975011218920001, 2.1929895]
      },
      {
        "species": [{ "element": "Os", "occu": 1 }],
        "abc": [0.826913, 0.653826, 0.25],
        "properties": { "magmom": 0.03 },
        "label": "Os",
        "xyz": [2.660150173087, 3.0125137562160003, 2.1929895]
      },
      {
        "species": [{ "element": "Os", "occu": 1 }],
        "abc": [0.346174, 0.173087, 0.25],
        "properties": { "magmom": 0.03 },
        "label": "Os",
        "xyz": [1.3813123222369998, 0.7975011218920001, 2.1929895]
      },
      {
        "species": [{ "element": "Os", "occu": 1 }],
        "abc": [0.173087, 0.826913, 0.75],
        "properties": { "magmom": 0.03 },
        "label": "Os",
        "xyz": [-1.2788385046760002, 3.8100148781080003, 6.5789685]
      },
      {
        "species": [{ "element": "Os", "occu": 1 }],
        "abc": [0.173087, 0.346174, 0.75],
        "properties": { "magmom": 0.03 },
        "label": "Os",
        "xyz": [-1.7308699995499666e-7, 1.5950022437840001, 6.5789685]
      },
      {
        "species": [{ "element": "Os", "occu": 1 }],
        "abc": [0.653826, 0.826913, 0.75],
        "properties": { "magmom": 0.03 },
        "label": "Os",
        "xyz": [1.2788376777629997, 3.8100148781080003, 6.5789685]
      }
    ]
  },
  "task_ids": null,
  "uncorrected_energy_per_atom": null,
  "energy_per_atom": -9.355061829166667,
  "formation_energy_per_atom": -0.34757727249999804,
  "energy_above_hull": 0.0,
  "is_stable": true,
  "equilibrium_reaction_energy_per_atom": null,
  "decomposes_to": null,
  "xas": null,
  "grain_boundaries": null,
  "band_gap": 0.0,
  "cbm": null,
  "vbm": null,
  "efermi": 6.1188856,
  "is_gap_direct": null,
  "is_metal": null,
  "es_source_calc_id": null,
  "bandstructure": null,
  "dos": null,
  "dos_energy_up": null,
  "dos_energy_down": null,
  "is_magnetic": null,
  "ordering": null,
  "total_magnetization": 0.3632409,
  "total_magnetization_normalized_vol": null,
  "total_magnetization_normalized_formula_units": null,
  "num_magnetic_sites": null,
  "num_unique_magnetic_sites": null,
  "types_of_magnetic_species": null,
  "bulk_modulus": null,
  "shear_modulus": null,
  "universal_anisotropy": null,
  "homogeneous_poisson": null,
  "e_total": null,
  "e_ionic": null,
  "e_electronic": null,
  "n": null,
  "e_ij_max": null,
  "weighted_surface_energy_EV_PER_ANG2": null,
  "weighted_surface_energy": null,
  "weighted_work_function": null,
  "surface_anisotropy": null,
  "shape_factor": null,
  "has_reconstructed": null,
  "possible_species": null,
  "has_props": null,
  "theoretical": null,
  "database_IDs": null,
  "fields_not_requested": [
    "builder_meta",
    "nsites",
    "elements",
    "nelements",
    "composition",
    "composition_reduced",
    "chemsys",
    "symmetry",
    "property_name",
    "deprecated",
    "deprecation_reasons",
    "last_updated",
    "origins",
    "warnings",
    "task_ids",
    "uncorrected_energy_per_atom",
    "equilibrium_reaction_energy_per_atom",
    "decomposes_to",
    "xas",
    "grain_boundaries",
    "cbm",
    "vbm",
    "is_gap_direct",
    "is_metal",
    "es_source_calc_id",
    "bandstructure",
    "dos",
    "dos_energy_up",
    "dos_energy_down",
    "is_magnetic",
    "ordering",
    "total_magnetization_normalized_vol",
    "total_magnetization_normalized_formula_units",
    "num_magnetic_sites",
    "num_unique_magnetic_sites",
    "types_of_magnetic_species",
    "bulk_modulus",
    "shear_modulus",
    "universal_anisotropy",
    "homogeneous_poisson",
    "e_total",
    "e_ionic",
    "e_electronic",
    "n",
    "e_ij_max",
    "weighted_surface_energy_EV_PER_ANG2",
    "weighted_surface_energy",
    "weighted_work_function",
    "surface_anisotropy",
    "shape_factor",
    "has_reconstructed",
    "possible_species",
    "has_props",
    "theoretical",
    "database_IDs"
  ]
}
