{
  "builder_meta": null,
  "nsites": null,
  "elements": null,
  "nelements": null,
  "composition": null,
  "composition_reduced": null,
  "formula_pretty": "ErPt",
  "formula_anonymous": "AB",
  "chemsys": null,
  "volume": 169.66940153551323,
  "density": 14.18487250061069,
  "density_atomic": 21.208675191939154,
  "symmetry": null,
  "property_name": null,
  "material_id": "mp-1025444",
  "deprecated": null,
  "deprecation_reasons": null,
  "last_updated": null,
  "origins": null,
  "warnings": null,
  "structure": {
    "@module": "pymatgen.core.structure",
    "@class": "Structure",
    "charge": 0,
    "lattice": {
      "matrix": [
        [0.0, -4.48868507, 0.0],
        [-6.89393831, 0.0, 0.0],
        [0.0, 0.0, -5.48298426]
      ],
      "pbc": [true, true, true],
      "a": 4.48868507,
      "b": 6.89393831,
      "c": 5.48298426,
      "alpha": 90.0,
      "beta": 90.0,
      "gamma": 90.0,
      "volume": 169.66940153551323
    },
    "properties": {},
    "sites": [
      {
        "species": [{ "element": "Er", "occu": 1 }],
        "abc": [0.75, 0.81785049, 0.3588379],
        "properties": { "magmom": 0.0 },
        "label": "Er",
        "xyz": [-5.638210824863272, -3.3665138025, -1.967502557591454]
      },
      {
        "species": [{ "element": "Er", "occu": 1 }],
        "abc": [0.25, 0.18214951000000001, 0.6411621],
        "properties": { "magmom": 0.0 },
        "label": "Er",
        "xyz": [-1.2557274851367282, -1.1221712675, -3.515481702408546]
      },
      {
        "species": [{ "element": "Er", "occu": 1 }],
        "abc": [0.25, 0.68214951, 0.858837899999999],
        "properties": { "magmom": 0.0 },
        "label": "Er",
        "xyz": [-4.702696640136728, -1.1221712675, -4.708994687591449]
      },
      {
        "species": [{ "element": "Er", "occu": 1 }],
        "abc": [0.75, 0.31785049, 0.141162099999999],
        "properties": { "magmom": 0.0 },
        "label": "Er",
        "xyz": [-2.1912416698632717, -3.3665138025, -0.7739895724085406]
      },
      {
        "species": [{ "element": "Pt", "occu": 1 }],
        "abc": [0.75, 0.95648512, 0.84387468],
        "properties": { "magmom": 0.0 },
        "label": "Pt",
        "xyz": [-6.593949411712948, -3.3665138025, -4.626951587852537]
      },
      {
        "species": [{ "element": "Pt", "occu": 1 }],
        "abc": [0.25, 0.04351488, 0.15612532],
        "properties": { "magmom": 0.0 },
        "label": "Pt",
        "xyz": [-0.29998889828705283, -1.1221712675, -0.8560326721474633]
      },
      {
        "species": [{ "element": "Pt", "occu": 1 }],
        "abc": [0.25, 0.54351488, 0.34387468],
        "properties": { "magmom": 0.0 },
        "label": "Pt",
        "xyz": [-3.7469580532870532, -1.1221712675, -1.8854594578525368]
      },
      {
        "species": [{ "element": "Pt", "occu": 1 }],
        "abc": [0.75, 0.45648512, 0.65612532],
        "properties": { "magmom": 0.0 },
        "label": "Pt",
        "xyz": [-3.1469802567129475, -3.3665138025, -3.5975248021474635]
      }
    ]
  },
  "task_ids": null,
  "uncorrected_energy_per_atom": null,
  "energy_per_atom": -44.1383926675,
  "formation_energy_per_atom": -1.431816634166665,
  "energy_above_hull": 0.0,
  "is_stable": true,
  "equilibrium_reaction_energy_per_atom": null,
  "decomposes_to": null,
  "xas": null,
  "grain_boundaries": null,
  "band_gap": 0.0,
  "cbm": null,
  "vbm": null,
  "efermi": 4.95609097,
  "is_gap_direct": null,
  "is_metal": null,
  "es_source_calc_id": null,
  "bandstructure": null,
  "dos": null,
  "dos_energy_up": null,
  "dos_energy_down": null,
  "is_magnetic": null,
  "ordering": null,
  "total_magnetization": 0.0,
  "total_magnetization_normalized_vol": null,
  "total_magnetization_normalized_formula_units": null,
  "num_magnetic_sites": null,
  "num_unique_magnetic_sites": null,
  "types_of_magnetic_species": null,
  "bulk_modulus": null,
  "shear_modulus": null,
  "universal_anisotropy": null,
  "homogeneous_poisson": null,
  "e_total": null,
  "e_ionic": null,
  "e_electronic": null,
  "n": null,
  "e_ij_max": null,
  "weighted_surface_energy_EV_PER_ANG2": null,
  "weighted_surface_energy": null,
  "weighted_work_function": null,
  "surface_anisotropy": null,
  "shape_factor": null,
  "has_reconstructed": null,
  "possible_species": null,
  "has_props": null,
  "theoretical": null,
  "database_IDs": null,
  "fields_not_requested": [
    "builder_meta",
    "nsites",
    "elements",
    "nelements",
    "composition",
    "composition_reduced",
    "chemsys",
    "symmetry",
    "property_name",
    "deprecated",
    "deprecation_reasons",
    "last_updated",
    "origins",
    "warnings",
    "task_ids",
    "uncorrected_energy_per_atom",
    "equilibrium_reaction_energy_per_atom",
    "decomposes_to",
    "xas",
    "grain_boundaries",
    "cbm",
    "vbm",
    "is_gap_direct",
    "is_metal",
    "es_source_calc_id",
    "bandstructure",
    "dos",
    "dos_energy_up",
    "dos_energy_down",
    "is_magnetic",
    "ordering",
    "total_magnetization_normalized_vol",
    "total_magnetization_normalized_formula_units",
    "num_magnetic_sites",
    "num_unique_magnetic_sites",
    "types_of_magnetic_species",
    "bulk_modulus",
    "shear_modulus",
    "universal_anisotropy",
    "homogeneous_poisson",
    "e_total",
    "e_ionic",
    "e_electronic",
    "n",
    "e_ij_max",
    "weighted_surface_energy_EV_PER_ANG2",
    "weighted_surface_energy",
    "weighted_work_function",
    "surface_anisotropy",
    "shape_factor",
    "has_reconstructed",
    "possible_species",
    "has_props",
    "theoretical",
    "database_IDs"
  ]
}
