{"builder_meta": null, "nsites": null, "elements": null, "nelements": null, "composition": null, "composition_reduced": null, "formula_pretty": "ErRe2", "formula_anonymous": "AB2", "chemsys": null, "volume": 219.82061236991947, "density": 16.30689843009193, "density_atomic": 18.318384364159957, "symmetry": null, "property_name": null, "material_id": "mp-1102143", "deprecated": null, "deprecation_reasons": null, "last_updated": null, "origins": null, "warnings": null, "structure": {"@module": "pymatgen.core.structure", "@class": "Structure", "charge": 0, "lattice": {"matrix": [[-2.69142786, -4.6614908, 0.0], [-2.6914299, 4.66149182, 0.0], [0.0, -0.0, -8.76053503]], "pbc": [true, true, true], "a": 5.382683383227071, "b": 5.382685286596359, "c": 8.76053503, "alpha": 90.0, "beta": 90.0, "gamma": 119.99786839198201, "volume": 219.82061236991947}, "properties": {}, "sites": [{"species": [{"element": "Er", "occu": 1}], "abc": [0.6666909, 0.333309099999999, 0.56238733], "properties": {"magmom": 0.0}, "label": "Er", "xyz": [-2.6914285399505617, -1.5540558536121623, -4.926813904893169]}, {"species": [{"element": "Er", "occu": 1}], "abc": [0.33330905, 0.66669095, 0.43760989], "properties": {"magmom": 0.0}, "label": "Er", "xyz": [-2.691429220049538, 1.5540573397612893, -3.8336967708194467]}, {"species": [{"element": "Er", "occu": 1}], "abc": [0.33330905, 0.66669095, 0.062389110000000005], "properties": {"magmom": 0.0}, "label": "Er", "xyz": [-2.691429220049538, 1.5540573397612893, -0.5465619836455233]}, {"species": [{"element": "Er", "occu": 1}], "abc": [0.6666899, 0.333309099999999, 0.9376136700000001], "properties": {"magmom": 0.0}, "label": "Er", "xyz": [-2.6914258485227016, -1.5540511921213622, -8.21399740064186]}, {"species": [{"element": "Re", "occu": 1}], "abc": [1.1e-07, 0.99999989, 0.50000816], "properties": {"magmom": -0.0}, "label": "Re", "xyz": [-2.691429899999776, 4.661490794471912, -4.380339000965845]}, {"species": [{"element": "Re", "occu": 1}], "abc": [1.1e-07, 0.99999989, 0.9999918400000001], "properties": {"magmom": -0.0}, "label": "Re", "xyz": [-2.691429899999776, 4.661490794471912, -8.760463544034156]}, {"species": [{"element": "Re", "occu": 1}], "abc": [0.17117392, 0.34229896, 0.750000999999999], "properties": {"magmom": -0.0}, "label": "Re", "xyz": [-1.3819759128763152, 0.7976981487545712, -6.570410033035022]}, {"species": [{"element": "Re", "occu": 1}], "abc": [0.17113378, 0.82886622, 0.750000999999999], "properties": {"magmom": -0.0}, "label": "Re", "xyz": [-2.6914295508870887, 3.0660145633650964, -6.570410033035022]}, {"species": [{"element": "Re", "occu": 1}], "abc": [0.65770104, 0.82882708, 0.750000999999999], "properties": {"magmom": -0.0}, "label": "Re", "xyz": [-4.000884887648667, 0.797703306504054, -6.570410033035022]}, {"species": [{"element": "Re", "occu": 1}], "abc": [0.828832399999999, 0.65771227, 0.249999], "properties": {"magmom": -0.0}, "label": "Re", "xyz": [-4.000929081705534, -0.7976742408232838, -2.19012499696497]}, {"species": [{"element": "Re", "occu": 1}], "abc": [0.828871999999999, 0.171129, 0.249999], "properties": {"magmom": -0.0}, "label": "Re", "xyz": [-2.6914309005310173, -3.0660627687128157, -2.19012499696497]}, {"species": [{"element": "Re", "occu": 1}], "abc": [0.34228773, 0.1711676, 0.249999], "properties": {"magmom": -0.0}, "label": "Re", "xyz": [-1.381928329209398, -0.7976747370988522, -2.19012499696497]}]}, "task_ids": null, "uncorrected_energy_per_atom": null, "energy_per_atom": -46.576303952500005, "formation_energy_per_atom": -0.32741575861111405, "energy_above_hull": 0.0, "is_stable": true, "equilibrium_reaction_energy_per_atom": null, "decomposes_to": null, "xas": null, "grain_boundaries": null, "band_gap": 0.0, "cbm": null, "vbm": null, "efermi": 5.5760616899999995, "is_gap_direct": null, "is_metal": null, "es_source_calc_id": null, "bandstructure": null, "dos": null, "dos_energy_up": null, "dos_energy_down": null, "is_magnetic": null, "ordering": null, "total_magnetization": 8e-07, "total_magnetization_normalized_vol": null, "total_magnetization_normalized_formula_units": null, "num_magnetic_sites": null, "num_unique_magnetic_sites": null, "types_of_magnetic_species": null, "bulk_modulus": null, "shear_modulus": null, "universal_anisotropy": null, "homogeneous_poisson": null, "e_total": null, "e_ionic": null, "e_electronic": null, "n": null, "e_ij_max": null, "weighted_surface_energy_EV_PER_ANG2": null, "weighted_surface_energy": null, "weighted_work_function": null, "surface_anisotropy": null, "shape_factor": null, "has_reconstructed": null, "possible_species": null, "has_props": null, "theoretical": null, "database_IDs": null, "fields_not_requested": ["builder_meta", "nsites", "elements", "nelements", "composition", "composition_reduced", "chemsys", "symmetry", "property_name", "deprecated", "deprecation_reasons", "last_updated", "origins", "warnings", "task_ids", "uncorrected_energy_per_atom", "equilibrium_reaction_energy_per_atom", "decomposes_to", "xas", "grain_boundaries", "cbm", "vbm", "is_gap_direct", "is_metal", "es_source_calc_id", "bandstructure", "dos", "dos_energy_up", "dos_energy_down", "is_magnetic", "ordering", "total_magnetization_normalized_vol", "total_magnetization_normalized_formula_units", "num_magnetic_sites", "num_unique_magnetic_sites", "types_of_magnetic_species", "bulk_modulus", "shear_modulus", "universal_anisotropy", "homogeneous_poisson", "e_total", "e_ionic", "e_electronic", "n", "e_ij_max", "weighted_surface_energy_EV_PER_ANG2", "weighted_surface_energy", "weighted_work_function", "surface_anisotropy", "shape_factor", "has_reconstructed", "possible_species", "has_props", "theoretical", "database_IDs"]}