{
  "builder_meta": null,
  "nsites": null,
  "elements": null,
  "nelements": null,
  "composition": null,
  "composition_reduced": null,
  "formula_pretty": "ErRh5",
  "formula_anonymous": "AB5",
  "chemsys": null,
  "volume": 102.62611379420417,
  "density": 11.031628076658382,
  "density_atomic": 17.10435229903403,
  "symmetry": null,
  "property_name": null,
  "material_id": "mp-1805",
  "deprecated": null,
  "deprecation_reasons": null,
  "last_updated": null,
  "origins": null,
  "warnings": null,
  "structure": {
    "@module": "pymatgen.core.structure",
    "@class": "Structure",
    "charge": 0,
    "lattice": {
      "matrix": [
        [2.613433, -4.526599, 0.0],
        [2.613433, 4.526599, 0.0],
        [0.0, 0.0, 4.33755]
      ],
      "pbc": [true, true, true],
      "a": 5.226866226745238,
      "b": 5.226866226745238,
      "c": 4.33755,
      "alpha": 90.0,
      "beta": 90.0,
      "gamma": 120.00000287004553,
      "volume": 102.62611379420417
    },
    "properties": {},
    "sites": [
      {
        "species": [{ "element": "Er", "occu": 1 }],
        "abc": [0.0, 0.0, 0.0],
        "properties": { "magmom": 0.0 },
        "label": "Er",
        "xyz": [0.0, 0.0, 0.0]
      },
      {
        "species": [{ "element": "Rh", "occu": 1 }],
        "abc": [0.0, 0.5, 0.5],
        "properties": { "magmom": 0.0 },
        "label": "Rh",
        "xyz": [1.3067165, 2.2632995, 2.168775]
      },
      {
        "species": [{ "element": "Rh", "occu": 1 }],
        "abc": [0.333333, 0.666667, 0.0],
        "properties": { "magmom": 0.0 },
        "label": "Rh",
        "xyz": [2.613433, 1.508869351066, 0.0]
      },
      {
        "species": [{ "element": "Rh", "occu": 1 }],
        "abc": [0.666667, 0.333333, 0.0],
        "properties": { "magmom": 0.0 },
        "label": "Rh",
        "xyz": [2.613433, -1.508869351066, 0.0]
      },
      {
        "species": [{ "element": "Rh", "occu": 1 }],
        "abc": [0.5, 0.0, 0.5],
        "properties": { "magmom": 0.0 },
        "label": "Rh",
        "xyz": [1.3067165, -2.2632995, 2.168775]
      },
      {
        "species": [{ "element": "Rh", "occu": 1 }],
        "abc": [0.5, 0.5, 0.5],
        "properties": { "magmom": 0.0 },
        "label": "Rh",
        "xyz": [2.613433, 0.0, 2.168775]
      }
    ]
  },
  "task_ids": null,
  "uncorrected_energy_per_atom": null,
  "energy_per_atom": -7.189721981666667,
  "formation_energy_per_atom": -0.29151228833333204,
  "energy_above_hull": 0.087913055833333,
  "is_stable": false,
  "equilibrium_reaction_energy_per_atom": null,
  "decomposes_to": null,
  "xas": null,
  "grain_boundaries": null,
  "band_gap": 0.0,
  "cbm": null,
  "vbm": null,
  "efermi": 5.25642295,
  "is_gap_direct": null,
  "is_metal": null,
  "es_source_calc_id": null,
  "bandstructure": null,
  "dos": null,
  "dos_energy_up": null,
  "dos_energy_down": null,
  "is_magnetic": null,
  "ordering": null,
  "total_magnetization": 0.0006178,
  "total_magnetization_normalized_vol": null,
  "total_magnetization_normalized_formula_units": null,
  "num_magnetic_sites": null,
  "num_unique_magnetic_sites": null,
  "types_of_magnetic_species": null,
  "bulk_modulus": null,
  "shear_modulus": null,
  "universal_anisotropy": null,
  "homogeneous_poisson": null,
  "e_total": null,
  "e_ionic": null,
  "e_electronic": null,
  "n": null,
  "e_ij_max": null,
  "weighted_surface_energy_EV_PER_ANG2": null,
  "weighted_surface_energy": null,
  "weighted_work_function": null,
  "surface_anisotropy": null,
  "shape_factor": null,
  "has_reconstructed": null,
  "possible_species": null,
  "has_props": null,
  "theoretical": null,
  "database_IDs": null,
  "fields_not_requested": [
    "builder_meta",
    "nsites",
    "elements",
    "nelements",
    "composition",
    "composition_reduced",
    "chemsys",
    "symmetry",
    "property_name",
    "deprecated",
    "deprecation_reasons",
    "last_updated",
    "origins",
    "warnings",
    "task_ids",
    "uncorrected_energy_per_atom",
    "equilibrium_reaction_energy_per_atom",
    "decomposes_to",
    "xas",
    "grain_boundaries",
    "cbm",
    "vbm",
    "is_gap_direct",
    "is_metal",
    "es_source_calc_id",
    "bandstructure",
    "dos",
    "dos_energy_up",
    "dos_energy_down",
    "is_magnetic",
    "ordering",
    "total_magnetization_normalized_vol",
    "total_magnetization_normalized_formula_units",
    "num_magnetic_sites",
    "num_unique_magnetic_sites",
    "types_of_magnetic_species",
    "bulk_modulus",
    "shear_modulus",
    "universal_anisotropy",
    "homogeneous_poisson",
    "e_total",
    "e_ionic",
    "e_electronic",
    "n",
    "e_ij_max",
    "weighted_surface_energy_EV_PER_ANG2",
    "weighted_surface_energy",
    "weighted_work_function",
    "surface_anisotropy",
    "shape_factor",
    "has_reconstructed",
    "possible_species",
    "has_props",
    "theoretical",
    "database_IDs"
  ]
}
