{"builder_meta": null, "nsites": null, "elements": null, "nelements": null, "composition": null, "composition_reduced": null, "formula_pretty": "ErRu2", "formula_anonymous": "AB2", "chemsys": null, "volume": 207.67683875562903, "density": 11.81453790106572, "density_atomic": 17.30640322963575, "symmetry": null, "property_name": null, "material_id": "mp-569220", "deprecated": null, "deprecation_reasons": null, "last_updated": null, "origins": null, "warnings": null, "structure": {"@module": "pymatgen.core.structure", "@class": "Structure", "charge": 0, "lattice": {"matrix": [[5.19971513, -0.0, -0.0], [-2.5998575600000002, 4.50308525, 0.0], [-0.0, -0.0, 8.86948379]], "pbc": [true, true, true], "a": 5.19971513, "b": 5.199715001907, "c": 8.86948379, "alpha": 90.0, "beta": 90.0, "gamma": 120.00000075128831, "volume": 207.67683875562903}, "properties": {}, "sites": [{"species": [{"element": "Er", "occu": 1}], "abc": [0.333333, 0.666667, 0.43272527], "properties": {"magmom": -0.0}, "label": "Er", "xyz": [-2.5965242302916636e-06, 3.0020583343617497, 3.8380497677883736]}, {"species": [{"element": "Er", "occu": 1}], "abc": [0.666667, 0.333333, 0.5672747300000001], "properties": {"magmom": -0.0}, "label": "Er", "xyz": [2.5998601665242305, 1.5010269156382499, 5.031434022211627]}, {"species": [{"element": "Er", "occu": 1}], "abc": [0.666667, 0.333333, 0.93272527], "properties": {"magmom": -0.0}, "label": "Er", "xyz": [2.5998601665242305, 1.5010269156382499, 8.272791662788373]}, {"species": [{"element": "Er", "occu": 1}], "abc": [0.333333, 0.666667, 0.06727473], "properties": {"magmom": -0.0}, "label": "Er", "xyz": [-2.5965242302916636e-06, 3.0020583343617497, 0.5966921272116268]}, {"species": [{"element": "Ru", "occu": 1}], "abc": [0.17088569, 0.34177338, 0.75], "properties": {"magmom": 0.0}, "label": "Ru", "xyz": [-5.1980062630851975e-06, 1.5390346663206451, 6.6521128425]}, {"species": [{"element": "Ru", "occu": 1}], "abc": [0.17088569, 0.82911431, 0.75], "properties": {"magmom": 0.0}, "label": "Ru", "xyz": [-1.2670221991641941, 3.7335724199249274, 6.6521128425]}, {"species": [{"element": "Ru", "occu": 1}], "abc": [0.34177338, 0.17088569, 0.25], "properties": {"magmom": 0.0}, "label": "Ru", "xyz": [1.3328457619749232, 0.7695128300750725, 2.2173709475]}, {"species": [{"element": "Ru", "occu": 1}], "abc": [0.82911431, 0.65822662, 0.25], "properties": {"magmom": 0.0}, "label": "Ru", "xyz": [2.5998627680062634, 2.964050583679355, 2.2173709475]}, {"species": [{"element": "Ru", "occu": 1}], "abc": [0.65822662, 0.82911431, 0.75], "properties": {"magmom": 0.0}, "label": "Ru", "xyz": [1.2670118080250767, 3.7335724199249274, 6.6521128425]}, {"species": [{"element": "Ru", "occu": 1}], "abc": [0.0, 0.0, -0.0], "properties": {"magmom": 0.0}, "label": "Ru", "xyz": [0.0, 0.0, 0.0]}, {"species": [{"element": "Ru", "occu": 1}], "abc": [0.82911431, 0.17088569, 0.25], "properties": {"magmom": 0.0}, "label": "Ru", "xyz": [3.8668797691641945, 0.7695128300750725, 2.2173709475]}, {"species": [{"element": "Ru", "occu": 1}], "abc": [0.0, 0.0, 0.5], "properties": {"magmom": 0.0}, "label": "Ru", "xyz": [0.0, 0.0, 4.434741895]}]}, "task_ids": null, "uncorrected_energy_per_atom": null, "energy_per_atom": -8.068098433333333, "formation_energy_per_atom": -0.36259046999999806, "energy_above_hull": 0.0, "is_stable": true, "equilibrium_reaction_energy_per_atom": null, "decomposes_to": null, "xas": null, "grain_boundaries": null, "band_gap": 0.0, "cbm": null, "vbm": null, "efermi": 5.83387133, "is_gap_direct": null, "is_metal": null, "es_source_calc_id": null, "bandstructure": null, "dos": null, "dos_energy_up": null, "dos_energy_down": null, "is_magnetic": null, "ordering": null, "total_magnetization": 8.240000000000001e-05, "total_magnetization_normalized_vol": null, "total_magnetization_normalized_formula_units": null, "num_magnetic_sites": null, "num_unique_magnetic_sites": null, "types_of_magnetic_species": null, "bulk_modulus": null, "shear_modulus": null, "universal_anisotropy": null, "homogeneous_poisson": null, "e_total": null, "e_ionic": null, "e_electronic": null, "n": null, "e_ij_max": null, "weighted_surface_energy_EV_PER_ANG2": null, "weighted_surface_energy": null, "weighted_work_function": null, "surface_anisotropy": null, "shape_factor": null, "has_reconstructed": null, "possible_species": null, "has_props": null, "theoretical": null, "database_IDs": null, "fields_not_requested": ["builder_meta", "nsites", "elements", "nelements", "composition", "composition_reduced", "chemsys", "symmetry", "property_name", "deprecated", "deprecation_reasons", "last_updated", "origins", "warnings", "task_ids", "uncorrected_energy_per_atom", "equilibrium_reaction_energy_per_atom", "decomposes_to", "xas", "grain_boundaries", "cbm", "vbm", "is_gap_direct", "is_metal", "es_source_calc_id", "bandstructure", "dos", "dos_energy_up", "dos_energy_down", "is_magnetic", "ordering", "total_magnetization_normalized_vol", "total_magnetization_normalized_formula_units", "num_magnetic_sites", "num_unique_magnetic_sites", "types_of_magnetic_species", "bulk_modulus", "shear_modulus", "universal_anisotropy", "homogeneous_poisson", "e_total", "e_ionic", "e_electronic", "n", "e_ij_max", "weighted_surface_energy_EV_PER_ANG2", "weighted_surface_energy", "weighted_work_function", "surface_anisotropy", "shape_factor", "has_reconstructed", "possible_species", "has_props", "theoretical", "database_IDs"]}