{"builder_meta": null, "nsites": null, "elements": null, "nelements": null, "composition": null, "composition_reduced": null, "formula_pretty": "ErS2", "formula_anonymous": "AB2", "chemsys": null, "volume": 234.67733357508462, "density": 6.549085388488505, "density_atomic": 19.556444464590385, "symmetry": null, "property_name": null, "material_id": "mp-1101873", "deprecated": null, "deprecation_reasons": null, "last_updated": null, "origins": null, "warnings": null, "structure": {"@module": "pymatgen.core.structure", "@class": "Structure", "charge": 0, "lattice": {"matrix": [[0.0, -3.85766632, 0.0], [-7.79024773, 0.0, -0.01350003], [-0.01976795, 0.0, -7.80903056]], "pbc": [true, true, true], "a": 3.85766632, "b": 7.7902594273605645, "c": 7.809055580469454, "alpha": 89.75567049116808, "beta": 90.0, "gamma": 90.0, "volume": 234.67733357508462}, "properties": {}, "sites": [{"species": [{"element": "Er", "occu": 1}], "abc": [0.28948605, 0.37091641000000003, 0.27534616], "properties": {"magmom": 0.0}, "label": "Er", "xyz": [-2.8949737501458217, -1.116740585194836, -2.155193960681142]}, {"species": [{"element": "Er", "occu": 1}], "abc": [0.78948605, 0.12908359, 0.72465384], "properties": {"magmom": 0.0}, "label": "Er", "xyz": [-1.0199180648541786, -3.045573745194836, -5.660586614318858]}, {"species": [{"element": "Er", "occu": 1}], "abc": [0.7105139500000001, 0.62908359, 0.72465384], "properties": {"magmom": 0.0}, "label": "Er", "xyz": [-4.915041929854179, -2.740925734805164, -5.667336629318858]}, {"species": [{"element": "Er", "occu": 1}], "abc": [0.21051395, 0.87091641, 0.27534616], "properties": {"magmom": 0.0}, "label": "Er", "xyz": [-6.790097615145821, -0.812092574805164, -2.161943975681142]}, {"species": [{"element": "S", "occu": 1}], "abc": [0.26230379, 0.37411642, 0.63084962], "properties": {"magmom": -0.0}, "label": "S", "xyz": [-2.9269301954064058, -1.0118804962913528, -4.93137454423788]}, {"species": [{"element": "S", "occu": 1}], "abc": [0.76230379, 0.12588358, 0.36915038], "properties": {"magmom": -0.0}, "label": "S", "xyz": [-0.9879616195935943, -2.940713656291353, -2.88440603076212]}, {"species": [{"element": "S", "occu": 1}], "abc": [0.73769621, 0.62588358, 0.36915038], "properties": {"magmom": -0.0}, "label": "S", "xyz": [-4.883085484593594, -2.845785823708647, -2.8911560457621204]}, {"species": [{"element": "S", "occu": 1}], "abc": [0.23769621, 0.87411642, 0.63084962], "properties": {"magmom": -0.0}, "label": "S", "xyz": [-6.822054060406406, -0.9169526637086471, -4.93812455923788]}, {"species": [{"element": "S", "occu": 1}], "abc": [0.83887758, 0.38864127, 0.0040912100000000005], "properties": {"magmom": 0.0}, "label": "S", "xyz": [-3.0276926462365363, -3.2361097869691053, -0.037195052721615704]}, {"species": [{"element": "S", "occu": 1}], "abc": [0.33887758, 0.11135873, 0.99590879], "properties": {"magmom": 0.0}, "label": "S", "xyz": [-0.8871991687634634, -1.3072766269691056, -7.778585522278385]}, {"species": [{"element": "S", "occu": 1}], "abc": [0.16112242000000002, 0.61135873, 0.99590879], "properties": {"magmom": 0.0}, "label": "S", "xyz": [-4.782323033763463, -0.6215565330308944, -7.785335537278384]}, {"species": [{"element": "S", "occu": 1}], "abc": [0.66112242, 0.88864127, 0.0040912100000000005], "properties": {"magmom": 0.0}, "label": "S", "xyz": [-6.922816511236538, -2.5503896930308945, -0.0439450677216157]}]}, "task_ids": null, "uncorrected_energy_per_atom": null, "energy_per_atom": -18.609859221666667, "formation_energy_per_atom": -1.944714777986111, "energy_above_hull": 0.026628828420140003, "is_stable": false, "equilibrium_reaction_energy_per_atom": null, "decomposes_to": null, "xas": null, "grain_boundaries": null, "band_gap": 0.3512, "cbm": null, "vbm": null, "efermi": 5.51392759, "is_gap_direct": null, "is_metal": null, "es_source_calc_id": null, "bandstructure": null, "dos": null, "dos_energy_up": null, "dos_energy_down": null, "is_magnetic": null, "ordering": null, "total_magnetization": 0.0, "total_magnetization_normalized_vol": null, "total_magnetization_normalized_formula_units": null, "num_magnetic_sites": null, "num_unique_magnetic_sites": null, "types_of_magnetic_species": null, "bulk_modulus": null, "shear_modulus": null, "universal_anisotropy": null, "homogeneous_poisson": null, "e_total": null, "e_ionic": null, "e_electronic": null, "n": null, "e_ij_max": null, "weighted_surface_energy_EV_PER_ANG2": null, "weighted_surface_energy": null, "weighted_work_function": null, "surface_anisotropy": null, "shape_factor": null, "has_reconstructed": null, "possible_species": null, "has_props": null, "theoretical": null, "database_IDs": null, "fields_not_requested": ["builder_meta", "nsites", "elements", "nelements", "composition", "composition_reduced", "chemsys", "symmetry", "property_name", "deprecated", "deprecation_reasons", "last_updated", "origins", "warnings", "task_ids", "uncorrected_energy_per_atom", "equilibrium_reaction_energy_per_atom", "decomposes_to", "xas", "grain_boundaries", "cbm", "vbm", "is_gap_direct", "is_metal", "es_source_calc_id", "bandstructure", "dos", "dos_energy_up", "dos_energy_down", "is_magnetic", "ordering", "total_magnetization_normalized_vol", "total_magnetization_normalized_formula_units", "num_magnetic_sites", "num_unique_magnetic_sites", "types_of_magnetic_species", "bulk_modulus", "shear_modulus", "universal_anisotropy", "homogeneous_poisson", "e_total", "e_ionic", "e_electronic", "n", "e_ij_max", "weighted_surface_energy_EV_PER_ANG2", "weighted_surface_energy", "weighted_work_function", "surface_anisotropy", "shape_factor", "has_reconstructed", "possible_species", "has_props", "theoretical", "database_IDs"]}