{"builder_meta": null, "nsites": null, "elements": null, "nelements": null, "composition": null, "composition_reduced": null, "formula_pretty": "ErSb2", "formula_anonymous": "AB2", "chemsys": null, "volume": 84.75132797449123, "density": 8.048423470652716, "density_atomic": 28.250442658163745, "symmetry": null, "property_name": null, "material_id": "mp-1018159", "deprecated": null, "deprecation_reasons": null, "last_updated": null, "origins": null, "warnings": null, "structure": {"@module": "pymatgen.core.structure", "@class": "Structure", "charge": 0, "lattice": {"matrix": [[1.769654, -3.148837, 0.0], [1.769654, 3.148837, 0.0], [0.0, 0.0, 7.604628]], "pbc": [true, true, true], "a": 3.6120423214969395, "b": 3.6120423214969395, "c": 7.604628, "alpha": 90.0, "beta": 90.0, "gamma": 121.32781624813992, "volume": 84.75132797449123}, "properties": {}, "sites": [{"species": [{"element": "Er", "occu": 1}], "abc": [0.0, 0.0, 0.0], "properties": {"magmom": -0.0}, "label": "Er", "xyz": [0.0, 0.0, 0.0]}, {"species": [{"element": "Sb", "occu": 1}], "abc": [0.5, 0.0, 0.678018999999999], "properties": {"magmom": -0.0}, "label": "Sb", "xyz": [0.884827, -1.5744185, 5.156082271931993]}, {"species": [{"element": "Sb", "occu": 1}], "abc": [0.0, 0.5, 0.321980999999999], "properties": {"magmom": -0.0}, "label": "Sb", "xyz": [0.884827, 1.5744185, 2.4485457280679923]}]}, "task_ids": null, "uncorrected_energy_per_atom": null, "energy_per_atom": -28.85219782, "formation_energy_per_atom": -0.40617561111111405, "energy_above_hull": 0.467872933333332, "is_stable": false, "equilibrium_reaction_energy_per_atom": null, "decomposes_to": null, "xas": null, "grain_boundaries": null, "band_gap": 0.0, "cbm": null, "vbm": null, "efermi": 6.53131731, "is_gap_direct": null, "is_metal": null, "es_source_calc_id": null, "bandstructure": null, "dos": null, "dos_energy_up": null, "dos_energy_down": null, "is_magnetic": null, "ordering": null, "total_magnetization": 0.008156799999999001, "total_magnetization_normalized_vol": null, "total_magnetization_normalized_formula_units": null, "num_magnetic_sites": null, "num_unique_magnetic_sites": null, "types_of_magnetic_species": null, "bulk_modulus": null, "shear_modulus": null, "universal_anisotropy": null, "homogeneous_poisson": null, "e_total": null, "e_ionic": null, "e_electronic": null, "n": null, "e_ij_max": null, "weighted_surface_energy_EV_PER_ANG2": null, "weighted_surface_energy": null, "weighted_work_function": null, "surface_anisotropy": null, "shape_factor": null, "has_reconstructed": null, "possible_species": null, "has_props": null, "theoretical": null, "database_IDs": null, "fields_not_requested": ["builder_meta", "nsites", "elements", "nelements", "composition", "composition_reduced", "chemsys", "symmetry", "property_name", "deprecated", "deprecation_reasons", "last_updated", "origins", "warnings", "task_ids", "uncorrected_energy_per_atom", "equilibrium_reaction_energy_per_atom", "decomposes_to", "xas", "grain_boundaries", "cbm", "vbm", "is_gap_direct", "is_metal", "es_source_calc_id", "bandstructure", "dos", "dos_energy_up", "dos_energy_down", "is_magnetic", "ordering", "total_magnetization_normalized_vol", "total_magnetization_normalized_formula_units", "num_magnetic_sites", "num_unique_magnetic_sites", "types_of_magnetic_species", "bulk_modulus", "shear_modulus", "universal_anisotropy", "homogeneous_poisson", "e_total", "e_ionic", "e_electronic", "n", "e_ij_max", "weighted_surface_energy_EV_PER_ANG2", "weighted_surface_energy", "weighted_work_function", "surface_anisotropy", "shape_factor", "has_reconstructed", "possible_species", "has_props", "theoretical", "database_IDs"]}