{
  "builder_meta": null,
  "nsites": null,
  "elements": null,
  "nelements": null,
  "composition": null,
  "composition_reduced": null,
  "formula_pretty": "ErSe2",
  "formula_anonymous": "AB2",
  "chemsys": null,
  "volume": 144.59139496655416,
  "density": 7.468942854625946,
  "density_atomic": 24.098565827759032,
  "symmetry": null,
  "property_name": null,
  "material_id": "mp-1077779",
  "deprecated": null,
  "deprecation_reasons": null,
  "last_updated": null,
  "origins": null,
  "warnings": null,
  "structure": {
    "@module": "pymatgen.core.structure",
    "@class": "Structure",
    "charge": 0,
    "lattice": {
      "matrix": [
        [-1.9846119, 2.7140152, 6.71111359],
        [1.9846119, -2.7140152, 6.71111359],
        [1.9846119, 2.7140152, -6.71111359]
      ],
      "pbc": [true, true, true],
      "a": 7.50623797366799,
      "b": 7.50623797366799,
      "c": 7.50623797366799,
      "alpha": 149.337984829314,
      "beta": 137.60695704589023,
      "gamma": 53.22116534169367,
      "volume": 144.59139496655416
    },
    "properties": {},
    "sites": [
      {
        "species": [{ "element": "Er", "occu": 1 }],
        "abc": [0.85791759, 0.85791759, 0.0],
        "properties": { "magmom": 0.0 },
        "label": "Er",
        "xyz": [0.0, 0.0, 11.515164794698096]
      },
      {
        "species": [{ "element": "Er", "occu": 1 }],
        "abc": [0.14208241, 0.14208241, -0.0],
        "properties": { "magmom": 0.0 },
        "label": "Er",
        "xyz": [0.0, 0.0, 1.9070623853019038]
      },
      {
        "species": [{ "element": "Se", "occu": 1 }],
        "abc": [0.7127255100000001, 0.21272551, 0.5],
        "properties": { "magmom": -0.0 },
        "label": "Se",
        "xyz": [-2.220446049250313e-16, 2.7140152000000004, 2.8552501222013627]
      },
      {
        "species": [{ "element": "Se", "occu": 1 }],
        "abc": [0.28727449, 0.78727449, 0.5],
        "properties": { "magmom": -0.0 },
        "label": "Se",
        "xyz": [1.9846119, -2.220446049250313e-16, 3.8558634677986383]
      },
      {
        "species": [{ "element": "Se", "occu": 1 }],
        "abc": [0.75804058, 0.5, 0.25804058],
        "properties": { "magmom": 0.0 },
        "label": "Se",
        "xyz": [2.220446049250313e-16, 1.4006521126736318, 6.711113590000001]
      },
      {
        "species": [{ "element": "Se", "occu": 1 }],
        "abc": [0.24195942, 0.5, 0.74195942],
        "properties": { "magmom": 0.0 },
        "label": "Se",
        "xyz": [1.9846119000000002, 1.3133630873263678, 0.0]
      }
    ]
  },
  "task_ids": null,
  "uncorrected_energy_per_atom": null,
  "energy_per_atom": -22.597262721666667,
  "formation_energy_per_atom": -1.747744178819445,
  "energy_above_hull": 0.06380014890624901,
  "is_stable": false,
  "equilibrium_reaction_energy_per_atom": null,
  "decomposes_to": null,
  "xas": null,
  "grain_boundaries": null,
  "band_gap": 0.0,
  "cbm": null,
  "vbm": null,
  "efermi": 3.28671148,
  "is_gap_direct": null,
  "is_metal": null,
  "es_source_calc_id": null,
  "bandstructure": null,
  "dos": null,
  "dos_energy_up": null,
  "dos_energy_down": null,
  "is_magnetic": null,
  "ordering": null,
  "total_magnetization": 0.0,
  "total_magnetization_normalized_vol": null,
  "total_magnetization_normalized_formula_units": null,
  "num_magnetic_sites": null,
  "num_unique_magnetic_sites": null,
  "types_of_magnetic_species": null,
  "bulk_modulus": null,
  "shear_modulus": null,
  "universal_anisotropy": null,
  "homogeneous_poisson": null,
  "e_total": null,
  "e_ionic": null,
  "e_electronic": null,
  "n": null,
  "e_ij_max": null,
  "weighted_surface_energy_EV_PER_ANG2": null,
  "weighted_surface_energy": null,
  "weighted_work_function": null,
  "surface_anisotropy": null,
  "shape_factor": null,
  "has_reconstructed": null,
  "possible_species": null,
  "has_props": null,
  "theoretical": null,
  "database_IDs": null,
  "fields_not_requested": [
    "builder_meta",
    "nsites",
    "elements",
    "nelements",
    "composition",
    "composition_reduced",
    "chemsys",
    "symmetry",
    "property_name",
    "deprecated",
    "deprecation_reasons",
    "last_updated",
    "origins",
    "warnings",
    "task_ids",
    "uncorrected_energy_per_atom",
    "equilibrium_reaction_energy_per_atom",
    "decomposes_to",
    "xas",
    "grain_boundaries",
    "cbm",
    "vbm",
    "is_gap_direct",
    "is_metal",
    "es_source_calc_id",
    "bandstructure",
    "dos",
    "dos_energy_up",
    "dos_energy_down",
    "is_magnetic",
    "ordering",
    "total_magnetization_normalized_vol",
    "total_magnetization_normalized_formula_units",
    "num_magnetic_sites",
    "num_unique_magnetic_sites",
    "types_of_magnetic_species",
    "bulk_modulus",
    "shear_modulus",
    "universal_anisotropy",
    "homogeneous_poisson",
    "e_total",
    "e_ionic",
    "e_electronic",
    "n",
    "e_ij_max",
    "weighted_surface_energy_EV_PER_ANG2",
    "weighted_surface_energy",
    "weighted_work_function",
    "surface_anisotropy",
    "shape_factor",
    "has_reconstructed",
    "possible_species",
    "has_props",
    "theoretical",
    "database_IDs"
  ]
}
