{
  "builder_meta": null,
  "nsites": null,
  "elements": null,
  "nelements": null,
  "composition": null,
  "composition_reduced": null,
  "formula_pretty": "ErSi",
  "formula_anonymous": "AB",
  "chemsys": null,
  "volume": 166.2910601988025,
  "density": 7.802636493089832,
  "density_atomic": 20.786382524850314,
  "symmetry": null,
  "property_name": null,
  "material_id": "mp-1079295",
  "deprecated": null,
  "deprecation_reasons": null,
  "last_updated": null,
  "origins": null,
  "warnings": null,
  "structure": {
    "@module": "pymatgen.core.structure",
    "@class": "Structure",
    "charge": 0,
    "lattice": {
      "matrix": [
        [-4.1e-6, 3.7887386, -1.02e-6],
        [2.899999999999999e-6, -1.029999999999998e-6, 5.62527221],
        [7.80244501, -8.2e-6, 5.53e-6]
      ],
      "pbc": [true, true, true],
      "a": 3.7887386000023557,
      "b": 5.625272210000842,
      "c": 7.802445010006268,
      "alpha": 89.99992985375167,
      "beta": 90.00012221803803,
      "gamma": 90.00002591612429,
      "volume": 166.2910601988025
    },
    "properties": {},
    "sites": [
      {
        "species": [{ "element": "Er", "occu": 1 }],
        "abc": [0.25, 0.3851274, 0.67927901],
        "properties": { "magmom": -0.0 },
        "label": "Er",
        "xyz": [5.3000372138417, 0.9471786832308959, 2.1664499619424795]
      },
      {
        "species": [{ "element": "Er", "occu": 1 }],
        "abc": [0.25, 0.11486809, 0.17913004],
        "properties": { "magmom": 0.0 },
        "label": "Er",
        "xyz": [1.3976515948565613, 0.9471830628195392, 0.6461650100819002]
      },
      {
        "species": [{ "element": "Er", "occu": 1 }],
        "abc": [0.75, 0.6148726, 0.32072199],
        "properties": { "magmom": -0.0 },
        "label": "Er",
        "xyz": [2.50241439860331, 2.841550686760904, 3.458826758063051]
      },
      {
        "species": [{ "element": "Er", "occu": 1 }],
        "abc": [0.750000999999999, 0.88513191, 0.8208679600000001],
        "properties": { "magmom": 0.0 },
        "label": "Er",
        "xyz": [6.404776610249319, 2.841550095935457, 4.979111709906021]
      },
      {
        "species": [{ "element": "Si", "occu": 1 }],
        "abc": [0.25, 0.87009632, 0.53843392],
        "properties": { "magmom": -0.0 },
        "label": "Si",
        "xyz": [4.201102550598067, 0.9471793386426464, 4.894531371458846]
      },
      {
        "species": [{ "element": "Si", "occu": 1 }],
        "abc": [0.25, 0.62990169, 0.0384256],
        "properties": { "magmom": 0.0 },
        "label": "Si",
        "xyz": [0.299814432691157, 0.9471836861113392, 3.5433684292826033]
      },
      {
        "species": [{ "element": "Si", "occu": 1 }],
        "abc": [0.75, 0.12990368, 0.46156808],
        "properties": { "magmom": -0.0 },
        "label": "Si",
        "xyz": [3.6013568642919527, 2.841550031340953, 0.7307453485522152]
      },
      {
        "species": [{ "element": "Si", "occu": 1 }],
        "abc": [0.75, 0.37009831, 0.961573399999999],
        "properties": { "magmom": 0.0 },
        "label": "Si",
        "xyz": [7.5026215748638245, 2.8415456838968605, 2.0819082907118673]
      }
    ]
  },
  "task_ids": null,
  "uncorrected_energy_per_atom": null,
  "energy_per_atom": -22.2367208925,
  "formation_energy_per_atom": -0.887121011666668,
  "energy_above_hull": 0.0,
  "is_stable": true,
  "equilibrium_reaction_energy_per_atom": null,
  "decomposes_to": null,
  "xas": null,
  "grain_boundaries": null,
  "band_gap": 0.0,
  "cbm": null,
  "vbm": null,
  "efermi": 5.40076113,
  "is_gap_direct": null,
  "is_metal": null,
  "es_source_calc_id": null,
  "bandstructure": null,
  "dos": null,
  "dos_energy_up": null,
  "dos_energy_down": null,
  "is_magnetic": null,
  "ordering": null,
  "total_magnetization": 0.0,
  "total_magnetization_normalized_vol": null,
  "total_magnetization_normalized_formula_units": null,
  "num_magnetic_sites": null,
  "num_unique_magnetic_sites": null,
  "types_of_magnetic_species": null,
  "bulk_modulus": null,
  "shear_modulus": null,
  "universal_anisotropy": null,
  "homogeneous_poisson": null,
  "e_total": null,
  "e_ionic": null,
  "e_electronic": null,
  "n": null,
  "e_ij_max": null,
  "weighted_surface_energy_EV_PER_ANG2": null,
  "weighted_surface_energy": null,
  "weighted_work_function": null,
  "surface_anisotropy": null,
  "shape_factor": null,
  "has_reconstructed": null,
  "possible_species": null,
  "has_props": null,
  "theoretical": null,
  "database_IDs": null,
  "fields_not_requested": [
    "builder_meta",
    "nsites",
    "elements",
    "nelements",
    "composition",
    "composition_reduced",
    "chemsys",
    "symmetry",
    "property_name",
    "deprecated",
    "deprecation_reasons",
    "last_updated",
    "origins",
    "warnings",
    "task_ids",
    "uncorrected_energy_per_atom",
    "equilibrium_reaction_energy_per_atom",
    "decomposes_to",
    "xas",
    "grain_boundaries",
    "cbm",
    "vbm",
    "is_gap_direct",
    "is_metal",
    "es_source_calc_id",
    "bandstructure",
    "dos",
    "dos_energy_up",
    "dos_energy_down",
    "is_magnetic",
    "ordering",
    "total_magnetization_normalized_vol",
    "total_magnetization_normalized_formula_units",
    "num_magnetic_sites",
    "num_unique_magnetic_sites",
    "types_of_magnetic_species",
    "bulk_modulus",
    "shear_modulus",
    "universal_anisotropy",
    "homogeneous_poisson",
    "e_total",
    "e_ionic",
    "e_electronic",
    "n",
    "e_ij_max",
    "weighted_surface_energy_EV_PER_ANG2",
    "weighted_surface_energy",
    "weighted_work_function",
    "surface_anisotropy",
    "shape_factor",
    "has_reconstructed",
    "possible_species",
    "has_props",
    "theoretical",
    "database_IDs"
  ]
}
