{
  "builder_meta": null,
  "nsites": null,
  "elements": null,
  "nelements": null,
  "composition": null,
  "composition_reduced": null,
  "formula_pretty": "ErSn2",
  "formula_anonymous": "AB2",
  "chemsys": null,
  "volume": 153.9161931063849,
  "density": 8.731833543572035,
  "density_atomic": 25.652698851064148,
  "symmetry": null,
  "property_name": null,
  "material_id": "mp-30613",
  "deprecated": null,
  "deprecation_reasons": null,
  "last_updated": null,
  "origins": null,
  "warnings": null,
  "structure": {
    "@module": "pymatgen.core.structure",
    "@class": "Structure",
    "charge": 0,
    "lattice": {
      "matrix": [
        [4.29694402, -0.0, 0.0],
        [-0.0, 4.21472622, -1.14042149],
        [0.0, 0.03535621, 8.48918711]
      ],
      "pbc": [true, true, true],
      "a": 4.29694402,
      "b": 4.366288845737225,
      "c": 8.489260736376032,
      "alpha": 104.90192811353711,
      "beta": 90.0,
      "gamma": 90.0,
      "volume": 153.9161931063849
    },
    "properties": {},
    "sites": [
      {
        "species": [{ "element": "Er", "occu": 1 }],
        "abc": [0.25, 0.89990179, 0.7998035800000001],
        "properties": { "magmom": 0.0 },
        "label": "Er",
        "xyz": [1.074236005, 3.821117693071166, 5.763414901662387]
      },
      {
        "species": [{ "element": "Er", "occu": 1 }],
        "abc": [0.75, 0.10009821, 0.20019642],
        "properties": { "magmom": 0.0 },
        "label": "Er",
        "xyz": [3.222708015, 0.4289647369288344, 1.5853507183376134]
      },
      {
        "species": [{ "element": "Sn", "occu": 1 }],
        "abc": [0.25, 0.25159792000000003, 0.50319483],
        "properties": { "magmom": 0.0 },
        "label": "Sn",
        "xyz": [1.074236005, 1.0782074124018568, 3.98478738984734]
      },
      {
        "species": [{ "element": "Sn", "occu": 1 }],
        "abc": [0.75, 0.74840208, 0.49680517],
        "properties": { "magmom": 0.0 },
        "label": "Sn",
        "xyz": [3.222708015, 3.1718750175981434, 3.363978230152659]
      },
      {
        "species": [{ "element": "Sn", "occu": 1 }],
        "abc": [0.75, 0.43830106, 0.8766031200000001],
        "properties": { "magmom": 0.0 },
        "label": "Sn",
        "xyz": [3.222708015, 1.8783123338331686, 6.941799958976004]
      },
      {
        "species": [{ "element": "Sn", "occu": 1 }],
        "abc": [0.25, 0.56169894, 0.12339688],
        "properties": { "magmom": 0.0 },
        "label": "Sn",
        "xyz": [1.074236005, 2.3717700961668315, 0.406965661023996]
      }
    ]
  },
  "task_ids": null,
  "uncorrected_energy_per_atom": null,
  "energy_per_atom": -4.7553234783333345,
  "formation_energy_per_atom": -0.559702638333332,
  "energy_above_hull": 0.0,
  "is_stable": true,
  "equilibrium_reaction_energy_per_atom": null,
  "decomposes_to": null,
  "xas": null,
  "grain_boundaries": null,
  "band_gap": 0.0,
  "cbm": null,
  "vbm": null,
  "efermi": 6.9074342600000005,
  "is_gap_direct": null,
  "is_metal": null,
  "es_source_calc_id": null,
  "bandstructure": null,
  "dos": null,
  "dos_energy_up": null,
  "dos_energy_down": null,
  "is_magnetic": null,
  "ordering": null,
  "total_magnetization": 2e-7,
  "total_magnetization_normalized_vol": null,
  "total_magnetization_normalized_formula_units": null,
  "num_magnetic_sites": null,
  "num_unique_magnetic_sites": null,
  "types_of_magnetic_species": null,
  "bulk_modulus": null,
  "shear_modulus": null,
  "universal_anisotropy": null,
  "homogeneous_poisson": null,
  "e_total": null,
  "e_ionic": null,
  "e_electronic": null,
  "n": null,
  "e_ij_max": null,
  "weighted_surface_energy_EV_PER_ANG2": null,
  "weighted_surface_energy": null,
  "weighted_work_function": null,
  "surface_anisotropy": null,
  "shape_factor": null,
  "has_reconstructed": null,
  "possible_species": null,
  "has_props": null,
  "theoretical": null,
  "database_IDs": null,
  "fields_not_requested": [
    "builder_meta",
    "nsites",
    "elements",
    "nelements",
    "composition",
    "composition_reduced",
    "chemsys",
    "symmetry",
    "property_name",
    "deprecated",
    "deprecation_reasons",
    "last_updated",
    "origins",
    "warnings",
    "task_ids",
    "uncorrected_energy_per_atom",
    "equilibrium_reaction_energy_per_atom",
    "decomposes_to",
    "xas",
    "grain_boundaries",
    "cbm",
    "vbm",
    "is_gap_direct",
    "is_metal",
    "es_source_calc_id",
    "bandstructure",
    "dos",
    "dos_energy_up",
    "dos_energy_down",
    "is_magnetic",
    "ordering",
    "total_magnetization_normalized_vol",
    "total_magnetization_normalized_formula_units",
    "num_magnetic_sites",
    "num_unique_magnetic_sites",
    "types_of_magnetic_species",
    "bulk_modulus",
    "shear_modulus",
    "universal_anisotropy",
    "homogeneous_poisson",
    "e_total",
    "e_ionic",
    "e_electronic",
    "n",
    "e_ij_max",
    "weighted_surface_energy_EV_PER_ANG2",
    "weighted_surface_energy",
    "weighted_work_function",
    "surface_anisotropy",
    "shape_factor",
    "has_reconstructed",
    "possible_species",
    "has_props",
    "theoretical",
    "database_IDs"
  ]
}
