{
  "builder_meta": null,
  "nsites": null,
  "elements": null,
  "nelements": null,
  "composition": null,
  "composition_reduced": null,
  "formula_pretty": "ErTc2",
  "formula_anonymous": "AB2",
  "chemsys": null,
  "volume": 215.63852475186104,
  "density": 11.189202142579461,
  "density_atomic": 17.969877062655087,
  "symmetry": null,
  "property_name": null,
  "material_id": "mp-1095604",
  "deprecated": null,
  "deprecation_reasons": null,
  "last_updated": null,
  "origins": null,
  "warnings": null,
  "structure": {
    "@module": "pymatgen.core.structure",
    "@class": "Structure",
    "charge": 0,
    "lattice": {
      "matrix": [
        [-2.65947488, -4.60676085, -0.0],
        [-2.65947488, 4.60676085, 0.0],
        [0.0, -0.0, -8.80044831]
      ],
      "pbc": [true, true, true],
      "a": 5.319309369311371,
      "b": 5.319309369311371,
      "c": 8.80044831,
      "alpha": 90.0,
      "beta": 90.0,
      "gamma": 120.0044726280841,
      "volume": 215.63852475186104
    },
    "properties": {},
    "sites": [
      {
        "species": [{ "element": "Er", "occu": 1 }],
        "abc": [0.6666633, 0.3333367, 0.56286965],
        "properties": { "magmom": -0.0 },
        "label": "Er",
        "xyz": [-2.65947488, -1.53555593114361, -4.953505260092792]
      },
      {
        "species": [{ "element": "Er", "occu": 1 }],
        "abc": [0.3333367, 0.6666633, 0.43713035],
        "properties": { "magmom": -0.0 },
        "label": "Er",
        "xyz": [-2.65947488, 1.53555593114361, -3.8469430499072086]
      },
      {
        "species": [{ "element": "Er", "occu": 1 }],
        "abc": [0.3333367, 0.6666633, 0.06286965],
        "properties": { "magmom": -0.0 },
        "label": "Er",
        "xyz": [-2.65947488, 1.53555593114361, -0.5532811050927915]
      },
      {
        "species": [{ "element": "Er", "occu": 1 }],
        "abc": [0.6666633, 0.3333367, 0.93713035],
        "properties": { "magmom": -0.0 },
        "label": "Er",
        "xyz": [-2.65947488, -1.53555593114361, -8.247167204907209]
      },
      {
        "species": [{ "element": "Tc", "occu": 1 }],
        "abc": [-0.0, 0.0, 0.5],
        "properties": { "magmom": 0.0 },
        "label": "Tc",
        "xyz": [0.0, 0.0, -4.400224155]
      },
      {
        "species": [{ "element": "Tc", "occu": 1 }],
        "abc": [-0.0, 0.0, -0.0],
        "properties": { "magmom": 0.0 },
        "label": "Tc",
        "xyz": [0.0, 0.0, 0.0]
      },
      {
        "species": [{ "element": "Tc", "occu": 1 }],
        "abc": [0.17168713, 0.34336688, 0.75],
        "properties": { "magmom": 0.0 },
        "label": "Tc",
        "xyz": [-1.3697732014382686, 0.7908875510377874, -6.6003362325]
      },
      {
        "species": [{ "element": "Tc", "occu": 1 }],
        "abc": [0.171681399999999, 0.8283186, 0.75],
        "properties": { "magmom": 0.0 },
        "label": "Tc",
        "xyz": [-2.659474879999997, 3.024970545613624, -6.6003362325]
      },
      {
        "species": [{ "element": "Tc", "occu": 1 }],
        "abc": [0.65663312, 0.82831287, 0.75],
        "properties": { "magmom": 0.0 },
        "label": "Tc",
        "xyz": [-3.9491765585617307, 0.7908875510377875, -6.6003362325]
      },
      {
        "species": [{ "element": "Tc", "occu": 1 }],
        "abc": [0.82831287, 0.65663312, 0.25],
        "properties": { "magmom": 0.0 },
        "label": "Tc",
        "xyz": [-3.9491765585617307, -0.7908875510377875, -2.2001120775]
      },
      {
        "species": [{ "element": "Tc", "occu": 1 }],
        "abc": [0.8283186, 0.171681399999999, 0.25],
        "properties": { "magmom": 0.0 },
        "label": "Tc",
        "xyz": [-2.659474879999997, -3.024970545613624, -2.2001120775]
      },
      {
        "species": [{ "element": "Tc", "occu": 1 }],
        "abc": [0.34336688, 0.17168713, 0.25],
        "properties": { "magmom": 0.0 },
        "label": "Tc",
        "xyz": [-1.3697732014382686, -0.7908875510377874, -2.2001120775]
      }
    ]
  },
  "task_ids": null,
  "uncorrected_energy_per_atom": null,
  "energy_per_atom": -28.867536837499998,
  "formation_energy_per_atom": -0.24928374861111002,
  "energy_above_hull": 0.0,
  "is_stable": true,
  "equilibrium_reaction_energy_per_atom": null,
  "decomposes_to": null,
  "xas": null,
  "grain_boundaries": null,
  "band_gap": 0.0,
  "cbm": null,
  "vbm": null,
  "efermi": 6.0576107,
  "is_gap_direct": null,
  "is_metal": null,
  "es_source_calc_id": null,
  "bandstructure": null,
  "dos": null,
  "dos_energy_up": null,
  "dos_energy_down": null,
  "is_magnetic": null,
  "ordering": null,
  "total_magnetization": 4.18e-5,
  "total_magnetization_normalized_vol": null,
  "total_magnetization_normalized_formula_units": null,
  "num_magnetic_sites": null,
  "num_unique_magnetic_sites": null,
  "types_of_magnetic_species": null,
  "bulk_modulus": null,
  "shear_modulus": null,
  "universal_anisotropy": null,
  "homogeneous_poisson": null,
  "e_total": null,
  "e_ionic": null,
  "e_electronic": null,
  "n": null,
  "e_ij_max": null,
  "weighted_surface_energy_EV_PER_ANG2": null,
  "weighted_surface_energy": null,
  "weighted_work_function": null,
  "surface_anisotropy": null,
  "shape_factor": null,
  "has_reconstructed": null,
  "possible_species": null,
  "has_props": null,
  "theoretical": null,
  "database_IDs": null,
  "fields_not_requested": [
    "builder_meta",
    "nsites",
    "elements",
    "nelements",
    "composition",
    "composition_reduced",
    "chemsys",
    "symmetry",
    "property_name",
    "deprecated",
    "deprecation_reasons",
    "last_updated",
    "origins",
    "warnings",
    "task_ids",
    "uncorrected_energy_per_atom",
    "equilibrium_reaction_energy_per_atom",
    "decomposes_to",
    "xas",
    "grain_boundaries",
    "cbm",
    "vbm",
    "is_gap_direct",
    "is_metal",
    "es_source_calc_id",
    "bandstructure",
    "dos",
    "dos_energy_up",
    "dos_energy_down",
    "is_magnetic",
    "ordering",
    "total_magnetization_normalized_vol",
    "total_magnetization_normalized_formula_units",
    "num_magnetic_sites",
    "num_unique_magnetic_sites",
    "types_of_magnetic_species",
    "bulk_modulus",
    "shear_modulus",
    "universal_anisotropy",
    "homogeneous_poisson",
    "e_total",
    "e_ionic",
    "e_electronic",
    "n",
    "e_ij_max",
    "weighted_surface_energy_EV_PER_ANG2",
    "weighted_surface_energy",
    "weighted_work_function",
    "surface_anisotropy",
    "shape_factor",
    "has_reconstructed",
    "possible_species",
    "has_props",
    "theoretical",
    "database_IDs"
  ]
}
