{
  "builder_meta": null,
  "nsites": null,
  "elements": null,
  "nelements": null,
  "composition": null,
  "composition_reduced": null,
  "formula_pretty": "ErTe2",
  "formula_anonymous": "AB2",
  "chemsys": null,
  "volume": 173.23783078945422,
  "density": 8.098804635684383,
  "density_atomic": 28.87297179824237,
  "symmetry": null,
  "property_name": null,
  "material_id": "mp-1018692",
  "deprecated": null,
  "deprecation_reasons": null,
  "last_updated": null,
  "origins": null,
  "warnings": null,
  "structure": {
    "@module": "pymatgen.core.structure",
    "@class": "Structure",
    "charge": 0,
    "lattice": {
      "matrix": [
        [4.425217, 0.0, 0.0],
        [0.0, 4.425217, 0.0],
        [0.0, 0.0, 8.846543]
      ],
      "pbc": [true, true, true],
      "a": 4.425217,
      "b": 4.425217,
      "c": 8.846543,
      "alpha": 90.0,
      "beta": 90.0,
      "gamma": 90.0,
      "volume": 173.23783078945422
    },
    "properties": {},
    "sites": [
      {
        "species": [{ "element": "Er", "occu": 1 }],
        "abc": [0.0, 0.5, 0.729039],
        "properties": { "magmom": 0.001 },
        "label": "Er",
        "xyz": [0.0, 2.2126085, 6.449474862177]
      },
      {
        "species": [{ "element": "Er", "occu": 1 }],
        "abc": [0.5, 0.0, 0.270961],
        "properties": { "magmom": -0.001 },
        "label": "Er",
        "xyz": [2.2126085, 0.0, 2.397068137823]
      },
      {
        "species": [{ "element": "Te", "occu": 1 }],
        "abc": [0.0, 0.5, 0.372714999999999],
        "properties": { "magmom": 0.0 },
        "label": "Te",
        "xyz": [0.0, 2.2126085, 3.2972392742449914]
      },
      {
        "species": [{ "element": "Te", "occu": 1 }],
        "abc": [0.5, 0.0, 0.627285],
        "properties": { "magmom": -0.0 },
        "label": "Te",
        "xyz": [2.2126085, 0.0, 5.549303725755]
      },
      {
        "species": [{ "element": "Te", "occu": 1 }],
        "abc": [0.0, 0.0, 0.0],
        "properties": { "magmom": 0.0 },
        "label": "Te",
        "xyz": [0.0, 0.0, 0.0]
      },
      {
        "species": [{ "element": "Te", "occu": 1 }],
        "abc": [0.5, 0.5, 0.0],
        "properties": { "magmom": -0.0 },
        "label": "Te",
        "xyz": [2.2126085, 2.2126085, 0.0]
      }
    ]
  },
  "task_ids": null,
  "uncorrected_energy_per_atom": null,
  "energy_per_atom": -29.556045006111106,
  "formation_energy_per_atom": -1.302750410555551,
  "energy_above_hull": 0.067977017222226,
  "is_stable": false,
  "equilibrium_reaction_energy_per_atom": null,
  "decomposes_to": null,
  "xas": null,
  "grain_boundaries": null,
  "band_gap": 0.0,
  "cbm": null,
  "vbm": null,
  "efermi": 6.96441166,
  "is_gap_direct": null,
  "is_metal": null,
  "es_source_calc_id": null,
  "bandstructure": null,
  "dos": null,
  "dos_energy_up": null,
  "dos_energy_down": null,
  "is_magnetic": null,
  "ordering": null,
  "total_magnetization": 4.0900000000000005e-5,
  "total_magnetization_normalized_vol": null,
  "total_magnetization_normalized_formula_units": null,
  "num_magnetic_sites": null,
  "num_unique_magnetic_sites": null,
  "types_of_magnetic_species": null,
  "bulk_modulus": null,
  "shear_modulus": null,
  "universal_anisotropy": null,
  "homogeneous_poisson": null,
  "e_total": null,
  "e_ionic": null,
  "e_electronic": null,
  "n": null,
  "e_ij_max": null,
  "weighted_surface_energy_EV_PER_ANG2": null,
  "weighted_surface_energy": null,
  "weighted_work_function": null,
  "surface_anisotropy": null,
  "shape_factor": null,
  "has_reconstructed": null,
  "possible_species": null,
  "has_props": null,
  "theoretical": null,
  "database_IDs": null,
  "fields_not_requested": [
    "builder_meta",
    "nsites",
    "elements",
    "nelements",
    "composition",
    "composition_reduced",
    "chemsys",
    "symmetry",
    "property_name",
    "deprecated",
    "deprecation_reasons",
    "last_updated",
    "origins",
    "warnings",
    "task_ids",
    "uncorrected_energy_per_atom",
    "equilibrium_reaction_energy_per_atom",
    "decomposes_to",
    "xas",
    "grain_boundaries",
    "cbm",
    "vbm",
    "is_gap_direct",
    "is_metal",
    "es_source_calc_id",
    "bandstructure",
    "dos",
    "dos_energy_up",
    "dos_energy_down",
    "is_magnetic",
    "ordering",
    "total_magnetization_normalized_vol",
    "total_magnetization_normalized_formula_units",
    "num_magnetic_sites",
    "num_unique_magnetic_sites",
    "types_of_magnetic_species",
    "bulk_modulus",
    "shear_modulus",
    "universal_anisotropy",
    "homogeneous_poisson",
    "e_total",
    "e_ionic",
    "e_electronic",
    "n",
    "e_ij_max",
    "weighted_surface_energy_EV_PER_ANG2",
    "weighted_surface_energy",
    "weighted_work_function",
    "surface_anisotropy",
    "shape_factor",
    "has_reconstructed",
    "possible_species",
    "has_props",
    "theoretical",
    "database_IDs"
  ]
}
