{"builder_meta": null, "nsites": null, "elements": null, "nelements": null, "composition": null, "composition_reduced": null, "formula_pretty": "ErTe3", "formula_anonymous": "AB3", "chemsys": null, "volume": 243.24548139833215, "density": 7.5100631114226495, "density_atomic": 30.405685174791518, "symmetry": null, "property_name": null, "material_id": "mp-1078991", "deprecated": null, "deprecation_reasons": null, "last_updated": null, "origins": null, "warnings": null, "structure": {"@module": "pymatgen.core.structure", "@class": "Structure", "charge": 0, "lattice": {"matrix": [[-4.31668992, 0.0, -0.0], [-0.0, -0.0, -4.32449056], [2.15834547, -13.03043682, 0.0]], "pbc": [true, true, true], "a": 4.31668992, "b": 4.32449056, "c": 13.207980121422096, "alpha": 90.0, "beta": 99.40501002103102, "gamma": 90.0, "volume": 243.24548139833215}, "properties": {}, "sites": [{"species": [{"element": "Er", "occu": 1}], "abc": [0.1718438, 0.75, 0.34368561000000003], "properties": {"magmom": 0.0}, "label": "Er", "xyz": [-4.119826809145799e-06, -4.47837362704816, -3.24336792]}, {"species": [{"element": "Er", "occu": 1}], "abc": [0.8281562, 0.25, 0.65631439], "properties": {"magmom": 0.0}, "label": "Er", "xyz": [-2.1583403301731905, -8.55206319295184, -1.08112264]}, {"species": [{"element": "Te", "occu": 1}], "abc": [0.924156099999999, 0.75, 0.8483132], "properties": {"magmom": -0.0}, "label": "Te", "xyz": [-2.158342369015304, -11.053891556172024, -3.24336792]}, {"species": [{"element": "Te", "occu": 1}], "abc": [0.075843899999999, 0.25, 0.151686799999999], "properties": {"magmom": -0.0}, "label": "Te", "xyz": [-2.080984689845078e-06, -1.9765452638279633, -1.08112264]}, {"species": [{"element": "Te", "occu": 1}], "abc": [0.57571931, 0.75, 0.15143863], "properties": {"magmom": -0.0}, "label": "Te", "xyz": [-2.158344861182849, -1.9733115003223565, -3.24336792]}, {"species": [{"element": "Te", "occu": 1}], "abc": [0.42428069, 0.25, 0.84856137], "properties": {"magmom": -0.0}, "label": "Te", "xyz": [4.111828488806424e-07, -11.057125319677644, -1.08112264]}, {"species": [{"element": "Te", "occu": 1}], "abc": [0.29322075000000003, 0.75, 0.58644149], "properties": {"magmom": 0.0}, "label": "Te", "xyz": [2.7750171005536117e-07, -7.641588784071662, -3.24336792]}, {"species": [{"element": "Te", "occu": 1}], "abc": [0.70677925, 0.25, 0.41355851], "properties": {"magmom": 0.0}, "label": "Te", "xyz": [-2.1583447275017105, -5.388848035928338, -1.08112264]}]}, "task_ids": null, "uncorrected_energy_per_atom": null, "energy_per_atom": -28.54571597875, "formation_energy_per_atom": -1.001438954583331, "energy_above_hull": 0.026606616250003, "is_stable": false, "equilibrium_reaction_energy_per_atom": null, "decomposes_to": null, "xas": null, "grain_boundaries": null, "band_gap": 0.0, "cbm": null, "vbm": null, "efermi": 5.57915461, "is_gap_direct": null, "is_metal": null, "es_source_calc_id": null, "bandstructure": null, "dos": null, "dos_energy_up": null, "dos_energy_down": null, "is_magnetic": null, "ordering": null, "total_magnetization": 2e-07, "total_magnetization_normalized_vol": null, "total_magnetization_normalized_formula_units": null, "num_magnetic_sites": null, "num_unique_magnetic_sites": null, "types_of_magnetic_species": null, "bulk_modulus": null, "shear_modulus": null, "universal_anisotropy": null, "homogeneous_poisson": null, "e_total": null, "e_ionic": null, "e_electronic": null, "n": null, "e_ij_max": null, "weighted_surface_energy_EV_PER_ANG2": null, "weighted_surface_energy": null, "weighted_work_function": null, "surface_anisotropy": null, "shape_factor": null, "has_reconstructed": null, "possible_species": null, "has_props": null, "theoretical": null, "database_IDs": null, "fields_not_requested": ["builder_meta", "nsites", "elements", "nelements", "composition", "composition_reduced", "chemsys", "symmetry", "property_name", "deprecated", "deprecation_reasons", "last_updated", "origins", "warnings", "task_ids", "uncorrected_energy_per_atom", "equilibrium_reaction_energy_per_atom", "decomposes_to", "xas", "grain_boundaries", "cbm", "vbm", "is_gap_direct", "is_metal", "es_source_calc_id", "bandstructure", "dos", "dos_energy_up", "dos_energy_down", "is_magnetic", "ordering", "total_magnetization_normalized_vol", "total_magnetization_normalized_formula_units", "num_magnetic_sites", "num_unique_magnetic_sites", "types_of_magnetic_species", "bulk_modulus", "shear_modulus", "universal_anisotropy", "homogeneous_poisson", "e_total", "e_ionic", "e_electronic", "n", "e_ij_max", "weighted_surface_energy_EV_PER_ANG2", "weighted_surface_energy", "weighted_work_function", "surface_anisotropy", "shape_factor", "has_reconstructed", "possible_species", "has_props", "theoretical", "database_IDs"]}