{
  "builder_meta": null,
  "nsites": null,
  "elements": null,
  "nelements": null,
  "composition": null,
  "composition_reduced": null,
  "formula_pretty": "ErTm3",
  "formula_anonymous": "AB3",
  "chemsys": null,
  "volume": 245.69334798553908,
  "density": 9.111403943886621,
  "density_atomic": 30.711668498192385,
  "symmetry": null,
  "property_name": null,
  "material_id": "mp-1184302",
  "deprecated": null,
  "deprecation_reasons": null,
  "last_updated": null,
  "origins": null,
  "warnings": null,
  "structure": {
    "@module": "pymatgen.core.structure",
    "@class": "Structure",
    "charge": 0,
    "lattice": {
      "matrix": [
        [7.06384092, -1e-8, -0.0],
        [-3.53192198, 6.11746605, 0.0],
        [0.0, 0.0, 5.68566046]
      ],
      "pbc": [true, true, true],
      "a": 7.06384092,
      "b": 7.063841996088936,
      "c": 5.68566046,
      "alpha": 90.0,
      "beta": 90.0,
      "gamma": 120.00000927804105,
      "volume": 245.69334798553908
    },
    "properties": {},
    "sites": [
      {
        "species": [{ "element": "Er", "occu": 1 }],
        "abc": [0.333333999999999, 0.666667999999999, 0.75],
        "properties": { "magmom": 0.526 },
        "label": "Er",
        "xyz": [-1.013335363619916e-6, 4.078318853288054, 4.264245345]
      },
      {
        "species": [{ "element": "Er", "occu": 1 }],
        "abc": [0.666666, 0.333333999999999, 0.25],
        "properties": { "magmom": 0.526 },
        "label": "Er",
        "xyz": [3.531912889491403, 2.039159421644034, 1.421415115]
      },
      {
        "species": [{ "element": "Tm", "occu": 1 }],
        "abc": [0.16643371, 0.33286641, 0.25],
        "properties": { "magmom": 0.518 },
        "label": "Tm",
        "xyz": [3.0612827213172267e-6, 2.0362989606960435, 1.421415115]
      },
      {
        "species": [{ "element": "Tm", "occu": 1 }],
        "abc": [0.66713459, 0.8335672900000001, 0.25],
        "properties": { "magmom": 0.518 },
        "label": "Tm",
        "xyz": [1.7684379826293881, 5.099319590294159, 1.421415115]
      },
      {
        "species": [{ "element": "Tm", "occu": 1 }],
        "abc": [0.16643371, 0.8335672900000001, 0.25],
        "properties": { "magmom": 0.518 },
        "label": "Tm",
        "xyz": [-1.7684333821946212, 5.099319595301168, 1.421415115]
      },
      {
        "species": [{ "element": "Tm", "occu": 1 }],
        "abc": [0.83356929, 0.66713658, 0.75],
        "properties": { "magmom": 0.518 },
        "label": "Tm",
        "xyz": [3.531926509793318, 4.0811853705274155, 4.264245345]
      },
      {
        "species": [{ "element": "Tm", "occu": 1 }],
        "abc": [0.33286342, 0.16643271, 0.75],
        "properties": { "magmom": 0.518 },
        "label": "Tm",
        "xyz": [1.7634669003271806, 1.0181464497058612, 4.264245345]
      },
      {
        "species": [{ "element": "Tm", "occu": 1 }],
        "abc": [0.83356829, 0.16643271, 0.75],
        "properties": { "magmom": 0.518 },
        "label": "Tm",
        "xyz": [5.300366449876461, 1.0181464446988127, 4.264245345]
      }
    ]
  },
  "task_ids": null,
  "uncorrected_energy_per_atom": null,
  "energy_per_atom": -34.84008617875,
  "formation_energy_per_atom": -0.017941169583338003,
  "energy_above_hull": 0.0,
  "is_stable": true,
  "equilibrium_reaction_energy_per_atom": null,
  "decomposes_to": null,
  "xas": null,
  "grain_boundaries": null,
  "band_gap": 0.0,
  "cbm": null,
  "vbm": null,
  "efermi": 2.90018928,
  "is_gap_direct": null,
  "is_metal": null,
  "es_source_calc_id": null,
  "bandstructure": null,
  "dos": null,
  "dos_energy_up": null,
  "dos_energy_down": null,
  "is_magnetic": null,
  "ordering": null,
  "total_magnetization": 5.1254964,
  "total_magnetization_normalized_vol": null,
  "total_magnetization_normalized_formula_units": null,
  "num_magnetic_sites": null,
  "num_unique_magnetic_sites": null,
  "types_of_magnetic_species": null,
  "bulk_modulus": null,
  "shear_modulus": null,
  "universal_anisotropy": null,
  "homogeneous_poisson": null,
  "e_total": null,
  "e_ionic": null,
  "e_electronic": null,
  "n": null,
  "e_ij_max": null,
  "weighted_surface_energy_EV_PER_ANG2": null,
  "weighted_surface_energy": null,
  "weighted_work_function": null,
  "surface_anisotropy": null,
  "shape_factor": null,
  "has_reconstructed": null,
  "possible_species": null,
  "has_props": null,
  "theoretical": null,
  "database_IDs": null,
  "fields_not_requested": [
    "builder_meta",
    "nsites",
    "elements",
    "nelements",
    "composition",
    "composition_reduced",
    "chemsys",
    "symmetry",
    "property_name",
    "deprecated",
    "deprecation_reasons",
    "last_updated",
    "origins",
    "warnings",
    "task_ids",
    "uncorrected_energy_per_atom",
    "equilibrium_reaction_energy_per_atom",
    "decomposes_to",
    "xas",
    "grain_boundaries",
    "cbm",
    "vbm",
    "is_gap_direct",
    "is_metal",
    "es_source_calc_id",
    "bandstructure",
    "dos",
    "dos_energy_up",
    "dos_energy_down",
    "is_magnetic",
    "ordering",
    "total_magnetization_normalized_vol",
    "total_magnetization_normalized_formula_units",
    "num_magnetic_sites",
    "num_unique_magnetic_sites",
    "types_of_magnetic_species",
    "bulk_modulus",
    "shear_modulus",
    "universal_anisotropy",
    "homogeneous_poisson",
    "e_total",
    "e_ionic",
    "e_electronic",
    "n",
    "e_ij_max",
    "weighted_surface_energy_EV_PER_ANG2",
    "weighted_surface_energy",
    "weighted_work_function",
    "surface_anisotropy",
    "shape_factor",
    "has_reconstructed",
    "possible_species",
    "has_props",
    "theoretical",
    "database_IDs"
  ]
}
