{
  "builder_meta": null,
  "nsites": null,
  "elements": null,
  "nelements": null,
  "composition": null,
  "composition_reduced": null,
  "formula_pretty": "ErZn2",
  "formula_anonymous": "AB2",
  "chemsys": null,
  "volume": 114.4602458930946,
  "density": 8.648740870559141,
  "density_atomic": 19.076707648849098,
  "symmetry": null,
  "property_name": null,
  "material_id": "mp-1025096",
  "deprecated": null,
  "deprecation_reasons": null,
  "last_updated": null,
  "origins": null,
  "warnings": null,
  "structure": {
    "@module": "pymatgen.core.structure",
    "@class": "Structure",
    "charge": 0,
    "lattice": {
      "matrix": [
        [-4.40604383, -0.0, 1e-8],
        [-2.20302293, -3.47256189, 3.74046738],
        [-2.20302293, 3.47256189, 3.74046738]
      ],
      "pbc": [true, true, true],
      "a": 4.40604383,
      "b": 5.559054985411659,
      "c": 5.559054985411659,
      "alpha": 77.31559801374466,
      "beta": 66.65326654985199,
      "gamma": 66.65326654985199,
      "volume": 114.4602458930946
    },
    "properties": {},
    "sites": [
      {
        "species": [{ "element": "Er", "occu": 1 }],
        "abc": [0.46996378, 0.28003622, 0.7800362200000001],
        "properties": { "magmom": 0.0 },
        "label": "Er",
        "xyz": [-4.406044905973527, 1.7362809450000003, 3.9651663869566454]
      },
      {
        "species": [{ "element": "Er", "occu": 1 }],
        "abc": [0.5300362200000001, 0.71996378, 0.21996378],
        "properties": { "magmom": 0.0 },
        "label": "Er",
        "xyz": [-4.406044784026474, -1.7362809450000003, 3.5157683830433553]
      },
      {
        "species": [{ "element": "Zn", "occu": 1 }],
        "abc": [0.83402525, 0.12177002, 0.21017848],
        "properties": { "magmom": -0.0 },
        "label": "Zn",
        "xyz": [-4.406041963905812, 0.3070038489495894, 1.2416425444301826]
      },
      {
        "species": [{ "element": "Zn", "occu": 1 }],
        "abc": [0.16597475, 0.87822998, 0.78982152],
        "properties": { "magmom": -0.0 },
        "label": "Zn",
        "xyz": [-4.4060477260941875, -0.3070038489495892, 6.239292225569818]
      },
      {
        "species": [{ "element": "Zn", "occu": 1 }],
        "abc": [0.83402525, 0.7101784800000001, 0.62177002],
        "properties": { "magmom": -0.0 },
        "label": "Zn",
        "xyz": [-6.6090648939058125, -0.30700384894958965, 4.982109924430183]
      },
      {
        "species": [{ "element": "Zn", "occu": 1 }],
        "abc": [0.16597475, 0.28982152, 0.37822998],
        "properties": { "magmom": -0.0 },
        "label": "Zn",
        "xyz": [-2.2030247960941876, 0.30700384894958943, 2.4988248455698177]
      }
    ]
  },
  "task_ids": null,
  "uncorrected_energy_per_atom": null,
  "energy_per_atom": -17.691537263333334,
  "formation_energy_per_atom": -0.44265713777777904,
  "energy_above_hull": 0.0,
  "is_stable": true,
  "equilibrium_reaction_energy_per_atom": null,
  "decomposes_to": null,
  "xas": null,
  "grain_boundaries": null,
  "band_gap": 0.0,
  "cbm": null,
  "vbm": null,
  "efermi": 3.05347858,
  "is_gap_direct": null,
  "is_metal": null,
  "es_source_calc_id": null,
  "bandstructure": null,
  "dos": null,
  "dos_energy_up": null,
  "dos_energy_down": null,
  "is_magnetic": null,
  "ordering": null,
  "total_magnetization": 1e-7,
  "total_magnetization_normalized_vol": null,
  "total_magnetization_normalized_formula_units": null,
  "num_magnetic_sites": null,
  "num_unique_magnetic_sites": null,
  "types_of_magnetic_species": null,
  "bulk_modulus": null,
  "shear_modulus": null,
  "universal_anisotropy": null,
  "homogeneous_poisson": null,
  "e_total": null,
  "e_ionic": null,
  "e_electronic": null,
  "n": null,
  "e_ij_max": null,
  "weighted_surface_energy_EV_PER_ANG2": null,
  "weighted_surface_energy": null,
  "weighted_work_function": null,
  "surface_anisotropy": null,
  "shape_factor": null,
  "has_reconstructed": null,
  "possible_species": null,
  "has_props": null,
  "theoretical": null,
  "database_IDs": null,
  "fields_not_requested": [
    "builder_meta",
    "nsites",
    "elements",
    "nelements",
    "composition",
    "composition_reduced",
    "chemsys",
    "symmetry",
    "property_name",
    "deprecated",
    "deprecation_reasons",
    "last_updated",
    "origins",
    "warnings",
    "task_ids",
    "uncorrected_energy_per_atom",
    "equilibrium_reaction_energy_per_atom",
    "decomposes_to",
    "xas",
    "grain_boundaries",
    "cbm",
    "vbm",
    "is_gap_direct",
    "is_metal",
    "es_source_calc_id",
    "bandstructure",
    "dos",
    "dos_energy_up",
    "dos_energy_down",
    "is_magnetic",
    "ordering",
    "total_magnetization_normalized_vol",
    "total_magnetization_normalized_formula_units",
    "num_magnetic_sites",
    "num_unique_magnetic_sites",
    "types_of_magnetic_species",
    "bulk_modulus",
    "shear_modulus",
    "universal_anisotropy",
    "homogeneous_poisson",
    "e_total",
    "e_ionic",
    "e_electronic",
    "n",
    "e_ij_max",
    "weighted_surface_energy_EV_PER_ANG2",
    "weighted_surface_energy",
    "weighted_work_function",
    "surface_anisotropy",
    "shape_factor",
    "has_reconstructed",
    "possible_species",
    "has_props",
    "theoretical",
    "database_IDs"
  ]
}
