{"builder_meta": null, "nsites": null, "elements": null, "nelements": null, "composition": null, "composition_reduced": null, "formula_pretty": "ErZn5", "formula_anonymous": "AB5", "chemsys": null, "volume": 97.80472861541708, "density": 8.392345793465664, "density_atomic": 16.300788102569513, "symmetry": null, "property_name": null, "material_id": "mp-569927", "deprecated": null, "deprecation_reasons": null, "last_updated": null, "origins": null, "warnings": null, "structure": {"@module": "pymatgen.core.structure", "@class": "Structure", "charge": 0, "lattice": {"matrix": [[5.2025047, -0.0, 0.0], [-2.60125286, 4.50550249, -0.0], [0.0, -0.0, 4.17257486]], "pbc": [true, true, true], "a": 5.2025047, "b": 5.202506043154047, "c": 4.17257486, "alpha": 90.0, "beta": 90.0, "gamma": 119.99999794524992, "volume": 97.80472861541708}, "properties": {}, "sites": [{"species": [{"element": "Er", "occu": 1}], "abc": [0.0, -0.0, 0.0], "properties": {"magmom": -0.0}, "label": "Er", "xyz": [0.0, 0.0, 0.0]}, {"species": [{"element": "Zn", "occu": 1}], "abc": [0.5, -0.0, 0.5], "properties": {"magmom": -0.0}, "label": "Zn", "xyz": [2.60125235, 0.0, 2.08628743]}, {"species": [{"element": "Zn", "occu": 1}], "abc": [0.0, 0.5, 0.5], "properties": {"magmom": -0.0}, "label": "Zn", "xyz": [-1.30062643, 2.252751245, 2.08628743]}, {"species": [{"element": "Zn", "occu": 1}], "abc": [0.666667, 0.333333, 0.0], "properties": {"magmom": -0.0}, "label": "Zn", "xyz": [2.6012547812525204, 1.5018326614991697, 0.0]}, {"species": [{"element": "Zn", "occu": 1}], "abc": [0.5, 0.5, 0.5], "properties": {"magmom": -0.0}, "label": "Zn", "xyz": [1.3006259200000003, 2.252751245, 2.08628743]}, {"species": [{"element": "Zn", "occu": 1}], "abc": [0.333333, 0.666667, -0.0], "properties": {"magmom": -0.0}, "label": "Zn", "xyz": [-2.941252519761406e-06, 3.0036698285008296, 0.0]}]}, "task_ids": null, "uncorrected_energy_per_atom": null, "energy_per_atom": -13.394428633333334, "formation_energy_per_atom": -0.314687268055555, "energy_above_hull": 0.002419260833331, "is_stable": false, "equilibrium_reaction_energy_per_atom": null, "decomposes_to": null, "xas": null, "grain_boundaries": null, "band_gap": 0.0, "cbm": null, "vbm": null, "efermi": 3.26872849, "is_gap_direct": null, "is_metal": null, "es_source_calc_id": null, "bandstructure": null, "dos": null, "dos_energy_up": null, "dos_energy_down": null, "is_magnetic": null, "ordering": null, "total_magnetization": 1.3e-06, "total_magnetization_normalized_vol": null, "total_magnetization_normalized_formula_units": null, "num_magnetic_sites": null, "num_unique_magnetic_sites": null, "types_of_magnetic_species": null, "bulk_modulus": null, "shear_modulus": null, "universal_anisotropy": null, "homogeneous_poisson": null, "e_total": null, "e_ionic": null, "e_electronic": null, "n": null, "e_ij_max": null, "weighted_surface_energy_EV_PER_ANG2": null, "weighted_surface_energy": null, "weighted_work_function": null, "surface_anisotropy": null, "shape_factor": null, "has_reconstructed": null, "possible_species": null, "has_props": null, "theoretical": null, "database_IDs": null, "fields_not_requested": ["builder_meta", "nsites", "elements", "nelements", "composition", "composition_reduced", "chemsys", "symmetry", "property_name", "deprecated", "deprecation_reasons", "last_updated", "origins", "warnings", "task_ids", "uncorrected_energy_per_atom", "equilibrium_reaction_energy_per_atom", "decomposes_to", "xas", "grain_boundaries", "cbm", "vbm", "is_gap_direct", "is_metal", "es_source_calc_id", "bandstructure", "dos", "dos_energy_up", "dos_energy_down", "is_magnetic", "ordering", "total_magnetization_normalized_vol", "total_magnetization_normalized_formula_units", "num_magnetic_sites", "num_unique_magnetic_sites", "types_of_magnetic_species", "bulk_modulus", "shear_modulus", "universal_anisotropy", "homogeneous_poisson", "e_total", "e_ionic", "e_electronic", "n", "e_ij_max", "weighted_surface_energy_EV_PER_ANG2", "weighted_surface_energy", "weighted_work_function", "surface_anisotropy", "shape_factor", "has_reconstructed", "possible_species", "has_props", "theoretical", "database_IDs"]}