{"builder_meta": null, "nsites": null, "elements": null, "nelements": null, "composition": null, "composition_reduced": null, "formula_pretty": "ErZn3", "formula_anonymous": "AB3", "chemsys": null, "volume": 280.81179480757726, "density": 8.597683064926315, "density_atomic": 17.55073717547358, "symmetry": null, "property_name": null, "material_id": "mp-1188367", "deprecated": null, "deprecation_reasons": null, "last_updated": null, "origins": null, "warnings": null, "structure": {"@module": "pymatgen.core.structure", "@class": "Structure", "charge": 0, "lattice": {"matrix": [[-0.0, -4.2864516, 0.0], [-6.59723735, 0.0, 0.0], [0.0, 0.0, -9.93013864]], "pbc": [true, true, true], "a": 4.2864516, "b": 6.59723735, "c": 9.93013864, "alpha": 90.0, "beta": 90.0, "gamma": 90.0, "volume": 280.81179480757726}, "properties": {}, "sites": [{"species": [{"element": "Er", "occu": 1}], "abc": [0.75, 0.22030596, 0.8375830200000001], "properties": {"magmom": -0.0}, "label": "Er", "xyz": [-1.4534107077396061, -3.2148387000000005, -8.317315511109893]}, {"species": [{"element": "Er", "occu": 1}], "abc": [0.75, 0.72030496, 0.66241798], "properties": {"magmom": -0.0}, "label": "Er", "xyz": [-4.752022785502256, -3.2148387000000005, -6.577902379028746]}, {"species": [{"element": "Er", "occu": 1}], "abc": [0.25, 0.77969404, 0.16241598000000002], "properties": {"magmom": -0.0}, "label": "Er", "xyz": [-5.143826642260394, -1.0716129, -1.6128131987514671]}, {"species": [{"element": "Er", "occu": 1}], "abc": [0.25, 0.27969504, 0.33758202], "properties": {"magmom": -0.0}, "label": "Er", "xyz": [-1.8452145644977442, -1.0716129, -3.352236260971252]}, {"species": [{"element": "Zn", "occu": 1}], "abc": [0.75, 0.96312279, 0.3969077], "properties": {"magmom": 0.0}, "label": "Zn", "xyz": [-6.353949642824207, -3.2148387000000005, -3.9413484882835275]}, {"species": [{"element": "Zn", "occu": 1}], "abc": [0.75, 0.46312279, 0.1030913], "properties": {"magmom": 0.0}, "label": "Zn", "xyz": [-3.0553309678242067, -3.2148387000000005, -1.0237109015778318]}, {"species": [{"element": "Zn", "occu": 1}], "abc": [0.25, 0.03687621, 0.603093299999999], "properties": {"magmom": 0.0}, "label": "Zn", "xyz": [-0.2432811099384435, -1.0716129, -5.988800081855102]}, {"species": [{"element": "Zn", "occu": 1}], "abc": [0.25, 0.53687621, 0.8969077], "properties": {"magmom": 0.0}, "label": "Zn", "xyz": [-3.5418997849384435, -1.0716129, -8.906417808283527]}, {"species": [{"element": "Zn", "occu": 1}], "abc": [0.75, 0.58145386, 0.35277029], "properties": {"magmom": -0.0}, "label": "Zn", "xyz": [-3.8359891224936713, -3.2148387000000005, -3.503057887773005]}, {"species": [{"element": "Zn", "occu": 1}], "abc": [0.75, 0.08145386, 0.14722871], "properties": {"magmom": -0.0}, "label": "Zn", "xyz": [-0.537370447493671, -3.2148387000000005, -1.4620015020883543]}, {"species": [{"element": "Zn", "occu": 1}], "abc": [0.25, 0.41854714, 0.64723071], "properties": {"magmom": -0.0}, "label": "Zn", "xyz": [-2.7612548247436792, -1.0716129, -6.427090682365634]}, {"species": [{"element": "Zn", "occu": 1}], "abc": [0.25, 0.91854614, 0.85277029], "properties": {"magmom": -0.0}, "label": "Zn", "xyz": [-6.05986690250633, -1.0716129, -8.468127207773005]}, {"species": [{"element": "Zn", "occu": 1}], "abc": [0.75, 0.28114958, 0.54371643], "properties": {"magmom": -0.0}, "label": "Zn", "xyz": [-1.8548105101128132, -3.2148387000000005, -5.399179530745855]}, {"species": [{"element": "Zn", "occu": 1}], "abc": [0.75, 0.78114858, 0.95628457], "properties": {"magmom": -0.0}, "label": "Zn", "xyz": [-5.153422587875463, -3.2148387000000005, -9.496038359392784]}, {"species": [{"element": "Zn", "occu": 1}], "abc": [0.25, 0.71885042, 0.45628457], "properties": {"magmom": -0.0}, "label": "Zn", "xyz": [-4.742426839887187, -1.0716129, -4.530969039392785]}, {"species": [{"element": "Zn", "occu": 1}], "abc": [0.25, 0.21885142, 0.04371443], "properties": {"magmom": -0.0}, "label": "Zn", "xyz": [-1.443814762124537, -1.0716129, -0.43409035046857514]}]}, "task_ids": null, "uncorrected_energy_per_atom": null, "energy_per_atom": -15.55991056625, "formation_energy_per_atom": -0.395599820833334, "energy_above_hull": 0.0, "is_stable": true, "equilibrium_reaction_energy_per_atom": null, "decomposes_to": null, "xas": null, "grain_boundaries": null, "band_gap": 0.0, "cbm": null, "vbm": null, "efermi": 2.98651976, "is_gap_direct": null, "is_metal": null, "es_source_calc_id": null, "bandstructure": null, "dos": null, "dos_energy_up": null, "dos_energy_down": null, "is_magnetic": null, "ordering": null, "total_magnetization": 1e-07, "total_magnetization_normalized_vol": null, "total_magnetization_normalized_formula_units": null, "num_magnetic_sites": null, "num_unique_magnetic_sites": null, "types_of_magnetic_species": null, "bulk_modulus": null, "shear_modulus": null, "universal_anisotropy": null, "homogeneous_poisson": null, "e_total": null, "e_ionic": null, "e_electronic": null, "n": null, "e_ij_max": null, "weighted_surface_energy_EV_PER_ANG2": null, "weighted_surface_energy": null, "weighted_work_function": null, "surface_anisotropy": null, "shape_factor": null, "has_reconstructed": null, "possible_species": null, "has_props": null, "theoretical": null, "database_IDs": null, "fields_not_requested": ["builder_meta", "nsites", "elements", "nelements", "composition", "composition_reduced", "chemsys", "symmetry", "property_name", "deprecated", "deprecation_reasons", "last_updated", "origins", "warnings", "task_ids", "uncorrected_energy_per_atom", "equilibrium_reaction_energy_per_atom", "decomposes_to", "xas", "grain_boundaries", "cbm", "vbm", "is_gap_direct", "is_metal", "es_source_calc_id", "bandstructure", "dos", "dos_energy_up", "dos_energy_down", "is_magnetic", "ordering", "total_magnetization_normalized_vol", "total_magnetization_normalized_formula_units", "num_magnetic_sites", "num_unique_magnetic_sites", "types_of_magnetic_species", "bulk_modulus", "shear_modulus", "universal_anisotropy", "homogeneous_poisson", "e_total", "e_ionic", "e_electronic", "n", "e_ij_max", "weighted_surface_energy_EV_PER_ANG2", "weighted_surface_energy", "weighted_work_function", "surface_anisotropy", "shape_factor", "has_reconstructed", "possible_species", "has_props", "theoretical", "database_IDs"]}