{
  "builder_meta": null,
  "nsites": null,
  "elements": null,
  "nelements": null,
  "composition": null,
  "composition_reduced": null,
  "formula_pretty": "Eu2As3",
  "formula_anonymous": "A2B3",
  "chemsys": null,
  "volume": 1053.4797134434793,
  "density": 6.666782757576029,
  "density_atomic": 26.336992836086985,
  "symmetry": null,
  "property_name": null,
  "material_id": "mp-1213423",
  "deprecated": null,
  "deprecation_reasons": null,
  "last_updated": null,
  "origins": null,
  "warnings": null,
  "structure": {
    "@module": "pymatgen.core.structure",
    "@class": "Structure",
    "charge": 0,
    "lattice": {
      "matrix": [
        [5.997435, 0.0, 0.0],
        [0.0, 12.367715, 0.0],
        [0.0, 12.204282, 14.202708]
      ],
      "pbc": [true, true, true],
      "a": 5.997435,
      "b": 12.367715,
      "c": 18.72595561430145,
      "alpha": 49.32777589579421,
      "beta": 90.0,
      "gamma": 90.0,
      "volume": 1053.4797134434793
    },
    "properties": {},
    "sites": [
      {
        "species": [{ "element": "Eu", "occu": 1 }],
        "abc": [0.965815, 0.0, 0.25],
        "properties": { "magmom": 6.803 },
        "label": "Eu",
        "xyz": [5.792412684525, 3.0510705, 3.550677]
      },
      {
        "species": [{ "element": "Eu", "occu": 1 }],
        "abc": [0.034185, 0.0, 0.75],
        "properties": { "magmom": 6.803 },
        "label": "Eu",
        "xyz": [0.20502231547500002, 9.1532115, 10.652031]
      },
      {
        "species": [{ "element": "Eu", "occu": 1 }],
        "abc": [0.753695999999999, 0.624871, 0.000128],
        "properties": { "magmom": 6.823 },
        "label": "Eu",
        "xyz": [4.520242769759994, 7.729788587861, 0.0018179466239999999]
      },
      {
        "species": [{ "element": "Eu", "occu": 1 }],
        "abc": [0.246304, 0.375129, 0.999872],
        "properties": { "magmom": 6.823 },
        "label": "Eu",
        "xyz": [1.47719223024, 16.842208412138998, 14.200890053376]
      },
      {
        "species": [{ "element": "Eu", "occu": 1 }],
        "abc": [0.753695999999999, 0.375129, 0.499872],
        "properties": { "magmom": 6.823 },
        "label": "Eu",
        "xyz": [4.520242769759994, 10.740067412138998, 7.099536053375999]
      },
      {
        "species": [{ "element": "Eu", "occu": 1 }],
        "abc": [0.246304, 0.624871, 0.500128],
        "properties": { "magmom": 6.823 },
        "label": "Eu",
        "xyz": [1.47719223024, 13.831929587861, 7.103171946624]
      },
      {
        "species": [{ "element": "Eu", "occu": 1 }],
        "abc": [0.544594, 0.760504, 0.249290999999999],
        "properties": { "magmom": 6.774 },
        "label": "Eu",
        "xyz": [3.26616711639, 12.448114392421989, 3.5406072800279857]
      },
      {
        "species": [{ "element": "Eu", "occu": 1 }],
        "abc": [0.455406, 0.239496, 0.750709],
        "properties": { "magmom": 6.774 },
        "label": "Eu",
        "xyz": [2.73126788361, 12.123882607577999, 10.662100719971999]
      },
      {
        "species": [{ "element": "Eu", "occu": 1 }],
        "abc": [0.544594, 0.239496, 0.250709],
        "properties": { "magmom": 6.774 },
        "label": "Eu",
        "xyz": [3.26616711639, 6.021741607578, 3.560746719972]
      },
      {
        "species": [{ "element": "Eu", "occu": 1 }],
        "abc": [0.455406, 0.760504, 0.749290999999999],
        "properties": { "magmom": 6.774 },
        "label": "Eu",
        "xyz": [2.73126788361, 18.550255392421988, 10.641961280027987]
      },
      {
        "species": [{ "element": "Eu", "occu": 1 }],
        "abc": [0.915639, 0.5, 0.25],
        "properties": { "magmom": 6.756 },
        "label": "Eu",
        "xyz": [5.491485385965, 9.234928, 3.550677]
      },
      {
        "species": [{ "element": "Eu", "occu": 1 }],
        "abc": [0.084360999999999, 0.5, 0.75],
        "properties": { "magmom": 6.756 },
        "label": "Eu",
        "xyz": [0.505949614034994, 15.337069, 10.652031]
      },
      {
        "species": [{ "element": "Eu", "occu": 1 }],
        "abc": [0.739935999999999, 0.866057, 0.508512],
        "properties": { "magmom": 6.788 },
        "label": "Eu",
        "xyz": [4.437718064159994, 16.917169998139002, 7.222247450495999]
      },
      {
        "species": [{ "element": "Eu", "occu": 1 }],
        "abc": [0.260063999999999, 0.133943, 0.491488],
        "properties": { "magmom": 6.788 },
        "label": "Eu",
        "xyz": [1.5597169358399943, 7.654827001860999, 6.9804605495039995]
      },
      {
        "species": [{ "element": "Eu", "occu": 1 }],
        "abc": [0.739935999999999, 0.133943, 0.991487999999999],
        "properties": { "magmom": 6.788 },
        "label": "Eu",
        "xyz": [4.437718064159994, 13.756968001860987, 14.081814549503985]
      },
      {
        "species": [{ "element": "Eu", "occu": 1 }],
        "abc": [0.260063999999999, 0.866057, 0.008512],
        "properties": { "magmom": 6.788 },
        "label": "Eu",
        "xyz": [1.5597169358399943, 10.815028998139, 0.120893450496]
      },
      {
        "species": [{ "element": "As", "occu": 1 }],
        "abc": [0.955500999999999, 0.840021999999999, 0.671264],
        "properties": { "magmom": -0.012 },
        "label": "As",
        "xyz": [5.730555139934995, 18.581447842177987, 9.533766582912]
      },
      {
        "species": [{ "element": "As", "occu": 1 }],
        "abc": [0.044499, 0.159977999999999, 0.328736],
        "properties": { "magmom": -0.012 },
        "label": "As",
        "xyz": [0.266879860065, 5.990549157821987, 4.668941417087999]
      },
      {
        "species": [{ "element": "As", "occu": 1 }],
        "abc": [0.955500999999999, 0.159977999999999, 0.828735999999999],
        "properties": { "magmom": -0.012 },
        "label": "As",
        "xyz": [5.730555139934995, 12.092690157821975, 11.770295417087986]
      },
      {
        "species": [{ "element": "As", "occu": 1 }],
        "abc": [0.044499, 0.840021999999999, 0.171264],
        "properties": { "magmom": -0.012 },
        "label": "As",
        "xyz": [0.266879860065, 12.479306842177987, 2.432412582912]
      },
      {
        "species": [{ "element": "As", "occu": 1 }],
        "abc": [0.735109, 0.713939, 0.421408],
        "properties": { "magmom": -0.039 },
        "label": "As",
        "xyz": [4.408768445415, 13.972776148441, 5.985134772864]
      },
      {
        "species": [{ "element": "As", "occu": 1 }],
        "abc": [0.264891, 0.286061, 0.578592],
        "properties": { "magmom": -0.039 },
        "label": "As",
        "xyz": [1.588666554585, 10.599220851559, 8.217573227136]
      },
      {
        "species": [{ "element": "As", "occu": 1 }],
        "abc": [0.735109, 0.286061, 0.078592],
        "properties": { "magmom": -0.039 },
        "label": "As",
        "xyz": [4.408768445415, 4.4970798515590005, 1.1162192271359999]
      },
      {
        "species": [{ "element": "As", "occu": 1 }],
        "abc": [0.264891, 0.713939, 0.921408],
        "properties": { "magmom": -0.039 },
        "label": "As",
        "xyz": [1.588666554585, 20.074917148441, 13.086488772864]
      },
      {
        "species": [{ "element": "As", "occu": 1 }],
        "abc": [0.772760999999999, 0.811238999999999, 0.077975],
        "properties": { "magmom": -0.035 },
        "label": "As",
        "xyz": [4.634583868034994, 10.984801637834988, 1.1074561563]
      },
      {
        "species": [{ "element": "As", "occu": 1 }],
        "abc": [0.227239, 0.188760999999999, 0.922025],
        "properties": { "magmom": -0.035 },
        "label": "As",
        "xyz": [1.362851131965, 13.587195362164987, 13.0952518437]
      },
      {
        "species": [{ "element": "As", "occu": 1 }],
        "abc": [0.772760999999999, 0.188760999999999, 0.422025],
        "properties": { "magmom": -0.035 },
        "label": "As",
        "xyz": [4.634583868034994, 7.485054362164988, 5.993897843699999]
      },
      {
        "species": [{ "element": "As", "occu": 1 }],
        "abc": [0.227239, 0.811238999999999, 0.577975],
        "properties": { "magmom": -0.035 },
        "label": "As",
        "xyz": [1.362851131965, 17.086942637834987, 8.2088101563]
      },
      {
        "species": [{ "element": "As", "occu": 1 }],
        "abc": [0.45880000000000004, 0.92322, 0.341076999999999],
        "properties": { "magmom": -0.005 },
        "label": "As",
        "xyz": [2.7516231780000004, 15.58072173401399, 4.844217036515986]
      },
      {
        "species": [{ "element": "As", "occu": 1 }],
        "abc": [0.5412, 0.07678, 0.658922999999999],
        "properties": { "magmom": -0.005 },
        "label": "As",
        "xyz": [3.2458118220000003, 8.991275265985989, 9.358490963483986]
      },
      {
        "species": [{ "element": "As", "occu": 1 }],
        "abc": [0.45880000000000004, 0.07678, 0.158922999999999],
        "properties": { "magmom": -0.005 },
        "label": "As",
        "xyz": [2.7516231780000004, 2.8891342659859878, 2.257136963483986]
      },
      {
        "species": [{ "element": "As", "occu": 1 }],
        "abc": [0.5412, 0.92322, 0.841077],
        "properties": { "magmom": -0.005 },
        "label": "As",
        "xyz": [3.2458118220000003, 21.682862734014, 11.945571036515998]
      },
      {
        "species": [{ "element": "As", "occu": 1 }],
        "abc": [0.395785999999999, 0.545424, 0.166799],
        "properties": { "magmom": -0.018000000000000002 },
        "label": "As",
        "xyz": [2.3737008089099945, 8.781310619478, 2.368997491692]
      },
      {
        "species": [{ "element": "As", "occu": 1 }],
        "abc": [0.604213999999999, 0.454576, 0.833201],
        "properties": { "magmom": -0.018000000000000002 },
        "label": "As",
        "xyz": [3.6237341910899943, 15.790686380521997, 11.833710508307998]
      },
      {
        "species": [{ "element": "As", "occu": 1 }],
        "abc": [0.395785999999999, 0.454576, 0.333200999999999],
        "properties": { "magmom": -0.018000000000000002 },
        "label": "As",
        "xyz": [2.3737008089099945, 9.688545380521987, 4.732356508307986]
      },
      {
        "species": [{ "element": "As", "occu": 1 }],
        "abc": [0.604213999999999, 0.545424, 0.666798999999999],
        "properties": { "magmom": -0.018000000000000002 },
        "label": "As",
        "xyz": [3.6237341910899943, 14.883451619477988, 9.470351491691986]
      },
      {
        "species": [{ "element": "As", "occu": 1 }],
        "abc": [0.904223, 0.391652, 0.65646],
        "properties": { "magmom": -0.018000000000000002 },
        "label": "As",
        "xyz": [5.4230186680050005, 12.8554632769, 9.32350969368]
      },
      {
        "species": [{ "element": "As", "occu": 1 }],
        "abc": [0.095777, 0.608348, 0.34354],
        "properties": { "magmom": -0.018000000000000002 },
        "label": "As",
        "xyz": [0.5744163319950001, 11.7165337231, 4.87919830632]
      },
      {
        "species": [{ "element": "As", "occu": 1 }],
        "abc": [0.904223, 0.608348, 0.8435400000000001],
        "properties": { "magmom": -0.018000000000000002 },
        "label": "As",
        "xyz": [5.4230186680050005, 17.8186747231, 11.98055230632]
      },
      {
        "species": [{ "element": "As", "occu": 1 }],
        "abc": [0.095777, 0.391652, 0.15646000000000002],
        "properties": { "magmom": -0.018000000000000002 },
        "label": "As",
        "xyz": [0.5744163319950001, 6.7533222769000005, 2.22215569368]
      }
    ]
  },
  "task_ids": null,
  "uncorrected_energy_per_atom": null,
  "energy_per_atom": -7.85748651975,
  "formation_energy_per_atom": -0.9401682342500031,
  "energy_above_hull": 0.0018298378499990002,
  "is_stable": false,
  "equilibrium_reaction_energy_per_atom": null,
  "decomposes_to": null,
  "xas": null,
  "grain_boundaries": null,
  "band_gap": 0.0,
  "cbm": null,
  "vbm": null,
  "efermi": 3.91683754,
  "is_gap_direct": null,
  "is_metal": null,
  "es_source_calc_id": null,
  "bandstructure": null,
  "dos": null,
  "dos_energy_up": null,
  "dos_energy_down": null,
  "is_magnetic": null,
  "ordering": null,
  "total_magnetization": 111.5492154,
  "total_magnetization_normalized_vol": null,
  "total_magnetization_normalized_formula_units": null,
  "num_magnetic_sites": null,
  "num_unique_magnetic_sites": null,
  "types_of_magnetic_species": null,
  "bulk_modulus": null,
  "shear_modulus": null,
  "universal_anisotropy": null,
  "homogeneous_poisson": null,
  "e_total": null,
  "e_ionic": null,
  "e_electronic": null,
  "n": null,
  "e_ij_max": null,
  "weighted_surface_energy_EV_PER_ANG2": null,
  "weighted_surface_energy": null,
  "weighted_work_function": null,
  "surface_anisotropy": null,
  "shape_factor": null,
  "has_reconstructed": null,
  "possible_species": null,
  "has_props": null,
  "theoretical": null,
  "database_IDs": null,
  "fields_not_requested": [
    "builder_meta",
    "nsites",
    "elements",
    "nelements",
    "composition",
    "composition_reduced",
    "chemsys",
    "symmetry",
    "property_name",
    "deprecated",
    "deprecation_reasons",
    "last_updated",
    "origins",
    "warnings",
    "task_ids",
    "uncorrected_energy_per_atom",
    "equilibrium_reaction_energy_per_atom",
    "decomposes_to",
    "xas",
    "grain_boundaries",
    "cbm",
    "vbm",
    "is_gap_direct",
    "is_metal",
    "es_source_calc_id",
    "bandstructure",
    "dos",
    "dos_energy_up",
    "dos_energy_down",
    "is_magnetic",
    "ordering",
    "total_magnetization_normalized_vol",
    "total_magnetization_normalized_formula_units",
    "num_magnetic_sites",
    "num_unique_magnetic_sites",
    "types_of_magnetic_species",
    "bulk_modulus",
    "shear_modulus",
    "universal_anisotropy",
    "homogeneous_poisson",
    "e_total",
    "e_ionic",
    "e_electronic",
    "n",
    "e_ij_max",
    "weighted_surface_energy_EV_PER_ANG2",
    "weighted_surface_energy",
    "weighted_work_function",
    "surface_anisotropy",
    "shape_factor",
    "has_reconstructed",
    "possible_species",
    "has_props",
    "theoretical",
    "database_IDs"
  ]
}
