{
  "builder_meta": null,
  "nsites": null,
  "elements": null,
  "nelements": null,
  "composition": null,
  "composition_reduced": null,
  "formula_pretty": "Eu2Cu",
  "formula_anonymous": "AB2",
  "chemsys": null,
  "volume": 373.14621053230036,
  "density": 6.541188582237499,
  "density_atomic": 31.095517544358362,
  "symmetry": null,
  "property_name": null,
  "material_id": "mp-1102243",
  "deprecated": null,
  "deprecation_reasons": null,
  "last_updated": null,
  "origins": null,
  "warnings": null,
  "structure": {
    "@module": "pymatgen.core.structure",
    "@class": "Structure",
    "charge": 0,
    "lattice": {
      "matrix": [
        [6.093411, 0.0, 0.0],
        [0.0, 4.201223, 0.0],
        [0.0, 0.0, 14.57615]
      ],
      "pbc": [true, true, true],
      "a": 6.093411,
      "b": 4.201223,
      "c": 14.57615,
      "alpha": 90.0,
      "beta": 90.0,
      "gamma": 90.0,
      "volume": 373.14621053230036
    },
    "properties": {},
    "sites": [
      {
        "species": [{ "element": "Eu", "occu": 1 }],
        "abc": [0.128253, 0.25, 0.832777],
        "properties": { "magmom": 6.961 },
        "label": "Eu",
        "xyz": [0.781498240983, 1.05030575, 12.13868246855]
      },
      {
        "species": [{ "element": "Eu", "occu": 1 }],
        "abc": [0.628253, 0.25, 0.667223],
        "properties": { "magmom": 6.961 },
        "label": "Eu",
        "xyz": [3.8282037409829996, 1.05030575, 9.72554253145]
      },
      {
        "species": [{ "element": "Eu", "occu": 1 }],
        "abc": [0.871746999999999, 0.75, 0.167222999999999],
        "properties": { "magmom": 6.961 },
        "label": "Eu",
        "xyz": [5.311912759016994, 3.15091725, 2.4374675314499856]
      },
      {
        "species": [{ "element": "Eu", "occu": 1 }],
        "abc": [0.371747, 0.75, 0.332777],
        "properties": { "magmom": 6.961 },
        "label": "Eu",
        "xyz": [2.265207259017, 3.15091725, 4.85060746855]
      },
      {
        "species": [{ "element": "Eu", "occu": 1 }],
        "abc": [0.867618999999999, 0.25, 0.405962],
        "properties": { "magmom": 6.932 },
        "label": "Eu",
        "xyz": [5.2867591584089935, 1.05030575, 5.9173630063]
      },
      {
        "species": [{ "element": "Eu", "occu": 1 }],
        "abc": [0.367619, 0.25, 0.094038],
        "properties": { "magmom": 6.932 },
        "label": "Eu",
        "xyz": [2.240053658409, 1.05030575, 1.3707119937]
      },
      {
        "species": [{ "element": "Eu", "occu": 1 }],
        "abc": [0.132381, 0.75, 0.594038],
        "properties": { "magmom": 6.932 },
        "label": "Eu",
        "xyz": [0.8066518415909999, 3.15091725, 8.6587869937]
      },
      {
        "species": [{ "element": "Eu", "occu": 1 }],
        "abc": [0.632381, 0.75, 0.905961999999999],
        "properties": { "magmom": 6.932 },
        "label": "Eu",
        "xyz": [3.8533573415909994, 3.15091725, 13.205438006299985]
      },
      {
        "species": [{ "element": "Cu", "occu": 1 }],
        "abc": [0.390206, 0.25, 0.484728999999999],
        "properties": { "magmom": -0.01 },
        "label": "Cu",
        "xyz": [2.377685532666, 1.05030575, 7.065482613349986]
      },
      {
        "species": [{ "element": "Cu", "occu": 1 }],
        "abc": [0.890205999999999, 0.25, 0.015271],
        "properties": { "magmom": -0.01 },
        "label": "Cu",
        "xyz": [5.424391032665994, 1.05030575, 0.22259238665]
      },
      {
        "species": [{ "element": "Cu", "occu": 1 }],
        "abc": [0.609794, 0.75, 0.515270999999999],
        "properties": { "magmom": -0.01 },
        "label": "Cu",
        "xyz": [3.7157254673339994, 3.15091725, 7.5106673866499865]
      },
      {
        "species": [{ "element": "Cu", "occu": 1 }],
        "abc": [0.109793999999999, 0.75, 0.984729],
        "properties": { "magmom": -0.01 },
        "label": "Cu",
        "xyz": [0.6690199673339939, 3.15091725, 14.35355761335]
      }
    ]
  },
  "task_ids": null,
  "uncorrected_energy_per_atom": null,
  "energy_per_atom": -8.314741369166667,
  "formation_energy_per_atom": -0.08959786916666901,
  "energy_above_hull": 0.001160383333331,
  "is_stable": false,
  "equilibrium_reaction_energy_per_atom": null,
  "decomposes_to": null,
  "xas": null,
  "grain_boundaries": null,
  "band_gap": 0.0,
  "cbm": null,
  "vbm": null,
  "efermi": 2.85330491,
  "is_gap_direct": null,
  "is_metal": null,
  "es_source_calc_id": null,
  "bandstructure": null,
  "dos": null,
  "dos_energy_up": null,
  "dos_energy_down": null,
  "is_magnetic": null,
  "ordering": null,
  "total_magnetization": 59.6869782,
  "total_magnetization_normalized_vol": null,
  "total_magnetization_normalized_formula_units": null,
  "num_magnetic_sites": null,
  "num_unique_magnetic_sites": null,
  "types_of_magnetic_species": null,
  "bulk_modulus": null,
  "shear_modulus": null,
  "universal_anisotropy": null,
  "homogeneous_poisson": null,
  "e_total": null,
  "e_ionic": null,
  "e_electronic": null,
  "n": null,
  "e_ij_max": null,
  "weighted_surface_energy_EV_PER_ANG2": null,
  "weighted_surface_energy": null,
  "weighted_work_function": null,
  "surface_anisotropy": null,
  "shape_factor": null,
  "has_reconstructed": null,
  "possible_species": null,
  "has_props": null,
  "theoretical": null,
  "database_IDs": null,
  "fields_not_requested": [
    "builder_meta",
    "nsites",
    "elements",
    "nelements",
    "composition",
    "composition_reduced",
    "chemsys",
    "symmetry",
    "property_name",
    "deprecated",
    "deprecation_reasons",
    "last_updated",
    "origins",
    "warnings",
    "task_ids",
    "uncorrected_energy_per_atom",
    "equilibrium_reaction_energy_per_atom",
    "decomposes_to",
    "xas",
    "grain_boundaries",
    "cbm",
    "vbm",
    "is_gap_direct",
    "is_metal",
    "es_source_calc_id",
    "bandstructure",
    "dos",
    "dos_energy_up",
    "dos_energy_down",
    "is_magnetic",
    "ordering",
    "total_magnetization_normalized_vol",
    "total_magnetization_normalized_formula_units",
    "num_magnetic_sites",
    "num_unique_magnetic_sites",
    "types_of_magnetic_species",
    "bulk_modulus",
    "shear_modulus",
    "universal_anisotropy",
    "homogeneous_poisson",
    "e_total",
    "e_ionic",
    "e_electronic",
    "n",
    "e_ij_max",
    "weighted_surface_energy_EV_PER_ANG2",
    "weighted_surface_energy",
    "weighted_work_function",
    "surface_anisotropy",
    "shape_factor",
    "has_reconstructed",
    "possible_species",
    "has_props",
    "theoretical",
    "database_IDs"
  ]
}
