{"builder_meta": null, "nsites": null, "elements": null, "nelements": null, "composition": null, "composition_reduced": null, "formula_pretty": "Eu2Ge", "formula_anonymous": "AB2", "chemsys": null, "volume": 361.53231919376145, "density": 6.9183953083464065, "density_atomic": 30.12769326614679, "symmetry": null, "property_name": null, "material_id": "mp-1095642", "deprecated": null, "deprecation_reasons": null, "last_updated": null, "origins": null, "warnings": null, "structure": {"@module": "pymatgen.core.structure", "@class": "Structure", "charge": 0, "lattice": {"matrix": [[-0.0, -4.97731362, 0.0], [-7.72125521, 0.0, 0.0], [0.0, 0.0, -9.40728309]], "pbc": [true, true, true], "a": 4.97731362, "b": 7.72125521, "c": 9.40728309, "alpha": 90.0, "beta": 90.0, "gamma": 90.0, "volume": 361.53231919376145}, "properties": {}, "sites": [{"species": [{"element": "Eu", "occu": 1}], "abc": [0.75, 0.47824944, 0.17971554], "properties": {"magmom": 6.824}, "label": "Eu", "xyz": [-3.6926859802795824, -3.7329852150000002, -1.6906349604522186]}, {"species": [{"element": "Eu", "occu": 1}], "abc": [0.75, 0.97824944, 0.32028446], "properties": {"magmom": 6.824}, "label": "Eu", "xyz": [-7.553313585279582, -3.7329852150000002, -3.013006584547781]}, {"species": [{"element": "Eu", "occu": 1}], "abc": [0.25, 0.52175056, 0.82028446], "properties": {"magmom": 6.824}, "label": "Eu", "xyz": [-4.028569229720417, -1.244328405, -7.716648129547782]}, {"species": [{"element": "Eu", "occu": 1}], "abc": [0.25, 0.021750560000000002, 0.67971554], "properties": {"magmom": 6.824}, "label": "Eu", "xyz": [-0.16794162472041763, -1.244328405, -6.394276505452218]}, {"species": [{"element": "Eu", "occu": 1}], "abc": [0.75, 0.34583565, 0.57780606], "properties": {"magmom": 6.787}, "label": "Eu", "xyz": [-2.6702853143662364, -3.7329852150000002, -5.435585177537526]}, {"species": [{"element": "Eu", "occu": 1}], "abc": [0.75, 0.84583565, 0.92219394], "properties": {"magmom": 6.787}, "label": "Eu", "xyz": [-6.530912919366236, -3.7329852150000002, -8.675339457462474]}, {"species": [{"element": "Eu", "occu": 1}], "abc": [0.25, 0.6541643500000001, 0.42219394], "properties": {"magmom": 6.787}, "label": "Eu", "xyz": [-5.050969895633764, -1.244328405, -3.9716979124624743]}, {"species": [{"element": "Eu", "occu": 1}], "abc": [0.25, 0.15416435, 0.07780606], "properties": {"magmom": 6.787}, "label": "Eu", "xyz": [-1.1903422906337635, -1.244328405, -0.7319436325375254]}, {"species": [{"element": "Ge", "occu": 1}], "abc": [0.75, 0.25143841, 0.89498086], "properties": {"magmom": -0.155}, "label": "Ge", "xyz": [-1.941420133206616, -3.7329852150000002, -8.419338310151657]}, {"species": [{"element": "Ge", "occu": 1}], "abc": [0.75, 0.75143841, 0.60501914], "properties": {"magmom": -0.155}, "label": "Ge", "xyz": [-5.802047738206616, -3.7329852150000002, -5.691586324848343]}, {"species": [{"element": "Ge", "occu": 1}], "abc": [0.25, 0.74856159, 0.10501914], "properties": {"magmom": -0.155}, "label": "Ge", "xyz": [-5.7798350767933835, -1.244328405, -0.9879447798483426]}, {"species": [{"element": "Ge", "occu": 1}], "abc": [0.25, 0.24856159, 0.39498086], "properties": {"magmom": -0.155}, "label": "Ge", "xyz": [-1.9192074717933838, -1.244328405, -3.7156967651516575]}]}, "task_ids": null, "uncorrected_energy_per_atom": null, "energy_per_atom": -31.003410846666668, "formation_energy_per_atom": -0.6988298433333371, "energy_above_hull": 0.0, "is_stable": true, "equilibrium_reaction_energy_per_atom": null, "decomposes_to": null, "xas": null, "grain_boundaries": null, "band_gap": 0.0, "cbm": null, "vbm": null, "efermi": 3.29199098, "is_gap_direct": null, "is_metal": null, "es_source_calc_id": null, "bandstructure": null, "dos": null, "dos_energy_up": null, "dos_energy_down": null, "is_magnetic": null, "ordering": null, "total_magnetization": 55.9999994, "total_magnetization_normalized_vol": null, "total_magnetization_normalized_formula_units": null, "num_magnetic_sites": null, "num_unique_magnetic_sites": null, "types_of_magnetic_species": null, "bulk_modulus": null, "shear_modulus": null, "universal_anisotropy": null, "homogeneous_poisson": null, "e_total": null, "e_ionic": null, "e_electronic": null, "n": null, "e_ij_max": null, "weighted_surface_energy_EV_PER_ANG2": null, "weighted_surface_energy": null, "weighted_work_function": null, "surface_anisotropy": null, "shape_factor": null, "has_reconstructed": null, "possible_species": null, "has_props": null, "theoretical": null, "database_IDs": null, "fields_not_requested": ["builder_meta", "nsites", "elements", "nelements", "composition", "composition_reduced", "chemsys", "symmetry", "property_name", "deprecated", "deprecation_reasons", "last_updated", "origins", "warnings", "task_ids", "uncorrected_energy_per_atom", "equilibrium_reaction_energy_per_atom", "decomposes_to", "xas", "grain_boundaries", "cbm", "vbm", "is_gap_direct", "is_metal", "es_source_calc_id", "bandstructure", "dos", "dos_energy_up", "dos_energy_down", "is_magnetic", "ordering", "total_magnetization_normalized_vol", "total_magnetization_normalized_formula_units", "num_magnetic_sites", "num_unique_magnetic_sites", "types_of_magnetic_species", "bulk_modulus", "shear_modulus", "universal_anisotropy", "homogeneous_poisson", "e_total", "e_ionic", "e_electronic", "n", "e_ij_max", "weighted_surface_energy_EV_PER_ANG2", "weighted_surface_energy", "weighted_work_function", "surface_anisotropy", "shape_factor", "has_reconstructed", "possible_species", "has_props", "theoretical", "database_IDs"]}