{
  "builder_meta": null,
  "nsites": null,
  "elements": null,
  "nelements": null,
  "composition": null,
  "composition_reduced": null,
  "formula_pretty": "Eu2In",
  "formula_anonymous": "AB2",
  "chemsys": null,
  "volume": 411.60401083538636,
  "density": 6.757408321373952,
  "density_atomic": 34.3003342362822,
  "symmetry": null,
  "property_name": null,
  "material_id": "mp-1095519",
  "deprecated": null,
  "deprecation_reasons": null,
  "last_updated": null,
  "origins": null,
  "warnings": null,
  "structure": {
    "@module": "pymatgen.core.structure",
    "@class": "Structure",
    "charge": 0,
    "lattice": {
      "matrix": [
        [0.0, -5.57530651, 0.0],
        [-7.18240456, 0.0, -0.00010537],
        [-0.00014333, 0.0, -10.27876616]
      ],
      "pbc": [true, true, true],
      "a": 5.57530651,
      "b": 7.18240456077292,
      "c": 10.278766160999318,
      "alpha": 89.9983604895785,
      "beta": 90.0,
      "gamma": 90.0,
      "volume": 411.60401083538636
    },
    "properties": {},
    "sites": [
      {
        "species": [{ "element": "Eu", "occu": 1 }],
        "abc": [0.75, 0.46226336, 0.20196364],
        "properties": { "magmom": 6.915 },
        "label": "Eu",
        "xyz": [-3.3201914122334433, -4.1814798825, -2.0759857370726653]
      },
      {
        "species": [{ "element": "Eu", "occu": 1 }],
        "abc": [0.75, 0.96224549, 0.29806271],
        "properties": { "magmom": 6.915 },
        "label": "Eu",
        "xyz": [-6.91127911654366, -4.1814798825, -3.063818288913175]
      },
      {
        "species": [{ "element": "Eu", "occu": 1 }],
        "abc": [0.25, 0.53762329, 0.79803835],
        "properties": { "magmom": 6.915 },
        "label": "Eu",
        "xyz": [-3.8615423524949075, -1.3938266275, -8.202906235728303]
      },
      {
        "species": [{ "element": "Eu", "occu": 1 }],
        "abc": [0.25, 0.03763776, 0.70194671],
        "properties": { "magmom": 6.915 },
        "label": "Eu",
        "xyz": [-0.2704302290741299, -1.3938266275, -7.215150054762105]
      },
      {
        "species": [{ "element": "Eu", "occu": 1 }],
        "abc": [0.75, 0.31987968, 0.5654682600000001],
        "properties": { "magmom": 6.861 },
        "label": "Eu",
        "xyz": [-2.297586320849047, -4.1814798825, -5.812349721163964]
      },
      {
        "species": [{ "element": "Eu", "occu": 1 }],
        "abc": [0.75, 0.819950499999999, 0.93443707],
        "properties": { "magmom": 6.861 },
        "label": "Eu",
        "xyz": [-5.889350143039516, -4.1814798825, -9.604946531949736]
      },
      {
        "species": [{ "element": "Eu", "occu": 1 }],
        "abc": [0.25, 0.68015428, 0.43461835],
        "properties": { "magmom": 6.861 },
        "label": "Eu",
        "xyz": [-4.885205496023622, -1.3938266275, -4.467412056351519]
      },
      {
        "species": [{ "element": "Eu", "occu": 1 }],
        "abc": [0.25, 0.18012031, 0.06549088],
        "properties": { "magmom": 6.861 },
        "label": "Eu",
        "xyz": [-1.293706322700444, -1.3938266275, -0.6731844204096855]
      },
      {
        "species": [{ "element": "In", "occu": 1 }],
        "abc": [0.75, 0.28731666, 0.88748528],
        "properties": { "magmom": -0.005 },
        "label": "In",
        "xyz": [-2.063751692213152, -4.1814798825, -9.122283938118589]
      },
      {
        "species": [{ "element": "In", "occu": 1 }],
        "abc": [0.75, 0.78738117, 0.6124776],
        "properties": { "magmom": -0.006 },
        "label": "In",
        "xyz": [-5.655377892280543, -4.1814798825, -6.295596994991898]
      },
      {
        "species": [{ "element": "In", "occu": 1 }],
        "abc": [0.25, 0.71271393, 0.11245872],
        "properties": { "magmom": -0.005 },
        "label": "In",
        "xyz": [-5.119015899515859, -1.3938266275, -1.1560119841997192]
      },
      {
        "species": [{ "element": "In", "occu": 1 }],
        "abc": [0.25, 0.21271255, 0.38755342],
        "properties": { "magmom": -0.006 },
        "label": "In",
        "xyz": [-1.5278431371209167, -1.3938266275, -3.9835933922096607]
      }
    ]
  },
  "task_ids": null,
  "uncorrected_energy_per_atom": null,
  "energy_per_atom": -8.104853137499996,
  "formation_energy_per_atom": -0.32638727972222104,
  "energy_above_hull": 0.0,
  "is_stable": true,
  "equilibrium_reaction_energy_per_atom": null,
  "decomposes_to": null,
  "xas": null,
  "grain_boundaries": null,
  "band_gap": 0.0,
  "cbm": null,
  "vbm": null,
  "efermi": 3.57702497,
  "is_gap_direct": null,
  "is_metal": null,
  "es_source_calc_id": null,
  "bandstructure": null,
  "dos": null,
  "dos_energy_up": null,
  "dos_energy_down": null,
  "is_magnetic": null,
  "ordering": null,
  "total_magnetization": 59.1448756,
  "total_magnetization_normalized_vol": null,
  "total_magnetization_normalized_formula_units": null,
  "num_magnetic_sites": null,
  "num_unique_magnetic_sites": null,
  "types_of_magnetic_species": null,
  "bulk_modulus": null,
  "shear_modulus": null,
  "universal_anisotropy": null,
  "homogeneous_poisson": null,
  "e_total": null,
  "e_ionic": null,
  "e_electronic": null,
  "n": null,
  "e_ij_max": null,
  "weighted_surface_energy_EV_PER_ANG2": null,
  "weighted_surface_energy": null,
  "weighted_work_function": null,
  "surface_anisotropy": null,
  "shape_factor": null,
  "has_reconstructed": null,
  "possible_species": null,
  "has_props": null,
  "theoretical": null,
  "database_IDs": null,
  "fields_not_requested": [
    "builder_meta",
    "nsites",
    "elements",
    "nelements",
    "composition",
    "composition_reduced",
    "chemsys",
    "symmetry",
    "property_name",
    "deprecated",
    "deprecation_reasons",
    "last_updated",
    "origins",
    "warnings",
    "task_ids",
    "uncorrected_energy_per_atom",
    "equilibrium_reaction_energy_per_atom",
    "decomposes_to",
    "xas",
    "grain_boundaries",
    "cbm",
    "vbm",
    "is_gap_direct",
    "is_metal",
    "es_source_calc_id",
    "bandstructure",
    "dos",
    "dos_energy_up",
    "dos_energy_down",
    "is_magnetic",
    "ordering",
    "total_magnetization_normalized_vol",
    "total_magnetization_normalized_formula_units",
    "num_magnetic_sites",
    "num_unique_magnetic_sites",
    "types_of_magnetic_species",
    "bulk_modulus",
    "shear_modulus",
    "universal_anisotropy",
    "homogeneous_poisson",
    "e_total",
    "e_ionic",
    "e_electronic",
    "n",
    "e_ij_max",
    "weighted_surface_energy_EV_PER_ANG2",
    "weighted_surface_energy",
    "weighted_work_function",
    "surface_anisotropy",
    "shape_factor",
    "has_reconstructed",
    "possible_species",
    "has_props",
    "theoretical",
    "database_IDs"
  ]
}
