{
  "builder_meta": null,
  "nsites": null,
  "elements": null,
  "nelements": null,
  "composition": null,
  "composition_reduced": null,
  "formula_pretty": "Eu2Mg",
  "formula_anonymous": "AB2",
  "chemsys": null,
  "volume": 216.58433357091985,
  "density": 5.033085361816762,
  "density_atomic": 36.097388928486644,
  "symmetry": null,
  "property_name": null,
  "material_id": "mp-1183936",
  "deprecated": null,
  "deprecation_reasons": null,
  "last_updated": null,
  "origins": null,
  "warnings": null,
  "structure": {
    "@module": "pymatgen.core.structure",
    "@class": "Structure",
    "charge": 0,
    "lattice": {
      "matrix": [
        [1.936249, -9.325347, 0.0],
        [1.936249, 9.325347, 0.0],
        [0.0, 0.0, 5.997508]
      ],
      "pbc": [true, true, true],
      "a": 9.524240487325486,
      "b": 9.524240487325486,
      "c": 5.997508,
      "alpha": 90.0,
      "beta": 90.0,
      "gamma": 156.54035600187675,
      "volume": 216.58433357091985
    },
    "properties": {},
    "sites": [
      {
        "species": [{ "element": "Eu", "occu": 1 }],
        "abc": [0.091697, 0.908303, 0.25],
        "properties": { "magmom": 6.956 },
        "label": "Eu",
        "xyz": [1.936249, 7.615134312282, 1.499377]
      },
      {
        "species": [{ "element": "Eu", "occu": 1 }],
        "abc": [0.78173, 0.21827000000000002, 0.25],
        "properties": { "magmom": 7.05 },
        "label": "Eu",
        "xyz": [1.936249, -5.254460020620001, 1.499377]
      },
      {
        "species": [{ "element": "Eu", "occu": 1 }],
        "abc": [0.908303, 0.091697, 0.75],
        "properties": { "magmom": 6.957 },
        "label": "Eu",
        "xyz": [1.936249, -7.615134312282, 4.498131]
      },
      {
        "species": [{ "element": "Eu", "occu": 1 }],
        "abc": [0.21827000000000002, 0.78173, 0.75],
        "properties": { "magmom": 7.05 },
        "label": "Eu",
        "xyz": [1.936249, 5.254460020620001, 4.498131]
      },
      {
        "species": [{ "element": "Mg", "occu": 1 }],
        "abc": [0.438461999999999, 0.561538, 0.25],
        "properties": { "magmom": 0.004 },
        "label": "Mg",
        "xyz": [1.936248999999998, 1.1477264073720095, 1.499377]
      },
      {
        "species": [{ "element": "Mg", "occu": 1 }],
        "abc": [0.561538, 0.438461999999999, 0.75],
        "properties": { "magmom": 0.004 },
        "label": "Mg",
        "xyz": [1.936248999999998, -1.1477264073720095, 4.498131]
      }
    ]
  },
  "task_ids": null,
  "uncorrected_energy_per_atom": null,
  "energy_per_atom": -7.409257723333333,
  "formation_energy_per_atom": -0.007026441666669001,
  "energy_above_hull": 0.035919732083330005,
  "is_stable": false,
  "equilibrium_reaction_energy_per_atom": null,
  "decomposes_to": null,
  "xas": null,
  "grain_boundaries": null,
  "band_gap": 0.0,
  "cbm": null,
  "vbm": null,
  "efermi": 2.28979788,
  "is_gap_direct": null,
  "is_metal": null,
  "es_source_calc_id": null,
  "bandstructure": null,
  "dos": null,
  "dos_energy_up": null,
  "dos_energy_down": null,
  "is_magnetic": null,
  "ordering": null,
  "total_magnetization": 30.29147,
  "total_magnetization_normalized_vol": null,
  "total_magnetization_normalized_formula_units": null,
  "num_magnetic_sites": null,
  "num_unique_magnetic_sites": null,
  "types_of_magnetic_species": null,
  "bulk_modulus": null,
  "shear_modulus": null,
  "universal_anisotropy": null,
  "homogeneous_poisson": null,
  "e_total": null,
  "e_ionic": null,
  "e_electronic": null,
  "n": null,
  "e_ij_max": null,
  "weighted_surface_energy_EV_PER_ANG2": null,
  "weighted_surface_energy": null,
  "weighted_work_function": null,
  "surface_anisotropy": null,
  "shape_factor": null,
  "has_reconstructed": null,
  "possible_species": null,
  "has_props": null,
  "theoretical": null,
  "database_IDs": null,
  "fields_not_requested": [
    "builder_meta",
    "nsites",
    "elements",
    "nelements",
    "composition",
    "composition_reduced",
    "chemsys",
    "symmetry",
    "property_name",
    "deprecated",
    "deprecation_reasons",
    "last_updated",
    "origins",
    "warnings",
    "task_ids",
    "uncorrected_energy_per_atom",
    "equilibrium_reaction_energy_per_atom",
    "decomposes_to",
    "xas",
    "grain_boundaries",
    "cbm",
    "vbm",
    "is_gap_direct",
    "is_metal",
    "es_source_calc_id",
    "bandstructure",
    "dos",
    "dos_energy_up",
    "dos_energy_down",
    "is_magnetic",
    "ordering",
    "total_magnetization_normalized_vol",
    "total_magnetization_normalized_formula_units",
    "num_magnetic_sites",
    "num_unique_magnetic_sites",
    "types_of_magnetic_species",
    "bulk_modulus",
    "shear_modulus",
    "universal_anisotropy",
    "homogeneous_poisson",
    "e_total",
    "e_ionic",
    "e_electronic",
    "n",
    "e_ij_max",
    "weighted_surface_energy_EV_PER_ANG2",
    "weighted_surface_energy",
    "weighted_work_function",
    "surface_anisotropy",
    "shape_factor",
    "has_reconstructed",
    "possible_species",
    "has_props",
    "theoretical",
    "database_IDs"
  ]
}
