{"builder_meta": null, "nsites": null, "elements": null, "nelements": null, "composition": null, "composition_reduced": null, "formula_pretty": "Eu2N", "formula_anonymous": "AB2", "chemsys": null, "volume": 289.7195865886038, "density": 7.289020341278062, "density_atomic": 24.14329888238365, "symmetry": null, "property_name": null, "material_id": "mp-1212961", "deprecated": null, "deprecation_reasons": null, "last_updated": null, "origins": null, "warnings": null, "structure": {"@module": "pymatgen.core.structure", "@class": "Structure", "charge": 0, "lattice": {"matrix": [[7.4267957, 8.965000000000002e-05, 0.00021882], [8.964000000000003e-05, 7.42693042, 0.0005108], [-3.71328801, -3.71314939, 5.25214687]], "pbc": [true, true, true], "a": 7.426795703764699, "b": 7.426930438106536, "c": 7.427047393259176, "alpha": 119.99384728980182, "beta": 119.99692135329948, "gamma": 89.99861672115183, "volume": 289.71958658860376}, "properties": {}, "sites": [{"species": [{"element": "Eu", "occu": 1}], "abc": [0.36578348, 0.63418949, 0.73156117], "properties": {"magmom": 6.87}, "label": "Eu", "xyz": [0.00015870399834794213, 1.9937180956810812, 3.8426706939616233]}, {"species": [{"element": "Eu", "occu": 1}], "abc": [0.36578702, 0.09737045, 0.73156656], "properties": {"magmom": 6.87}, "label": "Eu", "xyz": [0.00011685977400643921, -1.9932195760879665, 3.842424796642243]}, {"species": [{"element": "Eu", "occu": 1}], "abc": [0.34740055000000003, 0.11579448, 0.23159552], "properties": {"magmom": 6.87}, "label": "Eu", "xyz": [1.720102423149107, 7.992662465639011e-05, 1.2165088514827573]}, {"species": [{"element": "Eu", "occu": 1}], "abc": [0.88421298, 0.65262955, 0.76843344], "properties": {"magmom": 6.87}, "label": "Eu", "xyz": [3.713512980225993, 1.9938053685879664, 4.036452133357756]}, {"species": [{"element": "Eu", "occu": 1}], "abc": [0.8842165200000001, 0.11581051, 0.76843883], "properties": {"magmom": 6.87}, "label": "Eu", "xyz": [3.713471136001653, -1.9931323031810813, 4.036206236038377]}, {"species": [{"element": "Eu", "occu": 1}], "abc": [0.88419603, 0.11577184, 0.23155152], "properties": {"magmom": 6.87}, "label": "Eu", "xyz": [5.706936168435533, 0.00012328320788956848, 1.2163952070428992]}, {"species": [{"element": "Eu", "occu": 1}], "abc": [0.90259945, 0.63420552, 0.26840448], "properties": {"magmom": 6.87}, "label": "Eu", "xyz": [5.706815426850892, 3.7136552558753433, 1.4102212085172425]}, {"species": [{"element": "Eu", "occu": 1}], "abc": [0.36580397000000003, 0.63422816, 0.26844848], "properties": {"magmom": 6.87}, "label": "Eu", "xyz": [1.7199816815644666, 3.7136118992921108, 1.4103348529571007]}, {"species": [{"element": "N", "occu": 1}], "abc": [0.125, 0.375, 0.25], "properties": {"magmom": -0.145}, "label": "N", "xyz": [6.107499999996602e-05, 1.85682276625, 1.3132556199999998]}, {"species": [{"element": "N", "occu": 1}], "abc": [0.125, 0.875, 0.25], "properties": {"magmom": -0.145}, "label": "N", "xyz": [0.0001058950000000225, 5.57028797625, 1.31351102]}, {"species": [{"element": "N", "occu": 1}], "abc": [0.125, 0.875, 0.75], "properties": {"magmom": -0.145}, "label": "N", "xyz": [-1.85653811, 3.71371328125, 3.9395844549999994]}, {"species": [{"element": "N", "occu": 1}], "abc": [0.625, 0.875, 0.75], "properties": {"magmom": -0.145}, "label": "N", "xyz": [1.8568597399999995, 3.71375810625, 3.9396938649999997]}]}, "task_ids": null, "uncorrected_energy_per_atom": null, "energy_per_atom": -29.63066883, "formation_energy_per_atom": -0.907163462916666, "energy_above_hull": 0.0, "is_stable": true, "equilibrium_reaction_energy_per_atom": null, "decomposes_to": null, "xas": null, "grain_boundaries": null, "band_gap": 0.0, "cbm": null, "vbm": null, "efermi": 2.92482713, "is_gap_direct": null, "is_metal": null, "es_source_calc_id": null, "bandstructure": null, "dos": null, "dos_energy_up": null, "dos_energy_down": null, "is_magnetic": null, "ordering": null, "total_magnetization": 59.7879729, "total_magnetization_normalized_vol": null, "total_magnetization_normalized_formula_units": null, "num_magnetic_sites": null, "num_unique_magnetic_sites": null, "types_of_magnetic_species": null, "bulk_modulus": null, "shear_modulus": null, "universal_anisotropy": null, "homogeneous_poisson": null, "e_total": null, "e_ionic": null, "e_electronic": null, "n": null, "e_ij_max": null, "weighted_surface_energy_EV_PER_ANG2": null, "weighted_surface_energy": null, "weighted_work_function": null, "surface_anisotropy": null, "shape_factor": null, "has_reconstructed": null, "possible_species": null, "has_props": null, "theoretical": null, "database_IDs": null, "fields_not_requested": ["builder_meta", "nsites", "elements", "nelements", "composition", "composition_reduced", "chemsys", "symmetry", "property_name", "deprecated", "deprecation_reasons", "last_updated", "origins", "warnings", "task_ids", "uncorrected_energy_per_atom", "equilibrium_reaction_energy_per_atom", "decomposes_to", "xas", "grain_boundaries", "cbm", "vbm", "is_gap_direct", "is_metal", "es_source_calc_id", "bandstructure", "dos", "dos_energy_up", "dos_energy_down", "is_magnetic", "ordering", "total_magnetization_normalized_vol", "total_magnetization_normalized_formula_units", "num_magnetic_sites", "num_unique_magnetic_sites", "types_of_magnetic_species", "bulk_modulus", "shear_modulus", "universal_anisotropy", "homogeneous_poisson", "e_total", "e_ionic", "e_electronic", "n", "e_ij_max", "weighted_surface_energy_EV_PER_ANG2", "weighted_surface_energy", "weighted_work_function", "surface_anisotropy", "shape_factor", "has_reconstructed", "possible_species", "has_props", "theoretical", "database_IDs"]}