{
  "builder_meta": null,
  "nsites": null,
  "elements": null,
  "nelements": null,
  "composition": null,
  "composition_reduced": null,
  "formula_pretty": "Eu2O3",
  "formula_anonymous": "A2B3",
  "chemsys": null,
  "volume": 72.34458065048803,
  "density": 8.077829720008786,
  "density_atomic": 14.468916130097606,
  "symmetry": null,
  "property_name": null,
  "material_id": "mp-1017564",
  "deprecated": null,
  "deprecation_reasons": null,
  "last_updated": null,
  "origins": null,
  "warnings": null,
  "structure": {
    "@module": "pymatgen.core.structure",
    "@class": "Structure",
    "charge": 0,
    "lattice": {
      "matrix": [
        [3.78829582, 7.45e-6, -1.41e-6],
        [-1.89414203, 3.28077298, 7.889999999999999e-6],
        [-1.189999999999999e-6, 1.4330000000000002e-5, 5.82083711]
      ],
      "pbc": [true, true, true],
      "a": 3.788295820007588,
      "b": 3.788303759754866,
      "c": 5.820837110017761,
      "alpha": 89.9997526558977,
      "beta": 90.00003303858736,
      "gamma": 119.9997153036252,
      "volume": 72.34458065048803
    },
    "properties": {},
    "sites": [
      {
        "species": [{ "element": "Eu", "occu": 1 }],
        "abc": [0.66666372, 0.3333311, 0.75755591],
        "properties": { "magmom": 6.121 },
        "label": "Eu",
        "xyz": [1.8941420359139842, 1.0935994886945821, 4.409611243814354]
      },
      {
        "species": [{ "element": "Eu", "occu": 1 }],
        "abc": [0.33333628, 0.6666689, 0.24244409],
        "properties": { "magmom": 6.121 },
        "label": "Eu",
        "xyz": [1.0564086015313381e-5, 2.1871952713054172, 1.411232346185646]
      },
      {
        "species": [{ "element": "O", "occu": 1 }],
        "abc": [-0.0, 0.0, 0.0],
        "properties": { "magmom": -0.189 },
        "label": "O",
        "xyz": [0.0, 0.0, 0.0]
      },
      {
        "species": [{ "element": "O", "occu": 1 }],
        "abc": [0.66666938, 0.33333417, 0.34889643],
        "properties": { "magmom": -0.138 },
        "label": "O",
        "xyz": [1.8941581489570747, 1.0936037046194498, 2.0308709772932927]
      },
      {
        "species": [{ "element": "O", "occu": 1 }],
        "abc": [0.33333062, 0.66666583, 0.65110357],
        "properties": { "magmom": -0.138 },
        "label": "O",
        "xyz": [-5.5489570747914384e-6, 2.1871910553805507, 3.7899726127067073]
      }
    ]
  },
  "task_ids": null,
  "uncorrected_energy_per_atom": null,
  "energy_per_atom": -10.529193926,
  "formation_energy_per_atom": -3.4451725570000002,
  "energy_above_hull": 0.0,
  "is_stable": true,
  "equilibrium_reaction_energy_per_atom": null,
  "decomposes_to": null,
  "xas": null,
  "grain_boundaries": null,
  "band_gap": 0.0,
  "cbm": null,
  "vbm": null,
  "efermi": 3.11830456,
  "is_gap_direct": null,
  "is_metal": null,
  "es_source_calc_id": null,
  "bandstructure": null,
  "dos": null,
  "dos_energy_up": null,
  "dos_energy_down": null,
  "is_magnetic": null,
  "ordering": null,
  "total_magnetization": 12.0,
  "total_magnetization_normalized_vol": null,
  "total_magnetization_normalized_formula_units": null,
  "num_magnetic_sites": null,
  "num_unique_magnetic_sites": null,
  "types_of_magnetic_species": null,
  "bulk_modulus": null,
  "shear_modulus": null,
  "universal_anisotropy": null,
  "homogeneous_poisson": null,
  "e_total": null,
  "e_ionic": null,
  "e_electronic": null,
  "n": null,
  "e_ij_max": null,
  "weighted_surface_energy_EV_PER_ANG2": null,
  "weighted_surface_energy": null,
  "weighted_work_function": null,
  "surface_anisotropy": null,
  "shape_factor": null,
  "has_reconstructed": null,
  "possible_species": null,
  "has_props": null,
  "theoretical": null,
  "database_IDs": null,
  "fields_not_requested": [
    "builder_meta",
    "nsites",
    "elements",
    "nelements",
    "composition",
    "composition_reduced",
    "chemsys",
    "symmetry",
    "property_name",
    "deprecated",
    "deprecation_reasons",
    "last_updated",
    "origins",
    "warnings",
    "task_ids",
    "uncorrected_energy_per_atom",
    "equilibrium_reaction_energy_per_atom",
    "decomposes_to",
    "xas",
    "grain_boundaries",
    "cbm",
    "vbm",
    "is_gap_direct",
    "is_metal",
    "es_source_calc_id",
    "bandstructure",
    "dos",
    "dos_energy_up",
    "dos_energy_down",
    "is_magnetic",
    "ordering",
    "total_magnetization_normalized_vol",
    "total_magnetization_normalized_formula_units",
    "num_magnetic_sites",
    "num_unique_magnetic_sites",
    "types_of_magnetic_species",
    "bulk_modulus",
    "shear_modulus",
    "universal_anisotropy",
    "homogeneous_poisson",
    "e_total",
    "e_ionic",
    "e_electronic",
    "n",
    "e_ij_max",
    "weighted_surface_energy_EV_PER_ANG2",
    "weighted_surface_energy",
    "weighted_work_function",
    "surface_anisotropy",
    "shape_factor",
    "has_reconstructed",
    "possible_species",
    "has_props",
    "theoretical",
    "database_IDs"
  ]
}
