{
  "builder_meta": null,
  "nsites": null,
  "elements": null,
  "nelements": null,
  "composition": null,
  "composition_reduced": null,
  "formula_pretty": "Eu2Si",
  "formula_anonymous": "AB2",
  "chemsys": null,
  "volume": 353.6793459823808,
  "density": 6.235268116742833,
  "density_atomic": 29.47327883186507,
  "symmetry": null,
  "property_name": null,
  "material_id": "mp-1102477",
  "deprecated": null,
  "deprecation_reasons": null,
  "last_updated": null,
  "origins": null,
  "warnings": null,
  "structure": {
    "@module": "pymatgen.core.structure",
    "@class": "Structure",
    "charge": 0,
    "lattice": {
      "matrix": [
        [4.9643374300000005, 0.0, 0.0],
        [0.0, 7.60557149, 1.295e-5],
        [0.0, 6.169999999999998e-6, 9.3673458]
      ],
      "pbc": [true, true, true],
      "a": 4.9643374300000005,
      "b": 7.605571490011025,
      "c": 9.367345800002033,
      "alpha": 89.99986470345141,
      "beta": 90.0,
      "gamma": 90.0,
      "volume": 353.67934598238094
    },
    "properties": {},
    "sites": [
      {
        "species": [{ "element": "Eu", "occu": 1 }],
        "abc": [0.25, 0.52174645, 0.81804288],
        "properties": { "magmom": 6.821 },
        "label": "Eu",
        "xyz": [1.2410843575000001, 3.9681849724532796, 7.662897292804432]
      },
      {
        "species": [{ "element": "Eu", "occu": 1 }],
        "abc": [0.25, 0.02169693, 0.68208408],
        "properties": { "magmom": 6.821 },
        "label": "Eu",
        "xyz": [1.2410843575000001, 0.16502176068729932, 6.389317723010107]
      },
      {
        "species": [{ "element": "Eu", "occu": 1 }],
        "abc": [0.75, 0.47825355, 0.18195712],
        "properties": { "magmom": 6.821 },
        "label": "Eu",
        "xyz": [3.7232530725000004, 3.63739268754672, 1.7044614571955687]
      },
      {
        "species": [{ "element": "Eu", "occu": 1 }],
        "abc": [0.75, 0.97830307, 0.31791592],
        "properties": { "magmom": 6.821 },
        "label": "Eu",
        "xyz": [3.7232530725000004, 7.4405558993127014, 2.9780410269898927]
      },
      {
        "species": [{ "element": "Eu", "occu": 1 }],
        "abc": [0.25, 0.65733353, 0.42245718],
        "properties": { "magmom": 6.785 },
        "label": "Eu",
        "xyz": [1.2410843575000001, 4.999399761749861, 3.9573110032220575]
      },
      {
        "species": [{ "element": "Eu", "occu": 1 }],
        "abc": [0.25, 0.15730999, 0.0774441],
        "properties": { "magmom": 6.785 },
        "label": "Eu",
        "xyz": [1.2410843575000001, 1.1964328528662822, 0.7254477020341507]
      },
      {
        "species": [{ "element": "Eu", "occu": 1 }],
        "abc": [0.75, 0.34266647, 0.57754282],
        "properties": { "magmom": 6.785 },
        "label": "Eu",
        "xyz": [3.7232530725000004, 2.60617789825014, 5.410047746777943]
      },
      {
        "species": [{ "element": "Eu", "occu": 1 }],
        "abc": [0.75, 0.84269001, 0.9225559],
        "properties": { "magmom": 6.785 },
        "label": "Eu",
        "xyz": [3.7232530725000004, 6.4091448071337185, 8.64191104796585]
      },
      {
        "species": [{ "element": "Si", "occu": 1 }],
        "abc": [0.25, 0.74752691, 0.10454376],
        "properties": { "magmom": -0.128 },
        "label": "Si",
        "xyz": [1.2410843575000001, 5.685369999738796, 0.9793072316256926]
      },
      {
        "species": [{ "element": "Si", "occu": 1 }],
        "abc": [0.25, 0.24755192, 0.39543025],
        "properties": { "magmom": -0.128 },
        "label": "Si",
        "xyz": [1.2410843575000001, 1.8827762648514035, 3.704135097327814]
      },
      {
        "species": [{ "element": "Si", "occu": 1 }],
        "abc": [0.75, 0.25247309, 0.89545624],
        "properties": { "magmom": -0.128 },
        "label": "Si",
        "xyz": [3.7232530725000004, 1.920207660261205, 8.38805151837431]
      },
      {
        "species": [{ "element": "Si", "occu": 1 }],
        "abc": [0.75, 0.75244808, 0.60456975],
        "properties": { "magmom": -0.128 },
        "label": "Si",
        "xyz": [3.7232530725000004, 5.722801395148597, 5.663223652672187]
      }
    ]
  },
  "task_ids": null,
  "uncorrected_energy_per_atom": null,
  "energy_per_atom": -29.136443181666667,
  "formation_energy_per_atom": -0.5312665066666681,
  "energy_above_hull": 0.0,
  "is_stable": true,
  "equilibrium_reaction_energy_per_atom": null,
  "decomposes_to": null,
  "xas": null,
  "grain_boundaries": null,
  "band_gap": 0.0,
  "cbm": null,
  "vbm": null,
  "efermi": 3.4385279,
  "is_gap_direct": null,
  "is_metal": null,
  "es_source_calc_id": null,
  "bandstructure": null,
  "dos": null,
  "dos_energy_up": null,
  "dos_energy_down": null,
  "is_magnetic": null,
  "ordering": null,
  "total_magnetization": 55.9999213,
  "total_magnetization_normalized_vol": null,
  "total_magnetization_normalized_formula_units": null,
  "num_magnetic_sites": null,
  "num_unique_magnetic_sites": null,
  "types_of_magnetic_species": null,
  "bulk_modulus": null,
  "shear_modulus": null,
  "universal_anisotropy": null,
  "homogeneous_poisson": null,
  "e_total": null,
  "e_ionic": null,
  "e_electronic": null,
  "n": null,
  "e_ij_max": null,
  "weighted_surface_energy_EV_PER_ANG2": null,
  "weighted_surface_energy": null,
  "weighted_work_function": null,
  "surface_anisotropy": null,
  "shape_factor": null,
  "has_reconstructed": null,
  "possible_species": null,
  "has_props": null,
  "theoretical": null,
  "database_IDs": null,
  "fields_not_requested": [
    "builder_meta",
    "nsites",
    "elements",
    "nelements",
    "composition",
    "composition_reduced",
    "chemsys",
    "symmetry",
    "property_name",
    "deprecated",
    "deprecation_reasons",
    "last_updated",
    "origins",
    "warnings",
    "task_ids",
    "uncorrected_energy_per_atom",
    "equilibrium_reaction_energy_per_atom",
    "decomposes_to",
    "xas",
    "grain_boundaries",
    "cbm",
    "vbm",
    "is_gap_direct",
    "is_metal",
    "es_source_calc_id",
    "bandstructure",
    "dos",
    "dos_energy_up",
    "dos_energy_down",
    "is_magnetic",
    "ordering",
    "total_magnetization_normalized_vol",
    "total_magnetization_normalized_formula_units",
    "num_magnetic_sites",
    "num_unique_magnetic_sites",
    "types_of_magnetic_species",
    "bulk_modulus",
    "shear_modulus",
    "universal_anisotropy",
    "homogeneous_poisson",
    "e_total",
    "e_ionic",
    "e_electronic",
    "n",
    "e_ij_max",
    "weighted_surface_energy_EV_PER_ANG2",
    "weighted_surface_energy",
    "weighted_work_function",
    "surface_anisotropy",
    "shape_factor",
    "has_reconstructed",
    "possible_species",
    "has_props",
    "theoretical",
    "database_IDs"
  ]
}
