{
  "builder_meta": null,
  "nsites": null,
  "elements": null,
  "nelements": null,
  "composition": null,
  "composition_reduced": null,
  "formula_pretty": "Eu2Sn",
  "formula_anonymous": "AB2",
  "chemsys": null,
  "volume": 395.4140784593443,
  "density": 7.099463051635872,
  "density_atomic": 32.951173204945356,
  "symmetry": null,
  "property_name": null,
  "material_id": "mp-1213070",
  "deprecated": null,
  "deprecation_reasons": null,
  "last_updated": null,
  "origins": null,
  "warnings": null,
  "structure": {
    "@module": "pymatgen.core.structure",
    "@class": "Structure",
    "charge": 0,
    "lattice": {
      "matrix": [
        [0.0, -5.52652288, 0.0],
        [-7.30441397, 0.0, 0.0],
        [0.0, 0.0, -9.79523314]
      ],
      "pbc": [true, true, true],
      "a": 5.52652288,
      "b": 7.30441397,
      "c": 9.79523314,
      "alpha": 90.0,
      "beta": 90.0,
      "gamma": 90.0,
      "volume": 395.4140784593443
    },
    "properties": {},
    "sites": [
      {
        "species": [{ "element": "Eu", "occu": 1 }],
        "abc": [0.75, 0.78511411, 0.91882602],
        "properties": { "magmom": 6.785 },
        "label": "Eu",
        "xyz": [-5.734798473128116, -4.1448921599999995, -9.000115080998304]
      },
      {
        "species": [{ "element": "Eu", "occu": 1 }],
        "abc": [0.25, 0.21491387, 0.08121085],
        "properties": { "magmom": 6.785 },
        "label": "Eu",
        "xyz": [-1.5698198743747638, -1.38163072, -0.7954792092475691]
      },
      {
        "species": [{ "element": "Eu", "occu": 1 }],
        "abc": [0.25, 0.7149138700000001, 0.41878915],
        "properties": { "magmom": 6.785 },
        "label": "Eu",
        "xyz": [-5.222026859374764, -1.38163072, -4.102137360752431]
      },
      {
        "species": [{ "element": "Eu", "occu": 1 }],
        "abc": [0.75, 0.28511411000000003, 0.58117398],
        "properties": { "magmom": 6.785 },
        "label": "Eu",
        "xyz": [-2.082591488128117, -4.1448921599999995, -5.692734629001698]
      },
      {
        "species": [{ "element": "Eu", "occu": 1 }],
        "abc": [0.75, 0.99177461, 0.27747784000000003],
        "properties": { "magmom": 6.865 },
        "label": "Eu",
        "xyz": [-7.244332316375301, -4.1448921599999995, -2.717960133983618]
      },
      {
        "species": [{ "element": "Eu", "occu": 1 }],
        "abc": [0.25, 0.00824049, 0.72253889],
        "properties": { "magmom": 6.865 },
        "label": "Eu",
        "xyz": [-0.06019195027564529, -1.38163072, -7.0774368802668155]
      },
      {
        "species": [{ "element": "Eu", "occu": 1 }],
        "abc": [0.25, 0.50824049, 0.7774611100000001],
        "properties": { "magmom": 6.865 },
        "label": "Eu",
        "xyz": [-3.7123989352756457, -1.38163072, -7.615412829733186]
      },
      {
        "species": [{ "element": "Eu", "occu": 1 }],
        "abc": [0.75, 0.49177461, 0.22252216],
        "properties": { "magmom": 6.865 },
        "label": "Eu",
        "xyz": [-3.5921253313753017, -4.1448921599999995, -2.1796564360163826]
      },
      {
        "species": [{ "element": "Sn", "occu": 1 }],
        "abc": [0.75, 0.75749601, 0.58852364],
        "properties": { "magmom": -0.17200000000000001 },
        "label": "Sn",
        "xyz": [-5.53306443766326, -4.1448921599999995, -5.76472626220143]
      },
      {
        "species": [{ "element": "Sn", "occu": 1 }],
        "abc": [0.25, 0.24246091, 0.41142322000000003],
        "properties": { "magmom": -0.17200000000000001 },
        "label": "Sn",
        "xyz": [-1.7710348581829127, -1.38163072, -4.029986359109511]
      },
      {
        "species": [{ "element": "Sn", "occu": 1 }],
        "abc": [0.25, 0.74246091, 0.08857678000000001],
        "properties": { "magmom": -0.17200000000000001 },
        "label": "Sn",
        "xyz": [-5.423241843182913, -1.38163072, -0.8676302108904893]
      },
      {
        "species": [{ "element": "Sn", "occu": 1 }],
        "abc": [0.75, 0.25749601, 0.91147636],
        "properties": { "magmom": -0.17200000000000001 },
        "label": "Sn",
        "xyz": [-1.8808574526632595, -4.1448921599999995, -8.928123447798571]
      }
    ]
  },
  "task_ids": null,
  "uncorrected_energy_per_atom": null,
  "energy_per_atom": -34.68012856166667,
  "formation_energy_per_atom": -0.750812158333336,
  "energy_above_hull": 0.0,
  "is_stable": true,
  "equilibrium_reaction_energy_per_atom": null,
  "decomposes_to": null,
  "xas": null,
  "grain_boundaries": null,
  "band_gap": 0.0,
  "cbm": null,
  "vbm": null,
  "efermi": 3.76254905,
  "is_gap_direct": null,
  "is_metal": null,
  "es_source_calc_id": null,
  "bandstructure": null,
  "dos": null,
  "dos_energy_up": null,
  "dos_energy_down": null,
  "is_magnetic": null,
  "ordering": null,
  "total_magnetization": 56.136304,
  "total_magnetization_normalized_vol": null,
  "total_magnetization_normalized_formula_units": null,
  "num_magnetic_sites": null,
  "num_unique_magnetic_sites": null,
  "types_of_magnetic_species": null,
  "bulk_modulus": null,
  "shear_modulus": null,
  "universal_anisotropy": null,
  "homogeneous_poisson": null,
  "e_total": null,
  "e_ionic": null,
  "e_electronic": null,
  "n": null,
  "e_ij_max": null,
  "weighted_surface_energy_EV_PER_ANG2": null,
  "weighted_surface_energy": null,
  "weighted_work_function": null,
  "surface_anisotropy": null,
  "shape_factor": null,
  "has_reconstructed": null,
  "possible_species": null,
  "has_props": null,
  "theoretical": null,
  "database_IDs": null,
  "fields_not_requested": [
    "builder_meta",
    "nsites",
    "elements",
    "nelements",
    "composition",
    "composition_reduced",
    "chemsys",
    "symmetry",
    "property_name",
    "deprecated",
    "deprecation_reasons",
    "last_updated",
    "origins",
    "warnings",
    "task_ids",
    "uncorrected_energy_per_atom",
    "equilibrium_reaction_energy_per_atom",
    "decomposes_to",
    "xas",
    "grain_boundaries",
    "cbm",
    "vbm",
    "is_gap_direct",
    "is_metal",
    "es_source_calc_id",
    "bandstructure",
    "dos",
    "dos_energy_up",
    "dos_energy_down",
    "is_magnetic",
    "ordering",
    "total_magnetization_normalized_vol",
    "total_magnetization_normalized_formula_units",
    "num_magnetic_sites",
    "num_unique_magnetic_sites",
    "types_of_magnetic_species",
    "bulk_modulus",
    "shear_modulus",
    "universal_anisotropy",
    "homogeneous_poisson",
    "e_total",
    "e_ionic",
    "e_electronic",
    "n",
    "e_ij_max",
    "weighted_surface_energy_EV_PER_ANG2",
    "weighted_surface_energy",
    "weighted_work_function",
    "surface_anisotropy",
    "shape_factor",
    "has_reconstructed",
    "possible_species",
    "has_props",
    "theoretical",
    "database_IDs"
  ]
}
