{
  "builder_meta": null,
  "nsites": null,
  "elements": null,
  "nelements": null,
  "composition": null,
  "composition_reduced": null,
  "formula_pretty": "Eu2S3",
  "formula_anonymous": "A2B3",
  "chemsys": null,
  "volume": 461.5678901418268,
  "density": 5.757938428004897,
  "density_atomic": 23.07839450709134,
  "symmetry": null,
  "property_name": null,
  "material_id": "mp-1106110",
  "deprecated": null,
  "deprecation_reasons": null,
  "last_updated": null,
  "origins": null,
  "warnings": null,
  "structure": {
    "@module": "pymatgen.core.structure",
    "@class": "Structure",
    "charge": 0,
    "lattice": {
      "matrix": [
        [0.0, -4.082933, 0.0],
        [-7.405822, 0.0, 0.0],
        [0.0, 0.0, -15.264763]
      ],
      "pbc": [true, true, true],
      "a": 4.082933,
      "b": 7.405822,
      "c": 15.264763,
      "alpha": 90.0,
      "beta": 90.0,
      "gamma": 90.0,
      "volume": 461.5678901418268
    },
    "properties": {},
    "sites": [
      {
        "species": [{ "element": "Eu", "occu": 1 }],
        "abc": [0.75, 0.729883, 0.042165],
        "properties": { "magmom": 6.462 },
        "label": "Eu",
        "xyz": [-5.405383578825999, -3.0621997499999996, -0.643638731895]
      },
      {
        "species": [{ "element": "Eu", "occu": 1 }],
        "abc": [0.75, 0.229882999999999, 0.457835],
        "properties": { "magmom": 6.462 },
        "label": "Eu",
        "xyz": [-1.7024725788259925, -3.0621997499999996, -6.988742768105]
      },
      {
        "species": [{ "element": "Eu", "occu": 1 }],
        "abc": [0.25, 0.270117, 0.957835],
        "properties": { "magmom": 6.462 },
        "label": "Eu",
        "xyz": [-2.000438421174, -1.02073325, -14.621124268105]
      },
      {
        "species": [{ "element": "Eu", "occu": 1 }],
        "abc": [0.25, 0.770116999999999, 0.542165],
        "properties": { "magmom": 6.462 },
        "label": "Eu",
        "xyz": [-5.703349421173993, -1.02073325, -8.276020231895]
      },
      {
        "species": [{ "element": "Eu", "occu": 1 }],
        "abc": [0.75, 0.359089, 0.706039],
        "properties": { "magmom": 6.499 },
        "label": "Eu",
        "xyz": [-2.6593492161579997, -3.0621997499999996, -10.777518003757]
      },
      {
        "species": [{ "element": "Eu", "occu": 1 }],
        "abc": [0.75, 0.859089, 0.793960999999999],
        "properties": { "magmom": 6.499 },
        "label": "Eu",
        "xyz": [-6.362260216158, -3.0621997499999996, -12.119626496242985]
      },
      {
        "species": [{ "element": "Eu", "occu": 1 }],
        "abc": [0.25, 0.640911, 0.293961],
        "properties": { "magmom": 6.499 },
        "label": "Eu",
        "xyz": [-4.746472783842, -1.02073325, -4.487244996243]
      },
      {
        "species": [{ "element": "Eu", "occu": 1 }],
        "abc": [0.25, 0.140910999999999, 0.206039],
        "properties": { "magmom": 6.499 },
        "label": "Eu",
        "xyz": [-1.0435617838419926, -1.02073325, -3.145136503757]
      },
      {
        "species": [{ "element": "S", "occu": 1 }],
        "abc": [0.75, 0.493378, 0.891883],
        "properties": { "magmom": -0.242 },
        "label": "S",
        "xyz": [-3.6538696467159997, -3.0621997499999996, -13.614382618729]
      },
      {
        "species": [{ "element": "S", "occu": 1 }],
        "abc": [0.75, 0.993378, 0.608117],
        "properties": { "magmom": -0.242 },
        "label": "S",
        "xyz": [-7.3567806467159995, -3.0621997499999996, -9.282761881271]
      },
      {
        "species": [{ "element": "S", "occu": 1 }],
        "abc": [0.25, 0.506622, 0.108116999999999],
        "properties": { "magmom": -0.242 },
        "label": "S",
        "xyz": [-3.751952353284, -1.02073325, -1.6503803812709847]
      },
      {
        "species": [{ "element": "S", "occu": 1 }],
        "abc": [0.25, 0.006621999999999, 0.391883],
        "properties": { "magmom": -0.242 },
        "label": "S",
        "xyz": [-0.049041353283992596, -1.02073325, -5.982001118728999]
      },
      {
        "species": [{ "element": "S", "occu": 1 }],
        "abc": [0.75, 0.353836999999999, 0.281875999999999],
        "properties": { "magmom": -0.254 },
        "label": "S",
        "xyz": [-2.6204538390139924, -3.0621997499999996, -4.302770335387985]
      },
      {
        "species": [{ "element": "S", "occu": 1 }],
        "abc": [0.75, 0.853837, 0.218123999999999],
        "properties": { "magmom": -0.254 },
        "label": "S",
        "xyz": [-6.323364839013999, -3.0621997499999996, -3.329611164611985]
      },
      {
        "species": [{ "element": "S", "occu": 1 }],
        "abc": [0.25, 0.646162999999999, 0.718124],
        "properties": { "magmom": -0.254 },
        "label": "S",
        "xyz": [-4.785368160985993, -1.02073325, -10.961992664612]
      },
      {
        "species": [{ "element": "S", "occu": 1 }],
        "abc": [0.25, 0.146163, 0.781876],
        "properties": { "magmom": -0.254 },
        "label": "S",
        "xyz": [-1.0824571609859999, -1.02073325, -11.935151835388]
      },
      {
        "species": [{ "element": "S", "occu": 1 }],
        "abc": [0.75, 0.12849000000000002, 0.067622],
        "properties": { "magmom": -0.294 },
        "label": "S",
        "xyz": [-0.9515740687800001, -3.0621997499999996, -1.0322338035860001]
      },
      {
        "species": [{ "element": "S", "occu": 1 }],
        "abc": [0.75, 0.6284900000000001, 0.432378],
        "properties": { "magmom": -0.294 },
        "label": "S",
        "xyz": [-4.654485068780001, -3.0621997499999996, -6.600147696414]
      },
      {
        "species": [{ "element": "S", "occu": 1 }],
        "abc": [0.25, 0.8715100000000001, 0.932377999999999],
        "properties": { "magmom": -0.294 },
        "label": "S",
        "xyz": [-6.45424793122, -1.02073325, -14.232529196413985]
      },
      {
        "species": [{ "element": "S", "occu": 1 }],
        "abc": [0.25, 0.37151, 0.567622],
        "properties": { "magmom": -0.294 },
        "label": "S",
        "xyz": [-2.75133693122, -1.02073325, -8.664615303586]
      }
    ]
  },
  "task_ids": null,
  "uncorrected_energy_per_atom": null,
  "energy_per_atom": -22.128745753479166,
  "formation_energy_per_atom": -1.899393218166665,
  "energy_above_hull": 0.098327728000001,
  "is_stable": false,
  "equilibrium_reaction_energy_per_atom": null,
  "decomposes_to": null,
  "xas": null,
  "grain_boundaries": null,
  "band_gap": 0.0,
  "cbm": null,
  "vbm": null,
  "efermi": 3.07565358,
  "is_gap_direct": null,
  "is_metal": null,
  "es_source_calc_id": null,
  "bandstructure": null,
  "dos": null,
  "dos_energy_up": null,
  "dos_energy_down": null,
  "is_magnetic": null,
  "ordering": null,
  "total_magnetization": 48.0280776,
  "total_magnetization_normalized_vol": null,
  "total_magnetization_normalized_formula_units": null,
  "num_magnetic_sites": null,
  "num_unique_magnetic_sites": null,
  "types_of_magnetic_species": null,
  "bulk_modulus": null,
  "shear_modulus": null,
  "universal_anisotropy": null,
  "homogeneous_poisson": null,
  "e_total": null,
  "e_ionic": null,
  "e_electronic": null,
  "n": null,
  "e_ij_max": null,
  "weighted_surface_energy_EV_PER_ANG2": null,
  "weighted_surface_energy": null,
  "weighted_work_function": null,
  "surface_anisotropy": null,
  "shape_factor": null,
  "has_reconstructed": null,
  "possible_species": null,
  "has_props": null,
  "theoretical": null,
  "database_IDs": null,
  "fields_not_requested": [
    "builder_meta",
    "nsites",
    "elements",
    "nelements",
    "composition",
    "composition_reduced",
    "chemsys",
    "symmetry",
    "property_name",
    "deprecated",
    "deprecation_reasons",
    "last_updated",
    "origins",
    "warnings",
    "task_ids",
    "uncorrected_energy_per_atom",
    "equilibrium_reaction_energy_per_atom",
    "decomposes_to",
    "xas",
    "grain_boundaries",
    "cbm",
    "vbm",
    "is_gap_direct",
    "is_metal",
    "es_source_calc_id",
    "bandstructure",
    "dos",
    "dos_energy_up",
    "dos_energy_down",
    "is_magnetic",
    "ordering",
    "total_magnetization_normalized_vol",
    "total_magnetization_normalized_formula_units",
    "num_magnetic_sites",
    "num_unique_magnetic_sites",
    "types_of_magnetic_species",
    "bulk_modulus",
    "shear_modulus",
    "universal_anisotropy",
    "homogeneous_poisson",
    "e_total",
    "e_ionic",
    "e_electronic",
    "n",
    "e_ij_max",
    "weighted_surface_energy_EV_PER_ANG2",
    "weighted_surface_energy",
    "weighted_work_function",
    "surface_anisotropy",
    "shape_factor",
    "has_reconstructed",
    "possible_species",
    "has_props",
    "theoretical",
    "database_IDs"
  ]
}
