{"builder_meta": null, "nsites": null, "elements": null, "nelements": null, "composition": null, "composition_reduced": null, "formula_pretty": "Eu2Se3", "formula_anonymous": "A2B3", "chemsys": null, "volume": 660.3493202800105, "density": 5.439743989735715, "density_atomic": 33.017466014000526, "symmetry": null, "property_name": null, "material_id": "mp-1189540", "deprecated": null, "deprecation_reasons": null, "last_updated": null, "origins": null, "warnings": null, "structure": {"@module": "pymatgen.core.structure", "@class": "Structure", "charge": 0, "lattice": {"matrix": [[0.0, 6.026925, 12.865694], [4.258089, 0.0, 12.865694], [4.258089, 6.026925, 0.0]], "pbc": [true, true, true], "a": 14.207389171035647, "b": 13.552025827659753, "c": 7.379373068733279, "alpha": 79.5543156891416, "beta": 69.72882446453713, "gamma": 30.716859846321277, "volume": 660.3493202800105}, "properties": {}, "sites": [{"species": [{"element": "Eu", "occu": 1}], "abc": [0.335337999999999, 0.335337999999999, 0.164662], "properties": {"magmom": 6.507}, "label": "Eu", "xyz": [2.129044499999996, 3.0134624999999944, 8.628712189143975]}, {"species": [{"element": "Eu", "occu": 1}], "abc": [0.164662, 0.164662, 0.335337999999999], "properties": {"magmom": 6.513}, "label": "Eu", "xyz": [2.129044499999996, 3.0134624999999944, 4.236981810856]}, {"species": [{"element": "Eu", "occu": 1}], "abc": [0.914662, 0.914662, 0.085338], "properties": {"magmom": 6.507}, "label": "Eu", "xyz": [4.258089, 6.026925, 23.535522810855998]}, {"species": [{"element": "Eu", "occu": 1}], "abc": [0.085338, 0.085338, 0.914662], "properties": {"magmom": 6.513}, "label": "Eu", "xyz": [4.258089, 6.026925, 2.195865189144]}, {"species": [{"element": "Eu", "occu": 1}], "abc": [0.996448999999999, 0.996448999999999, 0.503551], "properties": {"magmom": 6.54}, "label": "Eu", "xyz": [6.387133499999996, 9.040387499999994, 25.640015841211973]}, {"species": [{"element": "Eu", "occu": 1}], "abc": [0.503551, 0.503551, 0.996448999999999], "properties": {"magmom": 6.55}, "label": "Eu", "xyz": [6.387133499999996, 9.040387499999994, 12.957066158787999]}, {"species": [{"element": "Eu", "occu": 1}], "abc": [0.253550999999999, 0.253550999999999, 0.746448999999999], "properties": {"magmom": 6.54}, "label": "Eu", "xyz": [4.258088999999992, 6.026924999999988, 6.524219158787974]}, {"species": [{"element": "Eu", "occu": 1}], "abc": [0.746448999999999, 0.746448999999999, 0.253550999999999], "properties": {"magmom": 6.55}, "label": "Eu", "xyz": [4.258088999999992, 6.026924999999988, 19.207168841211974]}, {"species": [{"element": "Se", "occu": 1}], "abc": [0.018376, 0.481624, 0.481624], "properties": {"magmom": -0.292}, "label": "Se", "xyz": [4.101595713072, 3.0134625, 6.432847]}, {"species": [{"element": "Se", "occu": 1}], "abc": [0.481624, 0.018376, 0.018376], "properties": {"magmom": -0.29}, "label": "Se", "xyz": [0.156493286928, 3.0134625, 6.432847]}, {"species": [{"element": "Se", "occu": 1}], "abc": [0.231624, 0.768376, 0.768376], "properties": {"magmom": -0.292}, "label": "Se", "xyz": [6.543626786928, 6.026925, 12.865693999999998]}, {"species": [{"element": "Se", "occu": 1}], "abc": [0.768376, 0.231624, 0.231624], "properties": {"magmom": -0.29}, "label": "Se", "xyz": [1.972551213072, 6.026925, 12.865693999999998]}, {"species": [{"element": "Se", "occu": 1}], "abc": [0.6641900000000001, 0.175464999999999, 0.851394], "properties": {"magmom": -0.256}, "label": "Se", "xyz": [4.372457012450996, 9.134311099200001, 10.802744295569987]}, {"species": [{"element": "Se", "occu": 1}], "abc": [0.851394, 0.30895, 0.6641900000000001], "properties": {"magmom": -0.249}, "label": "Se", "xyz": [4.14371672946, 9.134311099200001, 14.928630838736]}, {"species": [{"element": "Se", "occu": 1}], "abc": [0.30895, 0.851394, 0.175464999999999], "properties": {"magmom": -0.255}, "label": "Se", "xyz": [4.372457012450996, 2.919532873874994, 14.928630838736]}, {"species": [{"element": "Se", "occu": 1}], "abc": [0.175464999999999, 0.6641900000000001, 0.30895], "properties": {"magmom": -0.26}, "label": "Se", "xyz": [4.14371672946, 2.919532873874994, 10.802744295569987]}, {"species": [{"element": "Se", "occu": 1}], "abc": [0.58581, 0.074534999999999, 0.398605999999999], "properties": {"magmom": -0.256}, "label": "Se", "xyz": [2.0146764875489915, 5.933001400799995, 8.495796704429988]}, {"species": [{"element": "Se", "occu": 1}], "abc": [0.398605999999999, 0.94105, 0.58581], "properties": {"magmom": -0.249}, "label": "Se", "xyz": [6.501505770540001, 5.933001400799995, 17.23560416126399]}, {"species": [{"element": "Se", "occu": 1}], "abc": [0.94105, 0.398605999999999, 0.074534999999999], "properties": {"magmom": -0.255}, "label": "Se", "xyz": [2.0146764875489915, 6.120854626124994, 17.23560416126399]}, {"species": [{"element": "Se", "occu": 1}], "abc": [0.074534999999999, 0.58581, 0.94105], "properties": {"magmom": -0.26}, "label": "Se", "xyz": [6.501505770540001, 6.120854626124994, 8.495796704429988]}]}, "task_ids": null, "uncorrected_energy_per_atom": null, "energy_per_atom": -25.722801215687497, "formation_energy_per_atom": -1.727511991124998, "energy_above_hull": 0.158325994500003, "is_stable": false, "equilibrium_reaction_energy_per_atom": null, "decomposes_to": null, "xas": null, "grain_boundaries": null, "band_gap": 0.0, "cbm": null, "vbm": null, "efermi": 0.5975139700000001, "is_gap_direct": null, "is_metal": null, "es_source_calc_id": null, "bandstructure": null, "dos": null, "dos_energy_up": null, "dos_energy_down": null, "is_magnetic": null, "ordering": null, "total_magnetization": 48.0000002, "total_magnetization_normalized_vol": null, "total_magnetization_normalized_formula_units": null, "num_magnetic_sites": null, "num_unique_magnetic_sites": null, "types_of_magnetic_species": null, "bulk_modulus": null, "shear_modulus": null, "universal_anisotropy": null, "homogeneous_poisson": null, "e_total": null, "e_ionic": null, "e_electronic": null, "n": null, "e_ij_max": null, "weighted_surface_energy_EV_PER_ANG2": null, "weighted_surface_energy": null, "weighted_work_function": null, "surface_anisotropy": null, "shape_factor": null, "has_reconstructed": null, "possible_species": null, "has_props": null, "theoretical": null, "database_IDs": null, "fields_not_requested": ["builder_meta", "nsites", "elements", "nelements", "composition", "composition_reduced", "chemsys", "symmetry", "property_name", "deprecated", "deprecation_reasons", "last_updated", "origins", "warnings", "task_ids", "uncorrected_energy_per_atom", "equilibrium_reaction_energy_per_atom", "decomposes_to", "xas", "grain_boundaries", "cbm", "vbm", "is_gap_direct", "is_metal", "es_source_calc_id", "bandstructure", "dos", "dos_energy_up", "dos_energy_down", "is_magnetic", "ordering", "total_magnetization_normalized_vol", "total_magnetization_normalized_formula_units", "num_magnetic_sites", "num_unique_magnetic_sites", "types_of_magnetic_species", "bulk_modulus", "shear_modulus", "universal_anisotropy", "homogeneous_poisson", "e_total", "e_ionic", "e_electronic", "n", "e_ij_max", "weighted_surface_energy_EV_PER_ANG2", "weighted_surface_energy", "weighted_work_function", "surface_anisotropy", "shape_factor", "has_reconstructed", "possible_species", "has_props", "theoretical", "database_IDs"]}