{"builder_meta": null, "nsites": null, "elements": null, "nelements": null, "composition": null, "composition_reduced": null, "formula_pretty": "Eu3Au2", "formula_anonymous": "A2B3", "chemsys": null, "volume": 449.64942472352755, "density": 9.415120517247919, "density_atomic": 29.976628314901838, "symmetry": null, "property_name": null, "material_id": "mp-1104457", "deprecated": null, "deprecation_reasons": null, "last_updated": null, "origins": null, "warnings": null, "structure": {"@module": "pymatgen.core.structure", "@class": "Structure", "charge": 0, "lattice": {"matrix": [[4.64279333, 2.68058239, 6.02168922], [-4.64295015, 2.6805073200000002, 6.0216657], [0.00021049, -5.361019, 6.02165065]], "pbc": [true, true, true], "a": 8.062368939519875, "b": 8.062416721462311, "c": 8.062307443487407, "alpha": 70.32117626615148, "beta": 70.31946926063172, "gamma": 70.32084301610588, "volume": 449.64942472352755}, "properties": {}, "sites": [{"species": [{"element": "Eu", "occu": 1}], "abc": [-0.0, 0.0, -0.0], "properties": {"magmom": 6.869}, "label": "Eu", "xyz": [0.0, 0.0, 0.0]}, {"species": [{"element": "Eu", "occu": 1}], "abc": [0.80159826, 0.80158675, 0.80160192], "properties": {"magmom": 6.875}, "label": "Eu", "xyz": [9.64629052341144e-05, 6.207044171979703e-06, 14.48082976167148]}, {"species": [{"element": "Eu", "occu": 1}], "abc": [0.19840174, 0.19841325, 0.19839808], "properties": {"magmom": 6.875}, "label": "Eu", "xyz": [-4.279290523428292e-05, 6.450295582860477e-05, 3.58417580832852]}, {"species": [{"element": "Eu", "occu": 1}], "abc": [0.59703961, 0.33904121, 0.84214641], "properties": {"magmom": 6.88}, "label": "Eu", "xyz": [1.1979573456259611, -2.005546594906665, 10.707891285765168]}, {"species": [{"element": "Eu", "occu": 1}], "abc": [0.33904295, 0.84213541, 0.59703736], "properties": {"magmom": 6.88}, "label": "Eu", "xyz": [-2.335760710942382, -0.03454593850998755, 10.70781959720272]}, {"species": [{"element": "Eu", "occu": 1}], "abc": [0.8421394400000001, 0.59703993, 0.33904877], "properties": {"magmom": 6.88}, "label": "Eu", "xyz": [1.1379241087880432, 2.0401471575891197, 10.707910101848439]}, {"species": [{"element": "Eu", "occu": 1}], "abc": [0.40296039, 0.66095879, 0.15785359000000002], "properties": {"magmom": 6.88}, "label": "Eu", "xyz": [-1.1979036756259605, 2.005617304906665, 7.357114284234832]}, {"species": [{"element": "Eu", "occu": 1}], "abc": [0.66095705, 0.15786459, 0.40296264], "properties": {"magmom": 6.88}, "label": "Eu", "xyz": [2.3358143809423817, 0.03461664850998902, 7.35718597279728]}, {"species": [{"element": "Eu", "occu": 1}], "abc": [0.15786056, 0.40296007, 0.66095123], "properties": {"magmom": 6.88}, "label": "Eu", "xyz": [-1.1378704387880432, -2.040076447589119, 7.357095468151561]}, {"species": [{"element": "Au", "occu": 1}], "abc": [0.95637205, 0.1610078, 0.5902027400000001], "properties": {"magmom": 0.017}, "label": "Au", "xyz": [3.6928108173519996, -0.16887144099676465, 10.282505123439542]}, {"species": [{"element": "Au", "occu": 1}], "abc": [0.16104781, 0.59020878, 0.95635397], "properties": {"magmom": 0.018000000000000002}, "label": "Au", "xyz": [-1.9923969426060646, -3.113270925343094, 10.282649332827035]}, {"species": [{"element": "Au", "occu": 1}], "abc": [0.59019059, 0.95633833, 0.16106713], "properties": {"magmom": 0.017}, "label": "Au", "xyz": [-1.7000643550232917, 3.2820424520538154, 10.282584020962856]}, {"species": [{"element": "Au", "occu": 1}], "abc": [0.04362795, 0.8389922, 0.40979726], "properties": {"magmom": 0.017}, "label": "Au", "xyz": [-3.692757147351999, 0.16894215099676435, 7.782500446560458]}, {"species": [{"element": "Au", "occu": 1}], "abc": [0.83895219, 0.40979122, 0.04364603], "properties": {"magmom": 0.018000000000000002}, "label": "Au", "xyz": [1.9924506126060644, 3.1133416353430947, 7.782356237172964]}, {"species": [{"element": "Au", "occu": 1}], "abc": [0.40980941, 0.04366167, 0.83893287], "properties": {"magmom": 0.017}, "label": "Au", "xyz": [1.700118025023291, -3.2819717420538157, 7.782421549037145]}]}, "task_ids": null, "uncorrected_energy_per_atom": null, "energy_per_atom": -8.174148832666667, "formation_energy_per_atom": -0.6917288836666691, "energy_above_hull": 0.0, "is_stable": true, "equilibrium_reaction_energy_per_atom": null, "decomposes_to": null, "xas": null, "grain_boundaries": null, "band_gap": 0.0, "cbm": null, "vbm": null, "efermi": 3.09154134, "is_gap_direct": null, "is_metal": null, "es_source_calc_id": null, "bandstructure": null, "dos": null, "dos_energy_up": null, "dos_energy_down": null, "is_magnetic": null, "ordering": null, "total_magnetization": 66.9110549, "total_magnetization_normalized_vol": null, "total_magnetization_normalized_formula_units": null, "num_magnetic_sites": null, "num_unique_magnetic_sites": null, "types_of_magnetic_species": null, "bulk_modulus": null, "shear_modulus": null, "universal_anisotropy": null, "homogeneous_poisson": null, "e_total": null, "e_ionic": null, "e_electronic": null, "n": null, "e_ij_max": null, "weighted_surface_energy_EV_PER_ANG2": null, "weighted_surface_energy": null, "weighted_work_function": null, "surface_anisotropy": null, "shape_factor": null, "has_reconstructed": null, "possible_species": null, "has_props": null, "theoretical": null, "database_IDs": null, "fields_not_requested": ["builder_meta", "nsites", "elements", "nelements", "composition", "composition_reduced", "chemsys", "symmetry", "property_name", "deprecated", "deprecation_reasons", "last_updated", "origins", "warnings", "task_ids", "uncorrected_energy_per_atom", "equilibrium_reaction_energy_per_atom", "decomposes_to", "xas", "grain_boundaries", "cbm", "vbm", "is_gap_direct", "is_metal", "es_source_calc_id", "bandstructure", "dos", "dos_energy_up", "dos_energy_down", "is_magnetic", "ordering", "total_magnetization_normalized_vol", "total_magnetization_normalized_formula_units", "num_magnetic_sites", "num_unique_magnetic_sites", "types_of_magnetic_species", "bulk_modulus", "shear_modulus", "universal_anisotropy", "homogeneous_poisson", "e_total", "e_ionic", "e_electronic", "n", "e_ij_max", "weighted_surface_energy_EV_PER_ANG2", "weighted_surface_energy", "weighted_work_function", "surface_anisotropy", "shape_factor", "has_reconstructed", "possible_species", "has_props", "theoretical", "database_IDs"]}