{
  "builder_meta": null,
  "nsites": null,
  "elements": null,
  "nelements": null,
  "composition": null,
  "composition_reduced": null,
  "formula_pretty": "Eu3Ag2",
  "formula_anonymous": "A2B3",
  "chemsys": null,
  "volume": 309.795410807696,
  "density": 7.20001108815874,
  "density_atomic": 30.9795410807696,
  "symmetry": null,
  "property_name": null,
  "material_id": "mp-621667",
  "deprecated": null,
  "deprecation_reasons": null,
  "last_updated": null,
  "origins": null,
  "warnings": null,
  "structure": {
    "@module": "pymatgen.core.structure",
    "@class": "Structure",
    "charge": 0,
    "lattice": {
      "matrix": [
        [4.3545106, 0.0, 0.0],
        [0.0, 8.43465072, 0.00026213],
        [0.0, 0.00026318, 8.43467834]
      ],
      "pbc": [true, true, true],
      "a": 4.3545106,
      "b": 8.434650724073206,
      "c": 8.434678344105889,
      "alpha": 89.99643162502542,
      "beta": 90.0,
      "gamma": 90.0,
      "volume": 309.795410807696
    },
    "properties": {},
    "sites": [
      {
        "species": [{ "element": "Eu", "occu": 1 }],
        "abc": [0.5, 0.16564685, 0.66564256],
        "properties": { "magmom": 6.866 },
        "label": "Eu",
        "xyz": [2.1772553, 1.397348506427173, 5.6145243040229404]
      },
      {
        "species": [{ "element": "Eu", "occu": 1 }],
        "abc": [0.5, 0.66564459, 0.83435625],
        "properties": { "magmom": 6.866 },
        "label": "Eu",
        "xyz": [2.1772553, 5.614699206185479, 7.0377010751350015]
      },
      {
        "species": [{ "element": "Eu", "occu": 1 }],
        "abc": [0.5, 0.33435524, 0.16564406],
        "properties": { "magmom": 6.866 },
        "label": "Eu",
        "xyz": [2.1772553, 2.8202132600054837, 1.3972420095707216]
      },
      {
        "species": [{ "element": "Eu", "occu": 1 }],
        "abc": [-0.0, -8.9e-7, 2.35e-6],
        "properties": { "magmom": 6.952 },
        "label": "Eu",
        "xyz": [0.0, -7.5062206678e-6, 1.98212608033e-5]
      },
      {
        "species": [{ "element": "Eu", "occu": 1 }],
        "abc": [0.5, 0.83435509, 0.33435507000000003],
        "properties": { "magmom": 6.866 },
        "label": "Eu",
        "xyz": [2.1772553, 7.0375817561714875, 2.8203961762979257]
      },
      {
        "species": [{ "element": "Eu", "occu": 1 }],
        "abc": [0.0, 0.5000027300000001, 0.49999851],
        "properties": { "magmom": 6.952 },
        "label": "Eu",
        "xyz": [0.0, 4.217479976204328, 4.217457668044888]
      },
      {
        "species": [{ "element": "Ag", "occu": 1 }],
        "abc": [-0.0, 0.37707679, 0.87707072],
        "properties": { "magmom": 0.016 },
        "label": "Ag",
        "xyz": [0.0, 3.1807418457408785, 7.397908247771166]
      },
      {
        "species": [{ "element": "Ag", "occu": 1 }],
        "abc": [0.0, 0.1229243, 0.37707947],
        "properties": { "magmom": 0.016 },
        "label": "Ag",
        "xyz": [0.0, 1.0369227752754107, 3.1805762602144387]
      },
      {
        "species": [{ "element": "Ag", "occu": 1 }],
        "abc": [0.0, 0.622916, 0.12293286],
        "properties": { "magmom": 0.016 },
        "label": "Ag",
        "xyz": [0.0, 5.254111241369616, 1.0370624164873323]
      },
      {
        "species": [{ "element": "Ag", "occu": 1 }],
        "abc": [0.0, 0.87707828, 0.62291915],
        "properties": { "magmom": 0.016 },
        "label": "Ag",
        "xyz": [0.0, 7.398012885760259, 5.254352570605747]
      }
    ]
  },
  "task_ids": null,
  "uncorrected_energy_per_atom": null,
  "energy_per_atom": -31.920408907000002,
  "formation_energy_per_atom": -0.26552841999999804,
  "energy_above_hull": 0.0,
  "is_stable": true,
  "equilibrium_reaction_energy_per_atom": null,
  "decomposes_to": null,
  "xas": null,
  "grain_boundaries": null,
  "band_gap": 0.0,
  "cbm": null,
  "vbm": null,
  "efermi": 2.38121233,
  "is_gap_direct": null,
  "is_metal": null,
  "es_source_calc_id": null,
  "bandstructure": null,
  "dos": null,
  "dos_energy_up": null,
  "dos_energy_down": null,
  "is_magnetic": null,
  "ordering": null,
  "total_magnetization": 44.7560709,
  "total_magnetization_normalized_vol": null,
  "total_magnetization_normalized_formula_units": null,
  "num_magnetic_sites": null,
  "num_unique_magnetic_sites": null,
  "types_of_magnetic_species": null,
  "bulk_modulus": null,
  "shear_modulus": null,
  "universal_anisotropy": null,
  "homogeneous_poisson": null,
  "e_total": null,
  "e_ionic": null,
  "e_electronic": null,
  "n": null,
  "e_ij_max": null,
  "weighted_surface_energy_EV_PER_ANG2": null,
  "weighted_surface_energy": null,
  "weighted_work_function": null,
  "surface_anisotropy": null,
  "shape_factor": null,
  "has_reconstructed": null,
  "possible_species": null,
  "has_props": null,
  "theoretical": null,
  "database_IDs": null,
  "fields_not_requested": [
    "builder_meta",
    "nsites",
    "elements",
    "nelements",
    "composition",
    "composition_reduced",
    "chemsys",
    "symmetry",
    "property_name",
    "deprecated",
    "deprecation_reasons",
    "last_updated",
    "origins",
    "warnings",
    "task_ids",
    "uncorrected_energy_per_atom",
    "equilibrium_reaction_energy_per_atom",
    "decomposes_to",
    "xas",
    "grain_boundaries",
    "cbm",
    "vbm",
    "is_gap_direct",
    "is_metal",
    "es_source_calc_id",
    "bandstructure",
    "dos",
    "dos_energy_up",
    "dos_energy_down",
    "is_magnetic",
    "ordering",
    "total_magnetization_normalized_vol",
    "total_magnetization_normalized_formula_units",
    "num_magnetic_sites",
    "num_unique_magnetic_sites",
    "types_of_magnetic_species",
    "bulk_modulus",
    "shear_modulus",
    "universal_anisotropy",
    "homogeneous_poisson",
    "e_total",
    "e_ionic",
    "e_electronic",
    "n",
    "e_ij_max",
    "weighted_surface_energy_EV_PER_ANG2",
    "weighted_surface_energy",
    "weighted_work_function",
    "surface_anisotropy",
    "shape_factor",
    "has_reconstructed",
    "possible_species",
    "has_props",
    "theoretical",
    "database_IDs"
  ]
}
