{
  "builder_meta": null,
  "nsites": null,
  "elements": null,
  "nelements": null,
  "composition": null,
  "composition_reduced": null,
  "formula_pretty": "Eu3Au",
  "formula_anonymous": "AB3",
  "chemsys": null,
  "volume": 556.090062711846,
  "density": 7.797996989928788,
  "density_atomic": 34.75562891949038,
  "symmetry": null,
  "property_name": null,
  "material_id": "mp-1189094",
  "deprecated": null,
  "deprecation_reasons": null,
  "last_updated": null,
  "origins": null,
  "warnings": null,
  "structure": {
    "@module": "pymatgen.core.structure",
    "@class": "Structure",
    "charge": 0,
    "lattice": {
      "matrix": [
        [-0.00028698, -0.00024924, 6.94824585],
        [7.83014676, 0.00101103, -0.00036073],
        [0.0013479, 10.22115712, -0.00037112]
      ],
      "pbc": [true, true, true],
      "a": 6.9482458603967325,
      "b": 7.830146833581494,
      "c": 10.22115721561366,
      "alpha": 89.98504606630114,
      "beta": 90.00413591708696,
      "gamma": 90.00500630587557,
      "volume": 556.090062711846
    },
    "properties": {},
    "sites": [
      {
        "species": [{ "element": "Eu", "occu": 1 }],
        "abc": [0.33333574, 0.67564693, 0.060156390000000004],
        "properties": { "magmom": 6.948 },
        "label": "Eu",
        "xyz": [5.290400043950863, 0.6154679326777972, 2.3158326207551636]
      },
      {
        "species": [{ "element": "Eu", "occu": 1 }],
        "abc": [0.16647461, 0.17579734, 0.44009931],
        "properties": { "magmom": 6.947 },
        "label": "Eu",
        "xyz": [1.3770644071939895, 4.498460440166451, 1.156479773032483]
      },
      {
        "species": [{ "element": "Eu", "occu": 1 }],
        "abc": [0.66646576, 0.32420291, 0.55990061],
        "properties": { "magmom": 6.947 },
        "label": "Eu",
        "xyz": [2.539119793007486, 5.722993775335919, 4.630443211056988]
      },
      {
        "species": [{ "element": "Eu", "occu": 1 }],
        "abc": [0.83330589, 0.82429805, 0.9398513],
        "properties": { "magmom": 6.948 },
        "label": "Eu",
        "xyz": [6.455402388924776, 9.606993503633724, 5.789368045323024]
      },
      {
        "species": [{ "element": "Eu", "occu": 1 }],
        "abc": [0.66666426, 0.32435307, 0.93984361],
        "properties": { "magmom": 6.948 },
        "label": "Eu",
        "xyz": [2.540807636049138, 9.606450977322204, 4.631681379244836]
      },
      {
        "species": [{ "element": "Eu", "occu": 1 }],
        "abc": [0.83352539, 0.82420266, 0.55990069],
        "properties": { "magmom": 6.947 },
        "label": "Eu",
        "xyz": [6.45414327280601, 5.723458469833549, 5.791034226967518]
      },
      {
        "species": [{ "element": "Eu", "occu": 1 }],
        "abc": [0.33353424, 0.67579709, 0.44009939000000003],
        "properties": { "magmom": 6.947 },
        "label": "Eu",
        "xyz": [5.2920878869925145, 4.498925134664082, 2.3170707889430116]
      },
      {
        "species": [{ "element": "Eu", "occu": 1 }],
        "abc": [0.16669411, 0.17570195, 0.0601487],
        "properties": { "magmom": 6.948 },
        "label": "Eu",
        "xyz": [1.375805291075224, 0.6149254063662762, 1.1581459546769761]
      },
      {
        "species": [{ "element": "Eu", "occu": 1 }],
        "abc": [0.8600812800000001, 0.52640103, 0.25018067],
        "properties": { "magmom": 6.944 },
        "label": "Eu",
        "xyz": [4.121887711914521, 2.5574537770320043, 5.975773448728885]
      },
      {
        "species": [{ "element": "Eu", "occu": 1 }],
        "abc": [0.63998592, 0.02637025, 0.25018059],
        "properties": { "magmom": 6.944 },
        "label": "Eu",
        "xyz": [0.2066364828558294, 2.5570022697874575, 4.446677153137589]
      },
      {
        "species": [{ "element": "Eu", "occu": 1 }],
        "abc": [0.13991872, 0.47359897, 0.74981933],
        "properties": { "magmom": 6.944 },
        "label": "Eu",
        "xyz": [3.7093199680854787, 7.6644651329679965, 0.9717405512711144]
      },
      {
        "species": [{ "element": "Eu", "occu": 1 }],
        "abc": [0.36001408, 0.9736297500000001, 0.74981941],
        "properties": { "magmom": 6.944 },
        "label": "Eu",
        "xyz": [7.624571197144171, 7.664916640212543, 2.5008368468624114]
      },
      {
        "species": [{ "element": "Au", "occu": 1 }],
        "abc": [0.059820860000000003, 0.8790258200000001, 0.25045857],
        "properties": { "magmom": 0.003 },
        "label": "Au",
        "xyz": [6.8832216021454435, 2.5608502077441666, 0.41524000106988407]
      },
      {
        "species": [{ "element": "Au", "occu": 1 }],
        "abc": [0.44025221000000003, 0.37898947, 0.25048096000000003],
        "properties": { "magmom": 0.003 },
        "label": "Au",
        "xyz": [2.9677544503013755, 2.5604786889914695, 3.05875091972044]
      },
      {
        "species": [{ "element": "Au", "occu": 1 }],
        "abc": [0.94017914, 0.12097418, 0.7495414300000001],
        "properties": { "magmom": 0.003 },
        "label": "Au",
        "xyz": [0.9479860778545566, 7.661068702255834, 6.532273998930116]
      },
      {
        "species": [{ "element": "Au", "occu": 1 }],
        "abc": [0.55974779, 0.6210105300000001, 0.74951904],
        "properties": { "magmom": 0.003 },
        "label": "Au",
        "xyz": [4.863453229698625, 7.661440221008532, 3.88876308027956]
      }
    ]
  },
  "task_ids": null,
  "uncorrected_energy_per_atom": null,
  "energy_per_atom": -8.985149145000001,
  "formation_energy_per_atom": -0.450594708750005,
  "energy_above_hull": 0.0,
  "is_stable": true,
  "equilibrium_reaction_energy_per_atom": null,
  "decomposes_to": null,
  "xas": null,
  "grain_boundaries": null,
  "band_gap": 0.0,
  "cbm": null,
  "vbm": null,
  "efermi": 2.61800335,
  "is_gap_direct": null,
  "is_metal": null,
  "es_source_calc_id": null,
  "bandstructure": null,
  "dos": null,
  "dos_energy_up": null,
  "dos_energy_down": null,
  "is_magnetic": null,
  "ordering": null,
  "total_magnetization": 91.2789408,
  "total_magnetization_normalized_vol": null,
  "total_magnetization_normalized_formula_units": null,
  "num_magnetic_sites": null,
  "num_unique_magnetic_sites": null,
  "types_of_magnetic_species": null,
  "bulk_modulus": null,
  "shear_modulus": null,
  "universal_anisotropy": null,
  "homogeneous_poisson": null,
  "e_total": null,
  "e_ionic": null,
  "e_electronic": null,
  "n": null,
  "e_ij_max": null,
  "weighted_surface_energy_EV_PER_ANG2": null,
  "weighted_surface_energy": null,
  "weighted_work_function": null,
  "surface_anisotropy": null,
  "shape_factor": null,
  "has_reconstructed": null,
  "possible_species": null,
  "has_props": null,
  "theoretical": null,
  "database_IDs": null,
  "fields_not_requested": [
    "builder_meta",
    "nsites",
    "elements",
    "nelements",
    "composition",
    "composition_reduced",
    "chemsys",
    "symmetry",
    "property_name",
    "deprecated",
    "deprecation_reasons",
    "last_updated",
    "origins",
    "warnings",
    "task_ids",
    "uncorrected_energy_per_atom",
    "equilibrium_reaction_energy_per_atom",
    "decomposes_to",
    "xas",
    "grain_boundaries",
    "cbm",
    "vbm",
    "is_gap_direct",
    "is_metal",
    "es_source_calc_id",
    "bandstructure",
    "dos",
    "dos_energy_up",
    "dos_energy_down",
    "is_magnetic",
    "ordering",
    "total_magnetization_normalized_vol",
    "total_magnetization_normalized_formula_units",
    "num_magnetic_sites",
    "num_unique_magnetic_sites",
    "types_of_magnetic_species",
    "bulk_modulus",
    "shear_modulus",
    "universal_anisotropy",
    "homogeneous_poisson",
    "e_total",
    "e_ionic",
    "e_electronic",
    "n",
    "e_ij_max",
    "weighted_surface_energy_EV_PER_ANG2",
    "weighted_surface_energy",
    "weighted_work_function",
    "surface_anisotropy",
    "shape_factor",
    "has_reconstructed",
    "possible_species",
    "has_props",
    "theoretical",
    "database_IDs"
  ]
}
