{"builder_meta": null, "nsites": null, "elements": null, "nelements": null, "composition": null, "composition_reduced": null, "formula_pretty": "Eu3As4", "formula_anonymous": "A3B4", "chemsys": null, "volume": 370.8603655772322, "density": 6.766252571240779, "density_atomic": 26.490026112659443, "symmetry": null, "property_name": null, "material_id": "mp-1104668", "deprecated": null, "deprecation_reasons": null, "last_updated": null, "origins": null, "warnings": null, "structure": {"@module": "pymatgen.core.structure", "@class": "Structure", "charge": 0, "lattice": {"matrix": [[0.00028421, -8.541000000000001e-05, 5.80568753], [7.34158562, -8.571e-05, 2.90318214], [9.585000000000001e-05, 8.70108021, 2.9027078900000003]], "pbc": [true, true, true], "a": 5.80568753758482, "b": 7.89476699853466, "c": 9.17248657260991, "alpha": 83.3172252919714, "beta": 71.55198104706143, "gamma": 68.42119865170658, "volume": 370.86036557723224}, "properties": {}, "sites": [{"species": [{"element": "Eu", "occu": 1}], "abc": [0.7464008400000001, 0.50003305, 0.50003304], "properties": {"magmom": 6.739}, "label": "Eu", "xyz": [3.6712955121543613, 4.350720980761679, 7.236506919807939]}, {"species": [{"element": "Eu", "occu": 1}], "abc": [0.99647105, 0.99999895, 4.5750000000000014e-05], "properties": {"magmom": 6.739}, "label": "Eu", "xyz": [7.341861122757358, 0.00022725591722250015, 8.688511439535727]}, {"species": [{"element": "Eu", "occu": 1}], "abc": [0.44684642, 0.49394899000000003, 0.16807745000000002], "properties": {"magmom": 6.739}, "label": "Eu", "xyz": [3.6265119104421353, 1.4623748724215997, 4.516154314504263]}, {"species": [{"element": "Eu", "occu": 1}], "abc": [0.10894542, 0.50627027, 0.83194073], "properties": {"magmom": 6.739}, "label": "Eu", "xyz": [3.7169372389623065, 7.23873032424279, 4.51717879320495]}, {"species": [{"element": "Eu", "occu": 1}], "abc": [0.69079433, 0.00623058, 0.66806051], "properties": {"magmom": 6.7379999999999995}, "label": "Eu", "xyz": [0.046002700788672406, 5.812788547876771, 5.96780904942797]}, {"species": [{"element": "Eu", "occu": 1}], "abc": [0.36488015, 0.99400159, 0.33189702], "properties": {"magmom": 6.739}, "label": "Eu", "xyz": [7.297683294317934, 2.8877462321900835, 5.96754789864062]}, {"species": [{"element": "As", "occu": 1}], "abc": [0.86277908, 0.6676852400000001, 0.16338036], "properties": {"magmom": -0.046}, "label": "As", "xyz": [4.902129227120082, 1.4214546998355326, 7.421683069853528]}, {"species": [{"element": "As", "occu": 1}], "abc": [0.69456663, 0.33196636, 0.83671465], "properties": {"magmom": -0.046}, "label": "As", "xyz": [2.4374370567808583, 7.280233506759493, 7.424933846211523]}, {"species": [{"element": "As", "occu": 1}], "abc": [0.28080641, 0.8322750800000001, 0.663073199999999], "properties": {"magmom": -0.046}, "label": "As", "xyz": [6.110362122768356, 5.769357780328779, 5.971228229991684]}, {"species": [{"element": "As", "occu": 1}], "abc": [0.77633828, 0.167538699999999, 0.3368605], "properties": {"magmom": -0.046}, "label": "As", "xyz": [1.2302526418949706, 2.9309695632862334, 5.971380464035809]}, {"species": [{"element": "As", "occu": 1}], "abc": [0.32991452, 0.32189893, 0.50651621], "properties": {"magmom": -0.004}, "label": "As", "xyz": [2.363390870165844, 4.40718240291876, 4.320180438370944]}, {"species": [{"element": "As", "occu": 1}], "abc": [0.15854176, 0.67792198, 0.49343554], "properties": {"magmom": -0.004}, "label": "As", "xyz": [4.977114614800047, 4.293350566260036, 4.320874138830101]}, {"species": [{"element": "As", "occu": 1}], "abc": [0.40196743, 0.17808127, 0.00654393], "properties": {"magmom": -0.004}, "label": "As", "xyz": [1.3075137614223085, 0.056889664434777304, 2.8696947755922735]}, {"species": [{"element": "As", "occu": 1}], "abc": [0.58674569, 0.82214902, 0.993420099999999], "properties": {"magmom": -0.004}, "label": "As", "xyz": [6.036139401038233, 8.643707391984325, 8.676918849351335]}]}, "task_ids": null, "uncorrected_energy_per_atom": null, "energy_per_atom": -8.081273840714285, "formation_energy_per_atom": -1.003441572857144, "energy_above_hull": 0.0, "is_stable": true, "equilibrium_reaction_energy_per_atom": null, "decomposes_to": null, "xas": null, "grain_boundaries": null, "band_gap": 0.0, "cbm": null, "vbm": null, "efermi": 3.85648081, "is_gap_direct": null, "is_metal": null, "es_source_calc_id": null, "bandstructure": null, "dos": null, "dos_energy_up": null, "dos_energy_down": null, "is_magnetic": null, "ordering": null, "total_magnetization": 41.9854701, "total_magnetization_normalized_vol": null, "total_magnetization_normalized_formula_units": null, "num_magnetic_sites": null, "num_unique_magnetic_sites": null, "types_of_magnetic_species": null, "bulk_modulus": null, "shear_modulus": null, "universal_anisotropy": null, "homogeneous_poisson": null, "e_total": null, "e_ionic": null, "e_electronic": null, "n": null, "e_ij_max": null, "weighted_surface_energy_EV_PER_ANG2": null, "weighted_surface_energy": null, "weighted_work_function": null, "surface_anisotropy": null, "shape_factor": null, "has_reconstructed": null, "possible_species": null, "has_props": null, "theoretical": null, "database_IDs": null, "fields_not_requested": ["builder_meta", "nsites", "elements", "nelements", "composition", "composition_reduced", "chemsys", "symmetry", "property_name", "deprecated", "deprecation_reasons", "last_updated", "origins", "warnings", "task_ids", "uncorrected_energy_per_atom", "equilibrium_reaction_energy_per_atom", "decomposes_to", "xas", "grain_boundaries", "cbm", "vbm", "is_gap_direct", "is_metal", "es_source_calc_id", "bandstructure", "dos", "dos_energy_up", "dos_energy_down", "is_magnetic", "ordering", "total_magnetization_normalized_vol", "total_magnetization_normalized_formula_units", "num_magnetic_sites", "num_unique_magnetic_sites", "types_of_magnetic_species", "bulk_modulus", "shear_modulus", "universal_anisotropy", "homogeneous_poisson", "e_total", "e_ionic", "e_electronic", "n", "e_ij_max", "weighted_surface_energy_EV_PER_ANG2", "weighted_surface_energy", "weighted_work_function", "surface_anisotropy", "shape_factor", "has_reconstructed", "possible_species", "has_props", "theoretical", "database_IDs"]}