{"builder_meta": null, "nsites": null, "elements": null, "nelements": null, "composition": null, "composition_reduced": null, "formula_pretty": "Eu3Bi", "formula_anonymous": "AB3", "chemsys": null, "volume": 282.62673011701787, "density": 7.812754257511211, "density_atomic": 35.328341264627234, "symmetry": null, "property_name": null, "material_id": "mp-1184377", "deprecated": null, "deprecation_reasons": null, "last_updated": null, "origins": null, "warnings": null, "structure": {"@module": "pymatgen.core.structure", "@class": "Structure", "charge": 0, "lattice": {"matrix": [[3.695338, -6.400513, 0.0], [3.695338, 6.400513, 0.0], [0.0, 0.0, 5.9746749999999995]], "pbc": [true, true, true], "a": 7.3906758552525496, "b": 7.3906758552525496, "c": 5.9746749999999995, "alpha": 90.0, "beta": 90.0, "gamma": 119.99999870425731, "volume": 282.6267301170178}, "properties": {}, "sites": [{"species": [{"element": "Eu", "occu": 1}], "abc": [0.173671, 0.347342, 0.25], "properties": {"magmom": 7.032}, "label": "Eu", "xyz": [1.925319137394, 1.111583493223, 1.4936687499999999]}, {"species": [{"element": "Eu", "occu": 1}], "abc": [0.652658, 0.826329, 0.25], "properties": {"magmom": 7.02}, "label": "Eu", "xyz": [5.465356862606, 1.1115834932230007, 1.4936687499999999]}, {"species": [{"element": "Eu", "occu": 1}], "abc": [0.173671, 0.826329, 0.25], "properties": {"magmom": 7.043}, "label": "Eu", "xyz": [3.6953379999999996, 4.177346013554001, 1.4936687499999999]}, {"species": [{"element": "Eu", "occu": 1}], "abc": [0.826329, 0.652658, 0.75], "properties": {"magmom": 7.032}, "label": "Eu", "xyz": [5.465356862606, -1.1115834932230007, 4.48100625]}, {"species": [{"element": "Eu", "occu": 1}], "abc": [0.347342, 0.173671, 0.75], "properties": {"magmom": 7.02}, "label": "Eu", "xyz": [1.925319137394, -1.111583493223, 4.48100625]}, {"species": [{"element": "Eu", "occu": 1}], "abc": [0.826329, 0.173671, 0.75], "properties": {"magmom": 7.043}, "label": "Eu", "xyz": [3.6953379999999996, -4.177346013554001, 4.48100625]}, {"species": [{"element": "Bi", "occu": 1}], "abc": [0.333333, 0.666667, 0.75], "properties": {"magmom": -0.131}, "label": "Bi", "xyz": [3.6953379999999996, 2.1335086003420005, 4.48100625]}, {"species": [{"element": "Bi", "occu": 1}], "abc": [0.666667, 0.333333, 0.25], "properties": {"magmom": -0.131}, "label": "Bi", "xyz": [3.6953379999999996, -2.1335086003420005, 1.4936687499999999]}]}, "task_ids": null, "uncorrected_energy_per_atom": null, "energy_per_atom": -44.13552794333334, "formation_energy_per_atom": -0.6192974708333381, "energy_above_hull": 0.08067646958333001, "is_stable": false, "equilibrium_reaction_energy_per_atom": null, "decomposes_to": null, "xas": null, "grain_boundaries": null, "band_gap": 0.0, "cbm": null, "vbm": null, "efermi": 3.7025023900000003, "is_gap_direct": null, "is_metal": null, "es_source_calc_id": null, "bandstructure": null, "dos": null, "dos_energy_up": null, "dos_energy_down": null, "is_magnetic": null, "ordering": null, "total_magnetization": 44.6232926, "total_magnetization_normalized_vol": null, "total_magnetization_normalized_formula_units": null, "num_magnetic_sites": null, "num_unique_magnetic_sites": null, "types_of_magnetic_species": null, "bulk_modulus": null, "shear_modulus": null, "universal_anisotropy": null, "homogeneous_poisson": null, "e_total": null, "e_ionic": null, "e_electronic": null, "n": null, "e_ij_max": null, "weighted_surface_energy_EV_PER_ANG2": null, "weighted_surface_energy": null, "weighted_work_function": null, "surface_anisotropy": null, "shape_factor": null, "has_reconstructed": null, "possible_species": null, "has_props": null, "theoretical": null, "database_IDs": null, "fields_not_requested": ["builder_meta", "nsites", "elements", "nelements", "composition", "composition_reduced", "chemsys", "symmetry", "property_name", "deprecated", "deprecation_reasons", "last_updated", "origins", "warnings", "task_ids", "uncorrected_energy_per_atom", "equilibrium_reaction_energy_per_atom", "decomposes_to", "xas", "grain_boundaries", "cbm", "vbm", "is_gap_direct", "is_metal", "es_source_calc_id", "bandstructure", "dos", "dos_energy_up", "dos_energy_down", "is_magnetic", "ordering", "total_magnetization_normalized_vol", "total_magnetization_normalized_formula_units", "num_magnetic_sites", "num_unique_magnetic_sites", "types_of_magnetic_species", "bulk_modulus", "shear_modulus", "universal_anisotropy", "homogeneous_poisson", "e_total", "e_ionic", "e_electronic", "n", "e_ij_max", "weighted_surface_energy_EV_PER_ANG2", "weighted_surface_energy", "weighted_work_function", "surface_anisotropy", "shape_factor", "has_reconstructed", "possible_species", "has_props", "theoretical", "database_IDs"]}