{"builder_meta": null, "nsites": null, "elements": null, "nelements": null, "composition": null, "composition_reduced": null, "formula_pretty": "Eu3Dy", "formula_anonymous": "AB3", "chemsys": null, "volume": 313.68675386326, "density": 6.547066854601902, "density_atomic": 39.2108442329075, "symmetry": null, "property_name": null, "material_id": "mp-1184402", "deprecated": null, "deprecation_reasons": null, "last_updated": null, "origins": null, "warnings": null, "structure": {"@module": "pymatgen.core.structure", "@class": "Structure", "charge": 0, "lattice": {"matrix": [[3.821646, -6.619285, 0.0], [3.821646, 6.619285, 0.0], [0.0, 0.0, 6.200185]], "pbc": [true, true, true], "a": 7.643291964889277, "b": 7.643291964889277, "c": 6.200185, "alpha": 90.0, "beta": 90.0, "gamma": 119.99999969608557, "volume": 313.68675386326}, "properties": {}, "sites": [{"species": [{"element": "Eu", "occu": 1}], "abc": [0.169586, 0.339172, 0.25], "properties": {"magmom": 6.929}, "label": "Eu", "xyz": [1.9442929756679996, 1.12253806601, 1.55004625]}, {"species": [{"element": "Eu", "occu": 1}], "abc": [0.660828, 0.830414, 0.25], "properties": {"magmom": 6.928}, "label": "Eu", "xyz": [5.698999024332, 1.1225380660100006, 1.55004625]}, {"species": [{"element": "Eu", "occu": 1}], "abc": [0.169586, 0.830414, 0.25], "properties": {"magmom": 6.929}, "label": "Eu", "xyz": [3.821646, 4.37420886798, 1.55004625]}, {"species": [{"element": "Eu", "occu": 1}], "abc": [0.830414, 0.660828, 0.75], "properties": {"magmom": 6.93}, "label": "Eu", "xyz": [5.698999024332, -1.1225380660100006, 4.65013875]}, {"species": [{"element": "Eu", "occu": 1}], "abc": [0.339172, 0.169586, 0.75], "properties": {"magmom": 6.928}, "label": "Eu", "xyz": [1.9442929756679996, -1.12253806601, 4.65013875]}, {"species": [{"element": "Eu", "occu": 1}], "abc": [0.830414, 0.169586, 0.75], "properties": {"magmom": 6.93}, "label": "Eu", "xyz": [3.821646, -4.37420886798, 4.65013875]}, {"species": [{"element": "Dy", "occu": 1}], "abc": [0.333333, 0.666667, 0.75], "properties": {"magmom": 0.25}, "label": "Dy", "xyz": [3.8216459999999994, 2.20643274619, 4.65013875]}, {"species": [{"element": "Dy", "occu": 1}], "abc": [0.666667, 0.333333, 0.25], "properties": {"magmom": 0.25}, "label": "Dy", "xyz": [3.8216459999999994, -2.20643274619, 1.55004625]}]}, "task_ids": null, "uncorrected_energy_per_atom": null, "energy_per_atom": -36.80472750875, "formation_energy_per_atom": 0.08138533374999901, "energy_above_hull": 0.08138533374999901, "is_stable": false, "equilibrium_reaction_energy_per_atom": null, "decomposes_to": null, "xas": null, "grain_boundaries": null, "band_gap": 0.0, "cbm": null, "vbm": null, "efermi": 2.30531403, "is_gap_direct": null, "is_metal": null, "es_source_calc_id": null, "bandstructure": null, "dos": null, "dos_energy_up": null, "dos_energy_down": null, "is_magnetic": null, "ordering": null, "total_magnetization": 44.7233153, "total_magnetization_normalized_vol": null, "total_magnetization_normalized_formula_units": null, "num_magnetic_sites": null, "num_unique_magnetic_sites": null, "types_of_magnetic_species": null, "bulk_modulus": null, "shear_modulus": null, "universal_anisotropy": null, "homogeneous_poisson": null, "e_total": null, "e_ionic": null, "e_electronic": null, "n": null, "e_ij_max": null, "weighted_surface_energy_EV_PER_ANG2": null, "weighted_surface_energy": null, "weighted_work_function": null, "surface_anisotropy": null, "shape_factor": null, "has_reconstructed": null, "possible_species": null, "has_props": null, "theoretical": null, "database_IDs": null, "fields_not_requested": ["builder_meta", "nsites", "elements", "nelements", "composition", "composition_reduced", "chemsys", "symmetry", "property_name", "deprecated", "deprecation_reasons", "last_updated", "origins", "warnings", "task_ids", "uncorrected_energy_per_atom", "equilibrium_reaction_energy_per_atom", "decomposes_to", "xas", "grain_boundaries", "cbm", "vbm", "is_gap_direct", "is_metal", "es_source_calc_id", "bandstructure", "dos", "dos_energy_up", "dos_energy_down", "is_magnetic", "ordering", "total_magnetization_normalized_vol", "total_magnetization_normalized_formula_units", "num_magnetic_sites", "num_unique_magnetic_sites", "types_of_magnetic_species", "bulk_modulus", "shear_modulus", "universal_anisotropy", "homogeneous_poisson", "e_total", "e_ionic", "e_electronic", "n", "e_ij_max", "weighted_surface_energy_EV_PER_ANG2", "weighted_surface_energy", "weighted_work_function", "surface_anisotropy", "shape_factor", "has_reconstructed", "possible_species", "has_props", "theoretical", "database_IDs"]}