{"builder_meta": null, "nsites": null, "elements": null, "nelements": null, "composition": null, "composition_reduced": null, "formula_pretty": "Eu3Er", "formula_anonymous": "AB3", "chemsys": null, "volume": 312.6143225177893, "density": 6.62008427225514, "density_atomic": 39.07679031472366, "symmetry": null, "property_name": null, "material_id": "mp-1184396", "deprecated": null, "deprecation_reasons": null, "last_updated": null, "origins": null, "warnings": null, "structure": {"@module": "pymatgen.core.structure", "@class": "Structure", "charge": 0, "lattice": {"matrix": [[3.827923, -6.630157, 0.0], [3.827923, 6.630157, 0.0], [0.0, 0.0, 6.15874]], "pbc": [true, true, true], "a": 7.655845893079222, "b": 7.655845893079222, "c": 6.15874, "alpha": 90.0, "beta": 90.0, "gamma": 119.99999907602349, "volume": 312.6143225177893}, "properties": {}, "sites": [{"species": [{"element": "Eu", "occu": 1}], "abc": [0.16991, 0.33982, 0.25], "properties": {"magmom": 6.957}, "label": "Eu", "xyz": [1.95120719079, 1.12652997587, 1.539685]}, {"species": [{"element": "Eu", "occu": 1}], "abc": [0.6601800000000001, 0.8300900000000001, 0.25], "properties": {"magmom": 6.957}, "label": "Eu", "xyz": [5.704638809210001, 1.1265299758699996, 1.539685]}, {"species": [{"element": "Eu", "occu": 1}], "abc": [0.16991, 0.8300900000000001, 0.25], "properties": {"magmom": 6.956}, "label": "Eu", "xyz": [3.8279230000000006, 4.37709704826, 1.539685]}, {"species": [{"element": "Eu", "occu": 1}], "abc": [0.8300900000000001, 0.6601800000000001, 0.75], "properties": {"magmom": 6.959}, "label": "Eu", "xyz": [5.704638809210001, -1.1265299758699996, 4.6190549999999995]}, {"species": [{"element": "Eu", "occu": 1}], "abc": [0.33982, 0.16991, 0.75], "properties": {"magmom": 6.958}, "label": "Eu", "xyz": [1.95120719079, -1.12652997587, 4.6190549999999995]}, {"species": [{"element": "Eu", "occu": 1}], "abc": [0.8300900000000001, 0.16991, 0.75], "properties": {"magmom": 6.956}, "label": "Eu", "xyz": [3.8279230000000006, -4.37709704826, 4.6190549999999995]}, {"species": [{"element": "Er", "occu": 1}], "abc": [0.333333, 0.666667, 0.75], "properties": {"magmom": 0.311}, "label": "Er", "xyz": [3.827923, 2.2100567534380002, 4.6190549999999995]}, {"species": [{"element": "Er", "occu": 1}], "abc": [0.666667, 0.333333, 0.25], "properties": {"magmom": 0.31}, "label": "Er", "xyz": [3.827923, -2.2100567534380002, 1.539685]}]}, "task_ids": null, "uncorrected_energy_per_atom": null, "energy_per_atom": -37.29014236541666, "formation_energy_per_atom": 0.08187846250000001, "energy_above_hull": 0.08187846250000001, "is_stable": false, "equilibrium_reaction_energy_per_atom": null, "decomposes_to": null, "xas": null, "grain_boundaries": null, "band_gap": 0.0, "cbm": null, "vbm": null, "efermi": 2.25821695, "is_gap_direct": null, "is_metal": null, "es_source_calc_id": null, "bandstructure": null, "dos": null, "dos_energy_up": null, "dos_energy_down": null, "is_magnetic": null, "ordering": null, "total_magnetization": 45.3296727, "total_magnetization_normalized_vol": null, "total_magnetization_normalized_formula_units": null, "num_magnetic_sites": null, "num_unique_magnetic_sites": null, "types_of_magnetic_species": null, "bulk_modulus": null, "shear_modulus": null, "universal_anisotropy": null, "homogeneous_poisson": null, "e_total": null, "e_ionic": null, "e_electronic": null, "n": null, "e_ij_max": null, "weighted_surface_energy_EV_PER_ANG2": null, "weighted_surface_energy": null, "weighted_work_function": null, "surface_anisotropy": null, "shape_factor": null, "has_reconstructed": null, "possible_species": null, "has_props": null, "theoretical": null, "database_IDs": null, "fields_not_requested": ["builder_meta", "nsites", "elements", "nelements", "composition", "composition_reduced", "chemsys", "symmetry", "property_name", "deprecated", "deprecation_reasons", "last_updated", "origins", "warnings", "task_ids", "uncorrected_energy_per_atom", "equilibrium_reaction_energy_per_atom", "decomposes_to", "xas", "grain_boundaries", "cbm", "vbm", "is_gap_direct", "is_metal", "es_source_calc_id", "bandstructure", "dos", "dos_energy_up", "dos_energy_down", "is_magnetic", "ordering", "total_magnetization_normalized_vol", "total_magnetization_normalized_formula_units", "num_magnetic_sites", "num_unique_magnetic_sites", "types_of_magnetic_species", "bulk_modulus", "shear_modulus", "universal_anisotropy", "homogeneous_poisson", "e_total", "e_ionic", "e_electronic", "n", "e_ij_max", "weighted_surface_energy_EV_PER_ANG2", "weighted_surface_energy", "weighted_work_function", "surface_anisotropy", "shape_factor", "has_reconstructed", "possible_species", "has_props", "theoretical", "database_IDs"]}