{"builder_meta": null, "nsites": null, "elements": null, "nelements": null, "composition": null, "composition_reduced": null, "formula_pretty": "Eu3Ga5", "formula_anonymous": "A3B5", "chemsys": null, "volume": 374.62198996603996, "density": 7.132070933552347, "density_atomic": 23.413874372877498, "symmetry": null, "property_name": null, "material_id": "mp-1184542", "deprecated": null, "deprecation_reasons": null, "last_updated": null, "origins": null, "warnings": null, "structure": {"@module": "pymatgen.core.structure", "@class": "Structure", "charge": 0, "lattice": {"matrix": [[2.27153179, -5.438841079999999, 0.00011705], [2.27153267, 5.43884145, -0.000117], [1.399999999999999e-07, -0.00032752, 15.16135385]], "pbc": [true, true, true], "a": 5.894136830798625, "b": 5.894137511358589, "c": 15.161353853537591, "alpha": 90.00227924242176, "beta": 89.9977198635578, "gamma": 134.66428768260334, "volume": 374.6219899660399}, "properties": {}, "sites": [{"species": [{"element": "Eu", "occu": 1}], "abc": [0.8753547700000001, 0.12464501, 0.75004939], "properties": {"magmom": 6.77}, "label": "Eu", "xyz": [2.27153150495753, -4.083236691902499, 11.37185208357631]}, {"species": [{"element": "Eu", "occu": 1}], "abc": [0.12464286000000001, 0.8753573, 0.24997256], "properties": {"magmom": 6.77}, "label": "Eu", "xyz": [2.2715329587556687, 4.082934988490545, 3.789834607593019]}, {"species": [{"element": "Eu", "occu": 1}], "abc": [0.5912499800000001, 0.40874998, 0.89126076], "properties": {"magmom": 6.749}, "label": "Eu", "xyz": [2.271532183615218, -0.9928802515866219, 13.512741137042424]}, {"species": [{"element": "Eu", "occu": 1}], "abc": [0.59124376, 0.40875612, 0.60877831], "properties": {"magmom": 6.749}, "label": "Eu", "xyz": [2.2715319623505343, -0.9927205088565773, 9.229924754731062]}, {"species": [{"element": "Eu", "occu": 1}], "abc": [0.40875127, 0.5912487200000001, 0.39123378000000003], "properties": {"magmom": 6.749}, "label": "Eu", "xyz": [2.2715323423562848, 0.9924467099296475, 5.931612444888967]}, {"species": [{"element": "Eu", "occu": 1}], "abc": [0.40875223, 0.59124785, 0.10872616], "properties": {"magmom": 6.749}, "label": "Eu", "xyz": [2.271532507242314, 0.9925292837458515, 1.6484144529617875]}, {"species": [{"element": "Ga", "occu": 1}], "abc": [0.17060603, 0.82939407, 0.74998599], "properties": {"magmom": -0.031}, "label": "Ga", "xyz": [2.2715328520179994, 3.5827981264290445, 11.370725907262182]}, {"species": [{"element": "Ga", "occu": 1}], "abc": [0.8293930700000001, 0.17060689, 0.25003322], "properties": {"magmom": -0.031}, "label": "Ga", "xyz": [2.271531884277443, -3.5831151664759386, 3.7909192421276106]}, {"species": [{"element": "Ga", "occu": 1}], "abc": [0.11698564, 0.8830143300000001, 0.0328489], "properties": {"magmom": -0.028}, "label": "Ga", "xyz": [2.271532503505503, 4.16629787567416, 0.49794417697581694]}, {"species": [{"element": "Ga", "occu": 1}], "abc": [0.11698843, 0.88301155, 0.4671199], "properties": {"magmom": -0.028}, "label": "Ga", "xyz": [2.2715325870163143, 4.166125348890396, 7.082080475420996]}, {"species": [{"element": "Ga", "occu": 1}], "abc": [0.70604139, 0.29395861, 0.09792736], "properties": {"magmom": -0.038}, "label": "Ga", "xyz": [2.2715320623934074, -2.241284716628863, 1.4847596055436654]}, {"species": [{"element": "Ga", "occu": 1}], "abc": [0.70603646, 0.29396361, 0.40211381], "properties": {"magmom": -0.038}, "label": "Ga", "xyz": [2.2715322639911353, -2.241330336081193, 6.096638009206941]}, {"species": [{"element": "Ga", "occu": 1}], "abc": [0.29395699000000003, 0.70604299, 0.90207074], "properties": {"magmom": -0.038}, "label": "Ga", "xyz": [2.271532492177099, 2.240975080320022, 13.6765654875072]}, {"species": [{"element": "Ga", "occu": 1}], "abc": [0.29397352, 0.70602643, 0.59787924], "properties": {"magmom": -0.038}, "label": "Ga", "xyz": [2.2715323814297625, 2.240894737862637, 9.06461052171728]}, {"species": [{"element": "Ga", "occu": 1}], "abc": [0.88300962, 0.11699046, 0.96713786], "properties": {"magmom": -0.028}, "label": "Ga", "xyz": [2.2715322100734485, -4.166573189180529, 14.663208985583962]}, {"species": [{"element": "Ga", "occu": 1}], "abc": [0.88301398, 0.11698607, 0.53286302], "properties": {"magmom": -0.028}, "label": "Ga", "xyz": [2.271532081125154, -4.166478545346006, 8.079014469215796]}]}, "task_ids": null, "uncorrected_energy_per_atom": null, "energy_per_atom": -22.215223959375, "formation_energy_per_atom": -0.6181579725, "energy_above_hull": 0.0, "is_stable": true, "equilibrium_reaction_energy_per_atom": null, "decomposes_to": null, "xas": null, "grain_boundaries": null, "band_gap": 0.0, "cbm": null, "vbm": null, "efermi": 3.07265169, "is_gap_direct": null, "is_metal": null, "es_source_calc_id": null, "bandstructure": null, "dos": null, "dos_energy_up": null, "dos_energy_down": null, "is_magnetic": null, "ordering": null, "total_magnetization": 42.0297815, "total_magnetization_normalized_vol": null, "total_magnetization_normalized_formula_units": null, "num_magnetic_sites": null, "num_unique_magnetic_sites": null, "types_of_magnetic_species": null, "bulk_modulus": null, "shear_modulus": null, "universal_anisotropy": null, "homogeneous_poisson": null, "e_total": null, "e_ionic": null, "e_electronic": null, "n": null, "e_ij_max": null, "weighted_surface_energy_EV_PER_ANG2": null, "weighted_surface_energy": null, "weighted_work_function": null, "surface_anisotropy": null, "shape_factor": null, "has_reconstructed": null, "possible_species": null, "has_props": null, "theoretical": null, "database_IDs": null, "fields_not_requested": ["builder_meta", "nsites", "elements", "nelements", "composition", "composition_reduced", "chemsys", "symmetry", "property_name", "deprecated", "deprecation_reasons", "last_updated", "origins", "warnings", "task_ids", "uncorrected_energy_per_atom", "equilibrium_reaction_energy_per_atom", "decomposes_to", "xas", "grain_boundaries", "cbm", "vbm", "is_gap_direct", "is_metal", "es_source_calc_id", "bandstructure", "dos", "dos_energy_up", "dos_energy_down", "is_magnetic", "ordering", "total_magnetization_normalized_vol", "total_magnetization_normalized_formula_units", "num_magnetic_sites", "num_unique_magnetic_sites", "types_of_magnetic_species", "bulk_modulus", "shear_modulus", "universal_anisotropy", "homogeneous_poisson", "e_total", "e_ionic", "e_electronic", "n", "e_ij_max", "weighted_surface_energy_EV_PER_ANG2", "weighted_surface_energy", "weighted_work_function", "surface_anisotropy", "shape_factor", "has_reconstructed", "possible_species", "has_props", "theoretical", "database_IDs"]}