{
  "builder_meta": null,
  "nsites": null,
  "elements": null,
  "nelements": null,
  "composition": null,
  "composition_reduced": null,
  "formula_pretty": "Eu3Ge5",
  "formula_anonymous": "A3B5",
  "chemsys": null,
  "volume": 376.28503575756673,
  "density": 7.229276404261983,
  "density_atomic": 23.51781473484792,
  "symmetry": null,
  "property_name": null,
  "material_id": "mp-1189484",
  "deprecated": null,
  "deprecation_reasons": null,
  "last_updated": null,
  "origins": null,
  "warnings": null,
  "structure": {
    "@module": "pymatgen.core.structure",
    "@class": "Structure",
    "charge": 0,
    "lattice": {
      "matrix": [
        [4.86203854, 3.96525327, 9.541000000000001e-5],
        [-4.86203792, 3.96525345, 9.479e-5],
        [-3.7e-7, 0.00023256, 9.75882749]
      ],
      "pbc": [true, true, true],
      "a": 6.273966231084934,
      "b": 6.273965864366811,
      "c": 9.758827492771044,
      "alpha": 89.99826970888904,
      "beta": 89.99826741392046,
      "gamma": 101.60181538386388,
      "volume": 376.2850357575667
    },
    "properties": {},
    "sites": [
      {
        "species": [{ "element": "Eu", "occu": 1 }],
        "abc": [0.79428073, 0.20571463, 0.5000283],
        "properties": { "magmom": 6.737 },
        "label": "Eu",
        "xyz": [2.861631004070094, 3.9653511948349087, 4.879785201832194]
      },
      {
        "species": [{ "element": "Eu", "occu": 1 }],
        "abc": [0.79428381, 0.20571171, -2.824e-5],
        "properties": { "magmom": 6.737 },
        "label": "Eu",
        "xyz": [2.861660361320444, 3.9652355361259635, -0.0001803072570146]
      },
      {
        "species": [{ "element": "Eu", "occu": 1 }],
        "abc": [0.20571462000000001, 0.79428063, 0.50002834],
        "properties": { "magmom": 6.737 },
        "label": "Eu",
        "xyz": [-2.8616303165105204, 3.965350864608232, 4.879785227263878]
      },
      {
        "species": [{ "element": "Eu", "occu": 1 }],
        "abc": [0.20571168, 0.79428361, -2.8270000000000002e-5],
        "properties": { "magmom": 6.737 },
        "label": "Eu",
        "xyz": [-2.8616589147558837, 3.965234730053677, -0.0001809649583616]
      },
      {
        "species": [{ "element": "Eu", "occu": 1 }],
        "abc": [0.65416131, 0.6541612800000001, 0.25007675],
        "properties": { "magmom": 6.737 },
        "label": "Eu",
        "xyz": [4.589127525762151e-7, 5.187888703810381, 2.4405802839881763]
      },
      {
        "species": [{ "element": "Eu", "occu": 1 }],
        "abc": [0.34583522, 0.34583547000000003, 0.74992342],
        "properties": { "magmom": 6.737 },
        "label": "Eu",
        "xyz": [-1.278563308982086e-6, 2.7428239297265957, 7.318439064373357]
      },
      {
        "species": [{ "element": "Ge", "occu": 1 }],
        "abc": [0.09643029, 0.47771447, 0.25006651],
        "properties": { "magmom": -0.023 },
        "label": "Ge",
        "xyz": [-1.8538181741939344, 2.2766876284995354, 2.44041041508494]
      },
      {
        "species": [{ "element": "Ge", "occu": 1 }],
        "abc": [0.52228134, 0.90359585, 0.7499336400000001],
        "properties": { "magmom": -0.023 },
        "label": "Ge",
        "xyz": [-1.8539655607272343, 5.654138757480483, 7.318608504421035]
      },
      {
        "species": [{ "element": "Ge", "occu": 1 }],
        "abc": [0.90359579, 0.52228176, 0.74993359],
        "properties": { "magmom": -0.023 },
        "label": "Ge",
        "xyz": [1.8539635560419792, 5.654140116323496, 7.318608252928743]
      },
      {
        "species": [{ "element": "Ge", "occu": 1 }],
        "abc": [0.47771437, 0.09642999000000001, 0.25006649000000003],
        "properties": { "magmom": -0.023 },
        "label": "Ge",
        "xyz": [1.8538193175219977, 2.2766859737623695, 2.440410456266604]
      },
      {
        "species": [{ "element": "Ge", "occu": 1 }],
        "abc": [0.30647917, 0.30647899, 0.44035234],
        "properties": { "magmom": -0.029 },
        "label": "Ge",
        "xyz": [9.022535454973959e-7, 2.4306368118195922, 4.297380813198898]
      },
      {
        "species": [{ "element": "Ge", "occu": 1 }],
        "abc": [0.69351484, 0.69351498, 0.55967727],
        "properties": { "magmom": -0.029 },
        "label": "Ge",
        "xyz": [-4.5778669732972124e-7, 5.500054812721118, 5.461925834539991]
      },
      {
        "species": [{ "element": "Ge", "occu": 1 }],
        "abc": [0.30648209, 0.30648204, 0.05969384],
        "properties": { "magmom": -0.029 },
        "label": "Ge",
        "xyz": [4.110340710983893e-7, 2.4305719584414027, 0.58260017966444]
      },
      {
        "species": [{ "element": "Ge", "occu": 1 }],
        "abc": [0.69351206, 0.69351216, 0.94027687],
        "properties": { "magmom": -0.029 },
        "label": "Ge",
        "xyz": [-4.0412875617115724e-7, 5.500121119545275, 9.176131673170449]
      },
      {
        "species": [{ "element": "Ge", "occu": 1 }],
        "abc": [0.05438972, 0.05438941, 0.25006695],
        "properties": { "magmom": -0.022 },
        "label": "Ge",
        "xyz": [1.448428610117971e-6, 0.43139496630024093, 2.4403705708958148]
      },
      {
        "species": [{ "element": "Ge", "occu": 1 }],
        "abc": [0.94561496, 0.94561502, 0.74993317],
        "properties": { "magmom": -0.022 },
        "label": "Ge",
        "xyz": [1.7083727402285763e-8, 7.499380437185753, 7.318648291029922]
      }
    ]
  },
  "task_ids": null,
  "uncorrected_energy_per_atom": null,
  "energy_per_atom": -23.779519111875,
  "formation_energy_per_atom": -0.6642021062500021,
  "energy_above_hull": 0.0,
  "is_stable": true,
  "equilibrium_reaction_energy_per_atom": null,
  "decomposes_to": null,
  "xas": null,
  "grain_boundaries": null,
  "band_gap": 0.0,
  "cbm": null,
  "vbm": null,
  "efermi": 4.75293313,
  "is_gap_direct": null,
  "is_metal": null,
  "es_source_calc_id": null,
  "bandstructure": null,
  "dos": null,
  "dos_energy_up": null,
  "dos_energy_down": null,
  "is_magnetic": null,
  "ordering": null,
  "total_magnetization": 42.0988986,
  "total_magnetization_normalized_vol": null,
  "total_magnetization_normalized_formula_units": null,
  "num_magnetic_sites": null,
  "num_unique_magnetic_sites": null,
  "types_of_magnetic_species": null,
  "bulk_modulus": null,
  "shear_modulus": null,
  "universal_anisotropy": null,
  "homogeneous_poisson": null,
  "e_total": null,
  "e_ionic": null,
  "e_electronic": null,
  "n": null,
  "e_ij_max": null,
  "weighted_surface_energy_EV_PER_ANG2": null,
  "weighted_surface_energy": null,
  "weighted_work_function": null,
  "surface_anisotropy": null,
  "shape_factor": null,
  "has_reconstructed": null,
  "possible_species": null,
  "has_props": null,
  "theoretical": null,
  "database_IDs": null,
  "fields_not_requested": [
    "builder_meta",
    "nsites",
    "elements",
    "nelements",
    "composition",
    "composition_reduced",
    "chemsys",
    "symmetry",
    "property_name",
    "deprecated",
    "deprecation_reasons",
    "last_updated",
    "origins",
    "warnings",
    "task_ids",
    "uncorrected_energy_per_atom",
    "equilibrium_reaction_energy_per_atom",
    "decomposes_to",
    "xas",
    "grain_boundaries",
    "cbm",
    "vbm",
    "is_gap_direct",
    "is_metal",
    "es_source_calc_id",
    "bandstructure",
    "dos",
    "dos_energy_up",
    "dos_energy_down",
    "is_magnetic",
    "ordering",
    "total_magnetization_normalized_vol",
    "total_magnetization_normalized_formula_units",
    "num_magnetic_sites",
    "num_unique_magnetic_sites",
    "types_of_magnetic_species",
    "bulk_modulus",
    "shear_modulus",
    "universal_anisotropy",
    "homogeneous_poisson",
    "e_total",
    "e_ionic",
    "e_electronic",
    "n",
    "e_ij_max",
    "weighted_surface_energy_EV_PER_ANG2",
    "weighted_surface_energy",
    "weighted_work_function",
    "surface_anisotropy",
    "shape_factor",
    "has_reconstructed",
    "possible_species",
    "has_props",
    "theoretical",
    "database_IDs"
  ]
}
