{"builder_meta": null, "nsites": null, "elements": null, "nelements": null, "composition": null, "composition_reduced": null, "formula_pretty": "Eu3Ga8", "formula_anonymous": "A3B8", "chemsys": null, "volume": 256.65682102115545, "density": 6.5583630007482885, "density_atomic": 23.332438274650496, "symmetry": null, "property_name": null, "material_id": "mp-1102706", "deprecated": null, "deprecation_reasons": null, "last_updated": null, "origins": null, "warnings": null, "structure": {"@module": "pymatgen.core.structure", "@class": "Structure", "charge": 0, "lattice": {"matrix": [[-2.207341, 2.268938, 12.811523], [2.207341, -2.268938, 12.811523], [2.207341, 2.268938, -12.811523]], "pbc": [true, true, true], "a": 13.196800957719033, "b": 13.196800957719033, "c": 13.196800957719033, "alpha": 160.7425164276364, "beta": 160.19978946673908, "gamma": 27.757648410764773, "volume": 256.65682102115545}, "properties": {}, "sites": [{"species": [{"element": "Eu", "occu": 1}], "abc": [0.0, 0.0, 0.0], "properties": {"magmom": 6.788}, "label": "Eu", "xyz": [0.0, 0.0, 0.0]}, {"species": [{"element": "Eu", "occu": 1}], "abc": [0.148240999999999, 0.648241, 0.5], "properties": {"magmom": 6.807}, "label": "Eu", "xyz": [2.207341000000002, -1.9984014443252818e-15, 3.7983859620859866]}, {"species": [{"element": "Eu", "occu": 1}], "abc": [0.851758999999999, 0.351759, 0.5], "properties": {"magmom": 6.807}, "label": "Eu", "xyz": [1.9984014443252818e-15, 2.2689379999999977, 9.013137037913989]}, {"species": [{"element": "Ga", "occu": 1}], "abc": [0.751597, 0.751597, 0.0], "properties": {"magmom": -0.017}, "label": "Ga", "xyz": [0.0, 0.0, 19.258204504461997]}, {"species": [{"element": "Ga", "occu": 1}], "abc": [0.248402999999999, 0.248402999999999, 0.0], "properties": {"magmom": -0.017}, "label": "Ga", "xyz": [0.0, 0.0, 6.364841495537974]}, {"species": [{"element": "Ga", "occu": 1}], "abc": [0.548238, 0.548238, 0.0], "properties": {"magmom": -0.022}, "label": "Ga", "xyz": [0.0, 0.0, 14.047527492948]}, {"species": [{"element": "Ga", "occu": 1}], "abc": [0.451762, 0.451762, 0.0], "properties": {"magmom": -0.022}, "label": "Ga", "xyz": [0.0, 0.0, 11.575518507052]}, {"species": [{"element": "Ga", "occu": 1}], "abc": [0.405443999999999, 0.905443999999999, 0.5], "properties": {"magmom": -0.005}, "label": "Ga", "xyz": [2.207341, -2.220446049250313e-16, 10.388710262423974]}, {"species": [{"element": "Ga", "occu": 1}], "abc": [0.594556, 0.094556, 0.5], "properties": {"magmom": -0.005}, "label": "Ga", "xyz": [0.0, 2.268938, 2.422812737576]}, {"species": [{"element": "Ga", "occu": 1}], "abc": [0.307494999999999, 0.807495, 0.5], "properties": {"magmom": -0.022}, "label": "Ga", "xyz": [2.207341000000002, -1.9984014443252818e-15, 7.878958529769986]}, {"species": [{"element": "Ga", "occu": 1}], "abc": [0.692504999999999, 0.192504999999999, 0.5], "properties": {"magmom": -0.022}, "label": "Ga", "xyz": [0.0, 2.2689380000000003, 4.932564470229974]}]}, "task_ids": null, "uncorrected_energy_per_atom": null, "energy_per_atom": -19.399547082727274, "formation_energy_per_atom": -0.571832924090908, "energy_above_hull": 0.005399372727271001, "is_stable": false, "equilibrium_reaction_energy_per_atom": null, "decomposes_to": null, "xas": null, "grain_boundaries": null, "band_gap": 0.0, "cbm": null, "vbm": null, "efermi": 2.89556644, "is_gap_direct": null, "is_metal": null, "es_source_calc_id": null, "bandstructure": null, "dos": null, "dos_energy_up": null, "dos_energy_down": null, "is_magnetic": null, "ordering": null, "total_magnetization": 21.0011357, "total_magnetization_normalized_vol": null, "total_magnetization_normalized_formula_units": null, "num_magnetic_sites": null, "num_unique_magnetic_sites": null, "types_of_magnetic_species": null, "bulk_modulus": null, "shear_modulus": null, "universal_anisotropy": null, "homogeneous_poisson": null, "e_total": null, "e_ionic": null, "e_electronic": null, "n": null, "e_ij_max": null, "weighted_surface_energy_EV_PER_ANG2": null, "weighted_surface_energy": null, "weighted_work_function": null, "surface_anisotropy": null, "shape_factor": null, "has_reconstructed": null, "possible_species": null, "has_props": null, "theoretical": null, "database_IDs": null, "fields_not_requested": ["builder_meta", "nsites", "elements", "nelements", "composition", "composition_reduced", "chemsys", "symmetry", "property_name", "deprecated", "deprecation_reasons", "last_updated", "origins", "warnings", "task_ids", "uncorrected_energy_per_atom", "equilibrium_reaction_energy_per_atom", "decomposes_to", "xas", "grain_boundaries", "cbm", "vbm", "is_gap_direct", "is_metal", "es_source_calc_id", "bandstructure", "dos", "dos_energy_up", "dos_energy_down", "is_magnetic", "ordering", "total_magnetization_normalized_vol", "total_magnetization_normalized_formula_units", "num_magnetic_sites", "num_unique_magnetic_sites", "types_of_magnetic_species", "bulk_modulus", "shear_modulus", "universal_anisotropy", "homogeneous_poisson", "e_total", "e_ionic", "e_electronic", "n", "e_ij_max", "weighted_surface_energy_EV_PER_ANG2", "weighted_surface_energy", "weighted_work_function", "surface_anisotropy", "shape_factor", "has_reconstructed", "possible_species", "has_props", "theoretical", "database_IDs"]}