{
  "builder_meta": null,
  "nsites": null,
  "elements": null,
  "nelements": null,
  "composition": null,
  "composition_reduced": null,
  "formula_pretty": "Eu3Ga2",
  "formula_anonymous": "A2B3",
  "chemsys": null,
  "volume": 288.13092018098934,
  "density": 6.862033454865123,
  "density_atomic": 28.813092018098935,
  "symmetry": null,
  "property_name": null,
  "material_id": "mp-672286",
  "deprecated": null,
  "deprecation_reasons": null,
  "last_updated": null,
  "origins": null,
  "warnings": null,
  "structure": {
    "@module": "pymatgen.core.structure",
    "@class": "Structure",
    "charge": 0,
    "lattice": {
      "matrix": [
        [5.83553638, 0.01210928, 1.34198842],
        [-0.17208069, 5.83308252, 1.34202263],
        [-0.01646952, -0.01694535, 8.45637732]
      ],
      "pbc": [true, true, true],
      "a": 5.987868101117435,
      "b": 5.987945239264679,
      "c": 8.456410335844993,
      "alpha": 77.16031904592387,
      "beta": 77.1608395193206,
      "gamma": 88.61372476560929,
      "volume": 288.13092018098934
    },
    "properties": {},
    "sites": [
      {
        "species": [{ "element": "Eu", "occu": 1 }],
        "abc": [0.6667827, 0.7411772, 0.02758608],
        "properties": { "magmom": 6.852 },
        "label": "Eu",
        "xyz": [3.7630380899200757, 4.330954572175271, 2.1227695385560756]
      },
      {
        "species": [{ "element": "Eu", "occu": 1 }],
        "abc": [0.25881937, 0.33321746, 0.47241725],
        "properties": { "magmom": 6.852 },
        "label": "Eu",
        "xyz": [1.445229073699613, 1.9388137818582654, 4.789456487919585]
      },
      {
        "species": [{ "element": "Eu", "occu": 1 }],
        "abc": [0.33321716, 0.25882384, 0.97241297],
        "properties": { "magmom": 6.852 },
        "label": "Eu",
        "xyz": [1.8839470997869567, 1.4972979586333324, 9.017612005710628]
      },
      {
        "species": [{ "element": "Eu", "occu": 1 }],
        "abc": [0.82474655, 0.17524425, 0.25000962],
        "properties": { "magmom": 6.876 },
        "label": "Eu",
        "xyz": [4.7785648069091735, 1.0279647577942268, 3.4561577491621467]
      },
      {
        "species": [{ "element": "Eu", "occu": 1 }],
        "abc": [0.17525336, 0.8247559, 0.74999034],
        "properties": { "magmom": 6.876 },
        "label": "Eu",
        "xyz": [0.8684208127392289, 4.800282566756129, 7.684230363107197]
      },
      {
        "species": [{ "element": "Eu", "occu": 1 }],
        "abc": [0.74117995, 0.66678285, 0.52758376],
        "properties": { "magmom": 6.852 },
        "label": "Eu",
        "xyz": [4.201753058156419, 3.889434451048202, 6.350939926496397]
      },
      {
        "species": [{ "element": "Ga", "occu": 1 }],
        "abc": [0.88166362, 0.30592975, 0.83718506],
        "properties": { "magmom": -0.034 },
        "label": "Ga",
        "xyz": [5.078547490871596, 1.7810033948568924, 8.673299770092362]
      },
      {
        "species": [{ "element": "Ga", "occu": 1 }],
        "abc": [0.69406747, 0.11834341, 0.66279493],
        "properties": { "magmom": -0.034 },
        "label": "Ga",
        "xyz": [4.018975441354272, 0.6874802414942391, 6.695094055633053]
      },
      {
        "species": [{ "element": "Ga", "occu": 1 }],
        "abc": [0.30593296000000003, 0.88165747, 0.33720466],
        "properties": { "magmom": -0.034 },
        "label": "Ga",
        "xyz": [1.6280130932478674, 5.140771353772962, 4.445292605287181]
      },
      {
        "species": [{ "element": "Ga", "occu": 1 }],
        "abc": [0.11833585, 0.69406986, 0.16281533],
        "properties": { "magmom": -0.034 },
        "label": "Ga",
        "xyz": [0.568435646982478, 4.04724076721432, 2.4670906632521046]
      }
    ]
  },
  "task_ids": null,
  "uncorrected_energy_per_atom": null,
  "energy_per_atom": -28.162685002,
  "formation_energy_per_atom": -0.473044993000002,
  "energy_above_hull": 0.0,
  "is_stable": true,
  "equilibrium_reaction_energy_per_atom": null,
  "decomposes_to": null,
  "xas": null,
  "grain_boundaries": null,
  "band_gap": 0.0,
  "cbm": null,
  "vbm": null,
  "efermi": 2.60507797,
  "is_gap_direct": null,
  "is_metal": null,
  "es_source_calc_id": null,
  "bandstructure": null,
  "dos": null,
  "dos_energy_up": null,
  "dos_energy_down": null,
  "is_magnetic": null,
  "ordering": null,
  "total_magnetization": 43.8036477,
  "total_magnetization_normalized_vol": null,
  "total_magnetization_normalized_formula_units": null,
  "num_magnetic_sites": null,
  "num_unique_magnetic_sites": null,
  "types_of_magnetic_species": null,
  "bulk_modulus": null,
  "shear_modulus": null,
  "universal_anisotropy": null,
  "homogeneous_poisson": null,
  "e_total": null,
  "e_ionic": null,
  "e_electronic": null,
  "n": null,
  "e_ij_max": null,
  "weighted_surface_energy_EV_PER_ANG2": null,
  "weighted_surface_energy": null,
  "weighted_work_function": null,
  "surface_anisotropy": null,
  "shape_factor": null,
  "has_reconstructed": null,
  "possible_species": null,
  "has_props": null,
  "theoretical": null,
  "database_IDs": null,
  "fields_not_requested": [
    "builder_meta",
    "nsites",
    "elements",
    "nelements",
    "composition",
    "composition_reduced",
    "chemsys",
    "symmetry",
    "property_name",
    "deprecated",
    "deprecation_reasons",
    "last_updated",
    "origins",
    "warnings",
    "task_ids",
    "uncorrected_energy_per_atom",
    "equilibrium_reaction_energy_per_atom",
    "decomposes_to",
    "xas",
    "grain_boundaries",
    "cbm",
    "vbm",
    "is_gap_direct",
    "is_metal",
    "es_source_calc_id",
    "bandstructure",
    "dos",
    "dos_energy_up",
    "dos_energy_down",
    "is_magnetic",
    "ordering",
    "total_magnetization_normalized_vol",
    "total_magnetization_normalized_formula_units",
    "num_magnetic_sites",
    "num_unique_magnetic_sites",
    "types_of_magnetic_species",
    "bulk_modulus",
    "shear_modulus",
    "universal_anisotropy",
    "homogeneous_poisson",
    "e_total",
    "e_ionic",
    "e_electronic",
    "n",
    "e_ij_max",
    "weighted_surface_energy_EV_PER_ANG2",
    "weighted_surface_energy",
    "weighted_work_function",
    "surface_anisotropy",
    "shape_factor",
    "has_reconstructed",
    "possible_species",
    "has_props",
    "theoretical",
    "database_IDs"
  ]
}
