{"builder_meta": null, "nsites": null, "elements": null, "nelements": null, "composition": null, "composition_reduced": null, "formula_pretty": "Eu3H", "formula_anonymous": "AB3", "chemsys": null, "volume": 271.94188730358064, "density": 5.579870077537746, "density_atomic": 33.99273591294758, "symmetry": null, "property_name": null, "material_id": "mp-1184386", "deprecated": null, "deprecation_reasons": null, "last_updated": null, "origins": null, "warnings": null, "structure": {"@module": "pymatgen.core.structure", "@class": "Structure", "charge": 0, "lattice": {"matrix": [[3.597736, -6.231461, 0.0], [3.597736, 6.231461, 0.0], [0.0, 0.0, 6.064946]], "pbc": [true, true, true], "a": 7.1954715286919875, "b": 7.1954715286919875, "c": 6.064946, "alpha": 90.0, "beta": 90.0, "gamma": 119.99999566651229, "volume": 271.94188730358064}, "properties": {}, "sites": [{"species": [{"element": "Eu", "occu": 1}], "abc": [0.168345, 0.33669000000000004, 0.25], "properties": {"magmom": 7.035}, "label": "Eu", "xyz": [1.8169826007600003, 1.0490353020450005, 1.5162365]}, {"species": [{"element": "Eu", "occu": 1}], "abc": [0.6633100000000001, 0.831654999999999, 0.25], "properties": {"magmom": 7.036}, "label": "Eu", "xyz": [5.378489399239996, 1.0490353020449943, 1.5162365]}, {"species": [{"element": "Eu", "occu": 1}], "abc": [0.168345, 0.831654999999999, 0.25], "properties": {"magmom": 7.036}, "label": "Eu", "xyz": [3.5977359999999963, 4.133390395909995, 1.5162365]}, {"species": [{"element": "Eu", "occu": 1}], "abc": [0.831654999999999, 0.6633100000000001, 0.75], "properties": {"magmom": 7.035}, "label": "Eu", "xyz": [5.378489399239996, -1.0490353020449943, 4.5487095]}, {"species": [{"element": "Eu", "occu": 1}], "abc": [0.33669000000000004, 0.168345, 0.75], "properties": {"magmom": 7.036}, "label": "Eu", "xyz": [1.8169826007600003, -1.0490353020450005, 4.5487095]}, {"species": [{"element": "Eu", "occu": 1}], "abc": [0.831654999999999, 0.168345, 0.75], "properties": {"magmom": 7.036}, "label": "Eu", "xyz": [3.5977359999999963, -4.133390395909995, 4.5487095]}, {"species": [{"element": "H", "occu": 1}], "abc": [0.333333, 0.666667, 0.75], "properties": {"magmom": -0.045}, "label": "H", "xyz": [3.597736, 2.0771578209740005, 4.5487095]}, {"species": [{"element": "H", "occu": 1}], "abc": [0.666667, 0.333333, 0.25], "properties": {"magmom": -0.045}, "label": "H", "xyz": [3.597736, -2.0771578209740005, 1.5162365]}]}, "task_ids": null, "uncorrected_energy_per_atom": null, "energy_per_atom": -29.334791410625, "formation_energy_per_atom": 0.419648725937499, "energy_above_hull": 0.6771605431249981, "is_stable": false, "equilibrium_reaction_energy_per_atom": null, "decomposes_to": null, "xas": null, "grain_boundaries": null, "band_gap": 0.0, "cbm": null, "vbm": null, "efermi": 1.87958592, "is_gap_direct": null, "is_metal": null, "es_source_calc_id": null, "bandstructure": null, "dos": null, "dos_energy_up": null, "dos_energy_down": null, "is_magnetic": null, "ordering": null, "total_magnetization": 44.6501519, "total_magnetization_normalized_vol": null, "total_magnetization_normalized_formula_units": null, "num_magnetic_sites": null, "num_unique_magnetic_sites": null, "types_of_magnetic_species": null, "bulk_modulus": null, "shear_modulus": null, "universal_anisotropy": null, "homogeneous_poisson": null, "e_total": null, "e_ionic": null, "e_electronic": null, "n": null, "e_ij_max": null, "weighted_surface_energy_EV_PER_ANG2": null, "weighted_surface_energy": null, "weighted_work_function": null, "surface_anisotropy": null, "shape_factor": null, "has_reconstructed": null, "possible_species": null, "has_props": null, "theoretical": null, "database_IDs": null, "fields_not_requested": ["builder_meta", "nsites", "elements", "nelements", "composition", "composition_reduced", "chemsys", "symmetry", "property_name", "deprecated", "deprecation_reasons", "last_updated", "origins", "warnings", "task_ids", "uncorrected_energy_per_atom", "equilibrium_reaction_energy_per_atom", "decomposes_to", "xas", "grain_boundaries", "cbm", "vbm", "is_gap_direct", "is_metal", "es_source_calc_id", "bandstructure", "dos", "dos_energy_up", "dos_energy_down", "is_magnetic", "ordering", "total_magnetization_normalized_vol", "total_magnetization_normalized_formula_units", "num_magnetic_sites", "num_unique_magnetic_sites", "types_of_magnetic_species", "bulk_modulus", "shear_modulus", "universal_anisotropy", "homogeneous_poisson", "e_total", "e_ionic", "e_electronic", "n", "e_ij_max", "weighted_surface_energy_EV_PER_ANG2", "weighted_surface_energy", "weighted_work_function", "surface_anisotropy", "shape_factor", "has_reconstructed", "possible_species", "has_props", "theoretical", "database_IDs"]}