{"builder_meta": null, "nsites": null, "elements": null, "nelements": null, "composition": null, "composition_reduced": null, "formula_pretty": "Eu3Ho", "formula_anonymous": "AB3", "chemsys": null, "volume": 309.5444906046413, "density": 6.66075311993803, "density_atomic": 38.69306132558016, "symmetry": null, "property_name": null, "material_id": "mp-1184407", "deprecated": null, "deprecation_reasons": null, "last_updated": null, "origins": null, "warnings": null, "structure": {"@module": "pymatgen.core.structure", "@class": "Structure", "charge": 0, "lattice": {"matrix": [[3.821018999999999, -6.618198, 0.0], [3.821018999999999, 6.618198, 0.0], [0.0, 0.0, 6.12032]], "pbc": [true, true, true], "a": 7.6420370952753816, "b": 7.6420370952753816, "c": 6.12032, "alpha": 90.0, "beta": 90.0, "gamma": 119.99999216752038, "volume": 309.5444906046412}, "properties": {}, "sites": [{"species": [{"element": "Eu", "occu": 1}], "abc": [0.170062, 0.340123, 0.25], "properties": {"magmom": 6.931}, "label": "Eu", "xyz": [1.9494265785149993, 1.125497370078, 1.53008]}, {"species": [{"element": "Eu", "occu": 1}], "abc": [0.659876999999999, 0.829938, 0.25], "properties": {"magmom": 6.929}, "label": "Eu", "xyz": [5.692611421484994, 1.1254973700780067, 1.53008]}, {"species": [{"element": "Eu", "occu": 1}], "abc": [0.170062, 0.829938, 0.25], "properties": {"magmom": 6.931}, "label": "Eu", "xyz": [3.8210189999999984, 4.367190023448, 1.53008]}, {"species": [{"element": "Eu", "occu": 1}], "abc": [0.829938, 0.659876999999999, 0.75], "properties": {"magmom": 6.931}, "label": "Eu", "xyz": [5.692611421484994, -1.1254973700780067, 4.5902400000000005]}, {"species": [{"element": "Eu", "occu": 1}], "abc": [0.340123, 0.170062, 0.75], "properties": {"magmom": 6.93}, "label": "Eu", "xyz": [1.9494265785149993, -1.125497370078, 4.5902400000000005]}, {"species": [{"element": "Eu", "occu": 1}], "abc": [0.829938, 0.170062, 0.75], "properties": {"magmom": 6.931}, "label": "Eu", "xyz": [3.8210189999999984, -4.367190023448, 4.5902400000000005]}, {"species": [{"element": "Ho", "occu": 1}], "abc": [0.333333, 0.666667, 0.75], "properties": {"magmom": 0.228}, "label": "Ho", "xyz": [3.821018999999999, 2.206070412132, 4.5902400000000005]}, {"species": [{"element": "Ho", "occu": 1}], "abc": [0.666667, 0.333333, 0.25], "properties": {"magmom": 0.229}, "label": "Ho", "xyz": [3.821018999999999, -2.206070412132, 1.53008]}]}, "task_ids": null, "uncorrected_energy_per_atom": null, "energy_per_atom": -37.0282768025, "formation_energy_per_atom": 0.082721212499997, "energy_above_hull": 0.082721212499997, "is_stable": false, "equilibrium_reaction_energy_per_atom": null, "decomposes_to": null, "xas": null, "grain_boundaries": null, "band_gap": 0.0, "cbm": null, "vbm": null, "efermi": 2.31342495, "is_gap_direct": null, "is_metal": null, "es_source_calc_id": null, "bandstructure": null, "dos": null, "dos_energy_up": null, "dos_energy_down": null, "is_magnetic": null, "ordering": null, "total_magnetization": 44.6023603, "total_magnetization_normalized_vol": null, "total_magnetization_normalized_formula_units": null, "num_magnetic_sites": null, "num_unique_magnetic_sites": null, "types_of_magnetic_species": null, "bulk_modulus": null, "shear_modulus": null, "universal_anisotropy": null, "homogeneous_poisson": null, "e_total": null, "e_ionic": null, "e_electronic": null, "n": null, "e_ij_max": null, "weighted_surface_energy_EV_PER_ANG2": null, "weighted_surface_energy": null, "weighted_work_function": null, "surface_anisotropy": null, "shape_factor": null, "has_reconstructed": null, "possible_species": null, "has_props": null, "theoretical": null, "database_IDs": null, "fields_not_requested": ["builder_meta", "nsites", "elements", "nelements", "composition", "composition_reduced", "chemsys", "symmetry", "property_name", "deprecated", "deprecation_reasons", "last_updated", "origins", "warnings", "task_ids", "uncorrected_energy_per_atom", "equilibrium_reaction_energy_per_atom", "decomposes_to", "xas", "grain_boundaries", "cbm", "vbm", "is_gap_direct", "is_metal", "es_source_calc_id", "bandstructure", "dos", "dos_energy_up", "dos_energy_down", "is_magnetic", "ordering", "total_magnetization_normalized_vol", "total_magnetization_normalized_formula_units", "num_magnetic_sites", "num_unique_magnetic_sites", "types_of_magnetic_species", "bulk_modulus", "shear_modulus", "universal_anisotropy", "homogeneous_poisson", "e_total", "e_ionic", "e_electronic", "n", "e_ij_max", "weighted_surface_energy_EV_PER_ANG2", "weighted_surface_energy", "weighted_work_function", "surface_anisotropy", "shape_factor", "has_reconstructed", "possible_species", "has_props", "theoretical", "database_IDs"]}