{"builder_meta": null, "nsites": null, "elements": null, "nelements": null, "composition": null, "composition_reduced": null, "formula_pretty": "Eu3In", "formula_anonymous": "AB3", "chemsys": null, "volume": 270.9237582210831, "density": 6.99596267910872, "density_atomic": 33.86546977763539, "symmetry": null, "property_name": null, "material_id": "mp-1184515", "deprecated": null, "deprecation_reasons": null, "last_updated": null, "origins": null, "warnings": null, "structure": {"@module": "pymatgen.core.structure", "@class": "Structure", "charge": 0, "lattice": {"matrix": [[3.69584324, -6.40129137, 0.0], [3.6958577200000002, 6.40129976, 0.0], [0.0, 0.0, 5.72578218]], "pbc": [true, true, true], "a": 7.391602563604875, "b": 7.391617069617423, "c": 5.72578218, "alpha": 90.0, "beta": 90.0, "gamma": 119.99918420882342, "volume": 270.9237582210832}, "properties": {}, "sites": [{"species": [{"element": "Eu", "occu": 1}], "abc": [0.17542167, 0.3508478, 0.25], "properties": {"magmom": 6.9350000000000005}, "label": "Eu", "xyz": [1.9450145433940267, 1.12295671565454, 1.431445545]}, {"species": [{"element": "Eu", "occu": 1}], "abc": [0.6491534, 0.8245774100000001, 0.25], "properties": {"magmom": 6.9350000000000005}, "label": "Eu", "xyz": [5.446689991599122, 1.1229471195082636, 1.431445545]}, {"species": [{"element": "Eu", "occu": 1}], "abc": [0.17542364, 0.82457686, 0.25], "properties": {"magmom": 6.9350000000000005}, "label": "Eu", "xyz": [3.6958570277945526, 4.155425823193566, 1.431445545]}, {"species": [{"element": "Eu", "occu": 1}], "abc": [0.82457833, 0.6491522, 0.75], "properties": {"magmom": 6.9350000000000005}, "label": "Eu", "xyz": [5.446686416605973, -1.1229483256545407, 4.2943366350000005]}, {"species": [{"element": "Eu", "occu": 1}], "abc": [0.3508466, 0.17542259000000002, 0.75], "properties": {"magmom": 6.9350000000000005}, "label": "Eu", "xyz": [1.945010968400879, -1.1229387295082636, 4.2943366350000005]}, {"species": [{"element": "Eu", "occu": 1}], "abc": [0.82457636, 0.17542314, 0.75], "properties": {"magmom": 6.9350000000000005}, "label": "Eu", "xyz": [3.695843932205447, -4.155417433193566, 4.2943366350000005]}, {"species": [{"element": "In", "occu": 1}], "abc": [0.33333447, 0.66666777, 0.75], "properties": {"magmom": -0.147}, "label": "In", "xyz": [3.6958611720381676, 2.133769169966211, 4.2943366350000005]}, {"species": [{"element": "In", "occu": 1}], "abc": [0.6666655300000001, 0.33333223, 0.25], "properties": {"magmom": -0.147}, "label": "In", "xyz": [3.695839787961833, -2.1337607799662113, 1.431445545]}]}, "task_ids": null, "uncorrected_energy_per_atom": null, "energy_per_atom": -8.6312888225, "formation_energy_per_atom": -0.22541145041667002, "energy_above_hull": 0.025883434583333004, "is_stable": false, "equilibrium_reaction_energy_per_atom": null, "decomposes_to": null, "xas": null, "grain_boundaries": null, "band_gap": 0.0, "cbm": null, "vbm": null, "efermi": 3.26382801, "is_gap_direct": null, "is_metal": null, "es_source_calc_id": null, "bandstructure": null, "dos": null, "dos_energy_up": null, "dos_energy_down": null, "is_magnetic": null, "ordering": null, "total_magnetization": 44.2057905, "total_magnetization_normalized_vol": null, "total_magnetization_normalized_formula_units": null, "num_magnetic_sites": null, "num_unique_magnetic_sites": null, "types_of_magnetic_species": null, "bulk_modulus": null, "shear_modulus": null, "universal_anisotropy": null, "homogeneous_poisson": null, "e_total": null, "e_ionic": null, "e_electronic": null, "n": null, "e_ij_max": null, "weighted_surface_energy_EV_PER_ANG2": null, "weighted_surface_energy": null, "weighted_work_function": null, "surface_anisotropy": null, "shape_factor": null, "has_reconstructed": null, "possible_species": null, "has_props": null, "theoretical": null, "database_IDs": null, "fields_not_requested": ["builder_meta", "nsites", "elements", "nelements", "composition", "composition_reduced", "chemsys", "symmetry", "property_name", "deprecated", "deprecation_reasons", "last_updated", "origins", "warnings", "task_ids", "uncorrected_energy_per_atom", "equilibrium_reaction_energy_per_atom", "decomposes_to", "xas", "grain_boundaries", "cbm", "vbm", "is_gap_direct", "is_metal", "es_source_calc_id", "bandstructure", "dos", "dos_energy_up", "dos_energy_down", "is_magnetic", "ordering", "total_magnetization_normalized_vol", "total_magnetization_normalized_formula_units", "num_magnetic_sites", "num_unique_magnetic_sites", "types_of_magnetic_species", "bulk_modulus", "shear_modulus", "universal_anisotropy", "homogeneous_poisson", "e_total", "e_ionic", "e_electronic", "n", "e_ij_max", "weighted_surface_energy_EV_PER_ANG2", "weighted_surface_energy", "weighted_work_function", "surface_anisotropy", "shape_factor", "has_reconstructed", "possible_species", "has_props", "theoretical", "database_IDs"]}