{
  "builder_meta": null,
  "nsites": null,
  "elements": null,
  "nelements": null,
  "composition": null,
  "composition_reduced": null,
  "formula_pretty": "Eu3Mg",
  "formula_anonymous": "AB3",
  "chemsys": null,
  "volume": 150.94019806462134,
  "density": 5.282793373722346,
  "density_atomic": 37.735049516155335,
  "symmetry": null,
  "property_name": null,
  "material_id": "mp-1184342",
  "deprecated": null,
  "deprecation_reasons": null,
  "last_updated": null,
  "origins": null,
  "warnings": null,
  "structure": {
    "@module": "pymatgen.core.structure",
    "@class": "Structure",
    "charge": 0,
    "lattice": {
      "matrix": [
        [-2.09113065, 2.93996777, 6.12877141],
        [2.09113065, -2.94707821, 6.13224486],
        [2.09113065, 2.94707821, -6.13224486]
      ],
      "pbc": [true, true, true],
      "a": 7.111826550193809,
      "b": 7.117761192553642,
      "c": 7.117761192553642,
      "alpha": 145.8299502330614,
      "beta": 131.12271223379798,
      "gamma": 60.99380811760495,
      "volume": 150.94019806462134
    },
    "properties": {},
    "sites": [
      {
        "species": [{ "element": "Eu", "occu": 1 }],
        "abc": [0.80487876, 0.72809938, 0.07678038],
        "properties": { "magmom": 7.083 },
        "label": "Eu",
        "xyz": [2.091130649722883e-6, 0.44682958049857535, 8.92696552277459]
      },
      {
        "species": [{ "element": "Eu", "occu": 1 }],
        "abc": [0.08844945, 0.5000126500000001, 0.5884368],
        "properties": { "magmom": 7.001 },
        "label": "Eu",
        "xyz": [2.09113065, 0.5206314179769977, -0.00015207894714430736]
      },
      {
        "species": [{ "element": "Eu", "occu": 1 }],
        "abc": [0.34868814, 0.27188205, 0.07680609000000001],
        "properties": { "magmom": 7.083 },
        "label": "Eu",
        "xyz": [0.0, 0.45022778237041616, 3.3332834564576426]
      },
      {
        "species": [{ "element": "Mg", "occu": 1 }],
        "abc": [0.59130964, 5.91e-6, 0.59130373],
        "properties": { "magmom": -0.006 },
        "label": "Mg",
        "xyz": [0.0, 3.481032204632805, -0.001981401334813615]
      }
    ]
  },
  "task_ids": null,
  "uncorrected_energy_per_atom": null,
  "energy_per_atom": -8.122348405,
  "formation_energy_per_atom": 0.0013530349999950001,
  "energy_above_hull": 0.033562665312496,
  "is_stable": false,
  "equilibrium_reaction_energy_per_atom": null,
  "decomposes_to": null,
  "xas": null,
  "grain_boundaries": null,
  "band_gap": 0.0,
  "cbm": null,
  "vbm": null,
  "efermi": 2.29386879,
  "is_gap_direct": null,
  "is_metal": null,
  "es_source_calc_id": null,
  "bandstructure": null,
  "dos": null,
  "dos_energy_up": null,
  "dos_energy_down": null,
  "is_magnetic": null,
  "ordering": null,
  "total_magnetization": 23.8481554,
  "total_magnetization_normalized_vol": null,
  "total_magnetization_normalized_formula_units": null,
  "num_magnetic_sites": null,
  "num_unique_magnetic_sites": null,
  "types_of_magnetic_species": null,
  "bulk_modulus": null,
  "shear_modulus": null,
  "universal_anisotropy": null,
  "homogeneous_poisson": null,
  "e_total": null,
  "e_ionic": null,
  "e_electronic": null,
  "n": null,
  "e_ij_max": null,
  "weighted_surface_energy_EV_PER_ANG2": null,
  "weighted_surface_energy": null,
  "weighted_work_function": null,
  "surface_anisotropy": null,
  "shape_factor": null,
  "has_reconstructed": null,
  "possible_species": null,
  "has_props": null,
  "theoretical": null,
  "database_IDs": null,
  "fields_not_requested": [
    "builder_meta",
    "nsites",
    "elements",
    "nelements",
    "composition",
    "composition_reduced",
    "chemsys",
    "symmetry",
    "property_name",
    "deprecated",
    "deprecation_reasons",
    "last_updated",
    "origins",
    "warnings",
    "task_ids",
    "uncorrected_energy_per_atom",
    "equilibrium_reaction_energy_per_atom",
    "decomposes_to",
    "xas",
    "grain_boundaries",
    "cbm",
    "vbm",
    "is_gap_direct",
    "is_metal",
    "es_source_calc_id",
    "bandstructure",
    "dos",
    "dos_energy_up",
    "dos_energy_down",
    "is_magnetic",
    "ordering",
    "total_magnetization_normalized_vol",
    "total_magnetization_normalized_formula_units",
    "num_magnetic_sites",
    "num_unique_magnetic_sites",
    "types_of_magnetic_species",
    "bulk_modulus",
    "shear_modulus",
    "universal_anisotropy",
    "homogeneous_poisson",
    "e_total",
    "e_ionic",
    "e_electronic",
    "n",
    "e_ij_max",
    "weighted_surface_energy_EV_PER_ANG2",
    "weighted_surface_energy",
    "weighted_work_function",
    "surface_anisotropy",
    "shape_factor",
    "has_reconstructed",
    "possible_species",
    "has_props",
    "theoretical",
    "database_IDs"
  ]
}
