{"builder_meta": null, "nsites": null, "elements": null, "nelements": null, "composition": null, "composition_reduced": null, "formula_pretty": "Eu3Mo", "formula_anonymous": "AB3", "chemsys": null, "volume": 124.76872013698112, "density": 7.344297458481429, "density_atomic": 31.19218003424528, "symmetry": null, "property_name": null, "material_id": "mp-1184438", "deprecated": null, "deprecation_reasons": null, "last_updated": null, "origins": null, "warnings": null, "structure": {"@module": "pymatgen.core.structure", "@class": "Structure", "charge": 0, "lattice": {"matrix": [[-2.7321210000000002, 2.7321210000000002, 4.178745], [2.7321210000000002, -2.7321210000000002, 4.178745], [2.7321210000000002, 2.7321210000000002, -4.178745]], "pbc": [true, true, true], "a": 5.6912986296896255, "b": 5.6912986296896255, "c": 5.6912986296896255, "alpha": 122.62236420546911, "beta": 122.62236420546911, "gamma": 85.5149393986433, "volume": 124.76872013698116}, "properties": {}, "sites": [{"species": [{"element": "Eu", "occu": 1}], "abc": [0.75, 0.25, 0.5], "properties": {"magmom": 6.858}, "label": "Eu", "xyz": [-2.220446049250313e-16, 2.7321210000000002, 2.0893725]}, {"species": [{"element": "Eu", "occu": 1}], "abc": [0.25, 0.75, 0.5], "properties": {"magmom": 6.858}, "label": "Eu", "xyz": [2.7321210000000002, -2.220446049250313e-16, 2.0893725]}, {"species": [{"element": "Eu", "occu": 1}], "abc": [0.499998999999999, 0.499998999999999, 0.0], "properties": {"magmom": 6.88}, "label": "Eu", "xyz": [0.0, 0.0, 4.178736642509992]}, {"species": [{"element": "Mo", "occu": 1}], "abc": [0.0, 0.0, 0.0], "properties": {"magmom": 1.403}, "label": "Mo", "xyz": [0.0, 0.0, 0.0]}]}, "task_ids": null, "uncorrected_energy_per_atom": null, "energy_per_atom": -34.71888792875, "formation_energy_per_atom": 0.6897689675, "energy_above_hull": 0.6897689675, "is_stable": false, "equilibrium_reaction_energy_per_atom": null, "decomposes_to": null, "xas": null, "grain_boundaries": null, "band_gap": 0.0, "cbm": null, "vbm": null, "efermi": 3.14576936, "is_gap_direct": null, "is_metal": null, "es_source_calc_id": null, "bandstructure": null, "dos": null, "dos_energy_up": null, "dos_energy_down": null, "is_magnetic": null, "ordering": null, "total_magnetization": 23.1290201, "total_magnetization_normalized_vol": null, "total_magnetization_normalized_formula_units": null, "num_magnetic_sites": null, "num_unique_magnetic_sites": null, "types_of_magnetic_species": null, "bulk_modulus": null, "shear_modulus": null, "universal_anisotropy": null, "homogeneous_poisson": null, "e_total": null, "e_ionic": null, "e_electronic": null, "n": null, "e_ij_max": null, "weighted_surface_energy_EV_PER_ANG2": null, "weighted_surface_energy": null, "weighted_work_function": null, "surface_anisotropy": null, "shape_factor": null, "has_reconstructed": null, "possible_species": null, "has_props": null, "theoretical": null, "database_IDs": null, "fields_not_requested": ["builder_meta", "nsites", "elements", "nelements", "composition", "composition_reduced", "chemsys", "symmetry", "property_name", "deprecated", "deprecation_reasons", "last_updated", "origins", "warnings", "task_ids", "uncorrected_energy_per_atom", "equilibrium_reaction_energy_per_atom", "decomposes_to", "xas", "grain_boundaries", "cbm", "vbm", "is_gap_direct", "is_metal", "es_source_calc_id", "bandstructure", "dos", "dos_energy_up", "dos_energy_down", "is_magnetic", "ordering", "total_magnetization_normalized_vol", "total_magnetization_normalized_formula_units", "num_magnetic_sites", "num_unique_magnetic_sites", "types_of_magnetic_species", "bulk_modulus", "shear_modulus", "universal_anisotropy", "homogeneous_poisson", "e_total", "e_ionic", "e_electronic", "n", "e_ij_max", "weighted_surface_energy_EV_PER_ANG2", "weighted_surface_energy", "weighted_work_function", "surface_anisotropy", "shape_factor", "has_reconstructed", "possible_species", "has_props", "theoretical", "database_IDs"]}