{"builder_meta": null, "nsites": null, "elements": null, "nelements": null, "composition": null, "composition_reduced": null, "formula_pretty": "Eu3Nb", "formula_anonymous": "AB3", "chemsys": null, "volume": 135.26424238415498, "density": 6.737191837356884, "density_atomic": 33.816060596038746, "symmetry": null, "property_name": null, "material_id": "mp-1184198", "deprecated": null, "deprecation_reasons": null, "last_updated": null, "origins": null, "warnings": null, "structure": {"@module": "pymatgen.core.structure", "@class": "Structure", "charge": 0.0, "lattice": {"matrix": [[-2.76660248, 2.76660248, 4.41803843], [2.76660248, -2.76660248, 4.41803843], [2.76660248, 2.76660248, -4.41803843]], "pbc": [true, true, true], "a": 5.901461016870413, "b": 5.901461016870413, "c": 5.901461016870413, "alpha": 124.08719354461599, "beta": 124.08719354461599, "gamma": 83.05550318915687, "volume": 135.26424238415498}, "properties": {}, "sites": [{"species": [{"element": "Eu", "occu": 1}], "abc": [0.750000999999999, 0.25, 0.500001], "properties": {"magmom": 6.942}, "label": "Eu", "xyz": [2.4424906541753444e-15, 2.7666080132049578, 2.2090192149999957]}, {"species": [{"element": "Eu", "occu": 1}], "abc": [0.25, 0.750000999999999, 0.500001], "properties": {"magmom": 6.942}, "label": "Eu", "xyz": [2.7666080132049578, 2.4424906541753444e-15, 2.2090192149999957]}, {"species": [{"element": "Eu", "occu": 1}], "abc": [0.5, 0.5, 0.0], "properties": {"magmom": 6.934}, "label": "Eu", "xyz": [0.0, 0.0, 4.41803843]}, {"species": [{"element": "Nb", "occu": 1}], "abc": [0.0, -0.0, 0.0], "properties": {"magmom": 2.489}, "label": "Nb", "xyz": [0.0, 0.0, 0.0]}]}, "task_ids": null, "uncorrected_energy_per_atom": null, "energy_per_atom": -34.5241163925, "formation_energy_per_atom": 0.550064306249999, "energy_above_hull": 0.550064306249999, "is_stable": false, "equilibrium_reaction_energy_per_atom": null, "decomposes_to": null, "xas": null, "grain_boundaries": null, "band_gap": 0.0, "cbm": null, "vbm": null, "efermi": 2.83135671, "is_gap_direct": null, "is_metal": null, "es_source_calc_id": null, "bandstructure": null, "dos": null, "dos_energy_up": null, "dos_energy_down": null, "is_magnetic": null, "ordering": null, "total_magnetization": 25.7650889, "total_magnetization_normalized_vol": null, "total_magnetization_normalized_formula_units": null, "num_magnetic_sites": null, "num_unique_magnetic_sites": null, "types_of_magnetic_species": null, "bulk_modulus": null, "shear_modulus": null, "universal_anisotropy": null, "homogeneous_poisson": null, "e_total": null, "e_ionic": null, "e_electronic": null, "n": null, "e_ij_max": null, "weighted_surface_energy_EV_PER_ANG2": null, "weighted_surface_energy": null, "weighted_work_function": null, "surface_anisotropy": null, "shape_factor": null, "has_reconstructed": null, "possible_species": null, "has_props": null, "theoretical": null, "database_IDs": null, "fields_not_requested": ["builder_meta", "nsites", "elements", "nelements", "composition", "composition_reduced", "chemsys", "symmetry", "property_name", "deprecated", "deprecation_reasons", "last_updated", "origins", "warnings", "task_ids", "uncorrected_energy_per_atom", "equilibrium_reaction_energy_per_atom", "decomposes_to", "xas", "grain_boundaries", "cbm", "vbm", "is_gap_direct", "is_metal", "es_source_calc_id", "bandstructure", "dos", "dos_energy_up", "dos_energy_down", "is_magnetic", "ordering", "total_magnetization_normalized_vol", "total_magnetization_normalized_formula_units", "num_magnetic_sites", "num_unique_magnetic_sites", "types_of_magnetic_species", "bulk_modulus", "shear_modulus", "universal_anisotropy", "homogeneous_poisson", "e_total", "e_ionic", "e_electronic", "n", "e_ij_max", "weighted_surface_energy_EV_PER_ANG2", "weighted_surface_energy", "weighted_work_function", "surface_anisotropy", "shape_factor", "has_reconstructed", "possible_species", "has_props", "theoretical", "database_IDs"]}