{"builder_meta": null, "nsites": null, "elements": null, "nelements": null, "composition": null, "composition_reduced": null, "formula_pretty": "Eu3O4", "formula_anonymous": "A3B4", "chemsys": null, "volume": 434.60938542345167, "density": 7.945497912134719, "density_atomic": 15.521763765123273, "symmetry": null, "property_name": null, "material_id": "mp-1182716", "deprecated": null, "deprecation_reasons": null, "last_updated": null, "origins": null, "warnings": null, "structure": {"@module": "pymatgen.core.structure", "@class": "Structure", "charge": 0, "lattice": {"matrix": [[3.491793, 0.0, 0.0], [0.0, 10.134375, 0.0], [0.0, 0.0, 12.281563]], "pbc": [true, true, true], "a": 3.491793, "b": 10.134375, "c": 12.281563, "alpha": 90.0, "beta": 90.0, "gamma": 90.0, "volume": 434.60938542345167}, "properties": {}, "sites": [{"species": [{"element": "Eu", "occu": 1}], "abc": [0.25, 0.424268, 0.612401], "properties": {"magmom": 6.359}, "label": "Eu", "xyz": [0.87294825, 4.2996910125, 7.521241462763]}, {"species": [{"element": "Eu", "occu": 1}], "abc": [0.25, 0.924268, 0.887598999999999], "properties": {"magmom": 6.359}, "label": "Eu", "xyz": [0.87294825, 9.3668785125, 10.901103037236988]}, {"species": [{"element": "Eu", "occu": 1}], "abc": [0.75, 0.575732, 0.387598999999999], "properties": {"magmom": 6.359}, "label": "Eu", "xyz": [2.61884475, 5.8346839875, 4.7603215372369885]}, {"species": [{"element": "Eu", "occu": 1}], "abc": [0.75, 0.075732, 0.112401], "properties": {"magmom": 6.359}, "label": "Eu", "xyz": [2.61884475, 0.7674964875, 1.380459962763]}, {"species": [{"element": "Eu", "occu": 1}], "abc": [0.25, 0.417788, 0.112652999999999], "properties": {"magmom": 6.389}, "label": "Eu", "xyz": [0.87294825, 4.2340202625, 1.3835549166389878]}, {"species": [{"element": "Eu", "occu": 1}], "abc": [0.25, 0.917787999999999, 0.387347], "properties": {"magmom": 6.385}, "label": "Eu", "xyz": [0.87294825, 9.30120776249999, 4.757226583361]}, {"species": [{"element": "Eu", "occu": 1}], "abc": [0.75, 0.582212, 0.887347], "properties": {"magmom": 6.39}, "label": "Eu", "xyz": [2.61884475, 5.9003547375, 10.898008083361]}, {"species": [{"element": "Eu", "occu": 1}], "abc": [0.75, 0.082212, 0.612653], "properties": {"magmom": 6.386}, "label": "Eu", "xyz": [2.61884475, 0.8331672375, 7.5243364166390005]}, {"species": [{"element": "Eu", "occu": 1}], "abc": [0.25, 0.257111, 0.351130999999999], "properties": {"magmom": 6.525}, "label": "Eu", "xyz": [0.87294825, 2.605659290625, 4.312437497752988]}, {"species": [{"element": "Eu", "occu": 1}], "abc": [0.25, 0.757111, 0.148869], "properties": {"magmom": 6.524}, "label": "Eu", "xyz": [0.87294825, 7.672846790625, 1.828344002247]}, {"species": [{"element": "Eu", "occu": 1}], "abc": [0.75, 0.742889, 0.648868999999999], "properties": {"magmom": 6.527}, "label": "Eu", "xyz": [2.61884475, 7.528715709375001, 7.969125502246988]}, {"species": [{"element": "Eu", "occu": 1}], "abc": [0.75, 0.242889, 0.851131], "properties": {"magmom": 6.525}, "label": "Eu", "xyz": [2.61884475, 2.461528209375, 10.453218997753]}, {"species": [{"element": "O", "occu": 1}], "abc": [0.25, 0.22191000000000002, 0.699010999999999], "properties": {"magmom": -0.124}, "label": "O", "xyz": [0.87294825, 2.2489191562500004, 8.58494763419299]}, {"species": [{"element": "O", "occu": 1}], "abc": [0.25, 0.72191, 0.800989], "properties": {"magmom": -0.123}, "label": "O", "xyz": [0.87294825, 7.316106656250001, 9.837396865807]}, {"species": [{"element": "O", "occu": 1}], "abc": [0.75, 0.7780900000000001, 0.300989], "properties": {"magmom": -0.124}, "label": "O", "xyz": [2.61884475, 7.885455843750001, 3.6966153658070002]}, {"species": [{"element": "O", "occu": 1}], "abc": [0.75, 0.27809, 0.199011], "properties": {"magmom": -0.124}, "label": "O", "xyz": [2.61884475, 2.8182683437500002, 2.444166134193]}, {"species": [{"element": "O", "occu": 1}], "abc": [0.25, 0.13918, 0.976749], "properties": {"magmom": -0.14300000000000002}, "label": "O", "xyz": [0.87294825, 1.4105023125, 11.996004378687]}, {"species": [{"element": "O", "occu": 1}], "abc": [0.25, 0.6391800000000001, 0.523251], "properties": {"magmom": -0.14300000000000002}, "label": "O", "xyz": [0.87294825, 6.477689812500001, 6.426340121313]}, {"species": [{"element": "O", "occu": 1}], "abc": [0.75, 0.86082, 0.023250999999999], "properties": {"magmom": -0.14300000000000002}, "label": "O", "xyz": [2.61884475, 8.7238726875, 0.28555862131298776]}, {"species": [{"element": "O", "occu": 1}], "abc": [0.75, 0.36082000000000003, 0.476749], "properties": {"magmom": -0.14300000000000002}, "label": "O", "xyz": [2.61884475, 3.6566851875000004, 5.855222878687]}, {"species": [{"element": "O", "occu": 1}], "abc": [0.25, 0.992266, 0.208142], "properties": {"magmom": -0.136}, "label": "O", "xyz": [0.87294825, 10.05599574375, 2.556309085946]}, {"species": [{"element": "O", "occu": 1}], "abc": [0.25, 0.492266, 0.291858], "properties": {"magmom": -0.136}, "label": "O", "xyz": [0.87294825, 4.98880824375, 3.5844724140540003]}, {"species": [{"element": "O", "occu": 1}], "abc": [0.75, 0.007733999999999, 0.791858], "properties": {"magmom": -0.137}, "label": "O", "xyz": [2.61884475, 0.07837925624998987, 9.725253914053999]}, {"species": [{"element": "O", "occu": 1}], "abc": [0.75, 0.507734, 0.708141999999999], "properties": {"magmom": -0.136}, "label": "O", "xyz": [2.61884475, 5.14556675625, 8.697090585945988]}, {"species": [{"element": "O", "occu": 1}], "abc": [0.25, 0.421058, 0.915640999999999], "properties": {"magmom": -0.122}, "label": "O", "xyz": [0.87294825, 4.26715966875, 11.245502626882988]}, {"species": [{"element": "O", "occu": 1}], "abc": [0.25, 0.921057999999999, 0.584359], "properties": {"magmom": -0.123}, "label": "O", "xyz": [0.87294825, 9.334347168749991, 7.176841873117]}, {"species": [{"element": "O", "occu": 1}], "abc": [0.75, 0.578942, 0.084358999999999], "properties": {"magmom": -0.123}, "label": "O", "xyz": [2.61884475, 5.86721533125, 1.0360603731169877]}, {"species": [{"element": "O", "occu": 1}], "abc": [0.75, 0.078942, 0.415641], "properties": {"magmom": -0.123}, "label": "O", "xyz": [2.61884475, 0.80002783125, 5.104721126883]}]}, "task_ids": null, "uncorrected_energy_per_atom": null, "energy_per_atom": -10.455679870714286, "formation_energy_per_atom": -3.219082761428573, "energy_above_hull": 0.13416122071428402, "is_stable": false, "equilibrium_reaction_energy_per_atom": null, "decomposes_to": null, "xas": null, "grain_boundaries": null, "band_gap": 0.0, "cbm": null, "vbm": null, "efermi": 2.846136989999999, "is_gap_direct": null, "is_metal": null, "es_source_calc_id": null, "bandstructure": null, "dos": null, "dos_energy_up": null, "dos_energy_down": null, "is_magnetic": null, "ordering": null, "total_magnetization": 76.0000003, "total_magnetization_normalized_vol": null, "total_magnetization_normalized_formula_units": null, "num_magnetic_sites": null, "num_unique_magnetic_sites": null, "types_of_magnetic_species": null, "bulk_modulus": null, "shear_modulus": null, "universal_anisotropy": null, "homogeneous_poisson": null, "e_total": null, "e_ionic": null, "e_electronic": null, "n": null, "e_ij_max": null, "weighted_surface_energy_EV_PER_ANG2": null, "weighted_surface_energy": null, "weighted_work_function": null, "surface_anisotropy": null, "shape_factor": null, "has_reconstructed": null, "possible_species": null, "has_props": null, "theoretical": null, "database_IDs": null, "fields_not_requested": ["builder_meta", "nsites", "elements", "nelements", "composition", "composition_reduced", "chemsys", "symmetry", "property_name", "deprecated", "deprecation_reasons", "last_updated", "origins", "warnings", "task_ids", "uncorrected_energy_per_atom", "equilibrium_reaction_energy_per_atom", "decomposes_to", "xas", "grain_boundaries", "cbm", "vbm", "is_gap_direct", "is_metal", "es_source_calc_id", "bandstructure", "dos", "dos_energy_up", "dos_energy_down", "is_magnetic", "ordering", "total_magnetization_normalized_vol", "total_magnetization_normalized_formula_units", "num_magnetic_sites", "num_unique_magnetic_sites", "types_of_magnetic_species", "bulk_modulus", "shear_modulus", "universal_anisotropy", "homogeneous_poisson", "e_total", "e_ionic", "e_electronic", "n", "e_ij_max", "weighted_surface_energy_EV_PER_ANG2", "weighted_surface_energy", "weighted_work_function", "surface_anisotropy", "shape_factor", "has_reconstructed", "possible_species", "has_props", "theoretical", "database_IDs"]}