{
  "builder_meta": null,
  "nsites": null,
  "elements": null,
  "nelements": null,
  "composition": null,
  "composition_reduced": null,
  "formula_pretty": "Eu3Pt2",
  "formula_anonymous": "A2B3",
  "chemsys": null,
  "volume": 423.1014368673578,
  "density": 9.96155219719594,
  "density_atomic": 28.206762457823853,
  "symmetry": null,
  "property_name": null,
  "material_id": "mp-1104698",
  "deprecated": null,
  "deprecation_reasons": null,
  "last_updated": null,
  "origins": null,
  "warnings": null,
  "structure": {
    "@module": "pymatgen.core.structure",
    "@class": "Structure",
    "charge": 0,
    "lattice": {
      "matrix": [
        [6.359105, -4.597415, 0.0],
        [6.359105, 4.597415, 0.0],
        [3.035332, 0.0, 7.236104]
      ],
      "pbc": [true, true, true],
      "a": 7.846938325439419,
      "b": 7.846938325439419,
      "c": 7.846938348747236,
      "alpha": 71.73127655043909,
      "beta": 71.73127655043909,
      "gamma": 71.73127960942783,
      "volume": 423.1014368673578
    },
    "properties": {},
    "sites": [
      {
        "species": [{ "element": "Eu", "occu": 1 }],
        "abc": [0.0, 0.0, 0.0],
        "properties": { "magmom": 6.811 },
        "label": "Eu",
        "xyz": [0.0, 0.0, 0.0]
      },
      {
        "species": [{ "element": "Eu", "occu": 1 }],
        "abc": [0.797827, 0.797827, 0.797827],
        "properties": { "magmom": 6.8100000000000005 },
        "label": "Eu",
        "xyz": [12.568601153233999, 0.0, 5.773159146008]
      },
      {
        "species": [{ "element": "Eu", "occu": 1 }],
        "abc": [0.202173, 0.202173, 0.202173],
        "properties": { "magmom": 6.8100000000000005 },
        "label": "Eu",
        "xyz": [3.1849408467659996, 0.0, 1.462944853992]
      },
      {
        "species": [{ "element": "Eu", "occu": 1 }],
        "abc": [0.332557, 0.604049, 0.843572],
        "properties": { "magmom": 6.822 },
        "label": "Eu",
        "xyz": [8.516496983534, 1.2481613931799997, 6.104174723488]
      },
      {
        "species": [{ "element": "Eu", "occu": 1 }],
        "abc": [0.843572, 0.332557, 0.604049],
        "properties": { "magmom": 6.822 },
        "label": "Eu",
        "xyz": [9.312617063812999, -2.349348026225, 4.370961385096]
      },
      {
        "species": [{ "element": "Eu", "occu": 1 }],
        "abc": [0.604049, 0.843572, 0.332557],
        "properties": { "magmom": 6.822 },
        "label": "Eu",
        "xyz": [10.214994843128999, 1.1011866330450002, 2.406417037928]
      },
      {
        "species": [{ "element": "Eu", "occu": 1 }],
        "abc": [0.667443, 0.395951, 0.156427999999999],
        "properties": { "magmom": 6.822 },
        "label": "Eu",
        "xyz": [7.237045016465997, -1.24816139318, 1.1319292765119928]
      },
      {
        "species": [{ "element": "Eu", "occu": 1 }],
        "abc": [0.156427999999999, 0.667443, 0.395951],
        "properties": { "magmom": 6.822 },
        "label": "Eu",
        "xyz": [6.440924936186994, 2.3493480262250044, 2.865142614904]
      },
      {
        "species": [{ "element": "Eu", "occu": 1 }],
        "abc": [0.395951, 0.156427999999999, 0.667443],
        "properties": { "magmom": 6.822 },
        "label": "Eu",
        "xyz": [5.538547156870993, -1.1011866330450046, 4.829686962072]
      },
      {
        "species": [{ "element": "Pt", "occu": 1 }],
        "abc": [0.158203999999999, 0.9565100000000001, 0.590267],
        "properties": { "magmom": -0.079 },
        "label": "Pt",
        "xyz": [8.880239684613993, 3.6701439789900046, 4.271233399768]
      },
      {
        "species": [{ "element": "Pt", "occu": 1 }],
        "abc": [0.590267, 0.158203999999999, 0.9565100000000001],
        "properties": { "magmom": -0.079 },
        "label": "Pt",
        "xyz": [7.662931089774993, -1.9863729171450042, 6.921405837040001]
      },
      {
        "species": [{ "element": "Pt", "occu": 1 }],
        "abc": [0.9565100000000001, 0.590267, 0.158203999999999],
        "properties": { "magmom": -0.079 },
        "label": "Pt",
        "xyz": [10.316319018312996, -1.6837710618450004, 1.1447805972159928]
      },
      {
        "species": [{ "element": "Pt", "occu": 1 }],
        "abc": [0.841796, 0.04349, 0.409732999999999],
        "properties": { "magmom": -0.079 },
        "label": "Pt",
        "xyz": [6.873302315385997, -3.67014397899, 2.964870600231993]
      },
      {
        "species": [{ "element": "Pt", "occu": 1 }],
        "abc": [0.409732999999999, 0.841796, 0.04349],
        "properties": { "magmom": -0.079 },
        "label": "Pt",
        "xyz": [8.090610910224994, 1.9863729171450046, 0.31469816296]
      },
      {
        "species": [{ "element": "Pt", "occu": 1 }],
        "abc": [0.04349, 0.409732999999999, 0.841796],
        "properties": { "magmom": -0.079 },
        "label": "Pt",
        "xyz": [5.437222981686993, 1.6837710618449953, 6.091323402784]
      }
    ]
  },
  "task_ids": null,
  "uncorrected_energy_per_atom": null,
  "energy_per_atom": -9.464745314,
  "formation_energy_per_atom": -0.863424837000002,
  "energy_above_hull": 0.0,
  "is_stable": true,
  "equilibrium_reaction_energy_per_atom": null,
  "decomposes_to": null,
  "xas": null,
  "grain_boundaries": null,
  "band_gap": 0.0,
  "cbm": null,
  "vbm": null,
  "efermi": 3.39573742,
  "is_gap_direct": null,
  "is_metal": null,
  "es_source_calc_id": null,
  "bandstructure": null,
  "dos": null,
  "dos_energy_up": null,
  "dos_energy_down": null,
  "is_magnetic": null,
  "ordering": null,
  "total_magnetization": 63.3766319,
  "total_magnetization_normalized_vol": null,
  "total_magnetization_normalized_formula_units": null,
  "num_magnetic_sites": null,
  "num_unique_magnetic_sites": null,
  "types_of_magnetic_species": null,
  "bulk_modulus": null,
  "shear_modulus": null,
  "universal_anisotropy": null,
  "homogeneous_poisson": null,
  "e_total": null,
  "e_ionic": null,
  "e_electronic": null,
  "n": null,
  "e_ij_max": null,
  "weighted_surface_energy_EV_PER_ANG2": null,
  "weighted_surface_energy": null,
  "weighted_work_function": null,
  "surface_anisotropy": null,
  "shape_factor": null,
  "has_reconstructed": null,
  "possible_species": null,
  "has_props": null,
  "theoretical": null,
  "database_IDs": null,
  "fields_not_requested": [
    "builder_meta",
    "nsites",
    "elements",
    "nelements",
    "composition",
    "composition_reduced",
    "chemsys",
    "symmetry",
    "property_name",
    "deprecated",
    "deprecation_reasons",
    "last_updated",
    "origins",
    "warnings",
    "task_ids",
    "uncorrected_energy_per_atom",
    "equilibrium_reaction_energy_per_atom",
    "decomposes_to",
    "xas",
    "grain_boundaries",
    "cbm",
    "vbm",
    "is_gap_direct",
    "is_metal",
    "es_source_calc_id",
    "bandstructure",
    "dos",
    "dos_energy_up",
    "dos_energy_down",
    "is_magnetic",
    "ordering",
    "total_magnetization_normalized_vol",
    "total_magnetization_normalized_formula_units",
    "num_magnetic_sites",
    "num_unique_magnetic_sites",
    "types_of_magnetic_species",
    "bulk_modulus",
    "shear_modulus",
    "universal_anisotropy",
    "homogeneous_poisson",
    "e_total",
    "e_ionic",
    "e_electronic",
    "n",
    "e_ij_max",
    "weighted_surface_energy_EV_PER_ANG2",
    "weighted_surface_energy",
    "weighted_work_function",
    "surface_anisotropy",
    "shape_factor",
    "has_reconstructed",
    "possible_species",
    "has_props",
    "theoretical",
    "database_IDs"
  ]
}
