{
  "builder_meta": null,
  "nsites": null,
  "elements": null,
  "nelements": null,
  "composition": null,
  "composition_reduced": null,
  "formula_pretty": "Eu3P4",
  "formula_anonymous": "A3B4",
  "chemsys": null,
  "volume": 333.8051320014629,
  "density": 5.768389705335448,
  "density_atomic": 23.843223714390206,
  "symmetry": null,
  "property_name": null,
  "material_id": "mp-1105092",
  "deprecated": null,
  "deprecation_reasons": null,
  "last_updated": null,
  "origins": null,
  "warnings": null,
  "structure": {
    "@module": "pymatgen.core.structure",
    "@class": "Structure",
    "charge": 0,
    "lattice": {
      "matrix": [
        [-0.00021437, -5.6750000000000004e-5, 5.65398123],
        [6.99562463, -5.741e-5, 2.82677488],
        [-0.00014187, 8.43925355, 2.826904899999999]
      ],
      "pbc": [true, true, true],
      "a": 5.653981234348711,
      "b": 7.545158725259367,
      "c": 8.900134370612541,
      "alpha": 83.16702586679317,
      "beta": 71.48122136201111,
      "gamma": 67.99964427709453,
      "volume": 333.8051320014629
    },
    "properties": {},
    "sites": [
      {
        "species": [{ "element": "Eu", "occu": 1 }],
        "abc": [0.00665008, 0.50000281, 0.500012999999999],
        "properties": { "magmom": 6.743 },
        "label": "Eu",
        "xyz": [3.4977596102832504, 4.21970740274278, 2.8644840104991083]
      },
      {
        "species": [{ "element": "Eu", "occu": 1 }],
        "abc": [0.25667784, -1.283e-5, 8.269999999999999e-6],
        "properties": { "magmom": 6.743 },
        "label": "Eu",
        "xyz": [-0.0001447790658286, 5.522689600879999e-5, 1.4512388004987558]
      },
      {
        "species": [{ "element": "Eu", "occu": 1 }],
        "abc": [0.58267587, 0.99711079, 0.33406326000000003],
        "properties": { "magmom": 6.737 },
        "label": "Eu",
        "xyz": [6.97524049958181, 2.8191542418934965, 7.0574112325068485]
      },
      {
        "species": [{ "element": "Eu", "occu": 1 }],
        "abc": [0.91377348, 0.0028562600000000002, 0.66593634],
        "properties": { "magmom": 6.737 },
        "label": "Eu",
        "xyz": [0.0196909607962204, 5.61995360079613, 7.0570708110445945]
      },
      {
        "species": [{ "element": "Eu", "occu": 1 }],
        "abc": [0.32976373000000003, 0.50286876, 0.83405412],
        "properties": { "magmom": 6.737 },
        "label": "Eu",
        "xyz": [3.5176920644047547, 7.038746609314938, 5.643766397152724]
      },
      {
        "species": [{ "element": "Eu", "occu": 1 }],
        "abc": [0.666731699999999, 0.49711141000000003, 0.16597826000000002],
        "properties": { "magmom": 6.737 },
        "label": "Eu",
        "xyz": [3.4774383490397534, 1.4006662437378001, 5.6441153200828404]
      },
      {
        "species": [{ "element": "P", "occu": 1 }],
        "abc": [0.33486787, 0.17709609, 0.6575389700000001],
        "properties": { "magmom": -0.057 },
        "label": "P",
        "xyz": [1.238732698401731, 5.549108915997695, 4.252747566302252]
      },
      {
        "species": [{ "element": "P", "occu": 1 }],
        "abc": [0.16946668, 0.82300103, 0.34239725],
        "properties": { "magmom": -0.056 },
        "label": "P",
        "xyz": [5.75732137151332, 2.889520341849515, 4.252524529420067]
      },
      {
        "species": [{ "element": "P", "occu": 1 }],
        "abc": [0.26209526, 0.32299281, 0.15750805],
        "properties": { "magmom": -0.057 },
        "label": "P",
        "xyz": [2.259457925920971, 1.3292169531928506, 2.8401699205750277]
      },
      {
        "species": [{ "element": "P", "occu": 1 }],
        "abc": [0.74238797, 0.6769496700000001, 0.84248822],
        "properties": { "magmom": -0.056 },
        "label": "P",
        "xyz": [4.735407115209472, 7.109890707270329, 8.49266604724837]
      },
      {
        "species": [{ "element": "P", "occu": 1 }],
        "abc": [0.42102124, 0.66713624, 0.49870553],
        "properties": { "magmom": -0.023 },
        "label": "P",
        "xyz": [4.666873706432832, 4.208640221210223, 5.676083259575074]
      },
      {
        "species": [{ "element": "P", "occu": 1 }],
        "abc": [0.58685299, 0.3329433, 0.50136456],
        "properties": { "magmom": -0.023 },
        "label": "P",
        "xyz": [2.3289494176078853, 4.231090224642152, 5.676521478484025]
      },
      {
        "species": [{ "element": "P", "occu": 1 }],
        "abc": [0.83813733, 0.83291519, -0.00134189],
        "properties": { "magmom": -0.023 },
        "label": "P",
        "xyz": [5.8265825367396324, -0.011419931900744902, 7.089483072828482]
      },
      {
        "species": [{ "element": "P", "occu": 1 }],
        "abc": [0.66985697, 0.16703247000000002, 0.00129006],
        "properties": { "magmom": -0.023 },
        "label": "P",
        "xyz": [1.1683526808822648, 0.0108395397175628, 4.263168802440321]
      }
    ]
  },
  "task_ids": null,
  "uncorrected_energy_per_atom": null,
  "energy_per_atom": -22.85502644142857,
  "formation_energy_per_atom": -1.202033099557821,
  "energy_above_hull": 0.0,
  "is_stable": true,
  "equilibrium_reaction_energy_per_atom": null,
  "decomposes_to": null,
  "xas": null,
  "grain_boundaries": null,
  "band_gap": 0.0,
  "cbm": null,
  "vbm": null,
  "efermi": 4.45246796,
  "is_gap_direct": null,
  "is_metal": null,
  "es_source_calc_id": null,
  "bandstructure": null,
  "dos": null,
  "dos_energy_up": null,
  "dos_energy_down": null,
  "is_magnetic": null,
  "ordering": null,
  "total_magnetization": 42.0002406,
  "total_magnetization_normalized_vol": null,
  "total_magnetization_normalized_formula_units": null,
  "num_magnetic_sites": null,
  "num_unique_magnetic_sites": null,
  "types_of_magnetic_species": null,
  "bulk_modulus": null,
  "shear_modulus": null,
  "universal_anisotropy": null,
  "homogeneous_poisson": null,
  "e_total": null,
  "e_ionic": null,
  "e_electronic": null,
  "n": null,
  "e_ij_max": null,
  "weighted_surface_energy_EV_PER_ANG2": null,
  "weighted_surface_energy": null,
  "weighted_work_function": null,
  "surface_anisotropy": null,
  "shape_factor": null,
  "has_reconstructed": null,
  "possible_species": null,
  "has_props": null,
  "theoretical": null,
  "database_IDs": null,
  "fields_not_requested": [
    "builder_meta",
    "nsites",
    "elements",
    "nelements",
    "composition",
    "composition_reduced",
    "chemsys",
    "symmetry",
    "property_name",
    "deprecated",
    "deprecation_reasons",
    "last_updated",
    "origins",
    "warnings",
    "task_ids",
    "uncorrected_energy_per_atom",
    "equilibrium_reaction_energy_per_atom",
    "decomposes_to",
    "xas",
    "grain_boundaries",
    "cbm",
    "vbm",
    "is_gap_direct",
    "is_metal",
    "es_source_calc_id",
    "bandstructure",
    "dos",
    "dos_energy_up",
    "dos_energy_down",
    "is_magnetic",
    "ordering",
    "total_magnetization_normalized_vol",
    "total_magnetization_normalized_formula_units",
    "num_magnetic_sites",
    "num_unique_magnetic_sites",
    "types_of_magnetic_species",
    "bulk_modulus",
    "shear_modulus",
    "universal_anisotropy",
    "homogeneous_poisson",
    "e_total",
    "e_ionic",
    "e_electronic",
    "n",
    "e_ij_max",
    "weighted_surface_energy_EV_PER_ANG2",
    "weighted_surface_energy",
    "weighted_work_function",
    "surface_anisotropy",
    "shape_factor",
    "has_reconstructed",
    "possible_species",
    "has_props",
    "theoretical",
    "database_IDs"
  ]
}
