{
  "builder_meta": null,
  "nsites": null,
  "elements": null,
  "nelements": null,
  "composition": null,
  "composition_reduced": null,
  "formula_pretty": "Eu3Pd2",
  "formula_anonymous": "A2B3",
  "chemsys": null,
  "volume": 418.26641070466474,
  "density": 7.964700841370956,
  "density_atomic": 27.88442738031098,
  "symmetry": null,
  "property_name": null,
  "material_id": "mp-1105286",
  "deprecated": null,
  "deprecation_reasons": null,
  "last_updated": null,
  "origins": null,
  "warnings": null,
  "structure": {
    "@module": "pymatgen.core.structure",
    "@class": "Structure",
    "charge": 0,
    "lattice": {
      "matrix": [
        [4.5740761, 2.64083808, 5.77110262],
        [-4.57401402, 2.64097156, 5.77106382],
        [8.49e-6, -5.28167816, 5.7710203]
      ],
      "pbc": [true, true, true],
      "a": 7.823159424678763,
      "b": 7.823139564803787,
      "c": 7.823093984409567,
      "alpha": 71.56246472552331,
      "beta": 71.56151987824553,
      "gamma": 71.56088197593269,
      "volume": 418.26641070466474
    },
    "properties": {},
    "sites": [
      {
        "species": [{ "element": "Eu", "occu": 1 }],
        "abc": [0.49999888000000003, 0.49999818, 0.49999911],
        "properties": { "magmom": 6.827 },
        "label": "Eu",
        "xyz": [3.8486732728446295e-5, 6.267638667356579e-5, 8.656571266820846]
      },
      {
        "species": [{ "element": "Eu", "occu": 1 }],
        "abc": [0.70348767, 0.70348594, 0.7034806100000001],
        "properties": { "magmom": 6.809 },
        "label": "Eu",
        "xyz": [5.755810918703154e-5, 0.00012521432586209968, 12.17956267265377]
      },
      {
        "species": [{ "element": "Eu", "occu": 1 }],
        "abc": [0.29651015000000003, 0.29651357, 0.29651703],
        "properties": { "magmom": 6.809 },
        "label": "Eu",
        "xyz": [5.281651748309276e-6, 1.1679331516356584e-5, 5.13359503891334]
      },
      {
        "species": [{ "element": "Eu", "occu": 1 }],
        "abc": [0.16432305, 0.89403623, 0.6608821500000001],
        "properties": { "magmom": 6.836 },
        "label": "Eu",
        "xyz": [-3.337702503834386, -0.6954919930874817, 9.921829628661236]
      },
      {
        "species": [{ "element": "Eu", "occu": 1 }],
        "abc": [0.8940352300000001, 0.6608587300000001, 0.16433786],
        "properties": { "magmom": 6.836 },
        "label": "Eu",
        "xyz": [1.06660947707004, 3.2383317053301397, 9.92182409117801]
      },
      {
        "species": [{ "element": "Eu", "occu": 1 }],
        "abc": [0.66086599, 0.16433246, 0.894025099999999],
        "properties": { "magmom": 6.836 },
        "label": "Eu",
        "xyz": [2.2711999444538487, -2.542715419748074, 9.921735561525015]
      },
      {
        "species": [{ "element": "Eu", "occu": 1 }],
        "abc": [0.8356861600000001, 0.10596323, 0.33911316],
        "properties": { "magmom": 6.836 },
        "label": "Eu",
        "xyz": [3.33781767100302, 0.6956711401521258, 7.391380080734226]
      },
      {
        "species": [{ "element": "Eu", "occu": 1 }],
        "abc": [0.10596788, 0.33913521, 0.8356669],
        "properties": { "magmom": 6.836 },
        "label": "Eu",
        "xyz": [-1.0664969631279952, -3.2382331573994056, 7.391373094361018]
      },
      {
        "species": [{ "element": "Eu", "occu": 1 }],
        "abc": [0.33913264, 0.83567283, 0.10597466],
        "properties": { "magmom": 6.836 },
        "label": "Eu",
        "xyz": [-2.2711598374743094, 2.5428585201422207, 7.391472415947126]
      },
      {
        "species": [{ "element": "Pd", "occu": 1 }],
        "abc": [0.54241371, 0.91188181, 0.3480762],
        "properties": { "magmom": -0.048 },
        "label": "Pd",
        "xyz": [-1.6899156411327072, 2.0022542432176085, 10.401608120858894]
      },
      {
        "species": [{ "element": "Pd", "occu": 1 }],
        "abc": [0.9118667300000001, 0.348053699999999, 0.5424186400000001],
        "properties": { "magmom": -0.048 },
        "label": "Pd",
        "xyz": [2.5789499176995374, 0.46241162305694505, 10.401425572619353]
      },
      {
        "species": [{ "element": "Pd", "occu": 1 }],
        "abc": [0.34806448, 0.54243329, 0.91188784],
        "properties": { "magmom": -0.048 },
        "label": "Pd",
        "xyz": [-0.889016312220036, -2.4645652637309436, 10.401656203102657]
      },
      {
        "species": [{ "element": "Pd", "occu": 1 }],
        "abc": [0.45757382, 0.08813524, 0.65191982],
        "properties": { "magmom": -0.048 },
        "label": "Pd",
        "xyz": [1.6898511854309093, -2.0020896448242915, 6.911582081468771]
      },
      {
        "species": [{ "element": "Pd", "occu": 1 }],
        "abc": [0.08814443, 0.65193008, 0.45757372],
        "properties": { "magmom": -0.048 },
        "label": "Pd",
        "xyz": [-2.5787541105677154, -0.46225315584153637, 6.911687875635629]
      },
      {
        "species": [{ "element": "Pd", "occu": 1 }],
        "abc": [0.65192818, 0.45756551, 0.08812621],
        "properties": { "magmom": -0.048 },
        "label": "Pd",
        "xyz": [0.8890587974375709, 2.4645999832354164, 6.911562334562742]
      }
    ]
  },
  "task_ids": null,
  "uncorrected_energy_per_atom": null,
  "energy_per_atom": -32.927282194,
  "formation_energy_per_atom": -0.630571121000002,
  "energy_above_hull": 0.0,
  "is_stable": true,
  "equilibrium_reaction_energy_per_atom": null,
  "decomposes_to": null,
  "xas": null,
  "grain_boundaries": null,
  "band_gap": 0.0,
  "cbm": null,
  "vbm": null,
  "efermi": 2.84497125,
  "is_gap_direct": null,
  "is_metal": null,
  "es_source_calc_id": null,
  "bandstructure": null,
  "dos": null,
  "dos_energy_up": null,
  "dos_energy_down": null,
  "is_magnetic": null,
  "ordering": null,
  "total_magnetization": 65.0109831,
  "total_magnetization_normalized_vol": null,
  "total_magnetization_normalized_formula_units": null,
  "num_magnetic_sites": null,
  "num_unique_magnetic_sites": null,
  "types_of_magnetic_species": null,
  "bulk_modulus": null,
  "shear_modulus": null,
  "universal_anisotropy": null,
  "homogeneous_poisson": null,
  "e_total": null,
  "e_ionic": null,
  "e_electronic": null,
  "n": null,
  "e_ij_max": null,
  "weighted_surface_energy_EV_PER_ANG2": null,
  "weighted_surface_energy": null,
  "weighted_work_function": null,
  "surface_anisotropy": null,
  "shape_factor": null,
  "has_reconstructed": null,
  "possible_species": null,
  "has_props": null,
  "theoretical": null,
  "database_IDs": null,
  "fields_not_requested": [
    "builder_meta",
    "nsites",
    "elements",
    "nelements",
    "composition",
    "composition_reduced",
    "chemsys",
    "symmetry",
    "property_name",
    "deprecated",
    "deprecation_reasons",
    "last_updated",
    "origins",
    "warnings",
    "task_ids",
    "uncorrected_energy_per_atom",
    "equilibrium_reaction_energy_per_atom",
    "decomposes_to",
    "xas",
    "grain_boundaries",
    "cbm",
    "vbm",
    "is_gap_direct",
    "is_metal",
    "es_source_calc_id",
    "bandstructure",
    "dos",
    "dos_energy_up",
    "dos_energy_down",
    "is_magnetic",
    "ordering",
    "total_magnetization_normalized_vol",
    "total_magnetization_normalized_formula_units",
    "num_magnetic_sites",
    "num_unique_magnetic_sites",
    "types_of_magnetic_species",
    "bulk_modulus",
    "shear_modulus",
    "universal_anisotropy",
    "homogeneous_poisson",
    "e_total",
    "e_ionic",
    "e_electronic",
    "n",
    "e_ij_max",
    "weighted_surface_energy_EV_PER_ANG2",
    "weighted_surface_energy",
    "weighted_work_function",
    "surface_anisotropy",
    "shape_factor",
    "has_reconstructed",
    "possible_species",
    "has_props",
    "theoretical",
    "database_IDs"
  ]
}
