{"builder_meta": null, "nsites": null, "elements": null, "nelements": null, "composition": null, "composition_reduced": null, "formula_pretty": "Eu3Pd", "formula_anonymous": "AB3", "chemsys": null, "volume": 151.15742441199998, "density": 6.177275428251157, "density_atomic": 37.789356102999996, "symmetry": null, "property_name": null, "material_id": "mp-1225764", "deprecated": null, "deprecation_reasons": null, "last_updated": null, "origins": null, "warnings": null, "structure": {"@module": "pymatgen.core.structure", "@class": "Structure", "charge": 0, "lattice": {"matrix": [[10.161945, -2.079492, 0.0], [10.161945, 2.079492, 0.0], [9.736408, 0.0, 3.576559]], "pbc": [true, true, true], "a": 10.372531665947758, "b": 10.372531665947758, "c": 10.372531755697112, "alpha": 23.130132873923774, "beta": 23.130132873923774, "gamma": 23.13013630719921, "volume": 151.15742441199998}, "properties": {}, "sites": [{"species": [{"element": "Eu", "occu": 1}], "abc": [0.276941, 0.276941, 0.276941], "properties": {"magmom": 6.815}, "label": "Eu", "xyz": [8.324928988418, 0.0, 0.990495826019]}, {"species": [{"element": "Eu", "occu": 1}], "abc": [0.5, 0.5, 0.5], "properties": {"magmom": 6.961}, "label": "Eu", "xyz": [15.030149, 0.0, 1.7882795]}, {"species": [{"element": "Eu", "occu": 1}], "abc": [0.723059, 0.723059, 0.723059], "properties": {"magmom": 6.815}, "label": "Eu", "xyz": [21.735369011582, 0.0, 2.586063173981]}, {"species": [{"element": "Pd", "occu": 1}], "abc": [0.0, 0.0, 0.0], "properties": {"magmom": -0.068}, "label": "Pd", "xyz": [0.0, 0.0, 0.0]}]}, "task_ids": null, "uncorrected_energy_per_atom": null, "energy_per_atom": -34.936403686249996, "formation_energy_per_atom": -0.305628247499996, "energy_above_hull": 0.110945100000002, "is_stable": false, "equilibrium_reaction_energy_per_atom": null, "decomposes_to": null, "xas": null, "grain_boundaries": null, "band_gap": 0.0, "cbm": null, "vbm": null, "efermi": 2.10544921, "is_gap_direct": null, "is_metal": null, "es_source_calc_id": null, "bandstructure": null, "dos": null, "dos_energy_up": null, "dos_energy_down": null, "is_magnetic": null, "ordering": null, "total_magnetization": 21.3952465, "total_magnetization_normalized_vol": null, "total_magnetization_normalized_formula_units": null, "num_magnetic_sites": null, "num_unique_magnetic_sites": null, "types_of_magnetic_species": null, "bulk_modulus": null, "shear_modulus": null, "universal_anisotropy": null, "homogeneous_poisson": null, "e_total": null, "e_ionic": null, "e_electronic": null, "n": null, "e_ij_max": null, "weighted_surface_energy_EV_PER_ANG2": null, "weighted_surface_energy": null, "weighted_work_function": null, "surface_anisotropy": null, "shape_factor": null, "has_reconstructed": null, "possible_species": null, "has_props": null, "theoretical": null, "database_IDs": null, "fields_not_requested": ["builder_meta", "nsites", "elements", "nelements", "composition", "composition_reduced", "chemsys", "symmetry", "property_name", "deprecated", "deprecation_reasons", "last_updated", "origins", "warnings", "task_ids", "uncorrected_energy_per_atom", "equilibrium_reaction_energy_per_atom", "decomposes_to", "xas", "grain_boundaries", "cbm", "vbm", "is_gap_direct", "is_metal", "es_source_calc_id", "bandstructure", "dos", "dos_energy_up", "dos_energy_down", "is_magnetic", "ordering", "total_magnetization_normalized_vol", "total_magnetization_normalized_formula_units", "num_magnetic_sites", "num_unique_magnetic_sites", "types_of_magnetic_species", "bulk_modulus", "shear_modulus", "universal_anisotropy", "homogeneous_poisson", "e_total", "e_ionic", "e_electronic", "n", "e_ij_max", "weighted_surface_energy_EV_PER_ANG2", "weighted_surface_energy", "weighted_work_function", "surface_anisotropy", "shape_factor", "has_reconstructed", "possible_species", "has_props", "theoretical", "database_IDs"]}