{
  "builder_meta": null,
  "nsites": null,
  "elements": null,
  "nelements": null,
  "composition": null,
  "composition_reduced": null,
  "formula_pretty": "Eu3Rh",
  "formula_anonymous": "AB3",
  "chemsys": null,
  "volume": 497.79595010336806,
  "density": 7.456107900240912,
  "density_atomic": 31.112246881460504,
  "symmetry": null,
  "property_name": null,
  "material_id": "mp-1189512",
  "deprecated": null,
  "deprecation_reasons": null,
  "last_updated": null,
  "origins": null,
  "warnings": null,
  "structure": {
    "@module": "pymatgen.core.structure",
    "@class": "Structure",
    "charge": 0,
    "lattice": {
      "matrix": [
        [-5.6410000000000004e-5, -5.7030000000000015e-5, 6.62482554],
        [7.7174834, -0.00016274, -6.076e-5],
        [-0.00019606000000000002, 9.73646281, -8.954000000000001e-5]
      ],
      "pbc": [true, true, true],
      "a": 6.624825540485636,
      "b": 7.717483401955047,
      "c": 9.73646281238572,
      "alpha": 90.00236194911791,
      "beta": 90.00102013504521,
      "gamma": 90.00093895134485,
      "volume": 497.79595010336806
    },
    "properties": {},
    "sites": [
      {
        "species": [{ "element": "Eu", "occu": 1 }],
        "abc": [0.33752235, 0.67124025, 0.06727604],
        "properties": { "magmom": 6.89 },
        "label": "Eu",
        "xyz": [5.180253257010684, 0.6549021749261669, 2.2359798761466076]
      },
      {
        "species": [{ "element": "Eu", "occu": 1 }],
        "abc": [0.162526199999999, 0.17122537000000002, 0.432714999999999],
        "properties": { "magmom": 6.89 },
        "label": "Eu",
        "xyz": [1.3213349444280162, 4.2130763707432415, 1.0766585717245603]
      },
      {
        "species": [{ "element": "Eu", "occu": 1 }],
        "abc": [0.6625283200000001, 0.32878682, 0.56722694],
        "properties": { "magmom": 6.89 },
        "label": "Eu",
        "xyz": [2.5372582417524, 5.522692715382925, 4.389063768721902]
      },
      {
        "species": [{ "element": "Eu", "occu": 1 }],
        "abc": [0.83753233, 0.82875091, 0.93278558],
        "properties": { "magmom": 6.89 },
        "label": "Eu",
        "xyz": [6.395641263520344, 9.081849473982407, 5.548371693833584]
      },
      {
        "species": [{ "element": "Eu", "occu": 1 }],
        "abc": [0.66247386, 0.32876379, 0.93277831],
        "properties": { "magmom": 6.89 },
        "label": "Eu",
        "xyz": [2.5370088411801848, 9.081870041386232, 4.388670250652626]
      },
      {
        "species": [{ "element": "Eu", "occu": 1 }],
        "abc": [0.8374770500000001, 0.82878792, 0.56722708],
        "properties": { "magmom": 6.89 },
        "label": "Eu",
        "xyz": [6.395998562098832, 5.522602730982633, 5.548038203337095]
      },
      {
        "species": [{ "element": "Eu", "occu": 1 }],
        "abc": [0.3374761, 0.67121591, 0.43271506],
        "properties": { "magmom": 6.89 },
        "label": "Eu",
        "xyz": [5.17999376809943, 4.212985609077743, 2.23564075803443]
      },
      {
        "species": [{ "element": "Eu", "occu": 1 }],
        "abc": [0.16246405, 0.1712565, 0.06727509],
        "properties": { "magmom": 6.89 },
        "label": "Eu",
        "xyz": [1.3216468413408942, 0.6549842762168214, 1.0762795584153384]
      },
      {
        "species": [{ "element": "Eu", "occu": 1 }],
        "abc": [0.85977828, 0.54281228, 0.25001564],
        "properties": { "magmom": 6.8870000000000005 },
        "label": "Eu",
        "xyz": [4.189047242056999, 2.434130610352593, 5.6958257404067325]
      },
      {
        "species": [{ "element": "Eu", "occu": 1 }],
        "abc": [0.64022125, 0.04281649, 0.25000972],
        "properties": { "magmom": 6.8870000000000005 },
        "label": "Eu",
        "xyz": [0.3303504190348503, 2.434166861145043, 4.2413291008504626]
      },
      {
        "species": [{ "element": "Eu", "occu": 1 }],
        "abc": [0.14022659, 0.457177599999999, 0.74998416],
        "properties": { "magmom": 6.886 },
        "label": "Eu",
        "xyz": [3.528105586775481, 7.3021104837240385, 0.9288817631264462]
      },
      {
        "species": [{ "element": "Eu", "occu": 1 }],
        "abc": [0.35978304, 0.95718928, 0.74999015],
        "properties": { "magmom": 6.886 },
        "label": "Eu",
        "xyz": [7.386925040627856, 7.302074911931124, 2.383374559312158]
      },
      {
        "species": [{ "element": "Rh", "occu": 1 }],
        "abc": [0.04290502, 0.88039723, 0.24994314],
        "properties": { "magmom": -0.305 },
        "label": "Rh",
        "xyz": [6.794399583806776, 2.433416364506123, 0.28416239944576044]
      },
      {
        "species": [{ "element": "Rh", "occu": 1 }],
        "abc": [0.45709317, 0.38039566, 0.24994406],
        "properties": { "magmom": -0.305 },
        "label": "Rh",
        "xyz": [2.935622402823921, 2.4334830711572155, 3.0281170139441276]
      },
      {
        "species": [{ "element": "Rh", "occu": 1 }],
        "abc": [0.95708755, 0.11959481, 0.75006256],
        "properties": { "magmom": -0.305 },
        "label": "Rh",
        "xyz": [0.9227699143269449, 7.302882175051038, 6.340463618073749]
      },
      {
        "species": [{ "element": "Rh", "occu": 1 }],
        "abc": [0.54290483, 0.6195862, 0.75004947],
        "properties": { "magmom": -0.305 },
        "label": "Rh",
        "xyz": [4.781468533408532, 7.302696976994569, 3.596544978086302]
      }
    ]
  },
  "task_ids": null,
  "uncorrected_energy_per_atom": null,
  "energy_per_atom": -35.259252413125,
  "formation_energy_per_atom": -0.334533219374996,
  "energy_above_hull": 0.0,
  "is_stable": true,
  "equilibrium_reaction_energy_per_atom": null,
  "decomposes_to": null,
  "xas": null,
  "grain_boundaries": null,
  "band_gap": 0.0,
  "cbm": null,
  "vbm": null,
  "efermi": 2.77973113,
  "is_gap_direct": null,
  "is_metal": null,
  "es_source_calc_id": null,
  "bandstructure": null,
  "dos": null,
  "dos_energy_up": null,
  "dos_energy_down": null,
  "is_magnetic": null,
  "ordering": null,
  "total_magnetization": 87.9497617,
  "total_magnetization_normalized_vol": null,
  "total_magnetization_normalized_formula_units": null,
  "num_magnetic_sites": null,
  "num_unique_magnetic_sites": null,
  "types_of_magnetic_species": null,
  "bulk_modulus": null,
  "shear_modulus": null,
  "universal_anisotropy": null,
  "homogeneous_poisson": null,
  "e_total": null,
  "e_ionic": null,
  "e_electronic": null,
  "n": null,
  "e_ij_max": null,
  "weighted_surface_energy_EV_PER_ANG2": null,
  "weighted_surface_energy": null,
  "weighted_work_function": null,
  "surface_anisotropy": null,
  "shape_factor": null,
  "has_reconstructed": null,
  "possible_species": null,
  "has_props": null,
  "theoretical": null,
  "database_IDs": null,
  "fields_not_requested": [
    "builder_meta",
    "nsites",
    "elements",
    "nelements",
    "composition",
    "composition_reduced",
    "chemsys",
    "symmetry",
    "property_name",
    "deprecated",
    "deprecation_reasons",
    "last_updated",
    "origins",
    "warnings",
    "task_ids",
    "uncorrected_energy_per_atom",
    "equilibrium_reaction_energy_per_atom",
    "decomposes_to",
    "xas",
    "grain_boundaries",
    "cbm",
    "vbm",
    "is_gap_direct",
    "is_metal",
    "es_source_calc_id",
    "bandstructure",
    "dos",
    "dos_energy_up",
    "dos_energy_down",
    "is_magnetic",
    "ordering",
    "total_magnetization_normalized_vol",
    "total_magnetization_normalized_formula_units",
    "num_magnetic_sites",
    "num_unique_magnetic_sites",
    "types_of_magnetic_species",
    "bulk_modulus",
    "shear_modulus",
    "universal_anisotropy",
    "homogeneous_poisson",
    "e_total",
    "e_ionic",
    "e_electronic",
    "n",
    "e_ij_max",
    "weighted_surface_energy_EV_PER_ANG2",
    "weighted_surface_energy",
    "weighted_work_function",
    "surface_anisotropy",
    "shape_factor",
    "has_reconstructed",
    "possible_species",
    "has_props",
    "theoretical",
    "database_IDs"
  ]
}
