{"builder_meta": null, "nsites": null, "elements": null, "nelements": null, "composition": null, "composition_reduced": null, "formula_pretty": "Eu3S4", "formula_anonymous": "A3B4", "chemsys": null, "volume": 318.0403618690199, "density": 6.099900095271594, "density_atomic": 22.717168704929993, "symmetry": null, "property_name": null, "material_id": "mp-1103738", "deprecated": null, "deprecation_reasons": null, "last_updated": null, "origins": null, "warnings": null, "structure": {"@module": "pymatgen.core.structure", "@class": "Structure", "charge": 0, "lattice": {"matrix": [[-4.30018266, -4.30007225, 4.30000303], [-4.30009962, 4.29987869, -4.30011255], [4.2999901, -4.29987143, -4.29999578]], "pbc": [true, true, true], "a": 7.4479673953766685, "b": 7.447870932911483, "c": 7.447736091098157, "alpha": 109.47003718872404, "beta": 109.47211323765343, "gamma": 109.4696564795034, "volume": 318.0403618690199}, "properties": {}, "sites": [{"species": [{"element": "Eu", "occu": 1}], "abc": [0.12502981, 0.8750152800000001, 0.49995843], "properties": {"magmom": 6.464}, "label": "Eu", "xyz": [-2.1504875945557456, 1.0750653701479562, -5.374854764304866]}, {"species": [{"element": "Eu", "occu": 1}], "abc": [0.87509181, 0.37501737, 0.74996051], "properties": {"magmom": 6.464}, "label": "Eu", "xyz": [-2.1508439091094633, -5.375162581317657, -1.074546492843457]}, {"species": [{"element": "Eu", "occu": 1}], "abc": [0.37500962, 0.50003506, 0.6250969], "properties": {"magmom": 6.463}, "label": "Eu", "xyz": [-1.074899955209177, -2.1503146629897403, -3.2255785667579353]}, {"species": [{"element": "Eu", "occu": 1}], "abc": [0.6250002100000001, 0.250088, 0.12504129], "properties": {"magmom": 6.464}, "label": "Eu", "xyz": [-3.22534207021369, -2.1498594678817975, 1.0744192300204802]}, {"species": [{"element": "Eu", "occu": 1}], "abc": [0.49994152000000003, 0.749972, 0.250062399999999], "properties": {"magmom": 6.463}, "label": "Eu", "xyz": [-4.299528323146447, -0.0002322053553682757, -2.150481223262462]}, {"species": [{"element": "Eu", "occu": 1}], "abc": [0.9999300600000001, 0.99989921, 0.9999705600000001], "properties": {"magmom": 6.463}, "label": "Eu", "xyz": [-4.299684609892604, -4.300071039505101, -4.2998460419922395]}, {"species": [{"element": "S", "occu": 1}], "abc": [0.89572557, 0.12502352, 0.37507845], "properties": {"magmom": -0.176}, "label": "S", "xyz": [-2.7765635333523333, -4.926887808939327, 1.70117170548236]}, {"species": [{"element": "S", "occu": 1}], "abc": [0.74990552, 0.62497707, 0.02060085], "properties": {"magmom": -0.176}, "label": "S", "xyz": [-5.823610923906411, -0.6259033379908977, 0.4485406979800845]}, {"species": [{"element": "S", "occu": 1}], "abc": [0.10443363, 0.47940836000000003, 0.22941979], "properties": {"magmom": -0.176}, "label": "S", "xyz": [-1.5240845657635997, 0.6258500361444812, -2.5989491088255052]}, {"species": [{"element": "S", "occu": 1}], "abc": [0.25002763, 0.27075396, 0.8749481], "properties": {"magmom": -0.176}, "label": "S", "xyz": [1.5228346884574187, -3.6730920285819377, -3.851426072493497]}, {"species": [{"element": "S", "occu": 1}], "abc": [0.74994612, 0.6249914400000001, 0.52064059], "properties": {"magmom": -0.176}, "label": "S", "xyz": [-3.6736813721473736, -2.7761227235581, -1.7015152863465381]}, {"species": [{"element": "S", "occu": 1}], "abc": [0.39573546, 0.12504962, 0.37509386], "properties": {"magmom": -0.176}, "label": "S", "xyz": [-0.626560701911482, -2.7768482458388073, -0.4489657783601979]}, {"species": [{"element": "S", "occu": 1}], "abc": [0.25002298, 0.77056871, 0.87493518], "properties": {"magmom": -0.176}, "label": "S", "xyz": [-0.626454088110699, -1.5238736864344218, -6.000650190712221]}, {"species": [{"element": "S", "occu": 1}], "abc": [0.60420306, 0.97920038, 0.7291911], "properties": {"magmom": -0.176}, "label": "S", "xyz": [-3.6733281926646852, -1.5231019423694558, -4.748115507081055]}]}, "task_ids": null, "uncorrected_energy_per_atom": null, "energy_per_atom": -23.24079308142857, "formation_energy_per_atom": -2.140415299464284, "energy_above_hull": 0.0, "is_stable": true, "equilibrium_reaction_energy_per_atom": null, "decomposes_to": null, "xas": null, "grain_boundaries": null, "band_gap": 0.0, "cbm": null, "vbm": null, "efermi": 3.46032669, "is_gap_direct": null, "is_metal": null, "es_source_calc_id": null, "bandstructure": null, "dos": null, "dos_energy_up": null, "dos_energy_down": null, "is_magnetic": null, "ordering": null, "total_magnetization": 38.0000005, "total_magnetization_normalized_vol": null, "total_magnetization_normalized_formula_units": null, "num_magnetic_sites": null, "num_unique_magnetic_sites": null, "types_of_magnetic_species": null, "bulk_modulus": null, "shear_modulus": null, "universal_anisotropy": null, "homogeneous_poisson": null, "e_total": null, "e_ionic": null, "e_electronic": null, "n": null, "e_ij_max": null, "weighted_surface_energy_EV_PER_ANG2": null, "weighted_surface_energy": null, "weighted_work_function": null, "surface_anisotropy": null, "shape_factor": null, "has_reconstructed": null, "possible_species": null, "has_props": null, "theoretical": null, "database_IDs": null, "fields_not_requested": ["builder_meta", "nsites", "elements", "nelements", "composition", "composition_reduced", "chemsys", "symmetry", "property_name", "deprecated", "deprecation_reasons", "last_updated", "origins", "warnings", "task_ids", "uncorrected_energy_per_atom", "equilibrium_reaction_energy_per_atom", "decomposes_to", "xas", "grain_boundaries", "cbm", "vbm", "is_gap_direct", "is_metal", "es_source_calc_id", "bandstructure", "dos", "dos_energy_up", "dos_energy_down", "is_magnetic", "ordering", "total_magnetization_normalized_vol", "total_magnetization_normalized_formula_units", "num_magnetic_sites", "num_unique_magnetic_sites", "types_of_magnetic_species", "bulk_modulus", "shear_modulus", "universal_anisotropy", "homogeneous_poisson", "e_total", "e_ionic", "e_electronic", "n", "e_ij_max", "weighted_surface_energy_EV_PER_ANG2", "weighted_surface_energy", "weighted_work_function", "surface_anisotropy", "shape_factor", "has_reconstructed", "possible_species", "has_props", "theoretical", "database_IDs"]}