{
  "builder_meta": null,
  "nsites": null,
  "elements": null,
  "nelements": null,
  "composition": null,
  "composition_reduced": null,
  "formula_pretty": "Eu3Sb",
  "formula_anonymous": "AB3",
  "chemsys": null,
  "volume": 261.8592900810744,
  "density": 7.326176685216252,
  "density_atomic": 32.7324112601343,
  "symmetry": null,
  "property_name": null,
  "material_id": "mp-1184203",
  "deprecated": null,
  "deprecation_reasons": null,
  "last_updated": null,
  "origins": null,
  "warnings": null,
  "structure": {
    "@module": "pymatgen.core.structure",
    "@class": "Structure",
    "charge": 0,
    "lattice": {
      "matrix": [
        [3.6174720000000002, -6.265646, 0.0],
        [3.6174720000000002, 6.265646, 0.0],
        [0.0, 0.0, 5.776529]
      ],
      "pbc": [true, true, true],
      "a": 7.234944607120362,
      "b": 7.234944607120362,
      "c": 5.776529,
      "alpha": 90.0,
      "beta": 90.0,
      "gamma": 120.0000055517715,
      "volume": 261.85929008107445
    },
    "properties": {},
    "sites": [
      {
        "species": [{ "element": "Eu", "occu": 1 }],
        "abc": [0.175053, 0.350106, 0.25],
        "properties": { "magmom": 7.029 },
        "label": "Eu",
        "xyz": [1.899747978048, 1.096820129238, 1.44413225]
      },
      {
        "species": [{ "element": "Eu", "occu": 1 }],
        "abc": [0.649894, 0.824947, 0.25],
        "properties": { "magmom": 7.027 },
        "label": "Eu",
        "xyz": [5.335196021952, 1.096820129238, 1.44413225]
      },
      {
        "species": [{ "element": "Eu", "occu": 1 }],
        "abc": [0.175053, 0.824947, 0.25],
        "properties": { "magmom": 7.035 },
        "label": "Eu",
        "xyz": [3.6174720000000002, 4.072005741524, 1.44413225]
      },
      {
        "species": [{ "element": "Eu", "occu": 1 }],
        "abc": [0.824947, 0.649894, 0.75],
        "properties": { "magmom": 7.029 },
        "label": "Eu",
        "xyz": [5.335196021952, -1.096820129238, 4.33239675]
      },
      {
        "species": [{ "element": "Eu", "occu": 1 }],
        "abc": [0.350106, 0.175053, 0.75],
        "properties": { "magmom": 7.027 },
        "label": "Eu",
        "xyz": [1.899747978048, -1.096820129238, 4.33239675]
      },
      {
        "species": [{ "element": "Eu", "occu": 1 }],
        "abc": [0.824947, 0.175053, 0.75],
        "properties": { "magmom": 7.035 },
        "label": "Eu",
        "xyz": [3.6174720000000002, -4.072005741524, 4.33239675]
      },
      {
        "species": [{ "element": "Sb", "occu": 1 }],
        "abc": [0.333333, 0.666667, 0.75],
        "properties": { "magmom": -0.096 },
        "label": "Sb",
        "xyz": [3.6174720000000002, 2.0885528437640004, 4.33239675]
      },
      {
        "species": [{ "element": "Sb", "occu": 1 }],
        "abc": [0.666667, 0.333333, 0.25],
        "properties": { "magmom": -0.096 },
        "label": "Sb",
        "xyz": [3.6174720000000002, -2.0885528437640004, 1.44413225]
      }
    ]
  },
  "task_ids": null,
  "uncorrected_energy_per_atom": null,
  "energy_per_atom": -9.35602143375,
  "formation_energy_per_atom": -0.6076871875000031,
  "energy_above_hull": 0.10815280458333001,
  "is_stable": false,
  "equilibrium_reaction_energy_per_atom": null,
  "decomposes_to": null,
  "xas": null,
  "grain_boundaries": null,
  "band_gap": 0.0,
  "cbm": null,
  "vbm": null,
  "efermi": 4.21708601,
  "is_gap_direct": null,
  "is_metal": null,
  "es_source_calc_id": null,
  "bandstructure": null,
  "dos": null,
  "dos_energy_up": null,
  "dos_energy_down": null,
  "is_magnetic": null,
  "ordering": null,
  "total_magnetization": 44.4904391,
  "total_magnetization_normalized_vol": null,
  "total_magnetization_normalized_formula_units": null,
  "num_magnetic_sites": null,
  "num_unique_magnetic_sites": null,
  "types_of_magnetic_species": null,
  "bulk_modulus": null,
  "shear_modulus": null,
  "universal_anisotropy": null,
  "homogeneous_poisson": null,
  "e_total": null,
  "e_ionic": null,
  "e_electronic": null,
  "n": null,
  "e_ij_max": null,
  "weighted_surface_energy_EV_PER_ANG2": null,
  "weighted_surface_energy": null,
  "weighted_work_function": null,
  "surface_anisotropy": null,
  "shape_factor": null,
  "has_reconstructed": null,
  "possible_species": null,
  "has_props": null,
  "theoretical": null,
  "database_IDs": null,
  "fields_not_requested": [
    "builder_meta",
    "nsites",
    "elements",
    "nelements",
    "composition",
    "composition_reduced",
    "chemsys",
    "symmetry",
    "property_name",
    "deprecated",
    "deprecation_reasons",
    "last_updated",
    "origins",
    "warnings",
    "task_ids",
    "uncorrected_energy_per_atom",
    "equilibrium_reaction_energy_per_atom",
    "decomposes_to",
    "xas",
    "grain_boundaries",
    "cbm",
    "vbm",
    "is_gap_direct",
    "is_metal",
    "es_source_calc_id",
    "bandstructure",
    "dos",
    "dos_energy_up",
    "dos_energy_down",
    "is_magnetic",
    "ordering",
    "total_magnetization_normalized_vol",
    "total_magnetization_normalized_formula_units",
    "num_magnetic_sites",
    "num_unique_magnetic_sites",
    "types_of_magnetic_species",
    "bulk_modulus",
    "shear_modulus",
    "universal_anisotropy",
    "homogeneous_poisson",
    "e_total",
    "e_ionic",
    "e_electronic",
    "n",
    "e_ij_max",
    "weighted_surface_energy_EV_PER_ANG2",
    "weighted_surface_energy",
    "weighted_work_function",
    "surface_anisotropy",
    "shape_factor",
    "has_reconstructed",
    "possible_species",
    "has_props",
    "theoretical",
    "database_IDs"
  ]
}
