{"builder_meta": null, "nsites": null, "elements": null, "nelements": null, "composition": null, "composition_reduced": null, "formula_pretty": "Eu3Sn5", "formula_anonymous": "A3B5", "chemsys": null, "volume": 469.9939838378623, "density": 7.415581897031302, "density_atomic": 29.374623989866393, "symmetry": null, "property_name": null, "material_id": "mp-1212891", "deprecated": null, "deprecation_reasons": null, "last_updated": null, "origins": null, "warnings": null, "structure": {"@module": "pymatgen.core.structure", "@class": "Structure", "charge": 0, "lattice": {"matrix": [[5.23408159, 4.22932996, -0.00011974], [-5.23410321, 4.2293557, -0.00012694], [5.629999999999999e-06, -0.00016005000000000001, 10.61568511]], "pbc": [true, true, true], "a": 6.729252708560453, "b": 6.729285702522115, "c": 10.615685111208009, "alpha": 90.0016473716279, "beta": 90.00153880226328, "gamma": 102.12097918656576, "volume": 469.9939838378623}, "properties": {}, "sites": [{"species": [{"element": "Eu", "occu": 1}], "abc": [0.20556531, 0.7944311, -8e-08], "properties": {"magmom": 6.774}, "label": "Eu", "xyz": [-3.0821887660206384, 4.229335225374761, -0.00012630872886219998]}, {"species": [{"element": "Eu", "occu": 1}], "abc": [0.79443546, 0.20556653, 1.209999999999999e-06], "properties": {"magmom": 6.774}, "label": "Eu", "xyz": [3.082183581094432, 4.229343667455442, -0.00010837533831550001]}, {"species": [{"element": "Eu", "occu": 1}], "abc": [0.79453849, 0.20546138, 0.50000037], "properties": {"magmom": 6.774}, "label": "Eu", "xyz": [3.0832760294684523, 4.229254673703808, 5.307725263497121]}, {"species": [{"element": "Eu", "occu": 1}], "abc": [0.20546219000000002, 0.79453701, 0.50000203], "properties": {"magmom": 6.774}, "label": "Eu", "xyz": [-3.0832800333732906, 4.229267002593768, 5.307738644270093]}, {"species": [{"element": "Eu", "occu": 1}], "abc": [0.63834557, 0.6383432800000001, 0.25008504], "properties": {"magmom": 6.767}, "label": "Eu", "xyz": [-4.069560974126395e-07, 5.399514807748322, 2.6546665685672393]}, {"species": [{"element": "Eu", "occu": 1}], "abc": [0.36165264, 0.36165738000000003, 0.74990967], "properties": {"magmom": 6.767}, "label": "Eu", "xyz": [-2.8406587850104307e-05, 3.059006023972477, 7.960715704589082]}, {"species": [{"element": "Sn", "occu": 1}], "abc": [0.49013027000000003, 0.08073536, 0.25006886], "properties": {"magmom": -0.019}, "label": "Sn", "xyz": [2.142806023859906, 2.4143411667003987, 2.6545833368315463]}, {"species": [{"element": "Sn", "occu": 1}], "abc": [0.50987174, 0.91926727, 0.7499300000000001], "properties": {"magmom": -0.019}, "label": "Sn", "xyz": [-2.1428252590537693, 6.04420406764077, 7.960842990712899]}, {"species": [{"element": "Sn", "occu": 1}], "abc": [0.08073657000000001, 0.490130099999999, 0.25006957], "properties": {"magmom": -0.019}, "label": "Sn", "xyz": [-2.14280832715919, 2.4143561029105247, 2.654587926201317]}, {"species": [{"element": "Sn", "occu": 1}], "abc": [0.91926344, 0.50987159, 0.74993115], "properties": {"magmom": -0.019}, "label": "Sn", "xyz": [2.1427835438696405, 6.044176696878669, 7.960858146876236]}, {"species": [{"element": "Sn", "occu": 1}], "abc": [0.03099395, 0.03098921, 0.24990832000000002], "properties": {"magmom": -0.021}, "label": "Sn", "xyz": [2.5546543858000717e-05, 0.262108035439123, 2.6529403865032246]}, {"species": [{"element": "Sn", "occu": 1}], "abc": [0.96901254, 0.96901075, 0.7500895], "properties": {"magmom": -0.021}, "label": "Sn", "xyz": [-7.3580024839991706e-06, 8.196444854087, 7.9624749005312]}, {"species": [{"element": "Sn", "occu": 1}], "abc": [0.30690372, 0.30690113, 0.05090287], "properties": {"magmom": -0.023}, "label": "Sn", "xyz": [7.207652045433348e-06, 2.595982994329049, 0.5402931324343907]}, {"species": [{"element": "Sn", "occu": 1}], "abc": [0.69309496, 0.69309778, 0.94909795], "properties": {"magmom": -0.023}, "label": "Sn", "xyz": [-2.4401462628413004e-05, 5.86253242282645, 10.07515400272382]}, {"species": [{"element": "Sn", "occu": 1}], "abc": [0.6931020800000001, 0.69310724, 0.55094434], "properties": {"magmom": -0.023}, "label": "Sn", "xyz": [-3.889102289901143e-05, 5.862666269845969, 5.848480651500672]}, {"species": [{"element": "Sn", "occu": 1}], "abc": [0.30689307, 0.30689189, 0.44905723000000003], "properties": {"magmom": -0.023}, "label": "Sn", "xyz": [2.0694058191292065e-06, 2.595835148112989, 4.766974445816127]}]}, "task_ids": null, "uncorrected_energy_per_atom": null, "energy_per_atom": -30.58623700125, "formation_energy_per_atom": -0.674541120625004, "energy_above_hull": 0.0, "is_stable": true, "equilibrium_reaction_energy_per_atom": null, "decomposes_to": null, "xas": null, "grain_boundaries": null, "band_gap": 0.0, "cbm": null, "vbm": null, "efermi": 5.8263769100000005, "is_gap_direct": null, "is_metal": null, "es_source_calc_id": null, "bandstructure": null, "dos": null, "dos_energy_up": null, "dos_energy_down": null, "is_magnetic": null, "ordering": null, "total_magnetization": 42.4108427, "total_magnetization_normalized_vol": null, "total_magnetization_normalized_formula_units": null, "num_magnetic_sites": null, "num_unique_magnetic_sites": null, "types_of_magnetic_species": null, "bulk_modulus": null, "shear_modulus": null, "universal_anisotropy": null, "homogeneous_poisson": null, "e_total": null, "e_ionic": null, "e_electronic": null, "n": null, "e_ij_max": null, "weighted_surface_energy_EV_PER_ANG2": null, "weighted_surface_energy": null, "weighted_work_function": null, "surface_anisotropy": null, "shape_factor": null, "has_reconstructed": null, "possible_species": null, "has_props": null, "theoretical": null, "database_IDs": null, "fields_not_requested": ["builder_meta", "nsites", "elements", "nelements", "composition", "composition_reduced", "chemsys", "symmetry", "property_name", "deprecated", "deprecation_reasons", "last_updated", "origins", "warnings", "task_ids", "uncorrected_energy_per_atom", "equilibrium_reaction_energy_per_atom", "decomposes_to", "xas", "grain_boundaries", "cbm", "vbm", "is_gap_direct", "is_metal", "es_source_calc_id", "bandstructure", "dos", "dos_energy_up", "dos_energy_down", "is_magnetic", "ordering", "total_magnetization_normalized_vol", "total_magnetization_normalized_formula_units", "num_magnetic_sites", "num_unique_magnetic_sites", "types_of_magnetic_species", "bulk_modulus", "shear_modulus", "universal_anisotropy", "homogeneous_poisson", "e_total", "e_ionic", "e_electronic", "n", "e_ij_max", "weighted_surface_energy_EV_PER_ANG2", "weighted_surface_energy", "weighted_work_function", "surface_anisotropy", "shape_factor", "has_reconstructed", "possible_species", "has_props", "theoretical", "database_IDs"]}