{"builder_meta": null, "nsites": null, "elements": null, "nelements": null, "composition": null, "composition_reduced": null, "formula_pretty": "Eu3Si4", "formula_anonymous": "A3B4", "chemsys": null, "volume": 165.6576846975754, "density": 5.695931086402505, "density_atomic": 23.665383528225057, "symmetry": null, "property_name": null, "material_id": "mp-1225258", "deprecated": null, "deprecation_reasons": null, "last_updated": null, "origins": null, "warnings": null, "structure": {"@module": "pymatgen.core.structure", "@class": "Structure", "charge": 0, "lattice": {"matrix": [[-1.983082, 2.279553, 9.161387], [1.983082, -2.279553, 9.161387], [1.983082, 2.279553, -9.161387]], "pbc": [true, true, true], "a": 9.646760485380675, "b": 9.646760485380675, "c": 9.646760485380675, "alpha": 156.27429431872895, "beta": 152.66318131983175, "gamma": 36.505044685805025, "volume": 165.6576846975754}, "properties": {}, "sites": [{"species": [{"element": "Eu", "occu": 1}], "abc": [0.995888999999999, 0.0, 0.995888999999999], "properties": {"magmom": 6.774}, "label": "Eu", "xyz": [0.0, 4.540363515233995, 0.0]}, {"species": [{"element": "Eu", "occu": 1}], "abc": [0.813427, 0.315104999999999, 0.498322], "properties": {"magmom": 6.877}, "label": "Eu", "xyz": [-1.9984014443252818e-15, 2.271902820132002, 5.77359770126999]}, {"species": [{"element": "Eu", "occu": 1}], "abc": [0.183218, 0.684894999999999, 0.498322], "properties": {"magmom": 6.877}, "label": "Eu", "xyz": [1.983080016917998, -0.007647900314997846, 3.3877984601169917]}, {"species": [{"element": "Si", "occu": 1}], "abc": [0.639359, 0.138267, 0.501092], "properties": {"magmom": -0.033}, "label": "Si", "xyz": [0.0, 2.284531543752, 2.533434992658]}, {"species": [{"element": "Si", "occu": 1}], "abc": [0.362824, 0.861733, 0.501092], "properties": {"magmom": -0.034}, "label": "Si", "xyz": [1.983083983082, 0.00497626419899988, 6.627942845954999]}, {"species": [{"element": "Si", "occu": 1}], "abc": [0.41596299999999903, 0.435320999999999, 0.9806419999999991], "properties": {"magmom": -0.0}, "label": "Si", "xyz": [1.9830819999999982, 2.191297826051998, -1.1850986995460104]}, {"species": [{"element": "Si", "occu": 1}], "abc": [0.54532, 0.564678999999999, 0.9806419999999991], "properties": {"magmom": -0.0}, "label": "Si", "xyz": [1.9830839830819964, 2.191295546499, 1.1850895381589979]}]}, "task_ids": null, "uncorrected_energy_per_atom": null, "energy_per_atom": -22.14441612857143, "formation_energy_per_atom": -0.621886625000001, "energy_above_hull": 0.0008931085714280001, "is_stable": false, "equilibrium_reaction_energy_per_atom": null, "decomposes_to": null, "xas": null, "grain_boundaries": null, "band_gap": 0.0, "cbm": null, "vbm": null, "efermi": 4.86921087, "is_gap_direct": null, "is_metal": null, "es_source_calc_id": null, "bandstructure": null, "dos": null, "dos_energy_up": null, "dos_energy_down": null, "is_magnetic": null, "ordering": null, "total_magnetization": 21.7153549, "total_magnetization_normalized_vol": null, "total_magnetization_normalized_formula_units": null, "num_magnetic_sites": null, "num_unique_magnetic_sites": null, "types_of_magnetic_species": null, "bulk_modulus": null, "shear_modulus": null, "universal_anisotropy": null, "homogeneous_poisson": null, "e_total": null, "e_ionic": null, "e_electronic": null, "n": null, "e_ij_max": null, "weighted_surface_energy_EV_PER_ANG2": null, "weighted_surface_energy": null, "weighted_work_function": null, "surface_anisotropy": null, "shape_factor": null, "has_reconstructed": null, "possible_species": null, "has_props": null, "theoretical": null, "database_IDs": null, "fields_not_requested": ["builder_meta", "nsites", "elements", "nelements", "composition", "composition_reduced", "chemsys", "symmetry", "property_name", "deprecated", "deprecation_reasons", "last_updated", "origins", "warnings", "task_ids", "uncorrected_energy_per_atom", "equilibrium_reaction_energy_per_atom", "decomposes_to", "xas", "grain_boundaries", "cbm", "vbm", "is_gap_direct", "is_metal", "es_source_calc_id", "bandstructure", "dos", "dos_energy_up", "dos_energy_down", "is_magnetic", "ordering", "total_magnetization_normalized_vol", "total_magnetization_normalized_formula_units", "num_magnetic_sites", "num_unique_magnetic_sites", "types_of_magnetic_species", "bulk_modulus", "shear_modulus", "universal_anisotropy", "homogeneous_poisson", "e_total", "e_ionic", "e_electronic", "n", "e_ij_max", "weighted_surface_energy_EV_PER_ANG2", "weighted_surface_energy", "weighted_work_function", "surface_anisotropy", "shape_factor", "has_reconstructed", "possible_species", "has_props", "theoretical", "database_IDs"]}