{
  "builder_meta": null,
  "nsites": null,
  "elements": null,
  "nelements": null,
  "composition": null,
  "composition_reduced": null,
  "formula_pretty": "Eu3Sn",
  "formula_anonymous": "AB3",
  "chemsys": null,
  "volume": 261.22394429152376,
  "density": 7.305219062779869,
  "density_atomic": 32.65299303644047,
  "symmetry": null,
  "property_name": null,
  "material_id": "mp-867368",
  "deprecated": null,
  "deprecation_reasons": null,
  "last_updated": null,
  "origins": null,
  "warnings": null,
  "structure": {
    "@module": "pymatgen.core.structure",
    "@class": "Structure",
    "charge": 0,
    "lattice": {
      "matrix": [
        [3.63164446, -6.29019255, 0.0],
        [3.63168512, 6.29021507, 0.0],
        [0.0, 0.0, 5.71758348]
      ],
      "pbc": [true, true, true],
      "a": 7.263288772995619,
      "b": 7.263328605927486,
      "c": 5.71758348,
      "alpha": 90.0,
      "beta": 90.0,
      "gamma": 119.99980971420737,
      "volume": 261.22394429152376
    },
    "properties": {},
    "sites": [
      {
        "species": [{ "element": "Eu", "occu": 1 }],
        "abc": [0.17575566, 0.35148634, 0.25],
        "properties": { "magmom": 7.056 },
        "label": "Eu",
        "xyz": [1.9147697798139045, 1.105387729614811, 1.42939587]
      },
      {
        "species": [{ "element": "Eu", "occu": 1 }],
        "abc": [0.64851444, 0.82425823, 0.25],
        "properties": { "magmom": 7.056 },
        "label": "Eu",
        "xyz": [5.34862022218454, 1.1054808408621044, 1.42939587]
      },
      {
        "species": [{ "element": "Eu", "occu": 1 }],
        "abc": [0.17575929, 0.82427081, 0.25],
        "properties": { "magmom": 7.056 },
        "label": "Eu",
        "xyz": [3.631787287349381, 4.079280894271817, 1.42939587]
      },
      {
        "species": [{ "element": "Eu", "occu": 1 }],
        "abc": [0.82424434, 0.64851366, 0.75],
        "properties": { "magmom": 7.056 },
        "label": "Eu",
        "xyz": [5.348559800186096, -1.1053652096148108, 4.28818761]
      },
      {
        "species": [{ "element": "Eu", "occu": 1 }],
        "abc": [0.35148556000000003, 0.17574177, 0.75],
        "properties": { "magmom": 7.056 },
        "label": "Eu",
        "xyz": [1.9147093578154601, -1.1054583208621043, 4.28818761]
      },
      {
        "species": [{ "element": "Eu", "occu": 1 }],
        "abc": [0.82424071, 0.17572919, 0.75],
        "properties": { "magmom": 7.056 },
        "label": "Eu",
        "xyz": [3.63154229265062, -4.079258374271817, 4.28818761]
      },
      {
        "species": [{ "element": "Sn", "occu": 1 }],
        "abc": [0.33333759, 0.66667206, 0.75],
        "properties": { "magmom": -0.18 },
        "label": "Sn",
        "xyz": [3.631706612254999, 2.0967530133069894, 4.28818761]
      },
      {
        "species": [{ "element": "Sn", "occu": 1 }],
        "abc": [0.66666241, 0.33332794, 0.25],
        "properties": { "magmom": -0.18 },
        "label": "Sn",
        "xyz": [3.6316229677450016, -2.09673049330699, 1.42939587]
      }
    ]
  },
  "task_ids": null,
  "uncorrected_energy_per_atom": null,
  "energy_per_atom": -35.62683100125,
  "formation_energy_per_atom": -0.5496230199999981,
  "energy_above_hull": 0.013486098750007001,
  "is_stable": false,
  "equilibrium_reaction_energy_per_atom": null,
  "decomposes_to": null,
  "xas": null,
  "grain_boundaries": null,
  "band_gap": 0.0,
  "cbm": null,
  "vbm": null,
  "efermi": 3.43251186,
  "is_gap_direct": null,
  "is_metal": null,
  "es_source_calc_id": null,
  "bandstructure": null,
  "dos": null,
  "dos_energy_up": null,
  "dos_energy_down": null,
  "is_magnetic": null,
  "ordering": null,
  "total_magnetization": 45.9075367,
  "total_magnetization_normalized_vol": null,
  "total_magnetization_normalized_formula_units": null,
  "num_magnetic_sites": null,
  "num_unique_magnetic_sites": null,
  "types_of_magnetic_species": null,
  "bulk_modulus": null,
  "shear_modulus": null,
  "universal_anisotropy": null,
  "homogeneous_poisson": null,
  "e_total": null,
  "e_ionic": null,
  "e_electronic": null,
  "n": null,
  "e_ij_max": null,
  "weighted_surface_energy_EV_PER_ANG2": null,
  "weighted_surface_energy": null,
  "weighted_work_function": null,
  "surface_anisotropy": null,
  "shape_factor": null,
  "has_reconstructed": null,
  "possible_species": null,
  "has_props": null,
  "theoretical": null,
  "database_IDs": null,
  "fields_not_requested": [
    "builder_meta",
    "nsites",
    "elements",
    "nelements",
    "composition",
    "composition_reduced",
    "chemsys",
    "symmetry",
    "property_name",
    "deprecated",
    "deprecation_reasons",
    "last_updated",
    "origins",
    "warnings",
    "task_ids",
    "uncorrected_energy_per_atom",
    "equilibrium_reaction_energy_per_atom",
    "decomposes_to",
    "xas",
    "grain_boundaries",
    "cbm",
    "vbm",
    "is_gap_direct",
    "is_metal",
    "es_source_calc_id",
    "bandstructure",
    "dos",
    "dos_energy_up",
    "dos_energy_down",
    "is_magnetic",
    "ordering",
    "total_magnetization_normalized_vol",
    "total_magnetization_normalized_formula_units",
    "num_magnetic_sites",
    "num_unique_magnetic_sites",
    "types_of_magnetic_species",
    "bulk_modulus",
    "shear_modulus",
    "universal_anisotropy",
    "homogeneous_poisson",
    "e_total",
    "e_ionic",
    "e_electronic",
    "n",
    "e_ij_max",
    "weighted_surface_energy_EV_PER_ANG2",
    "weighted_surface_energy",
    "weighted_work_function",
    "surface_anisotropy",
    "shape_factor",
    "has_reconstructed",
    "possible_species",
    "has_props",
    "theoretical",
    "database_IDs"
  ]
}
