{
  "builder_meta": null,
  "nsites": null,
  "elements": null,
  "nelements": null,
  "composition": null,
  "composition_reduced": null,
  "formula_pretty": "Eu3Ta",
  "formula_anonymous": "AB3",
  "chemsys": null,
  "volume": 120.34920755924402,
  "density": 8.786908708046825,
  "density_atomic": 30.087301889811005,
  "symmetry": null,
  "property_name": null,
  "material_id": "mp-1184414",
  "deprecated": null,
  "deprecation_reasons": null,
  "last_updated": null,
  "origins": null,
  "warnings": null,
  "structure": {
    "@module": "pymatgen.core.structure",
    "@class": "Structure",
    "charge": 0,
    "lattice": {
      "matrix": [
        [-2.50533, 2.50533, 4.793507],
        [2.50533, -2.50533, 4.793507],
        [2.50533, 2.50533, -4.793507]
      ],
      "pbc": [true, true, true],
      "a": 5.96079408945226,
      "b": 5.96079408945226,
      "c": 5.96079408945226,
      "alpha": 130.2927669559852,
      "beta": 130.2927669559852,
      "gamma": 72.93916061768856,
      "volume": 120.34920755924402
    },
    "properties": {},
    "sites": [
      {
        "species": [{ "element": "Eu", "occu": 1 }],
        "abc": [0.750002, 0.250001, 0.500001],
        "properties": { "magmom": 6.809 },
        "label": "Eu",
        "xyz": [2.220446049250313e-16, 2.5053350106599996, 2.3967630870139995]
      },
      {
        "species": [{ "element": "Eu", "occu": 1 }],
        "abc": [0.250001, 0.750002, 0.500001],
        "properties": { "magmom": 6.809 },
        "label": "Eu",
        "xyz": [2.5053350106599996, 2.220446049250313e-16, 2.3967630870139995]
      },
      {
        "species": [{ "element": "Eu", "occu": 1 }],
        "abc": [0.499998999999999, 0.499998999999999, 0.0],
        "properties": { "magmom": 6.857 },
        "label": "Eu",
        "xyz": [0.0, 0.0, 4.793497412985991]
      },
      {
        "species": [{ "element": "Ta", "occu": 1 }],
        "abc": [0.0, 0.0, 0.0],
        "properties": { "magmom": -1.084 },
        "label": "Ta",
        "xyz": [0.0, 0.0, 0.0]
      }
    ]
  },
  "task_ids": null,
  "uncorrected_energy_per_atom": null,
  "energy_per_atom": -40.38885097441667,
  "formation_energy_per_atom": 0.649769239999997,
  "energy_above_hull": 0.649769239999997,
  "is_stable": false,
  "equilibrium_reaction_energy_per_atom": null,
  "decomposes_to": null,
  "xas": null,
  "grain_boundaries": null,
  "band_gap": 0.0,
  "cbm": null,
  "vbm": null,
  "efermi": 3.1450996,
  "is_gap_direct": null,
  "is_metal": null,
  "es_source_calc_id": null,
  "bandstructure": null,
  "dos": null,
  "dos_energy_up": null,
  "dos_energy_down": null,
  "is_magnetic": null,
  "ordering": null,
  "total_magnetization": 19.6348321,
  "total_magnetization_normalized_vol": null,
  "total_magnetization_normalized_formula_units": null,
  "num_magnetic_sites": null,
  "num_unique_magnetic_sites": null,
  "types_of_magnetic_species": null,
  "bulk_modulus": null,
  "shear_modulus": null,
  "universal_anisotropy": null,
  "homogeneous_poisson": null,
  "e_total": null,
  "e_ionic": null,
  "e_electronic": null,
  "n": null,
  "e_ij_max": null,
  "weighted_surface_energy_EV_PER_ANG2": null,
  "weighted_surface_energy": null,
  "weighted_work_function": null,
  "surface_anisotropy": null,
  "shape_factor": null,
  "has_reconstructed": null,
  "possible_species": null,
  "has_props": null,
  "theoretical": null,
  "database_IDs": null,
  "fields_not_requested": [
    "builder_meta",
    "nsites",
    "elements",
    "nelements",
    "composition",
    "composition_reduced",
    "chemsys",
    "symmetry",
    "property_name",
    "deprecated",
    "deprecation_reasons",
    "last_updated",
    "origins",
    "warnings",
    "task_ids",
    "uncorrected_energy_per_atom",
    "equilibrium_reaction_energy_per_atom",
    "decomposes_to",
    "xas",
    "grain_boundaries",
    "cbm",
    "vbm",
    "is_gap_direct",
    "is_metal",
    "es_source_calc_id",
    "bandstructure",
    "dos",
    "dos_energy_up",
    "dos_energy_down",
    "is_magnetic",
    "ordering",
    "total_magnetization_normalized_vol",
    "total_magnetization_normalized_formula_units",
    "num_magnetic_sites",
    "num_unique_magnetic_sites",
    "types_of_magnetic_species",
    "bulk_modulus",
    "shear_modulus",
    "universal_anisotropy",
    "homogeneous_poisson",
    "e_total",
    "e_ionic",
    "e_electronic",
    "n",
    "e_ij_max",
    "weighted_surface_energy_EV_PER_ANG2",
    "weighted_surface_energy",
    "weighted_work_function",
    "surface_anisotropy",
    "shape_factor",
    "has_reconstructed",
    "possible_species",
    "has_props",
    "theoretical",
    "database_IDs"
  ]
}
