{
  "builder_meta": null,
  "nsites": null,
  "elements": null,
  "nelements": null,
  "composition": null,
  "composition_reduced": null,
  "formula_pretty": "Eu3Tm",
  "formula_anonymous": "AB3",
  "chemsys": null,
  "volume": 309.9392333272526,
  "density": 6.695172601431255,
  "density_atomic": 38.74240416590658,
  "symmetry": null,
  "property_name": null,
  "material_id": "mp-1184443",
  "deprecated": null,
  "deprecation_reasons": null,
  "last_updated": null,
  "origins": null,
  "warnings": null,
  "structure": {
    "@module": "pymatgen.core.structure",
    "@class": "Structure",
    "charge": 0,
    "lattice": {
      "matrix": [
        [3.825234, -6.625501, 0.0],
        [3.825234, 6.625501, 0.0],
        [0.0, 0.0, 6.114625]
      ],
      "pbc": [true, true, true],
      "a": 7.650469178799232,
      "b": 7.650469178799232,
      "c": 6.114625,
      "alpha": 90.0,
      "beta": 90.0,
      "gamma": 120.00001019397969,
      "volume": 309.9392333272526
    },
    "properties": {},
    "sites": [
      {
        "species": [{ "element": "Eu", "occu": 1 }],
        "abc": [0.170019, 0.340037, 0.25],
        "properties": { "magmom": 6.983 },
        "label": "Eu",
        "xyz": [1.9510835531039998, 1.126454429018, 1.52865625]
      },
      {
        "species": [{ "element": "Eu", "occu": 1 }],
        "abc": [0.659963, 0.829981, 0.25],
        "properties": { "magmom": 6.976 },
        "label": "Eu",
        "xyz": [5.6993844468959995, 1.1264544290180005, 1.52865625]
      },
      {
        "species": [{ "element": "Eu", "occu": 1 }],
        "abc": [0.170019, 0.829981, 0.25],
        "properties": { "magmom": 6.983 },
        "label": "Eu",
        "xyz": [3.825234, 4.372578890962, 1.52865625]
      },
      {
        "species": [{ "element": "Eu", "occu": 1 }],
        "abc": [0.829981, 0.659963, 0.75],
        "properties": { "magmom": 6.982 },
        "label": "Eu",
        "xyz": [5.6993844468959995, -1.1264544290180005, 4.58596875]
      },
      {
        "species": [{ "element": "Eu", "occu": 1 }],
        "abc": [0.340037, 0.170019, 0.75],
        "properties": { "magmom": 6.976 },
        "label": "Eu",
        "xyz": [1.9510835531039998, -1.126454429018, 4.58596875]
      },
      {
        "species": [{ "element": "Eu", "occu": 1 }],
        "abc": [0.829981, 0.170019, 0.75],
        "properties": { "magmom": 6.983 },
        "label": "Eu",
        "xyz": [3.825234, -4.372578890962, 4.58596875]
      },
      {
        "species": [{ "element": "Tm", "occu": 1 }],
        "abc": [0.333333, 0.666667, 0.75],
        "properties": { "magmom": 0.399 },
        "label": "Tm",
        "xyz": [3.825234, 2.2085047503340003, 4.58596875]
      },
      {
        "species": [{ "element": "Tm", "occu": 1 }],
        "abc": [0.666667, 0.333333, 0.25],
        "properties": { "magmom": 0.399 },
        "label": "Tm",
        "xyz": [3.825234, -2.2085047503340003, 1.52865625]
      }
    ]
  },
  "task_ids": null,
  "uncorrected_energy_per_atom": null,
  "energy_per_atom": -37.587445976666665,
  "formation_energy_per_atom": 0.083478132083335,
  "energy_above_hull": 0.083478132083335,
  "is_stable": false,
  "equilibrium_reaction_energy_per_atom": null,
  "decomposes_to": null,
  "xas": null,
  "grain_boundaries": null,
  "band_gap": 0.0,
  "cbm": null,
  "vbm": null,
  "efermi": 2.26340834,
  "is_gap_direct": null,
  "is_metal": null,
  "es_source_calc_id": null,
  "bandstructure": null,
  "dos": null,
  "dos_energy_up": null,
  "dos_energy_down": null,
  "is_magnetic": null,
  "ordering": null,
  "total_magnetization": 46.0446837,
  "total_magnetization_normalized_vol": null,
  "total_magnetization_normalized_formula_units": null,
  "num_magnetic_sites": null,
  "num_unique_magnetic_sites": null,
  "types_of_magnetic_species": null,
  "bulk_modulus": null,
  "shear_modulus": null,
  "universal_anisotropy": null,
  "homogeneous_poisson": null,
  "e_total": null,
  "e_ionic": null,
  "e_electronic": null,
  "n": null,
  "e_ij_max": null,
  "weighted_surface_energy_EV_PER_ANG2": null,
  "weighted_surface_energy": null,
  "weighted_work_function": null,
  "surface_anisotropy": null,
  "shape_factor": null,
  "has_reconstructed": null,
  "possible_species": null,
  "has_props": null,
  "theoretical": null,
  "database_IDs": null,
  "fields_not_requested": [
    "builder_meta",
    "nsites",
    "elements",
    "nelements",
    "composition",
    "composition_reduced",
    "chemsys",
    "symmetry",
    "property_name",
    "deprecated",
    "deprecation_reasons",
    "last_updated",
    "origins",
    "warnings",
    "task_ids",
    "uncorrected_energy_per_atom",
    "equilibrium_reaction_energy_per_atom",
    "decomposes_to",
    "xas",
    "grain_boundaries",
    "cbm",
    "vbm",
    "is_gap_direct",
    "is_metal",
    "es_source_calc_id",
    "bandstructure",
    "dos",
    "dos_energy_up",
    "dos_energy_down",
    "is_magnetic",
    "ordering",
    "total_magnetization_normalized_vol",
    "total_magnetization_normalized_formula_units",
    "num_magnetic_sites",
    "num_unique_magnetic_sites",
    "types_of_magnetic_species",
    "bulk_modulus",
    "shear_modulus",
    "universal_anisotropy",
    "homogeneous_poisson",
    "e_total",
    "e_ionic",
    "e_electronic",
    "n",
    "e_ij_max",
    "weighted_surface_energy_EV_PER_ANG2",
    "weighted_surface_energy",
    "weighted_work_function",
    "surface_anisotropy",
    "shape_factor",
    "has_reconstructed",
    "possible_species",
    "has_props",
    "theoretical",
    "database_IDs"
  ]
}
