{
  "builder_meta": null,
  "nsites": null,
  "elements": null,
  "nelements": null,
  "composition": null,
  "composition_reduced": null,
  "formula_pretty": "Eu3Tl",
  "formula_anonymous": "AB3",
  "chemsys": null,
  "volume": 270.16951682715495,
  "density": 8.11648140942919,
  "density_atomic": 33.77118960339437,
  "symmetry": null,
  "property_name": null,
  "material_id": "mp-867318",
  "deprecated": null,
  "deprecation_reasons": null,
  "last_updated": null,
  "origins": null,
  "warnings": null,
  "structure": {
    "@module": "pymatgen.core.structure",
    "@class": "Structure",
    "charge": 0,
    "lattice": {
      "matrix": [
        [7.3937889, 0.00280592, 0.0],
        [-3.69445142, 6.40555244, 0.0],
        [0.0, 0.0, 5.70318765]
      ],
      "pbc": [true, true, true],
      "a": 7.3937894324189575,
      "b": 7.394597579066082,
      "c": 5.70318765,
      "alpha": 90.0,
      "beta": 90.0,
      "gamma": 119.95278428192859,
      "volume": 270.16951682715495
    },
    "properties": {},
    "sites": [
      {
        "species": [{ "element": "Eu", "occu": 1 }],
        "abc": [0.17569293, 0.3517518, 0.250001],
        "properties": { "magmom": 6.938 },
        "label": "Eu",
        "xyz": [-0.0004935013550790845, 2.2536575810705375, 1.42580261568765]
      },
      {
        "species": [{ "element": "Eu", "occu": 1 }],
        "abc": [0.64830679, 0.82433767, 0.250001],
        "properties": { "magmom": 6.938 },
        "label": "Eu",
        "xyz": [1.7479680722056394, 5.282157270440611, 1.42580261568765]
      },
      {
        "species": [{ "element": "Eu", "occu": 1 }],
        "abc": [0.1755099, 0.82449069, 0.250001],
        "properties": { "magmom": 6.938 },
        "label": "Eu",
        "xyz": [-1.7483576499871698, 5.2818108178253915, 1.42580261568765]
      },
      {
        "species": [{ "element": "Eu", "occu": 1 }],
        "abc": [0.82431521, 0.64825138, 0.75],
        "properties": { "magmom": 6.938 },
        "label": "Eu",
        "xyz": [3.6998794184412085, 4.154721171426411, 4.2773907375]
      },
      {
        "species": [{ "element": "Eu", "occu": 1 }],
        "abc": [0.35168788, 0.17565573, 0.75],
        "properties": { "magmom": 6.938 },
        "label": "Eu",
        "xyz": [1.9513543822788952, 1.126158797957731, 4.2773907375]
      },
      {
        "species": [{ "element": "Eu", "occu": 1 }],
        "abc": [0.82448954, 0.17551238, 0.75],
        "properties": { "magmom": 6.938 },
        "label": "Eu",
        "xyz": [5.447679647499526, 1.1265672056492841, 4.2773907375]
      },
      {
        "species": [{ "element": "Tl", "occu": 1 }],
        "abc": [0.33329406, 0.6667661500000001, 0.75],
        "properties": { "magmom": -0.105 },
        "label": "Tl",
        "xyz": [0.000970771588500785, 4.271940735510742, 4.2773907375]
      },
      {
        "species": [{ "element": "Tl", "occu": 1 }],
        "abc": [0.66670569, 0.33323217, 0.250001],
        "properties": { "magmom": -0.105 },
        "label": "Tl",
        "xyz": [3.6983710666426597, 2.1364068624596797, 1.42580261568765]
      }
    ]
  },
  "task_ids": null,
  "uncorrected_energy_per_atom": null,
  "energy_per_atom": -42.48173916,
  "formation_energy_per_atom": -0.296250978749995,
  "energy_above_hull": 0.0,
  "is_stable": true,
  "equilibrium_reaction_energy_per_atom": null,
  "decomposes_to": null,
  "xas": null,
  "grain_boundaries": null,
  "band_gap": 0.0,
  "cbm": null,
  "vbm": null,
  "efermi": 3.44325741,
  "is_gap_direct": null,
  "is_metal": null,
  "es_source_calc_id": null,
  "bandstructure": null,
  "dos": null,
  "dos_energy_up": null,
  "dos_energy_down": null,
  "is_magnetic": null,
  "ordering": null,
  "total_magnetization": 44.2102544,
  "total_magnetization_normalized_vol": null,
  "total_magnetization_normalized_formula_units": null,
  "num_magnetic_sites": null,
  "num_unique_magnetic_sites": null,
  "types_of_magnetic_species": null,
  "bulk_modulus": null,
  "shear_modulus": null,
  "universal_anisotropy": null,
  "homogeneous_poisson": null,
  "e_total": null,
  "e_ionic": null,
  "e_electronic": null,
  "n": null,
  "e_ij_max": null,
  "weighted_surface_energy_EV_PER_ANG2": null,
  "weighted_surface_energy": null,
  "weighted_work_function": null,
  "surface_anisotropy": null,
  "shape_factor": null,
  "has_reconstructed": null,
  "possible_species": null,
  "has_props": null,
  "theoretical": null,
  "database_IDs": null,
  "fields_not_requested": [
    "builder_meta",
    "nsites",
    "elements",
    "nelements",
    "composition",
    "composition_reduced",
    "chemsys",
    "symmetry",
    "property_name",
    "deprecated",
    "deprecation_reasons",
    "last_updated",
    "origins",
    "warnings",
    "task_ids",
    "uncorrected_energy_per_atom",
    "equilibrium_reaction_energy_per_atom",
    "decomposes_to",
    "xas",
    "grain_boundaries",
    "cbm",
    "vbm",
    "is_gap_direct",
    "is_metal",
    "es_source_calc_id",
    "bandstructure",
    "dos",
    "dos_energy_up",
    "dos_energy_down",
    "is_magnetic",
    "ordering",
    "total_magnetization_normalized_vol",
    "total_magnetization_normalized_formula_units",
    "num_magnetic_sites",
    "num_unique_magnetic_sites",
    "types_of_magnetic_species",
    "bulk_modulus",
    "shear_modulus",
    "universal_anisotropy",
    "homogeneous_poisson",
    "e_total",
    "e_ionic",
    "e_electronic",
    "n",
    "e_ij_max",
    "weighted_surface_energy_EV_PER_ANG2",
    "weighted_surface_energy",
    "weighted_work_function",
    "surface_anisotropy",
    "shape_factor",
    "has_reconstructed",
    "possible_species",
    "has_props",
    "theoretical",
    "database_IDs"
  ]
}
