{
  "builder_meta": null,
  "nsites": null,
  "elements": null,
  "nelements": null,
  "composition": null,
  "composition_reduced": null,
  "formula_pretty": "Eu3Zr",
  "formula_anonymous": "AB3",
  "chemsys": null,
  "volume": 137.45836532520025,
  "density": 6.609328503307676,
  "density_atomic": 34.36459133130006,
  "symmetry": null,
  "property_name": null,
  "material_id": "mp-1184395",
  "deprecated": null,
  "deprecation_reasons": null,
  "last_updated": null,
  "origins": null,
  "warnings": null,
  "structure": {
    "@module": "pymatgen.core.structure",
    "@class": "Structure",
    "charge": 0,
    "lattice": {
      "matrix": [
        [-2.597671, 2.597671, 5.092639],
        [2.597671, -2.597671, 5.092639],
        [2.597671, 2.597671, -5.092639]
      ],
      "pbc": [true, true, true],
      "a": 6.279391788445996,
      "b": 6.279391788445996,
      "c": 6.279391788445996,
      "alpha": 131.12732082663467,
      "beta": 131.12732082663467,
      "gamma": 71.61087091166081,
      "volume": 137.45836532520025
    },
    "properties": {},
    "sites": [
      {
        "species": [{ "element": "Eu", "occu": 1 }],
        "abc": [0.75, 0.25, 0.5],
        "properties": { "magmom": 6.93 },
        "label": "Eu",
        "xyz": [0.0, 2.597671, 2.5463195]
      },
      {
        "species": [{ "element": "Eu", "occu": 1 }],
        "abc": [0.25, 0.75, 0.5],
        "properties": { "magmom": 6.93 },
        "label": "Eu",
        "xyz": [2.597671, 0.0, 2.5463195]
      },
      {
        "species": [{ "element": "Eu", "occu": 1 }],
        "abc": [0.5, 0.5, 0.0],
        "properties": { "magmom": 6.946 },
        "label": "Eu",
        "xyz": [0.0, 0.0, 5.092639]
      },
      {
        "species": [{ "element": "Zr", "occu": 1 }],
        "abc": [0.0, 0.0, 0.0],
        "properties": { "magmom": 0.625 },
        "label": "Zr",
        "xyz": [0.0, 0.0, 0.0]
      }
    ]
  },
  "task_ids": null,
  "uncorrected_energy_per_atom": null,
  "energy_per_atom": -34.26090636,
  "formation_energy_per_atom": 0.31720365249999805,
  "energy_above_hull": 0.31720365249999805,
  "is_stable": false,
  "equilibrium_reaction_energy_per_atom": null,
  "decomposes_to": null,
  "xas": null,
  "grain_boundaries": null,
  "band_gap": 0.0,
  "cbm": null,
  "vbm": null,
  "efermi": 2.6778372900000003,
  "is_gap_direct": null,
  "is_metal": null,
  "es_source_calc_id": null,
  "bandstructure": null,
  "dos": null,
  "dos_energy_up": null,
  "dos_energy_down": null,
  "is_magnetic": null,
  "ordering": null,
  "total_magnetization": 23.0056949,
  "total_magnetization_normalized_vol": null,
  "total_magnetization_normalized_formula_units": null,
  "num_magnetic_sites": null,
  "num_unique_magnetic_sites": null,
  "types_of_magnetic_species": null,
  "bulk_modulus": null,
  "shear_modulus": null,
  "universal_anisotropy": null,
  "homogeneous_poisson": null,
  "e_total": null,
  "e_ionic": null,
  "e_electronic": null,
  "n": null,
  "e_ij_max": null,
  "weighted_surface_energy_EV_PER_ANG2": null,
  "weighted_surface_energy": null,
  "weighted_work_function": null,
  "surface_anisotropy": null,
  "shape_factor": null,
  "has_reconstructed": null,
  "possible_species": null,
  "has_props": null,
  "theoretical": null,
  "database_IDs": null,
  "fields_not_requested": [
    "builder_meta",
    "nsites",
    "elements",
    "nelements",
    "composition",
    "composition_reduced",
    "chemsys",
    "symmetry",
    "property_name",
    "deprecated",
    "deprecation_reasons",
    "last_updated",
    "origins",
    "warnings",
    "task_ids",
    "uncorrected_energy_per_atom",
    "equilibrium_reaction_energy_per_atom",
    "decomposes_to",
    "xas",
    "grain_boundaries",
    "cbm",
    "vbm",
    "is_gap_direct",
    "is_metal",
    "es_source_calc_id",
    "bandstructure",
    "dos",
    "dos_energy_up",
    "dos_energy_down",
    "is_magnetic",
    "ordering",
    "total_magnetization_normalized_vol",
    "total_magnetization_normalized_formula_units",
    "num_magnetic_sites",
    "num_unique_magnetic_sites",
    "types_of_magnetic_species",
    "bulk_modulus",
    "shear_modulus",
    "universal_anisotropy",
    "homogeneous_poisson",
    "e_total",
    "e_ionic",
    "e_electronic",
    "n",
    "e_ij_max",
    "weighted_surface_energy_EV_PER_ANG2",
    "weighted_surface_energy",
    "weighted_work_function",
    "surface_anisotropy",
    "shape_factor",
    "has_reconstructed",
    "possible_species",
    "has_props",
    "theoretical",
    "database_IDs"
  ]
}
