{
  "builder_meta": null,
  "nsites": null,
  "elements": null,
  "nelements": null,
  "composition": null,
  "composition_reduced": null,
  "formula_pretty": "Eu4As3",
  "formula_anonymous": "A3B4",
  "chemsys": null,
  "volume": 386.5079378764807,
  "density": 7.154312916106748,
  "density_atomic": 27.60770984832005,
  "symmetry": null,
  "property_name": null,
  "material_id": "mp-20995",
  "deprecated": null,
  "deprecation_reasons": null,
  "last_updated": null,
  "origins": null,
  "warnings": null,
  "structure": {
    "@module": "pymatgen.core.structure",
    "@class": "Structure",
    "charge": 0,
    "lattice": {
      "matrix": [
        [7.49401619, 0.00036794000000000003, -2.648759489999999],
        [-3.74665631, 6.49015673, -2.64864689],
        [3.917e-5, 0.00019591, 7.94637372]
      ],
      "pbc": [true, true, true],
      "a": 7.9483460938252435,
      "b": 7.948263850246404,
      "c": 7.946373722511525,
      "alpha": 109.46421767593071,
      "beta": 109.46566868072914,
      "gamma": 109.4721529175996,
      "volume": 386.50793787648064
    },
    "properties": {},
    "sites": [
      {
        "species": [{ "element": "Eu", "occu": 1 }],
        "abc": [0.36354248, 0.499805599999999, 0.99996616],
        "properties": { "magmom": 6.67 },
        "label": "Eu",
        "xyz": [0.851832594533906, 3.2441463437221785, 5.6593596727506]
      },
      {
        "species": [{ "element": "Eu", "occu": 1 }],
        "abc": [0.63650524, 0.63612585, 0.63638802],
        "properties": { "magmom": 6.67 },
        "label": "Eu",
        "xyz": [2.3866605710419653, 4.128915337019474, 1.6861549887150016]
      },
      {
        "species": [{ "element": "Eu", "occu": 1 }],
        "abc": [0.50002019, 1.5240000000000001e-5, 0.36362755],
        "properties": { "magmom": 6.67 },
        "label": "Eu",
        "xyz": [3.7471165434358453, 0.0003541256905943, 1.5650468183552804]
      },
      {
        "species": [{ "element": "Eu", "occu": 1 }],
        "abc": [0.00026218, 0.36377946, 0.50023726],
        "properties": { "magmom": 6.67 },
        "label": "Eu",
        "xyz": [-1.3609722337992243, 2.3610838085028814, 3.01085442949084]
      },
      {
        "species": [{ "element": "Eu", "occu": 1 }],
        "abc": [0.50001458, -1.2270000000000001e-5, 0.86375916],
        "properties": { "magmom": 6.67 },
        "label": "Eu",
        "xyz": [3.7471971626752705, 0.00027356019852370003, 5.539367224417251]
      },
      {
        "species": [{ "element": "Eu", "occu": 1 }],
        "abc": [0.99966367, 0.8634667300000001, 0.49990567],
        "properties": { "magmom": 6.67 },
        "label": "Eu",
        "xyz": [4.256402236410345, 5.604500161611142, -0.962449823186704]
      },
      {
        "species": [{ "element": "Eu", "occu": 1 }],
        "abc": [0.86382863, 0.50037303, 0.00025247000000000003],
        "properties": { "magmom": 6.67 },
        "label": "Eu",
        "xyz": [4.59881997829145, 3.2478172747325114, -3.6113795302224863]
      },
      {
        "species": [{ "element": "Eu", "occu": 1 }],
        "abc": [0.1362041, 0.1364658, 0.13643657],
        "properties": { "magmom": 6.67 },
        "label": "Eu",
        "xyz": [0.5094306240956279, 0.8857612745098168, 0.36195435508166973]
      },
      {
        "species": [{ "element": "As", "occu": 1 }],
        "abc": [0.7500245, 0.87474864, 0.1248825],
        "properties": { "magmom": -0.128 },
        "label": "As",
        "xyz": [2.3433181258242617, 5.677556202699451, -3.3111717608873334]
      },
      {
        "species": [{ "element": "As", "occu": 1 }],
        "abc": [0.625289499999999, 0.37526079, 0.25013741],
        "properties": { "magmom": -0.128 },
        "label": "As",
        "xyz": [3.279966227570263, 2.43578041516224, -0.6624894802819297]
      },
      {
        "species": [{ "element": "As", "occu": 1 }],
        "abc": [0.87513684, 0.12528463, 0.74999209],
        "properties": { "magmom": -0.128 },
        "label": "As",
        "xyz": [6.088920575080089, 0.8135858133593215, 3.3098556785709636]
      },
      {
        "species": [{ "element": "As", "occu": 1 }],
        "abc": [0.12471469, 0.74995861, 0.87484867],
        "properties": { "magmom": -0.128 },
        "label": "As",
        "xyz": [-1.8751889845820942, 4.867566199038922, 4.6351597215798215]
      },
      {
        "species": [{ "element": "As", "occu": 1 }],
        "abc": [0.37473066, 0.24988508, 0.6247322],
        "properties": { "magmom": -0.128 },
        "label": "As",
        "xyz": [1.8720285919328046, 1.6220536033729307, 3.30992680424942]
      },
      {
        "species": [{ "element": "As", "occu": 1 }],
        "abc": [0.25006175, 0.624842799999999, 0.37483328],
        "properties": { "magmom": -0.128 },
        "label": "As",
        "xyz": [-0.46708973415875416, 4.055493144920217, 0.6612239532160049]
      }
    ]
  },
  "task_ids": null,
  "uncorrected_energy_per_atom": null,
  "energy_per_atom": -9.108187322142856,
  "formation_energy_per_atom": -1.227785142500002,
  "energy_above_hull": 0.0,
  "is_stable": true,
  "equilibrium_reaction_energy_per_atom": null,
  "decomposes_to": null,
  "xas": null,
  "grain_boundaries": null,
  "band_gap": 0.0,
  "cbm": null,
  "vbm": null,
  "efermi": 3.20336283,
  "is_gap_direct": null,
  "is_metal": null,
  "es_source_calc_id": null,
  "bandstructure": null,
  "dos": null,
  "dos_energy_up": null,
  "dos_energy_down": null,
  "is_magnetic": null,
  "ordering": null,
  "total_magnetization": 54.0000003,
  "total_magnetization_normalized_vol": null,
  "total_magnetization_normalized_formula_units": null,
  "num_magnetic_sites": null,
  "num_unique_magnetic_sites": null,
  "types_of_magnetic_species": null,
  "bulk_modulus": null,
  "shear_modulus": null,
  "universal_anisotropy": null,
  "homogeneous_poisson": null,
  "e_total": null,
  "e_ionic": null,
  "e_electronic": null,
  "n": null,
  "e_ij_max": null,
  "weighted_surface_energy_EV_PER_ANG2": null,
  "weighted_surface_energy": null,
  "weighted_work_function": null,
  "surface_anisotropy": null,
  "shape_factor": null,
  "has_reconstructed": null,
  "possible_species": null,
  "has_props": null,
  "theoretical": null,
  "database_IDs": null,
  "fields_not_requested": [
    "builder_meta",
    "nsites",
    "elements",
    "nelements",
    "composition",
    "composition_reduced",
    "chemsys",
    "symmetry",
    "property_name",
    "deprecated",
    "deprecation_reasons",
    "last_updated",
    "origins",
    "warnings",
    "task_ids",
    "uncorrected_energy_per_atom",
    "equilibrium_reaction_energy_per_atom",
    "decomposes_to",
    "xas",
    "grain_boundaries",
    "cbm",
    "vbm",
    "is_gap_direct",
    "is_metal",
    "es_source_calc_id",
    "bandstructure",
    "dos",
    "dos_energy_up",
    "dos_energy_down",
    "is_magnetic",
    "ordering",
    "total_magnetization_normalized_vol",
    "total_magnetization_normalized_formula_units",
    "num_magnetic_sites",
    "num_unique_magnetic_sites",
    "types_of_magnetic_species",
    "bulk_modulus",
    "shear_modulus",
    "universal_anisotropy",
    "homogeneous_poisson",
    "e_total",
    "e_ionic",
    "e_electronic",
    "n",
    "e_ij_max",
    "weighted_surface_energy_EV_PER_ANG2",
    "weighted_surface_energy",
    "weighted_work_function",
    "surface_anisotropy",
    "shape_factor",
    "has_reconstructed",
    "possible_species",
    "has_props",
    "theoretical",
    "database_IDs"
  ]
}
