{
  "builder_meta": null,
  "nsites": null,
  "elements": null,
  "nelements": null,
  "composition": null,
  "composition_reduced": null,
  "formula_pretty": "Eu4Al",
  "formula_anonymous": "AB4",
  "chemsys": null,
  "volume": 454.766210429312,
  "density": 4.636107563023722,
  "density_atomic": 45.4766210429312,
  "symmetry": null,
  "property_name": null,
  "material_id": "mp-1213330",
  "deprecated": null,
  "deprecation_reasons": null,
  "last_updated": null,
  "origins": null,
  "warnings": null,
  "structure": {
    "@module": "pymatgen.core.structure",
    "@class": "Structure",
    "charge": 0,
    "lattice": {
      "matrix": [
        [0.0, 6.1036, 6.1036],
        [6.1036, 0.0, 6.1036],
        [6.1036, 6.1036, 0.0]
      ],
      "pbc": [true, true, true],
      "a": 8.631793899300423,
      "b": 8.631793899300423,
      "c": 8.631793899300423,
      "alpha": 59.99999999999999,
      "beta": 59.99999999999999,
      "gamma": 59.99999999999999,
      "volume": 454.766210429312
    },
    "properties": {},
    "sites": [
      {
        "species": [{ "element": "Eu", "occu": 1 }],
        "abc": [0.391248, 0.391248, 0.391248],
        "properties": { "magmom": 7.014 },
        "label": "Eu",
        "xyz": [4.7760425856, 4.7760425856, 4.7760425856]
      },
      {
        "species": [{ "element": "Eu", "occu": 1 }],
        "abc": [0.391248, 0.391248, 0.826255],
        "properties": { "magmom": 7.014 },
        "label": "Eu",
        "xyz": [7.431151310800001, 7.431151310800001, 4.7760425856]
      },
      {
        "species": [{ "element": "Eu", "occu": 1 }],
        "abc": [0.391248, 0.826255, 0.391248],
        "properties": { "magmom": 7.014 },
        "label": "Eu",
        "xyz": [7.431151310800001, 4.7760425856, 7.431151310800001]
      },
      {
        "species": [{ "element": "Eu", "occu": 1 }],
        "abc": [0.858752, 0.858752, 0.423745],
        "properties": { "magmom": 7.014 },
        "label": "Eu",
        "xyz": [7.8278486892, 7.8278486892, 10.4829574144]
      },
      {
        "species": [{ "element": "Eu", "occu": 1 }],
        "abc": [0.858752, 0.858752, 0.858752],
        "properties": { "magmom": 7.014 },
        "label": "Eu",
        "xyz": [10.4829574144, 10.4829574144, 10.4829574144]
      },
      {
        "species": [{ "element": "Eu", "occu": 1 }],
        "abc": [0.826255, 0.391248, 0.391248],
        "properties": { "magmom": 7.014 },
        "label": "Eu",
        "xyz": [4.7760425856, 7.431151310800001, 7.431151310800001]
      },
      {
        "species": [{ "element": "Eu", "occu": 1 }],
        "abc": [0.858752, 0.423745, 0.858752],
        "properties": { "magmom": 7.014 },
        "label": "Eu",
        "xyz": [7.8278486892, 10.4829574144, 7.8278486892]
      },
      {
        "species": [{ "element": "Eu", "occu": 1 }],
        "abc": [0.423745, 0.858752, 0.858752],
        "properties": { "magmom": 7.014 },
        "label": "Eu",
        "xyz": [10.4829574144, 7.8278486892, 7.8278486892]
      },
      {
        "species": [{ "element": "Al", "occu": 1 }],
        "abc": [0.0, 0.0, 0.0],
        "properties": { "magmom": 0.015 },
        "label": "Al",
        "xyz": [0.0, 0.0, 0.0]
      },
      {
        "species": [{ "element": "Al", "occu": 1 }],
        "abc": [0.25, 0.25, 0.25],
        "properties": { "magmom": 0.015 },
        "label": "Al",
        "xyz": [3.0518, 3.0518, 3.0518]
      }
    ]
  },
  "task_ids": null,
  "uncorrected_energy_per_atom": null,
  "energy_per_atom": -31.855883969399997,
  "formation_energy_per_atom": 0.307241868600004,
  "energy_above_hull": 0.44915171000000204,
  "is_stable": false,
  "equilibrium_reaction_energy_per_atom": null,
  "decomposes_to": null,
  "xas": null,
  "grain_boundaries": null,
  "band_gap": 0.0,
  "cbm": null,
  "vbm": null,
  "efermi": 1.5405047600000001,
  "is_gap_direct": null,
  "is_metal": null,
  "es_source_calc_id": null,
  "bandstructure": null,
  "dos": null,
  "dos_energy_up": null,
  "dos_energy_down": null,
  "is_magnetic": null,
  "ordering": null,
  "total_magnetization": 60.6972648,
  "total_magnetization_normalized_vol": null,
  "total_magnetization_normalized_formula_units": null,
  "num_magnetic_sites": null,
  "num_unique_magnetic_sites": null,
  "types_of_magnetic_species": null,
  "bulk_modulus": null,
  "shear_modulus": null,
  "universal_anisotropy": null,
  "homogeneous_poisson": null,
  "e_total": null,
  "e_ionic": null,
  "e_electronic": null,
  "n": null,
  "e_ij_max": null,
  "weighted_surface_energy_EV_PER_ANG2": null,
  "weighted_surface_energy": null,
  "weighted_work_function": null,
  "surface_anisotropy": null,
  "shape_factor": null,
  "has_reconstructed": null,
  "possible_species": null,
  "has_props": null,
  "theoretical": null,
  "database_IDs": null,
  "fields_not_requested": [
    "builder_meta",
    "nsites",
    "elements",
    "nelements",
    "composition",
    "composition_reduced",
    "chemsys",
    "symmetry",
    "property_name",
    "deprecated",
    "deprecation_reasons",
    "last_updated",
    "origins",
    "warnings",
    "task_ids",
    "uncorrected_energy_per_atom",
    "equilibrium_reaction_energy_per_atom",
    "decomposes_to",
    "xas",
    "grain_boundaries",
    "cbm",
    "vbm",
    "is_gap_direct",
    "is_metal",
    "es_source_calc_id",
    "bandstructure",
    "dos",
    "dos_energy_up",
    "dos_energy_down",
    "is_magnetic",
    "ordering",
    "total_magnetization_normalized_vol",
    "total_magnetization_normalized_formula_units",
    "num_magnetic_sites",
    "num_unique_magnetic_sites",
    "types_of_magnetic_species",
    "bulk_modulus",
    "shear_modulus",
    "universal_anisotropy",
    "homogeneous_poisson",
    "e_total",
    "e_ionic",
    "e_electronic",
    "n",
    "e_ij_max",
    "weighted_surface_energy_EV_PER_ANG2",
    "weighted_surface_energy",
    "weighted_work_function",
    "surface_anisotropy",
    "shape_factor",
    "has_reconstructed",
    "possible_species",
    "has_props",
    "theoretical",
    "database_IDs"
  ]
}
