{
  "builder_meta": null,
  "nsites": null,
  "elements": null,
  "nelements": null,
  "composition": null,
  "composition_reduced": null,
  "formula_pretty": "Eu4Bi3",
  "formula_anonymous": "A3B4",
  "chemsys": null,
  "volume": 487.85939771510175,
  "density": 8.405819379647147,
  "density_atomic": 34.847099836792985,
  "symmetry": null,
  "property_name": null,
  "material_id": "mp-1104641",
  "deprecated": null,
  "deprecation_reasons": null,
  "last_updated": null,
  "origins": null,
  "warnings": null,
  "structure": {
    "@module": "pymatgen.core.structure",
    "@class": "Structure",
    "charge": 0,
    "lattice": {
      "matrix": [
        [-4.95919643, 4.9592243, 4.9591045099999995],
        [4.95941622, -4.95909802, 4.95919805],
        [4.95917555, 4.95907713, -4.9589772100000005]
      ],
      "pbc": [true, true, true],
      "a": 8.589543202646901,
      "b": 8.589651198639606,
      "c": 8.589372682932451,
      "alpha": 109.46895186528737,
      "beta": 109.4708144485573,
      "gamma": 109.47211886193362,
      "volume": 487.8593977151017
    },
    "properties": {},
    "sites": [
      {
        "species": [{ "element": "Eu", "occu": 1 }],
        "abc": [0.64381782, 0.5000203400000001, 1.408e-5],
        "properties": { "magmom": 6.716 },
        "label": "Eu",
        "xyz": [-0.7129402247967241, 0.7132569234692889, 5.672389927469589]
      },
      {
        "species": [{ "element": "Eu", "occu": 1 }],
        "abc": [0.5000027, 6.599999999999997e-7, 0.64381073],
        "properties": { "magmom": 6.716 },
        "label": "Eu",
        "xyz": [0.7131620994279957, 5.672329334092522, -0.7130738199705733]
      },
      {
        "species": [{ "element": "Eu", "occu": 1 }],
        "abc": [-1.6880000000000004e-5, 0.64380322, 0.49999534],
        "properties": { "magmom": 6.716 },
        "label": "Eu",
        "xyz": [5.672536508233904, -0.7132515295772337, 0.7131984673573908]
      },
      {
        "species": [{ "element": "Eu", "occu": 1 }],
        "abc": [0.85619135, 0.85618509, 0.85619754],
        "properties": { "magmom": 6.716 },
        "label": "Eu",
        "xyz": [4.246191042689426, 4.246088803173544, 4.246069725856999]
      },
      {
        "species": [{ "element": "Eu", "occu": 1 }],
        "abc": [0.50001461, -1.68e-6, 0.14381009],
        "properties": { "magmom": 6.716 },
        "label": "Eu",
        "xyz": [-1.7664995185077927, 3.192858263933938, 1.7664654171861178]
      },
      {
        "species": [{ "element": "Eu", "occu": 1 }],
        "abc": [0.1438092, 0.5000026, -6.5e-6],
        "properties": { "magmom": 6.716 },
        "label": "Eu",
        "xyz": [1.7665106985999404, -1.7664120584526368, 3.192809004566287]
      },
      {
        "species": [{ "element": "Eu", "occu": 1 }],
        "abc": [-1.629e-5, 0.14379693, 0.49998756],
        "properties": { "magmom": 6.716 },
        "label": "Eu",
        "xyz": [3.1927556951942075, 1.7662930174715772, -1.7663902442839892]
      },
      {
        "species": [{ "element": "Eu", "occu": 1 }],
        "abc": [0.35619378, 0.35618711000000003, 0.35619021],
        "properties": { "magmom": 6.716 },
        "label": "Eu",
        "xyz": [1.7664549891060841, 1.766452781675229, 1.7664654683639693]
      },
      {
        "species": [{ "element": "Bi", "occu": 1 }],
        "abc": [0.87500575, 0.25000877, 0.12500227],
        "properties": { "magmom": -0.178 },
        "label": "Bi",
        "xyz": [-2.4795196414707257, 3.7194276801051744, 4.959204557639564]
      },
      {
        "species": [{ "element": "Bi", "occu": 1 }],
        "abc": [0.62499858, 0.74999758, 0.37500282],
        "properties": { "magmom": -0.178 },
        "label": "Bi",
        "xyz": [2.4797642526467296, 1.2398645397662085, 4.9591893749965825]
      },
      {
        "species": [{ "element": "Bi", "occu": 1 }],
        "abc": [0.24998688, 0.1249937, 0.87499146],
        "properties": { "magmom": -0.178 },
        "label": "Bi",
        "xyz": [3.7193979952257785, 4.95903513802602, -2.479483131733514]
      },
      {
        "species": [{ "element": "Bi", "occu": 1 }],
        "abc": [0.75001339, 0.37500761, 0.62500667],
        "properties": { "magmom": -0.178 },
        "label": "Bi",
        "xyz": [1.2398728939681547, 4.959241416071902, 2.4797379605285577]
      },
      {
        "species": [{ "element": "Bi", "occu": 1 }],
        "abc": [0.12500339, 0.87499527, 0.25000096],
        "properties": { "magmom": -0.178 },
        "label": "Bi",
        "xyz": [4.95934801734391, -2.479493418481944, 3.7194306487393907]
      },
      {
        "species": [{ "element": "Bi", "occu": 1 }],
        "abc": [0.37499572000000003, 0.62500381, 0.74999678],
        "properties": { "magmom": -0.178 },
        "label": "Bi",
        "xyz": [4.9593422909412475, 2.4795246096281813, 1.2399437024838842]
      }
    ]
  },
  "task_ids": null,
  "uncorrected_energy_per_atom": null,
  "energy_per_atom": -48.188065511428576,
  "formation_energy_per_atom": -1.103729497857151,
  "energy_above_hull": 0.0,
  "is_stable": true,
  "equilibrium_reaction_energy_per_atom": null,
  "decomposes_to": null,
  "xas": null,
  "grain_boundaries": null,
  "band_gap": 0.0,
  "cbm": null,
  "vbm": null,
  "efermi": 3.32224321,
  "is_gap_direct": null,
  "is_metal": null,
  "es_source_calc_id": null,
  "bandstructure": null,
  "dos": null,
  "dos_energy_up": null,
  "dos_energy_down": null,
  "is_magnetic": null,
  "ordering": null,
  "total_magnetization": 54.2239669,
  "total_magnetization_normalized_vol": null,
  "total_magnetization_normalized_formula_units": null,
  "num_magnetic_sites": null,
  "num_unique_magnetic_sites": null,
  "types_of_magnetic_species": null,
  "bulk_modulus": null,
  "shear_modulus": null,
  "universal_anisotropy": null,
  "homogeneous_poisson": null,
  "e_total": null,
  "e_ionic": null,
  "e_electronic": null,
  "n": null,
  "e_ij_max": null,
  "weighted_surface_energy_EV_PER_ANG2": null,
  "weighted_surface_energy": null,
  "weighted_work_function": null,
  "surface_anisotropy": null,
  "shape_factor": null,
  "has_reconstructed": null,
  "possible_species": null,
  "has_props": null,
  "theoretical": null,
  "database_IDs": null,
  "fields_not_requested": [
    "builder_meta",
    "nsites",
    "elements",
    "nelements",
    "composition",
    "composition_reduced",
    "chemsys",
    "symmetry",
    "property_name",
    "deprecated",
    "deprecation_reasons",
    "last_updated",
    "origins",
    "warnings",
    "task_ids",
    "uncorrected_energy_per_atom",
    "equilibrium_reaction_energy_per_atom",
    "decomposes_to",
    "xas",
    "grain_boundaries",
    "cbm",
    "vbm",
    "is_gap_direct",
    "is_metal",
    "es_source_calc_id",
    "bandstructure",
    "dos",
    "dos_energy_up",
    "dos_energy_down",
    "is_magnetic",
    "ordering",
    "total_magnetization_normalized_vol",
    "total_magnetization_normalized_formula_units",
    "num_magnetic_sites",
    "num_unique_magnetic_sites",
    "types_of_magnetic_species",
    "bulk_modulus",
    "shear_modulus",
    "universal_anisotropy",
    "homogeneous_poisson",
    "e_total",
    "e_ionic",
    "e_electronic",
    "n",
    "e_ij_max",
    "weighted_surface_energy_EV_PER_ANG2",
    "weighted_surface_energy",
    "weighted_work_function",
    "surface_anisotropy",
    "shape_factor",
    "has_reconstructed",
    "possible_species",
    "has_props",
    "theoretical",
    "database_IDs"
  ]
}
