{
  "builder_meta": null,
  "nsites": null,
  "elements": null,
  "nelements": null,
  "composition": null,
  "composition_reduced": null,
  "formula_pretty": "Eu4Ir",
  "formula_anonymous": "AB4",
  "chemsys": null,
  "volume": 351.97489372136124,
  "density": 7.5491320337387595,
  "density_atomic": 35.197489372136125,
  "symmetry": null,
  "property_name": null,
  "material_id": "mp-623108",
  "deprecated": null,
  "deprecation_reasons": null,
  "last_updated": null,
  "origins": null,
  "warnings": null,
  "structure": {
    "@module": "pymatgen.core.structure",
    "@class": "Structure",
    "charge": 0,
    "lattice": {
      "matrix": [
        [7.3602337, 0.03056677, -2.30636027],
        [-3.96397719, 6.20163262, -2.30646816],
        [-0.01652243, -0.03045407, 7.71316255]
      ],
      "pbc": [true, true, true],
      "a": 7.71318819562173,
      "b": 7.713180776397124,
      "c": 7.713240367303172,
      "alpha": 107.52368978530822,
      "beta": 107.52199312622739,
      "gamma": 113.44101917921307,
      "volume": 351.97489372136124
    },
    "properties": {},
    "sites": [
      {
        "species": [{ "element": "Eu", "occu": 1 }],
        "abc": [0.30439637, 0.24759105, 0.44319336000000004],
        "properties": { "magmom": 6.87 },
        "label": "Eu",
        "xyz": [1.2516605147164548, 1.5312761043217007, 2.1453138591344802]
      },
      {
        "species": [{ "element": "Eu", "occu": 1 }],
        "abc": [0.69559921, 0.13879379, 0.94321113],
        "properties": { "magmom": 6.87 },
        "label": "Eu",
        "xyz": [4.554013189591081, 0.8532856988038824, 5.350714925431069]
      },
      {
        "species": [{ "element": "Eu", "occu": 1 }],
        "abc": [0.86118211, 0.30438702, 0.55678374],
        "properties": { "magmom": 6.87 },
        "label": "Eu",
        "xyz": [5.122718963277745, 1.8970636968282553, 1.6063083181308837]
      },
      {
        "species": [{ "element": "Eu", "occu": 1 }],
        "abc": [0.30439358, 0.86119755, 0.05678644],
        "properties": { "magmom": 6.87 },
        "label": "Eu",
        "xyz": [-1.1742978086840876, 5.348405768674606, -2.2503629455442526]
      },
      {
        "species": [{ "element": "Eu", "occu": 1 }],
        "abc": [0.13881435, 0.69561089, 0.44321771],
        "properties": { "magmom": 6.87 },
        "label": "Eu",
        "xyz": [-1.7430026777502394, 4.304668509394801, 1.4940499709886232]
      },
      {
        "species": [{ "element": "Eu", "occu": 1 }],
        "abc": [0.6955972500000001, 0.75240364, 0.55680601],
        "properties": { "magmom": 6.87 },
        "label": "Eu",
        "xyz": [2.12804766612055, 4.670436109179159, 0.9550423634975651]
      },
      {
        "species": [{ "element": "Eu", "occu": 1 }],
        "abc": [0.24758533, 0.30438964, 0.94320101],
        "properties": { "magmom": 6.87 },
        "label": "Eu",
        "xyz": [0.600108326995655, 1.8665562948689305, 6.001976726013474]
      },
      {
        "species": [{ "element": "Eu", "occu": 1 }],
        "abc": [0.75241438, 0.69560976, 0.05680102],
        "properties": { "magmom": 6.87 },
        "label": "Eu",
        "xyz": [2.7796259633823532, 4.3351852334653715, -2.901624895568123]
      },
      {
        "species": [{ "element": "Ir", "occu": 1 }],
        "abc": [0.62501282, 0.37499799, 0.2499958],
        "properties": { "magmom": -0.28 },
        "label": "Ir",
        "xyz": [3.1096264039343917, 2.337091000741519, -0.3781674180703698]
      },
      {
        "species": [{ "element": "Ir", "occu": 1 }],
        "abc": [0.37500361, 0.62501966, 0.7500037900000001],
        "properties": { "magmom": -0.28 },
        "label": "Ir",
        "xyz": [0.2701586472820919, 3.8647642927724237, 3.4784197730114643]
      }
    ]
  },
  "task_ids": null,
  "uncorrected_energy_per_atom": null,
  "energy_per_atom": -41.609646855,
  "formation_energy_per_atom": -0.321069992999997,
  "energy_above_hull": 0.0,
  "is_stable": true,
  "equilibrium_reaction_energy_per_atom": null,
  "decomposes_to": null,
  "xas": null,
  "grain_boundaries": null,
  "band_gap": 0.0,
  "cbm": null,
  "vbm": null,
  "efermi": 2.53876999,
  "is_gap_direct": null,
  "is_metal": null,
  "es_source_calc_id": null,
  "bandstructure": null,
  "dos": null,
  "dos_energy_up": null,
  "dos_energy_down": null,
  "is_magnetic": null,
  "ordering": null,
  "total_magnetization": 58.4209735,
  "total_magnetization_normalized_vol": null,
  "total_magnetization_normalized_formula_units": null,
  "num_magnetic_sites": null,
  "num_unique_magnetic_sites": null,
  "types_of_magnetic_species": null,
  "bulk_modulus": null,
  "shear_modulus": null,
  "universal_anisotropy": null,
  "homogeneous_poisson": null,
  "e_total": null,
  "e_ionic": null,
  "e_electronic": null,
  "n": null,
  "e_ij_max": null,
  "weighted_surface_energy_EV_PER_ANG2": null,
  "weighted_surface_energy": null,
  "weighted_work_function": null,
  "surface_anisotropy": null,
  "shape_factor": null,
  "has_reconstructed": null,
  "possible_species": null,
  "has_props": null,
  "theoretical": null,
  "database_IDs": null,
  "fields_not_requested": [
    "builder_meta",
    "nsites",
    "elements",
    "nelements",
    "composition",
    "composition_reduced",
    "chemsys",
    "symmetry",
    "property_name",
    "deprecated",
    "deprecation_reasons",
    "last_updated",
    "origins",
    "warnings",
    "task_ids",
    "uncorrected_energy_per_atom",
    "equilibrium_reaction_energy_per_atom",
    "decomposes_to",
    "xas",
    "grain_boundaries",
    "cbm",
    "vbm",
    "is_gap_direct",
    "is_metal",
    "es_source_calc_id",
    "bandstructure",
    "dos",
    "dos_energy_up",
    "dos_energy_down",
    "is_magnetic",
    "ordering",
    "total_magnetization_normalized_vol",
    "total_magnetization_normalized_formula_units",
    "num_magnetic_sites",
    "num_unique_magnetic_sites",
    "types_of_magnetic_species",
    "bulk_modulus",
    "shear_modulus",
    "universal_anisotropy",
    "homogeneous_poisson",
    "e_total",
    "e_ionic",
    "e_electronic",
    "n",
    "e_ij_max",
    "weighted_surface_energy_EV_PER_ANG2",
    "weighted_surface_energy",
    "weighted_work_function",
    "surface_anisotropy",
    "shape_factor",
    "has_reconstructed",
    "possible_species",
    "has_props",
    "theoretical",
    "database_IDs"
  ]
}
