{"builder_meta": null, "nsites": null, "elements": null, "nelements": null, "composition": null, "composition_reduced": null, "formula_pretty": "Eu5As3", "formula_anonymous": "A3B5", "chemsys": null, "volume": 464.35064345080036, "density": 7.04184024654539, "density_atomic": 29.021915215675023, "symmetry": null, "property_name": null, "material_id": "mp-1106024", "deprecated": null, "deprecation_reasons": null, "last_updated": null, "origins": null, "warnings": null, "structure": {"@module": "pymatgen.core.structure", "@class": "Structure", "charge": 0, "lattice": {"matrix": [[8.745e-05, -3.409e-05, -6.87098022], [-4.41699868, -7.65051376, 2.1930000000000002e-05], [-4.41668592, 7.65033281, 9.29e-05]], "pbc": [true, true, true], "a": 6.870980220641075, "b": 8.834038608221723, "c": 8.833725523714168, "alpha": 120.00147888525363, "beta": 90.00121333990063, "gamma": 90.00026066079643, "volume": 464.35064345080036}, "properties": {}, "sites": [{"species": [{"element": "Eu", "occu": 1}], "abc": [0.49998747, 0.33334164, 0.66655425], "properties": {"magmom": 6.836}, "label": "Eu", "xyz": [-4.416286630855944, 2.5491100002461238, -3.4353347835458528]}, {"species": [{"element": "Eu", "occu": 1}], "abc": [0.49998123, 0.66679517, 0.33345299], "properties": {"magmom": 6.836}, "label": "Eu", "xyz": [-4.417946788276713, -2.5503163175570673, -3.4353155411004215]}, {"species": [{"element": "Eu", "occu": 1}], "abc": [2.5300000000000005e-05, 0.66679077, 0.33345827], "properties": {"magmom": 6.836}, "label": "Eu", "xyz": [-4.417994394730257, -2.550225218041633, -0.00012823480469690004]}, {"species": [{"element": "Eu", "occu": 1}], "abc": [1.9420000000000004e-05, 0.33334309, 0.66654912], "properties": {"magmom": 6.836}, "label": "Eu", "xyz": [-4.416314100111233, 2.549076704704681, -6.420180866070002e-05]}, {"species": [{"element": "Eu", "occu": 1}], "abc": [0.74999309, 0.25628247, 9.699999999999996e-07], "properties": {"magmom": 6.871}, "label": "Eu", "xyz": [-1.1319380289867615, -1.9607107096233993, -5.153182066162]}, {"species": [{"element": "Eu", "occu": 1}], "abc": [0.7499853400000001, 0.74392021, 0.74403282], "properties": {"magmom": 6.872}, "label": "Eu", "xyz": [-6.571988279489235, 0.0007013246154947694, -5.153049001610793]}, {"species": [{"element": "Eu", "occu": 1}], "abc": [0.7499909100000001, -0.00011735, 0.25595896], "properties": {"magmom": 6.872}, "label": "Eu", "xyz": [-1.1299064132296657, 1.9590434503010918, -5.1531489317759025]}, {"species": [{"element": "Eu", "occu": 1}], "abc": [0.24998059, 0.74363535, -3.479999999999999e-06], "properties": {"magmom": 6.872}, "label": "Eu", "xyz": [-3.2845991284817404, -5.689227622593908, -1.7175953816739962]}, {"species": [{"element": "Eu", "occu": 1}], "abc": [0.24999614, 0.25641162, 0.25644013], "properties": {"magmom": 6.871}, "label": "Eu", "xyz": [-2.265163436408188, 0.00016319093736139045, -1.7176890866214474]}, {"species": [{"element": "Eu", "occu": 1}], "abc": [0.24999212, -5.334e-05, 0.74354622], "properties": {"magmom": 6.871}, "label": "Eu", "xyz": [-3.2837526562227373, 5.688775598790066, -1.7176218374017749]}, {"species": [{"element": "As", "occu": 1}], "abc": [0.75003234, 0.61049745, 1.2090000000000001e-05], "properties": {"magmom": -0.107}, "label": "As", "xyz": [-2.696554238198006, -4.6705522177487095, -5.153443983168075]}, {"species": [{"element": "As", "occu": 1}], "abc": [0.74999205, 0.38932713, 0.38933905], "properties": {"magmom": -0.107}, "label": "As", "xyz": [-3.4391801327345917, -4.824006063053332e-06, -5.153135833165545]}, {"species": [{"element": "As", "occu": 1}], "abc": [0.75001207, 0.99998598, 0.61065255], "properties": {"magmom": -0.107}, "label": "As", "xyz": [-7.113931684720081, -2.9787368289333855, -5.153239438416819]}, {"species": [{"element": "As", "occu": 1}], "abc": [0.25001777000000003, 0.38882912000000003, 9e-07], "properties": {"magmom": -0.107}, "label": "As", "xyz": [-1.7174398207489032, -2.9747441706549416, -1.717858625212298]}, {"species": [{"element": "As", "occu": 1}], "abc": [0.25001535, 0.61091831, 0.61093292], "properties": {"magmom": -0.107}, "label": "As", "xyz": [-5.39670233084396, -7.297329121414009e-06, -1.7177803714395707]}, {"species": [{"element": "As", "occu": 1}], "abc": [0.24997481, 9.138000000000002e-05, 0.38907323], "properties": {"magmom": -0.107}, "label": "As", "xyz": [-1.7187960218321654, 2.9758320713730146, -1.7175358281012276]}]}, "task_ids": null, "uncorrected_energy_per_atom": null, "energy_per_atom": -9.277561993124998, "formation_energy_per_atom": -1.096196096562501, "energy_above_hull": 0.0, "is_stable": true, "equilibrium_reaction_energy_per_atom": null, "decomposes_to": null, "xas": null, "grain_boundaries": null, "band_gap": 0.0, "cbm": null, "vbm": null, "efermi": 3.47223763, "is_gap_direct": null, "is_metal": null, "es_source_calc_id": null, "bandstructure": null, "dos": null, "dos_energy_up": null, "dos_energy_down": null, "is_magnetic": null, "ordering": null, "total_magnetization": 72.0005198, "total_magnetization_normalized_vol": null, "total_magnetization_normalized_formula_units": null, "num_magnetic_sites": null, "num_unique_magnetic_sites": null, "types_of_magnetic_species": null, "bulk_modulus": null, "shear_modulus": null, "universal_anisotropy": null, "homogeneous_poisson": null, "e_total": null, "e_ionic": null, "e_electronic": null, "n": null, "e_ij_max": null, "weighted_surface_energy_EV_PER_ANG2": null, "weighted_surface_energy": null, "weighted_work_function": null, "surface_anisotropy": null, "shape_factor": null, "has_reconstructed": null, "possible_species": null, "has_props": null, "theoretical": null, "database_IDs": null, "fields_not_requested": ["builder_meta", "nsites", "elements", "nelements", "composition", "composition_reduced", "chemsys", "symmetry", "property_name", "deprecated", "deprecation_reasons", "last_updated", "origins", "warnings", "task_ids", "uncorrected_energy_per_atom", "equilibrium_reaction_energy_per_atom", "decomposes_to", "xas", "grain_boundaries", "cbm", "vbm", "is_gap_direct", "is_metal", "es_source_calc_id", "bandstructure", "dos", "dos_energy_up", "dos_energy_down", "is_magnetic", "ordering", "total_magnetization_normalized_vol", "total_magnetization_normalized_formula_units", "num_magnetic_sites", "num_unique_magnetic_sites", "types_of_magnetic_species", "bulk_modulus", "shear_modulus", "universal_anisotropy", "homogeneous_poisson", "e_total", "e_ionic", "e_electronic", "n", "e_ij_max", "weighted_surface_energy_EV_PER_ANG2", "weighted_surface_energy", "weighted_work_function", "surface_anisotropy", "shape_factor", "has_reconstructed", "possible_species", "has_props", "theoretical", "database_IDs"]}