{
  "builder_meta": null,
  "nsites": null,
  "elements": null,
  "nelements": null,
  "composition": null,
  "composition_reduced": null,
  "formula_pretty": "Eu5Bi3",
  "formula_anonymous": "A3B5",
  "chemsys": null,
  "volume": 571.7237188992441,
  "density": 8.055538269703717,
  "density_atomic": 35.732732431202756,
  "symmetry": null,
  "property_name": null,
  "material_id": "mp-1188517",
  "deprecated": null,
  "deprecation_reasons": null,
  "last_updated": null,
  "origins": null,
  "warnings": null,
  "structure": {
    "@module": "pymatgen.core.structure",
    "@class": "Structure",
    "charge": 0,
    "lattice": {
      "matrix": [
        [4.78919034, -8.29502204, -0.0],
        [4.7891033400000005, 8.29497252, -0.0],
        [0.0, -0.0, 7.19584522]
      ],
      "pbc": [true, true, true],
      "a": 9.57829498171961,
      "b": 9.578208596013887,
      "c": 7.19584522,
      "alpha": 90.0,
      "beta": 90.0,
      "gamma": 119.99971064800889,
      "volume": 571.7237188992442
    },
    "properties": {},
    "sites": [
      {
        "species": [{ "element": "Eu", "occu": 1 }],
        "abc": [0.66666144, 0.33333072, 0.5],
        "properties": { "magmom": 6.845 },
        "label": "Eu",
        "xyz": [4.789123792975095, -2.765002175546323, 3.59792261]
      },
      {
        "species": [{ "element": "Eu", "occu": 1 }],
        "abc": [0.33333856, 0.66666928, 0.5],
        "properties": { "magmom": 6.845 },
        "label": "Eu",
        "xyz": [4.789169887024906, 2.7649526555463235, 3.59792261]
      },
      {
        "species": [{ "element": "Eu", "occu": 1 }],
        "abc": [0.33333856, 0.66666928, 0.0],
        "properties": { "magmom": 6.845 },
        "label": "Eu",
        "xyz": [4.789169887024906, 2.7649526555463235, 0.0]
      },
      {
        "species": [{ "element": "Eu", "occu": 1 }],
        "abc": [0.66666144, 0.33333072, 0.0],
        "properties": { "magmom": 6.845 },
        "label": "Eu",
        "xyz": [4.789123792975095, -2.765002175546323, 0.0]
      },
      {
        "species": [{ "element": "Eu", "occu": 1 }],
        "abc": [0.74792866, 0.7479265700000001, 0.250001],
        "properties": { "magmom": 6.872 },
        "label": "Eu",
        "xyz": [7.16387034794289, -5.437391980844808e-5, 1.7989685008452199]
      },
      {
        "species": [{ "element": "Eu", "occu": 1 }],
        "abc": [0.25207134000000003, -1.09e-6, 0.250001],
        "properties": { "magmom": 6.872 },
        "label": "Eu",
        "xyz": [1.2072124063962153, -2.0909463624723807, 1.7989685008452199]
      },
      {
        "species": [{ "element": "Eu", "occu": 1 }],
        "abc": [0.0, 0.25206817, 0.250002],
        "properties": { "magmom": 6.872 },
        "label": "Eu",
        "xyz": [1.207180514854688, 2.0908985433166882, 1.79897569669044]
      },
      {
        "species": [{ "element": "Eu", "occu": 1 }],
        "abc": [0.25207134000000003, 0.25207343, 0.749999],
        "properties": { "magmom": 6.872 },
        "label": "Eu",
        "xyz": [2.4144233320571122, 4.853919809644225e-6, 5.39687671915478]
      },
      {
        "species": [{ "element": "Eu", "occu": 1 }],
        "abc": [0.74792866, 1.09e-6, 0.749999],
        "properties": { "magmom": 6.872 },
        "label": "Eu",
        "xyz": [3.5819779336037856, -6.204075677527619, 5.39687671915478]
      },
      {
        "species": [{ "element": "Eu", "occu": 1 }],
        "abc": [-0.0, 0.74793183, 0.749997999999999],
        "properties": { "magmom": 6.872 },
        "label": "Eu",
        "xyz": [3.5819228251453126, 6.204073976683311, 5.396869523309553]
      },
      {
        "species": [{ "element": "Bi", "occu": 1 }],
        "abc": [0.388710399999999, 0.38871287, 0.25],
        "properties": { "magmom": -0.14300000000000002 },
        "label": "Bi",
        "xyz": [3.723194196755517, 1.2396431250394357e-6, 1.798961305]
      },
      {
        "species": [{ "element": "Bi", "occu": 1 }],
        "abc": [0.6112906, 2.48e-6, 0.25],
        "properties": { "magmom": -0.14300000000000002 },
        "label": "Bi",
        "xyz": [2.9275989134290876, -5.070648428312974, 1.798961305]
      },
      {
        "species": [{ "element": "Bi", "occu": 1 }],
        "abc": [-0.0, 0.61128485, 0.25],
        "properties": { "magmom": -0.14300000000000002 },
        "label": "Bi",
        "xyz": [2.927506316826399, 5.070591032642322, 1.798961305]
      },
      {
        "species": [{ "element": "Bi", "occu": 1 }],
        "abc": [0.6112896, 0.61128713, 0.75],
        "properties": { "magmom": -0.14300000000000002 },
        "label": "Bi",
        "xyz": [5.855099483244478, -5.0759643115405595e-5, 5.396883915]
      },
      {
        "species": [{ "element": "Bi", "occu": 1 }],
        "abc": [0.3887094, 0.99999752, 0.75],
        "properties": { "magmom": -0.14300000000000002 },
        "label": "Bi",
        "xyz": [6.650694766570913, 5.070598908312974, 5.396883915]
      },
      {
        "species": [{ "element": "Bi", "occu": 1 }],
        "abc": [0.0, 0.38871515, 0.75],
        "properties": { "magmom": -0.14300000000000002 },
        "label": "Bi",
        "xyz": [1.8615970231736012, 3.224381487357678, 5.396883915]
      }
    ]
  },
  "task_ids": null,
  "uncorrected_energy_per_atom": null,
  "energy_per_atom": -47.063865261875,
  "formation_energy_per_atom": -1.049960910625003,
  "energy_above_hull": 0.0,
  "is_stable": true,
  "equilibrium_reaction_energy_per_atom": null,
  "decomposes_to": null,
  "xas": null,
  "grain_boundaries": null,
  "band_gap": 0.0,
  "cbm": null,
  "vbm": null,
  "efermi": 3.62243356,
  "is_gap_direct": null,
  "is_metal": null,
  "es_source_calc_id": null,
  "bandstructure": null,
  "dos": null,
  "dos_energy_up": null,
  "dos_energy_down": null,
  "is_magnetic": null,
  "ordering": null,
  "total_magnetization": 72.0080917,
  "total_magnetization_normalized_vol": null,
  "total_magnetization_normalized_formula_units": null,
  "num_magnetic_sites": null,
  "num_unique_magnetic_sites": null,
  "types_of_magnetic_species": null,
  "bulk_modulus": null,
  "shear_modulus": null,
  "universal_anisotropy": null,
  "homogeneous_poisson": null,
  "e_total": null,
  "e_ionic": null,
  "e_electronic": null,
  "n": null,
  "e_ij_max": null,
  "weighted_surface_energy_EV_PER_ANG2": null,
  "weighted_surface_energy": null,
  "weighted_work_function": null,
  "surface_anisotropy": null,
  "shape_factor": null,
  "has_reconstructed": null,
  "possible_species": null,
  "has_props": null,
  "theoretical": null,
  "database_IDs": null,
  "fields_not_requested": [
    "builder_meta",
    "nsites",
    "elements",
    "nelements",
    "composition",
    "composition_reduced",
    "chemsys",
    "symmetry",
    "property_name",
    "deprecated",
    "deprecation_reasons",
    "last_updated",
    "origins",
    "warnings",
    "task_ids",
    "uncorrected_energy_per_atom",
    "equilibrium_reaction_energy_per_atom",
    "decomposes_to",
    "xas",
    "grain_boundaries",
    "cbm",
    "vbm",
    "is_gap_direct",
    "is_metal",
    "es_source_calc_id",
    "bandstructure",
    "dos",
    "dos_energy_up",
    "dos_energy_down",
    "is_magnetic",
    "ordering",
    "total_magnetization_normalized_vol",
    "total_magnetization_normalized_formula_units",
    "num_magnetic_sites",
    "num_unique_magnetic_sites",
    "types_of_magnetic_species",
    "bulk_modulus",
    "shear_modulus",
    "universal_anisotropy",
    "homogeneous_poisson",
    "e_total",
    "e_ionic",
    "e_electronic",
    "n",
    "e_ij_max",
    "weighted_surface_energy_EV_PER_ANG2",
    "weighted_surface_energy",
    "weighted_work_function",
    "surface_anisotropy",
    "shape_factor",
    "has_reconstructed",
    "possible_species",
    "has_props",
    "theoretical",
    "database_IDs"
  ]
}
