{
  "builder_meta": null,
  "nsites": null,
  "elements": null,
  "nelements": null,
  "composition": null,
  "composition_reduced": null,
  "formula_pretty": "Eu5Ge3",
  "formula_anonymous": "A3B5",
  "chemsys": null,
  "volume": 468.2888498960489,
  "density": 6.934076979786671,
  "density_atomic": 29.268053118503055,
  "symmetry": null,
  "property_name": null,
  "material_id": "mp-1188934",
  "deprecated": null,
  "deprecation_reasons": null,
  "last_updated": null,
  "origins": null,
  "warnings": null,
  "structure": {
    "@module": "pymatgen.core.structure",
    "@class": "Structure",
    "charge": 0,
    "lattice": {
      "matrix": [
        [7.90489981, -0.00015291, -4.8780000000000004e-5],
        [-0.0001529, 7.90490162, -4.973e-5],
        [-3.9524192300000003, -3.95242223, 7.49417504]
      ],
      "pbc": [true, true, true],
      "a": 7.90489981162943,
      "b": 7.9049016216351555,
      "c": 9.34911326191051,
      "alpha": 115.00870255784913,
      "beta": 115.00867614554636,
      "gamma": 90.00221654962904,
      "volume": 468.2888498960489
    },
    "properties": {},
    "sites": [
      {
        "species": [{ "element": "Eu", "occu": 1 }],
        "abc": [0.029902810000000002, 0.52989821, 0.70827457],
        "properties": { "magmom": 6.78 },
        "label": "Eu",
        "xyz": [-2.5631003349368244, 1.3893884908137322, 5.307905793463678]
      },
      {
        "species": [{ "element": "Eu", "occu": 1 }],
        "abc": [0.6784096, 0.17841107, 0.70823819],
        "properties": { "magmom": 6.78 },
        "label": "Eu",
        "xyz": [2.5634783975131787, -1.389038145633966, 5.307619000669979]
      },
      {
        "species": [{ "element": "Eu", "occu": 1 }],
        "abc": [0.17836287, 0.029843210000000002, 0.70828099],
        "properties": { "magmom": 6.78 },
        "label": "Eu",
        "xyz": [-1.3894873509721923, -2.563545164353859, 5.307971531920858]
      },
      {
        "species": [{ "element": "Eu", "occu": 1 }],
        "abc": [0.52983855, 0.67835965, 0.70828125],
        "properties": { "magmom": 6.78 },
        "label": "Eu",
        "xyz": [1.3887924992867524, 2.5628587210227654, 5.3079240847001365]
      },
      {
        "species": [{ "element": "Eu", "occu": 1 }],
        "abc": [0.97009719, 0.47010179, 0.29172543],
        "properties": { "magmom": 6.78 },
        "label": "Eu",
        "xyz": [6.515428014936823, 2.5629379891862687, 2.1861707365363223]
      },
      {
        "species": [{ "element": "Eu", "occu": 1 }],
        "abc": [0.321589399999999, 0.82158893, 0.29176181],
        "properties": { "magmom": 6.78 },
        "label": "Eu",
        "xyz": [1.3888413775870028, 5.341364625786877, 2.1864575293788016]
      },
      {
        "species": [{ "element": "Eu", "occu": 1 }],
        "abc": [0.82163713, 0.97015679, 0.29171901],
        "properties": { "magmom": 6.78 },
        "label": "Eu",
        "xyz": [5.341815030972192, 6.51587164435386, 2.1861049980791423]
      },
      {
        "species": [{ "element": "Eu", "occu": 1 }],
        "abc": [0.47016145000000004, 0.32164035, 0.29171875],
        "properties": { "magmom": 6.78 },
        "label": "Eu",
        "xyz": [2.5635351807132474, 1.3894677589772353, 2.186152445299864]
      },
      {
        "species": [{ "element": "Eu", "occu": 1 }],
        "abc": [0.5, 0.5, 0.0],
        "properties": { "magmom": 6.78 },
        "label": "Eu",
        "xyz": [3.952373455, 3.9523743550000003, -4.9255e-5]
      },
      {
        "species": [{ "element": "Eu", "occu": 1 }],
        "abc": [0.0, 0.0, 0.0],
        "properties": { "magmom": 6.78 },
        "label": "Eu",
        "xyz": [0.0, 0.0, 0.0]
      },
      {
        "species": [{ "element": "Ge", "occu": 1 }],
        "abc": [0.3854701, 0.8854693100000001, 6.744e-5],
        "properties": { "magmom": -0.1 },
        "label": "Ge",
        "xyz": [3.046700580840311, 6.9992222894911, 0.0004425695444333]
      },
      {
        "species": [{ "element": "Ge", "occu": 1 }],
        "abc": [0.6145299, 0.11453069, 0.99993256],
        "properties": { "magmom": -0.1 },
        "label": "Ge",
        "xyz": [0.905627099159688, -3.0468958094910996, 7.493633960455567]
      },
      {
        "species": [{ "element": "Ge", "occu": 1 }],
        "abc": [0.11457351, 0.38542818, 4.7e-7],
        "properties": { "magmom": -0.1 },
        "label": "Ge",
        "xyz": [0.905631327824273, 3.04675246740179, -2.12339769404e-5]
      },
      {
        "species": [{ "element": "Ge", "occu": 1 }],
        "abc": [0.8854264900000001, 0.61457182, -4.7e-7],
        "properties": { "magmom": -0.1 },
        "label": "Ge",
        "xyz": [6.999115582175727, 4.857996242598211, -7.727602305960002e-5]
      },
      {
        "species": [{ "element": "Ge", "occu": 1 }],
        "abc": [0.2500032, 0.249996499999999, 0.50000042],
        "properties": { "magmom": -0.157 },
        "label": "Ge",
        "xyz": [7.486984650029171e-7, -5.326516232639911e-5, 3.747066040071476]
      },
      {
        "species": [{ "element": "Ge", "occu": 1 }],
        "abc": [0.749997799999999, 0.750003499999999, 0.49999958],
        "properties": { "magmom": -0.157 },
        "label": "Ge",
        "xyz": [3.952334836201336, 3.9523797450094023, 3.7470104898797443]
      }
    ]
  },
  "task_ids": null,
  "uncorrected_energy_per_atom": null,
  "energy_per_atom": -30.0184263575,
  "formation_energy_per_atom": -0.740883068124999,
  "energy_above_hull": 0.0,
  "is_stable": true,
  "equilibrium_reaction_energy_per_atom": null,
  "decomposes_to": null,
  "xas": null,
  "grain_boundaries": null,
  "band_gap": 0.0,
  "cbm": null,
  "vbm": null,
  "efermi": 3.28445309,
  "is_gap_direct": null,
  "is_metal": null,
  "es_source_calc_id": null,
  "bandstructure": null,
  "dos": null,
  "dos_energy_up": null,
  "dos_energy_down": null,
  "is_magnetic": null,
  "ordering": null,
  "total_magnetization": 70.4263483,
  "total_magnetization_normalized_vol": null,
  "total_magnetization_normalized_formula_units": null,
  "num_magnetic_sites": null,
  "num_unique_magnetic_sites": null,
  "types_of_magnetic_species": null,
  "bulk_modulus": null,
  "shear_modulus": null,
  "universal_anisotropy": null,
  "homogeneous_poisson": null,
  "e_total": null,
  "e_ionic": null,
  "e_electronic": null,
  "n": null,
  "e_ij_max": null,
  "weighted_surface_energy_EV_PER_ANG2": null,
  "weighted_surface_energy": null,
  "weighted_work_function": null,
  "surface_anisotropy": null,
  "shape_factor": null,
  "has_reconstructed": null,
  "possible_species": null,
  "has_props": null,
  "theoretical": null,
  "database_IDs": null,
  "fields_not_requested": [
    "builder_meta",
    "nsites",
    "elements",
    "nelements",
    "composition",
    "composition_reduced",
    "chemsys",
    "symmetry",
    "property_name",
    "deprecated",
    "deprecation_reasons",
    "last_updated",
    "origins",
    "warnings",
    "task_ids",
    "uncorrected_energy_per_atom",
    "equilibrium_reaction_energy_per_atom",
    "decomposes_to",
    "xas",
    "grain_boundaries",
    "cbm",
    "vbm",
    "is_gap_direct",
    "is_metal",
    "es_source_calc_id",
    "bandstructure",
    "dos",
    "dos_energy_up",
    "dos_energy_down",
    "is_magnetic",
    "ordering",
    "total_magnetization_normalized_vol",
    "total_magnetization_normalized_formula_units",
    "num_magnetic_sites",
    "num_unique_magnetic_sites",
    "types_of_magnetic_species",
    "bulk_modulus",
    "shear_modulus",
    "universal_anisotropy",
    "homogeneous_poisson",
    "e_total",
    "e_ionic",
    "e_electronic",
    "n",
    "e_ij_max",
    "weighted_surface_energy_EV_PER_ANG2",
    "weighted_surface_energy",
    "weighted_work_function",
    "surface_anisotropy",
    "shape_factor",
    "has_reconstructed",
    "possible_species",
    "has_props",
    "theoretical",
    "database_IDs"
  ]
}
