{"builder_meta": null, "nsites": null, "elements": null, "nelements": null, "composition": null, "composition_reduced": null, "formula_pretty": "Eu5Ga3", "formula_anonymous": "A3B5", "chemsys": null, "volume": 515.049590773419, "density": 6.248113262994587, "density_atomic": 32.19059942333869, "symmetry": null, "property_name": null, "material_id": "mp-1213313", "deprecated": null, "deprecation_reasons": null, "last_updated": null, "origins": null, "warnings": null, "structure": {"@module": "pymatgen.core.structure", "@class": "Structure", "charge": 0, "lattice": {"matrix": [[8.056239, 4.616314, 0.0], [-8.056239, 4.616314, 0.0], [0.0, 0.318241999999999, 6.9245470000000005]], "pbc": [true, true, true], "a": 9.285113988084206, "b": 9.285113988084206, "c": 6.931856109713546, "alpha": 88.69209437261199, "beta": 88.69209437261199, "gamma": 120.37362878503734, "volume": 515.0495907734191}, "properties": {}, "sites": [{"species": [{"element": "Eu", "occu": 1}], "abc": [0.855076, 0.144924, 0.5], "properties": {"magmom": 6.914}, "label": "Eu", "xyz": [5.721154238327999, 4.775435, 3.4622735000000002]}, {"species": [{"element": "Eu", "occu": 1}], "abc": [0.144924, 0.855076, 0.5], "properties": {"magmom": 6.915}, "label": "Eu", "xyz": [-5.721154238327999, 4.775435, 3.4622735000000002]}, {"species": [{"element": "Eu", "occu": 1}], "abc": [0.815960999999999, 0.184038999999999, 0.0], "properties": {"magmom": 6.933}, "label": "Eu", "xyz": [5.090914661358, 4.616313999999991, 0.0]}, {"species": [{"element": "Eu", "occu": 1}], "abc": [0.184037999999999, 0.815962, 0.0], "properties": {"magmom": 6.934}, "label": "Eu", "xyz": [-5.090930773836008, 4.616313999999996, 0.0]}, {"species": [{"element": "Eu", "occu": 1}], "abc": [0.507047999999999, 0.7567, 0.260881], "properties": {"magmom": 6.959}, "label": "Eu", "xyz": [-2.011256178828008, 5.916880876073996, 1.8064827459069999]}, {"species": [{"element": "Eu", "occu": 1}], "abc": [0.492952, 0.24330000000000002, 0.739119], "properties": {"magmom": 6.959}, "label": "Eu", "xyz": [2.011256178828, 3.633989123925999, 5.118064254093]}, {"species": [{"element": "Eu", "occu": 1}], "abc": [0.24330000000000002, 0.492952, 0.739119], "properties": {"magmom": 6.959}, "label": "Eu", "xyz": [-2.011256178828, 3.633989123925999, 5.118064254093]}, {"species": [{"element": "Eu", "occu": 1}], "abc": [0.7567, 0.507047999999999, 0.260881], "properties": {"magmom": 6.959}, "label": "Eu", "xyz": [2.011256178828008, 5.916880876073996, 1.8064827459069999]}, {"species": [{"element": "Eu", "occu": 1}], "abc": [0.26126000000000005, 0.26126000000000005, 0.230082999999999], "properties": {"magmom": 6.962}, "label": "Eu", "xyz": [0.0, 2.485338465366, 1.5932205474009933]}, {"species": [{"element": "Eu", "occu": 1}], "abc": [0.7387400000000001, 0.7387400000000001, 0.769917], "properties": {"magmom": 6.962}, "label": "Eu", "xyz": [0.0, 7.065531534633999, 5.331326452599]}, {"species": [{"element": "Ga", "occu": 1}], "abc": [0.9156169999999991, 0.9156169999999991, 0.169632], "properties": {"magmom": 0.081}, "label": "Ga", "xyz": [0.0, 8.507535178419992, 1.174624756704]}, {"species": [{"element": "Ga", "occu": 1}], "abc": [0.084383, 0.084383, 0.830368], "properties": {"magmom": 0.081}, "label": "Ga", "xyz": [0.0, 1.0433348215799993, 5.749922243296]}, {"species": [{"element": "Ga", "occu": 1}], "abc": [0.502539, 0.096355, 0.303276999999999], "properties": {"magmom": 0.085}, "label": "Ga", "xyz": [3.2723153819759996, 2.861198235749999, 2.1000558405189933]}, {"species": [{"element": "Ga", "occu": 1}], "abc": [0.497461, 0.903644999999999, 0.696723], "properties": {"magmom": 0.085}, "label": "Ga", "xyz": [-3.272315381975992, 6.689671764249995, 4.824491159481]}, {"species": [{"element": "Ga", "occu": 1}], "abc": [0.903644999999999, 0.497461, 0.696723], "properties": {"magmom": 0.085}, "label": "Ga", "xyz": [3.272315381975992, 6.689671764249995, 4.824491159481]}, {"species": [{"element": "Ga", "occu": 1}], "abc": [0.096355, 0.502539, 0.303276999999999], "properties": {"magmom": 0.085}, "label": "Ga", "xyz": [-3.2723153819759996, 2.861198235749999, 2.1000558405189933]}]}, "task_ids": null, "uncorrected_energy_per_atom": null, "energy_per_atom": -28.7600826909375, "formation_energy_per_atom": -0.393490012812502, "energy_above_hull": 0.049989668125000004, "is_stable": false, "equilibrium_reaction_energy_per_atom": null, "decomposes_to": null, "xas": null, "grain_boundaries": null, "band_gap": 0.0, "cbm": null, "vbm": null, "efermi": 2.27776736, "is_gap_direct": null, "is_metal": null, "es_source_calc_id": null, "bandstructure": null, "dos": null, "dos_energy_up": null, "dos_energy_down": null, "is_magnetic": null, "ordering": null, "total_magnetization": 75.3953079, "total_magnetization_normalized_vol": null, "total_magnetization_normalized_formula_units": null, "num_magnetic_sites": null, "num_unique_magnetic_sites": null, "types_of_magnetic_species": null, "bulk_modulus": null, "shear_modulus": null, "universal_anisotropy": null, "homogeneous_poisson": null, "e_total": null, "e_ionic": null, "e_electronic": null, "n": null, "e_ij_max": null, "weighted_surface_energy_EV_PER_ANG2": null, "weighted_surface_energy": null, "weighted_work_function": null, "surface_anisotropy": null, "shape_factor": null, "has_reconstructed": null, "possible_species": null, "has_props": null, "theoretical": null, "database_IDs": null, "fields_not_requested": ["builder_meta", "nsites", "elements", "nelements", "composition", "composition_reduced", "chemsys", "symmetry", "property_name", "deprecated", "deprecation_reasons", "last_updated", "origins", "warnings", "task_ids", "uncorrected_energy_per_atom", "equilibrium_reaction_energy_per_atom", "decomposes_to", "xas", "grain_boundaries", "cbm", "vbm", "is_gap_direct", "is_metal", "es_source_calc_id", "bandstructure", "dos", "dos_energy_up", "dos_energy_down", "is_magnetic", "ordering", "total_magnetization_normalized_vol", "total_magnetization_normalized_formula_units", "num_magnetic_sites", "num_unique_magnetic_sites", "types_of_magnetic_species", "bulk_modulus", "shear_modulus", "universal_anisotropy", "homogeneous_poisson", "e_total", "e_ionic", "e_electronic", "n", "e_ij_max", "weighted_surface_energy_EV_PER_ANG2", "weighted_surface_energy", "weighted_work_function", "surface_anisotropy", "shape_factor", "has_reconstructed", "possible_species", "has_props", "theoretical", "database_IDs"]}