{
  "builder_meta": null,
  "nsites": null,
  "elements": null,
  "nelements": null,
  "composition": null,
  "composition_reduced": null,
  "formula_pretty": "Eu5Mg",
  "formula_anonymous": "AB5",
  "chemsys": null,
  "volume": 237.80027541309224,
  "density": 5.475478080653386,
  "density_atomic": 39.63337923551537,
  "symmetry": null,
  "property_name": null,
  "material_id": "mp-1184420",
  "deprecated": null,
  "deprecation_reasons": null,
  "last_updated": null,
  "origins": null,
  "warnings": null,
  "structure": {
    "@module": "pymatgen.core.structure",
    "@class": "Structure",
    "charge": 0,
    "lattice": {
      "matrix": [
        [2.002784, -9.62243, 0.0],
        [2.002784, 9.62243, 0.0],
        [0.0, 0.0, 6.169692]
      ],
      "pbc": [true, true, true],
      "a": 9.828647051123363,
      "b": 9.828647051123363,
      "c": 6.169692,
      "alpha": 90.0,
      "beta": 90.0,
      "gamma": 156.48498198398335,
      "volume": 237.80027541309224
    },
    "properties": {},
    "sites": [
      {
        "species": [{ "element": "Eu", "occu": 1 }],
        "abc": [0.996602, 0.003398, 0.0],
        "properties": { "magmom": 7.014 },
        "label": "Eu",
        "xyz": [2.002784, -9.557035965719999, 0.0]
      },
      {
        "species": [{ "element": "Eu", "occu": 1 }],
        "abc": [0.324974999999999, 0.675025, 0.0],
        "properties": { "magmom": 6.981 },
        "label": "Eu",
        "xyz": [2.0027839999999983, 3.368331621500009, 0.0]
      },
      {
        "species": [{ "element": "Eu", "occu": 1 }],
        "abc": [0.664922, 0.335078, 0.0],
        "properties": { "magmom": 6.998 },
        "label": "Eu",
        "xyz": [2.002784, -3.1739008009200003, 0.0]
      },
      {
        "species": [{ "element": "Eu", "occu": 1 }],
        "abc": [0.439403, 0.560597, 0.5],
        "properties": { "magmom": 7.002 },
        "label": "Eu",
        "xyz": [2.002784, 1.1661807814199996, 3.084846]
      },
      {
        "species": [{ "element": "Eu", "occu": 1 }],
        "abc": [0.125277, 0.874722999999999, 0.5],
        "properties": { "magmom": 6.99 },
        "label": "Eu",
        "xyz": [2.0027839999999983, 7.21149167377999, 3.084846]
      },
      {
        "species": [{ "element": "Mg", "occu": 1 }],
        "abc": [0.782157, 0.217842999999999, 0.5],
        "properties": { "magmom": -0.005 },
        "label": "Mg",
        "xyz": [2.002783999999998, -5.430071963020009, 3.084846]
      }
    ]
  },
  "task_ids": null,
  "uncorrected_energy_per_atom": null,
  "energy_per_atom": -8.808209481666667,
  "formation_energy_per_atom": 0.036962116666662,
  "energy_above_hull": 0.058435203541662005,
  "is_stable": false,
  "equilibrium_reaction_energy_per_atom": null,
  "decomposes_to": null,
  "xas": null,
  "grain_boundaries": null,
  "band_gap": 0.0,
  "cbm": null,
  "vbm": null,
  "efermi": 2.15825858,
  "is_gap_direct": null,
  "is_metal": null,
  "es_source_calc_id": null,
  "bandstructure": null,
  "dos": null,
  "dos_energy_up": null,
  "dos_energy_down": null,
  "is_magnetic": null,
  "ordering": null,
  "total_magnetization": 37.509438,
  "total_magnetization_normalized_vol": null,
  "total_magnetization_normalized_formula_units": null,
  "num_magnetic_sites": null,
  "num_unique_magnetic_sites": null,
  "types_of_magnetic_species": null,
  "bulk_modulus": null,
  "shear_modulus": null,
  "universal_anisotropy": null,
  "homogeneous_poisson": null,
  "e_total": null,
  "e_ionic": null,
  "e_electronic": null,
  "n": null,
  "e_ij_max": null,
  "weighted_surface_energy_EV_PER_ANG2": null,
  "weighted_surface_energy": null,
  "weighted_work_function": null,
  "surface_anisotropy": null,
  "shape_factor": null,
  "has_reconstructed": null,
  "possible_species": null,
  "has_props": null,
  "theoretical": null,
  "database_IDs": null,
  "fields_not_requested": [
    "builder_meta",
    "nsites",
    "elements",
    "nelements",
    "composition",
    "composition_reduced",
    "chemsys",
    "symmetry",
    "property_name",
    "deprecated",
    "deprecation_reasons",
    "last_updated",
    "origins",
    "warnings",
    "task_ids",
    "uncorrected_energy_per_atom",
    "equilibrium_reaction_energy_per_atom",
    "decomposes_to",
    "xas",
    "grain_boundaries",
    "cbm",
    "vbm",
    "is_gap_direct",
    "is_metal",
    "es_source_calc_id",
    "bandstructure",
    "dos",
    "dos_energy_up",
    "dos_energy_down",
    "is_magnetic",
    "ordering",
    "total_magnetization_normalized_vol",
    "total_magnetization_normalized_formula_units",
    "num_magnetic_sites",
    "num_unique_magnetic_sites",
    "types_of_magnetic_species",
    "bulk_modulus",
    "shear_modulus",
    "universal_anisotropy",
    "homogeneous_poisson",
    "e_total",
    "e_ionic",
    "e_electronic",
    "n",
    "e_ij_max",
    "weighted_surface_energy_EV_PER_ANG2",
    "weighted_surface_energy",
    "weighted_work_function",
    "surface_anisotropy",
    "shape_factor",
    "has_reconstructed",
    "possible_species",
    "has_props",
    "theoretical",
    "database_IDs"
  ]
}
