{
  "builder_meta": null,
  "nsites": null,
  "elements": null,
  "nelements": null,
  "composition": null,
  "composition_reduced": null,
  "formula_pretty": "Eu5Pd2",
  "formula_anonymous": "A2B5",
  "chemsys": null,
  "volume": 448.7376680327552,
  "density": 7.198593047023903,
  "density_atomic": 32.05269057376823,
  "symmetry": null,
  "property_name": null,
  "material_id": "mp-1104610",
  "deprecated": null,
  "deprecation_reasons": null,
  "last_updated": null,
  "origins": null,
  "warnings": null,
  "structure": {
    "@module": "pymatgen.core.structure",
    "@class": "Structure",
    "charge": 0,
    "lattice": {
      "matrix": [
        [-0.00059261, 6.82047145, 0.00244685],
        [-0.00390644, 0.00283998, 7.8260391],
        [8.40774252, -3.41135489, -1.0840039]
      ],
      "pbc": [true, true, true],
      "a": 6.820471914649795,
      "b": 7.826040590265852,
      "c": 9.137972473331164,
      "alpha": 96.847147813994,
      "beta": 111.92785797690794,
      "gamma": 89.958650629484,
      "volume": 448.7376680327552
    },
    "properties": {},
    "sites": [
      {
        "species": [{ "element": "Eu", "occu": 1 }],
        "abc": [0.9817587, 0.92054085, 0.18432611000000002],
        "properties": { "magmom": 6.873 },
        "label": "Eu",
        "xyz": [1.5455886349719161, 6.069869725039121, 7.0067806794105]
      },
      {
        "species": [{ "element": "Eu", "occu": 1 }],
        "abc": [0.79752124, 0.57950808, 0.81557178],
        "properties": { "magmom": 6.873 },
        "label": "Eu",
        "xyz": [6.854381100212013, 2.658911859696633, 3.6531213174420802]
      },
      {
        "species": [{ "element": "Eu", "occu": 1 }],
        "abc": [0.0182413, 0.07945915, 0.81567389],
        "properties": { "magmom": 6.873 },
        "label": "Eu",
        "xyz": [6.857654835028084, -2.65791318503912, -0.26229862941050086]
      },
      {
        "species": [{ "element": "Eu", "occu": 1 }],
        "abc": [0.20247776, 0.42049192, 0.18442822],
        "properties": { "magmom": 6.873 },
        "label": "Eu",
        "xyz": [1.5488623703805957, 0.753037859831918, 3.09136073011107]
      },
      {
        "species": [{ "element": "Eu", "occu": 1 }],
        "abc": [0.63990041, 0.81736009, 0.43651114],
        "properties": { "magmom": 6.893 },
        "label": "Eu",
        "xyz": [3.666501092699723, 2.877649351578218, 5.925077985284282]
      },
      {
        "species": [{ "element": "Eu", "occu": 1 }],
        "abc": [0.20320781000000002, 0.68261751, 0.56335784],
        "properties": { "magmom": 6.893 },
        "label": "Eu",
        "xyz": [4.733780638017308, -0.5339018357057632, 4.732006446978964]
      },
      {
        "species": [{ "element": "Eu", "occu": 1 }],
        "abc": [0.36009959, 0.18263991000000002, 0.56348886],
        "properties": { "magmom": 6.893 },
        "label": "Eu",
        "xyz": [4.736742377300277, 0.5343071884217825, 0.8194040647157189]
      },
      {
        "species": [{ "element": "Eu", "occu": 1 }],
        "abc": [0.79679219, 0.31738249, 0.43664216],
        "properties": { "magmom": 6.893 },
        "label": "Eu",
        "xyz": [3.6694628319826914, 3.9458583757057637, 2.012475603021037]
      },
      {
        "species": [{ "element": "Eu", "occu": 1 }],
        "abc": [0.41974578, 0.7499792, 5.23e-6],
        "properties": { "magmom": 6.83 },
        "label": "Eu",
        "xyz": [-0.0031345217993541995, 2.864976193290323, 5.870387929008116]
      },
      {
        "species": [{ "element": "Eu", "occu": 1 }],
        "abc": [0.58025422, 0.2500208, 0.99999477],
        "properties": { "magmom": 6.83 },
        "label": "Eu",
        "xyz": [8.406377991799353, 0.5469803467096779, 0.874094120991884]
      },
      {
        "species": [{ "element": "Pd", "occu": 1 }],
        "abc": [0.8120848700000001, 0.579481799999999, 0.21722178],
        "properties": { "magmom": -0.061 },
        "label": "Pd",
        "xyz": [1.8235998354784828, 4.799426806116822, 4.30156501771759]
      },
      {
        "species": [{ "element": "Pd", "occu": 1 }],
        "abc": [0.59494337, 0.9205917100000001, 0.78272787],
        "properties": { "magmom": -0.061 },
        "label": "Pd",
        "xyz": [6.577025588517924, 1.3902461846325678, 6.357562391062054]
      },
      {
        "species": [{ "element": "Pd", "occu": 1 }],
        "abc": [0.18791513, 0.4205182, 0.78277822],
        "properties": { "magmom": -0.061 },
        "label": "Pd",
        "xyz": [6.579643634521516, -1.3874702661168212, 2.4429170322824025]
      },
      {
        "species": [{ "element": "Pd", "occu": 1 }],
        "abc": [0.40505663000000003, 0.07940829, 0.21727213],
        "properties": { "magmom": -0.061 },
        "label": "Pd",
        "xyz": [1.8262178814820755, 2.021710355367432, 0.38691965893794755]
      }
    ]
  },
  "task_ids": null,
  "uncorrected_energy_per_atom": null,
  "energy_per_atom": -34.55112965357143,
  "formation_energy_per_atom": -0.47608382571428703,
  "energy_above_hull": 0.0,
  "is_stable": true,
  "equilibrium_reaction_energy_per_atom": null,
  "decomposes_to": null,
  "xas": null,
  "grain_boundaries": null,
  "band_gap": 0.0,
  "cbm": null,
  "vbm": null,
  "efermi": 2.70378228,
  "is_gap_direct": null,
  "is_metal": null,
  "es_source_calc_id": null,
  "bandstructure": null,
  "dos": null,
  "dos_energy_up": null,
  "dos_energy_down": null,
  "is_magnetic": null,
  "ordering": null,
  "total_magnetization": 73.372231,
  "total_magnetization_normalized_vol": null,
  "total_magnetization_normalized_formula_units": null,
  "num_magnetic_sites": null,
  "num_unique_magnetic_sites": null,
  "types_of_magnetic_species": null,
  "bulk_modulus": null,
  "shear_modulus": null,
  "universal_anisotropy": null,
  "homogeneous_poisson": null,
  "e_total": null,
  "e_ionic": null,
  "e_electronic": null,
  "n": null,
  "e_ij_max": null,
  "weighted_surface_energy_EV_PER_ANG2": null,
  "weighted_surface_energy": null,
  "weighted_work_function": null,
  "surface_anisotropy": null,
  "shape_factor": null,
  "has_reconstructed": null,
  "possible_species": null,
  "has_props": null,
  "theoretical": null,
  "database_IDs": null,
  "fields_not_requested": [
    "builder_meta",
    "nsites",
    "elements",
    "nelements",
    "composition",
    "composition_reduced",
    "chemsys",
    "symmetry",
    "property_name",
    "deprecated",
    "deprecation_reasons",
    "last_updated",
    "origins",
    "warnings",
    "task_ids",
    "uncorrected_energy_per_atom",
    "equilibrium_reaction_energy_per_atom",
    "decomposes_to",
    "xas",
    "grain_boundaries",
    "cbm",
    "vbm",
    "is_gap_direct",
    "is_metal",
    "es_source_calc_id",
    "bandstructure",
    "dos",
    "dos_energy_up",
    "dos_energy_down",
    "is_magnetic",
    "ordering",
    "total_magnetization_normalized_vol",
    "total_magnetization_normalized_formula_units",
    "num_magnetic_sites",
    "num_unique_magnetic_sites",
    "types_of_magnetic_species",
    "bulk_modulus",
    "shear_modulus",
    "universal_anisotropy",
    "homogeneous_poisson",
    "e_total",
    "e_ionic",
    "e_electronic",
    "n",
    "e_ij_max",
    "weighted_surface_energy_EV_PER_ANG2",
    "weighted_surface_energy",
    "weighted_work_function",
    "surface_anisotropy",
    "shape_factor",
    "has_reconstructed",
    "possible_species",
    "has_props",
    "theoretical",
    "database_IDs"
  ]
}
