{
  "builder_meta": null,
  "nsites": null,
  "elements": null,
  "nelements": null,
  "composition": null,
  "composition_reduced": null,
  "formula_pretty": "Eu5Pt2",
  "formula_anonymous": "A2B5",
  "chemsys": null,
  "volume": 438.9109873901856,
  "density": 8.701536552893778,
  "density_atomic": 31.350784813584685,
  "symmetry": null,
  "property_name": null,
  "material_id": "mp-1104413",
  "deprecated": null,
  "deprecation_reasons": null,
  "last_updated": null,
  "origins": null,
  "warnings": null,
  "structure": {
    "@module": "pymatgen.core.structure",
    "@class": "Structure",
    "charge": 0,
    "lattice": {
      "matrix": [
        [0.0013518900000000001, 6.8818717, 0.00099584],
        [-0.00405649, 0.00113098, 7.7487359],
        [8.23061635, -3.43939993, -1.04949899]
      ],
      "pbc": [true, true, true],
      "a": 6.881871904835542,
      "b": 7.748737044330237,
      "c": 8.981868709204246,
      "alpha": 96.74103355387966,
      "beta": 112.50498874360476,
      "gamma": 89.98335221601357,
      "volume": 438.9109873901856
    },
    "properties": {},
    "sites": [
      {
        "species": [{ "element": "Eu", "occu": 1 }],
        "abc": [0.9850369600000001, 0.91911802, 0.18237962],
        "properties": { "magmom": 6.83 },
        "label": "Eu",
        "xyz": [1.4986999508376917, 6.1526610303148646, 6.93157651013058]
      },
      {
        "species": [{ "element": "Eu", "occu": 1 }],
        "abc": [0.80298314, 0.581185, 0.8179675],
        "properties": { "magmom": 6.829 },
        "label": "Eu",
        "xyz": [6.73110465300511, 2.7133668931121635, 3.6457926516688124]
      },
      {
        "species": [{ "element": "Eu", "occu": 1 }],
        "abc": [0.01496304, 0.08088198, 0.81762038],
        "properties": { "magmom": 6.83 },
        "label": "Eu",
        "xyz": [6.729211799162309, -2.709058280314865, -0.23134376013058067]
      },
      {
        "species": [{ "element": "Eu", "occu": 1 }],
        "abc": [0.19701686000000002, 0.418815, 0.18203249999999901],
        "properties": { "magmom": 6.829 },
        "label": "Eu",
        "xyz": [1.4968070969948823, 0.7302358568878403, 3.0544400983311886]
      },
      {
        "species": [{ "element": "Eu", "occu": 1 }],
        "abc": [0.64164468, 0.82019335, 0.43623595],
        "properties": { "magmom": 6.858 },
        "label": "Eu",
        "xyz": [3.588031069431886, 2.9162540911290558, 5.898271442597706]
      },
      {
        "species": [{ "element": "Eu", "occu": 1 }],
        "abc": [0.20555282, 0.67963638, 0.56371528],
        "properties": { "magmom": 6.858 },
        "label": "Eu",
        "xyz": [4.637245146935553, -0.5234855046056843, 4.674908897364745]
      },
      {
        "species": [{ "element": "Eu", "occu": 1 }],
        "abc": [0.35835532000000003, 0.17980665, 0.56376405],
        "properties": { "magmom": 6.858 },
        "label": "Eu",
        "xyz": [4.639880680568113, 0.5273486588709448, 0.8019613074022944]
      },
      {
        "species": [{ "element": "Eu", "occu": 1 }],
        "abc": [0.79444718, 0.32036362, 0.43628472],
        "properties": { "magmom": 6.858 },
        "label": "Eu",
        "xyz": [3.5906666030644487, 3.9670882546056836, 2.0253238526352564]
      },
      {
        "species": [{ "element": "Eu", "occu": 1 }],
        "abc": [0.42889988, 0.75000785, 5.4210000000000004e-5],
        "properties": { "magmom": -6.76 },
        "label": "Eu",
        "xyz": [-0.0020163921723398, 2.952295740313384, 5.811982974893066]
      },
      {
        "species": [{ "element": "Eu", "occu": 1 }],
        "abc": [0.57110012, 0.24999215, 0.9999457900000001],
        "properties": { "magmom": -6.76 },
        "label": "Eu",
        "xyz": [8.22992814217234, 0.49130700968661545, 0.8882497751069336]
      },
      {
        "species": [{ "element": "Pt", "occu": 1 }],
        "abc": [0.81961659, 0.58067342, 0.21731173],
        "properties": { "magmom": -0.047 },
        "label": "Pt",
        "xyz": [1.787362013535145, 4.893730996645875, 4.272232741564611]
      },
      {
        "species": [{ "element": "Pt", "occu": 1 }],
        "abc": [0.60226349, 0.9193156, 0.78252186],
        "properties": { "magmom": -0.047 },
        "label": "Pt",
        "xyz": [6.437722214599663, 1.4543341648240506, 6.302877649501]
      },
      {
        "species": [{ "element": "Pt", "occu": 1 }],
        "abc": [0.18038341, 0.41932658, 0.78268827],
        "properties": { "magmom": -0.047 },
        "label": "Pt",
        "xyz": [6.440549736464854, -1.4501282466458756, 2.428000008435389]
      },
      {
        "species": [{ "element": "Pt", "occu": 1 }],
        "abc": [0.39773651, 0.080684399999999, 0.21747814000000001],
        "properties": { "magmom": -0.047 },
        "label": "Pt",
        "xyz": [1.7901895354003372, 1.9892685851759486, 0.39735510049899203]
      }
    ]
  },
  "task_ids": null,
  "uncorrected_energy_per_atom": null,
  "energy_per_atom": -9.767203731428575,
  "formation_energy_per_atom": -0.6839428435714341,
  "energy_above_hull": 0.0,
  "is_stable": true,
  "equilibrium_reaction_energy_per_atom": null,
  "decomposes_to": null,
  "xas": null,
  "grain_boundaries": null,
  "band_gap": 0.0,
  "cbm": null,
  "vbm": null,
  "efermi": 3.11371578,
  "is_gap_direct": null,
  "is_metal": null,
  "es_source_calc_id": null,
  "bandstructure": null,
  "dos": null,
  "dos_energy_up": null,
  "dos_energy_down": null,
  "is_magnetic": null,
  "ordering": null,
  "total_magnetization": 44.1270319,
  "total_magnetization_normalized_vol": null,
  "total_magnetization_normalized_formula_units": null,
  "num_magnetic_sites": null,
  "num_unique_magnetic_sites": null,
  "types_of_magnetic_species": null,
  "bulk_modulus": null,
  "shear_modulus": null,
  "universal_anisotropy": null,
  "homogeneous_poisson": null,
  "e_total": null,
  "e_ionic": null,
  "e_electronic": null,
  "n": null,
  "e_ij_max": null,
  "weighted_surface_energy_EV_PER_ANG2": null,
  "weighted_surface_energy": null,
  "weighted_work_function": null,
  "surface_anisotropy": null,
  "shape_factor": null,
  "has_reconstructed": null,
  "possible_species": null,
  "has_props": null,
  "theoretical": null,
  "database_IDs": null,
  "fields_not_requested": [
    "builder_meta",
    "nsites",
    "elements",
    "nelements",
    "composition",
    "composition_reduced",
    "chemsys",
    "symmetry",
    "property_name",
    "deprecated",
    "deprecation_reasons",
    "last_updated",
    "origins",
    "warnings",
    "task_ids",
    "uncorrected_energy_per_atom",
    "equilibrium_reaction_energy_per_atom",
    "decomposes_to",
    "xas",
    "grain_boundaries",
    "cbm",
    "vbm",
    "is_gap_direct",
    "is_metal",
    "es_source_calc_id",
    "bandstructure",
    "dos",
    "dos_energy_up",
    "dos_energy_down",
    "is_magnetic",
    "ordering",
    "total_magnetization_normalized_vol",
    "total_magnetization_normalized_formula_units",
    "num_magnetic_sites",
    "num_unique_magnetic_sites",
    "types_of_magnetic_species",
    "bulk_modulus",
    "shear_modulus",
    "universal_anisotropy",
    "homogeneous_poisson",
    "e_total",
    "e_ionic",
    "e_electronic",
    "n",
    "e_ij_max",
    "weighted_surface_energy_EV_PER_ANG2",
    "weighted_surface_energy",
    "weighted_work_function",
    "surface_anisotropy",
    "shape_factor",
    "has_reconstructed",
    "possible_species",
    "has_props",
    "theoretical",
    "database_IDs"
  ]
}
