{
  "builder_meta": null,
  "nsites": null,
  "elements": null,
  "nelements": null,
  "composition": null,
  "composition_reduced": null,
  "formula_pretty": "Eu5Pt4",
  "formula_anonymous": "A4B5",
  "chemsys": null,
  "volume": 940.8556943520806,
  "density": 10.873034927719075,
  "density_atomic": 26.134880398668905,
  "symmetry": null,
  "property_name": null,
  "material_id": "mp-1196458",
  "deprecated": null,
  "deprecation_reasons": null,
  "last_updated": null,
  "origins": null,
  "warnings": null,
  "structure": {
    "@module": "pymatgen.core.structure",
    "@class": "Structure",
    "charge": 0,
    "lattice": {
      "matrix": [
        [7.755582, 0.0, 0.0],
        [0.0, 7.936549, 0.0],
        [0.0, 0.0, 15.285404]
      ],
      "pbc": [true, true, true],
      "a": 7.755582,
      "b": 7.936549,
      "c": 15.285404,
      "alpha": 90.0,
      "beta": 90.0,
      "gamma": 90.0,
      "volume": 940.8556943520806
    },
    "properties": {},
    "sites": [
      {
        "species": [{ "element": "Eu", "occu": 1 }],
        "abc": [0.657030999999999, 0.16699000000000003, 0.622336999999999],
        "properties": { "magmom": 6.761 },
        "label": "Eu",
        "xyz": [5.0956577970419925, 1.3253243175100002, 9.512672469147985]
      },
      {
        "species": [{ "element": "Eu", "occu": 1 }],
        "abc": [0.157031, 0.33301000000000003, 0.877663],
        "properties": { "magmom": 6.764 },
        "label": "Eu",
        "xyz": [1.217866797042, 2.6429501824900004, 13.415433530851999]
      },
      {
        "species": [{ "element": "Eu", "occu": 1 }],
        "abc": [0.342968999999999, 0.83301, 0.122337],
        "properties": { "magmom": 6.761 },
        "label": "Eu",
        "xyz": [2.6599242029579924, 6.6112246824900005, 1.869970469148]
      },
      {
        "species": [{ "element": "Eu", "occu": 1 }],
        "abc": [0.842969, 0.6669900000000001, 0.377662999999999],
        "properties": { "magmom": 6.764 },
        "label": "Eu",
        "xyz": [6.537715202958, 5.293598817510001, 5.772731530851985]
      },
      {
        "species": [{ "element": "Eu", "occu": 1 }],
        "abc": [0.342968999999999, 0.83301, 0.377662999999999],
        "properties": { "magmom": 6.761 },
        "label": "Eu",
        "xyz": [2.6599242029579924, 6.6112246824900005, 5.772731530851985]
      },
      {
        "species": [{ "element": "Eu", "occu": 1 }],
        "abc": [0.842969, 0.6669900000000001, 0.122337],
        "properties": { "magmom": 6.764 },
        "label": "Eu",
        "xyz": [6.537715202958, 5.293598817510001, 1.869970469148]
      },
      {
        "species": [{ "element": "Eu", "occu": 1 }],
        "abc": [0.657030999999999, 0.16699000000000003, 0.877663],
        "properties": { "magmom": 6.761 },
        "label": "Eu",
        "xyz": [5.0956577970419925, 1.3253243175100002, 13.415433530851999]
      },
      {
        "species": [{ "element": "Eu", "occu": 1 }],
        "abc": [0.157031, 0.33301000000000003, 0.622336999999999],
        "properties": { "magmom": 6.764 },
        "label": "Eu",
        "xyz": [1.217866797042, 2.6429501824900004, 9.512672469147985]
      },
      {
        "species": [{ "element": "Eu", "occu": 1 }],
        "abc": [0.499353, 0.680205, 0.593965],
        "properties": { "magmom": 6.78 },
        "label": "Eu",
        "xyz": [3.872773138446, 5.398480312545, 9.07899498686]
      },
      {
        "species": [{ "element": "Eu", "occu": 1 }],
        "abc": [0.999352999999999, 0.819794999999999, 0.906034999999999],
        "properties": { "magmom": 6.796 },
        "label": "Eu",
        "xyz": [7.750564138445993, 6.506343187454993, 13.849111013139986]
      },
      {
        "species": [{ "element": "Eu", "occu": 1 }],
        "abc": [0.500647, 0.319795, 0.09396499999999901],
        "properties": { "magmom": 6.78 },
        "label": "Eu",
        "xyz": [3.882808861554, 2.538068687455, 1.4362929868599847]
      },
      {
        "species": [{ "element": "Eu", "occu": 1 }],
        "abc": [0.000647, 0.180205, 0.406035],
        "properties": { "magmom": 6.796 },
        "label": "Eu",
        "xyz": [0.005017861554000001, 1.4302058125450001, 6.206409013139999]
      },
      {
        "species": [{ "element": "Eu", "occu": 1 }],
        "abc": [0.500647, 0.319795, 0.406035],
        "properties": { "magmom": 6.78 },
        "label": "Eu",
        "xyz": [3.882808861554, 2.538068687455, 6.206409013139999]
      },
      {
        "species": [{ "element": "Eu", "occu": 1 }],
        "abc": [0.000647, 0.180205, 0.09396499999999901],
        "properties": { "magmom": 6.796 },
        "label": "Eu",
        "xyz": [0.005017861554000001, 1.4302058125450001, 1.4362929868599847]
      },
      {
        "species": [{ "element": "Eu", "occu": 1 }],
        "abc": [0.499353, 0.680205, 0.906034999999999],
        "properties": { "magmom": 6.78 },
        "label": "Eu",
        "xyz": [3.872773138446, 5.398480312545, 13.849111013139986]
      },
      {
        "species": [{ "element": "Eu", "occu": 1 }],
        "abc": [0.999352999999999, 0.819794999999999, 0.593965],
        "properties": { "magmom": 6.796 },
        "label": "Eu",
        "xyz": [7.750564138445993, 6.506343187454993, 9.07899498686]
      },
      {
        "species": [{ "element": "Eu", "occu": 1 }],
        "abc": [0.817345, 0.510776, 0.75],
        "properties": { "magmom": 6.855 },
        "label": "Eu",
        "xyz": [6.33898616979, 4.053798752024, 11.464053]
      },
      {
        "species": [{ "element": "Eu", "occu": 1 }],
        "abc": [0.317345, 0.989224, 0.75],
        "properties": { "magmom": 6.853 },
        "label": "Eu",
        "xyz": [2.46119516979, 7.851024747976, 11.464053]
      },
      {
        "species": [{ "element": "Eu", "occu": 1 }],
        "abc": [0.182654999999999, 0.489224, 0.25],
        "properties": { "magmom": 6.855 },
        "label": "Eu",
        "xyz": [1.4165958302099924, 3.882750247976, 3.821351]
      },
      {
        "species": [{ "element": "Eu", "occu": 1 }],
        "abc": [0.682655, 0.010775999999999002, 0.25],
        "properties": { "magmom": 6.853 },
        "label": "Eu",
        "xyz": [5.294386830210001, 0.08552425202399208, 3.821351]
      },
      {
        "species": [{ "element": "Pt", "occu": 1 }],
        "abc": [0.677433, 0.967503999999999, 0.45927],
        "properties": { "magmom": -0.074 },
        "label": "Pt",
        "xyz": [5.253887181006, 7.678642903695993, 7.02012749508]
      },
      {
        "species": [{ "element": "Pt", "occu": 1 }],
        "abc": [0.177432999999999, 0.532496, 0.04073],
        "properties": { "magmom": -0.07100000000000001 },
        "label": "Pt",
        "xyz": [1.3760961810059924, 4.226180596304, 0.62257450492]
      },
      {
        "species": [{ "element": "Pt", "occu": 1 }],
        "abc": [0.322567, 0.032496, 0.9592700000000001],
        "properties": { "magmom": -0.074 },
        "label": "Pt",
        "xyz": [2.5016948189940003, 0.25790609630399997, 14.66282949508]
      },
      {
        "species": [{ "element": "Pt", "occu": 1 }],
        "abc": [0.822566999999999, 0.467504, 0.54073],
        "properties": { "magmom": -0.07100000000000001 },
        "label": "Pt",
        "xyz": [6.379485818993993, 3.710368403696, 8.265276504920001]
      },
      {
        "species": [{ "element": "Pt", "occu": 1 }],
        "abc": [0.322567, 0.032496, 0.54073],
        "properties": { "magmom": -0.074 },
        "label": "Pt",
        "xyz": [2.5016948189940003, 0.25790609630399997, 8.265276504920001]
      },
      {
        "species": [{ "element": "Pt", "occu": 1 }],
        "abc": [0.822566999999999, 0.467504, 0.9592700000000001],
        "properties": { "magmom": -0.07100000000000001 },
        "label": "Pt",
        "xyz": [6.379485818993993, 3.710368403696, 14.66282949508]
      },
      {
        "species": [{ "element": "Pt", "occu": 1 }],
        "abc": [0.677433, 0.967503999999999, 0.04073],
        "properties": { "magmom": -0.074 },
        "label": "Pt",
        "xyz": [5.253887181006, 7.678642903695993, 0.62257450492]
      },
      {
        "species": [{ "element": "Pt", "occu": 1 }],
        "abc": [0.177432999999999, 0.532496, 0.45927],
        "properties": { "magmom": -0.07100000000000001 },
        "label": "Pt",
        "xyz": [1.3760961810059924, 4.226180596304, 7.02012749508]
      },
      {
        "species": [{ "element": "Pt", "occu": 1 }],
        "abc": [0.450231999999999, 0.391370999999999, 0.75],
        "properties": { "magmom": -0.07100000000000001 },
        "label": "Pt",
        "xyz": [3.4918111950239927, 3.1061351186789925, 11.464053]
      },
      {
        "species": [{ "element": "Pt", "occu": 1 }],
        "abc": [0.950232, 0.108628999999999, 0.75],
        "properties": { "magmom": -0.074 },
        "label": "Pt",
        "xyz": [7.369602195024, 0.8621393813209921, 11.464053]
      },
      {
        "species": [{ "element": "Pt", "occu": 1 }],
        "abc": [0.549767999999999, 0.608629, 0.25],
        "properties": { "magmom": -0.07100000000000001 },
        "label": "Pt",
        "xyz": [4.263770804975993, 4.830413881321, 3.821351]
      },
      {
        "species": [{ "element": "Pt", "occu": 1 }],
        "abc": [0.049768, 0.891370999999999, 0.25],
        "properties": { "magmom": -0.074 },
        "label": "Pt",
        "xyz": [0.38597980497600004, 7.074409618678993, 3.821351]
      },
      {
        "species": [{ "element": "Pt", "occu": 1 }],
        "abc": [0.693221, 0.864093999999999, 0.75],
        "properties": { "magmom": -0.075 },
        "label": "Pt",
        "xyz": [5.376332309622, 6.857924371605993, 11.464053]
      },
      {
        "species": [{ "element": "Pt", "occu": 1 }],
        "abc": [0.193221, 0.635906, 0.75],
        "properties": { "magmom": -0.074 },
        "label": "Pt",
        "xyz": [1.4985413096220002, 5.046899128394, 11.464053]
      },
      {
        "species": [{ "element": "Pt", "occu": 1 }],
        "abc": [0.306778999999999, 0.135906, 0.25],
        "properties": { "magmom": -0.075 },
        "label": "Pt",
        "xyz": [2.3792496903779927, 1.078624628394, 3.821351]
      },
      {
        "species": [{ "element": "Pt", "occu": 1 }],
        "abc": [0.806778999999999, 0.364094, 0.25],
        "properties": { "magmom": -0.074 },
        "label": "Pt",
        "xyz": [6.257040690377993, 2.8896498716059997, 3.821351]
      }
    ]
  },
  "task_ids": null,
  "uncorrected_energy_per_atom": null,
  "energy_per_atom": -9.310887359166665,
  "formation_energy_per_atom": -0.896988153055556,
  "energy_above_hull": 0.0,
  "is_stable": true,
  "equilibrium_reaction_energy_per_atom": null,
  "decomposes_to": null,
  "xas": null,
  "grain_boundaries": null,
  "band_gap": 0.0,
  "cbm": null,
  "vbm": null,
  "efermi": 3.67012053,
  "is_gap_direct": null,
  "is_metal": null,
  "es_source_calc_id": null,
  "bandstructure": null,
  "dos": null,
  "dos_energy_up": null,
  "dos_energy_down": null,
  "is_magnetic": null,
  "ordering": null,
  "total_magnetization": 140.3955254,
  "total_magnetization_normalized_vol": null,
  "total_magnetization_normalized_formula_units": null,
  "num_magnetic_sites": null,
  "num_unique_magnetic_sites": null,
  "types_of_magnetic_species": null,
  "bulk_modulus": null,
  "shear_modulus": null,
  "universal_anisotropy": null,
  "homogeneous_poisson": null,
  "e_total": null,
  "e_ionic": null,
  "e_electronic": null,
  "n": null,
  "e_ij_max": null,
  "weighted_surface_energy_EV_PER_ANG2": null,
  "weighted_surface_energy": null,
  "weighted_work_function": null,
  "surface_anisotropy": null,
  "shape_factor": null,
  "has_reconstructed": null,
  "possible_species": null,
  "has_props": null,
  "theoretical": null,
  "database_IDs": null,
  "fields_not_requested": [
    "builder_meta",
    "nsites",
    "elements",
    "nelements",
    "composition",
    "composition_reduced",
    "chemsys",
    "symmetry",
    "property_name",
    "deprecated",
    "deprecation_reasons",
    "last_updated",
    "origins",
    "warnings",
    "task_ids",
    "uncorrected_energy_per_atom",
    "equilibrium_reaction_energy_per_atom",
    "decomposes_to",
    "xas",
    "grain_boundaries",
    "cbm",
    "vbm",
    "is_gap_direct",
    "is_metal",
    "es_source_calc_id",
    "bandstructure",
    "dos",
    "dos_energy_up",
    "dos_energy_down",
    "is_magnetic",
    "ordering",
    "total_magnetization_normalized_vol",
    "total_magnetization_normalized_formula_units",
    "num_magnetic_sites",
    "num_unique_magnetic_sites",
    "types_of_magnetic_species",
    "bulk_modulus",
    "shear_modulus",
    "universal_anisotropy",
    "homogeneous_poisson",
    "e_total",
    "e_ionic",
    "e_electronic",
    "n",
    "e_ij_max",
    "weighted_surface_energy_EV_PER_ANG2",
    "weighted_surface_energy",
    "weighted_work_function",
    "surface_anisotropy",
    "shape_factor",
    "has_reconstructed",
    "possible_species",
    "has_props",
    "theoretical",
    "database_IDs"
  ]
}
