{"builder_meta": null, "nsites": null, "elements": null, "nelements": null, "composition": null, "composition_reduced": null, "formula_pretty": "Eu5Si3", "formula_anonymous": "A3B5", "chemsys": null, "volume": 456.24035894724375, "density": 6.144226287578682, "density_atomic": 28.515022434202734, "symmetry": null, "property_name": null, "material_id": "mp-1190061", "deprecated": null, "deprecation_reasons": null, "last_updated": null, "origins": null, "warnings": null, "structure": {"@module": "pymatgen.core.structure", "@class": "Structure", "charge": 0, "lattice": {"matrix": [[7.82552151, 0.00021545, 0.00089603], [0.00021545, 7.82551399, 0.00089565], [-3.91201495, -3.91201144, 7.44929762]], "pbc": [true, true, true], "a": 7.825521564264017, "b": 7.825514044220568, "c": 9.278993992187518, "alpha": 114.93048640825208, "beta": 114.93050784974437, "gamma": 89.9968443459337, "volume": 456.24035894724375}, "properties": {}, "sites": [{"species": [{"element": "Eu", "occu": 1}], "abc": [0.03172615, 0.53172775, 0.70819483], "properties": {"magmom": 6.7780000000000005}, "label": "Eu", "xyz": [-2.522080532474485, 1.3905835051863846, 5.276058731156778]}, {"species": [{"element": "Eu", "occu": 1}], "abc": [0.67664186, 0.1766373, 0.70816206], "properties": {"magmom": 6.7780000000000005}, "label": "Eu", "xyz": [2.524772920759897, -1.3879146352994027, 5.276074444735859]}, {"species": [{"element": "Eu", "occu": 1}], "abc": [0.17663928, 0.03166869, 0.70817211], "properties": {"magmom": 6.7780000000000005}, "label": "Eu", "xyz": [-1.388078573322871, -2.522515562236089, 5.275571451729635]}, {"species": [{"element": "Eu", "occu": 1}], "abc": [0.53167103, 0.67664464, 0.70817337], "properties": {"magmom": 6.7780000000000005}, "label": "Eu", "xyz": [1.390364053964662, 2.524824320158574, 5.276476629653207]}, {"species": [{"element": "Eu", "occu": 1}], "abc": [0.96827385, 0.46827225, 0.29180517], "properties": {"magmom": 6.7780000000000005}, "label": "Eu", "xyz": [6.435802542474484, 2.523134494813615, 2.175030568843223]}, {"species": [{"element": "Eu", "occu": 1}], "abc": [0.32335814, 0.8233627, 0.29183794], "properties": {"magmom": 6.7780000000000005}, "label": "Eu", "xyz": [1.388949089240103, 5.301632635299402, 2.175014855264142]}, {"species": [{"element": "Eu", "occu": 1}], "abc": [0.82336072, 0.9683313100000001, 0.29182789], "properties": {"magmom": 6.7780000000000005}, "label": "Eu", "xyz": [5.301800583322871, 6.43623356223609, 2.1755178482703648]}, {"species": [{"element": "Eu", "occu": 1}], "abc": [0.46832897, 0.32335536, 0.29182663000000003], "properties": {"magmom": 6.7780000000000005}, "label": "Eu", "xyz": [2.523357956035338, 1.3888936798414253, 2.174612670346794]}, {"species": [{"element": "Eu", "occu": 1}], "abc": [0.5, 0.5, 0.0], "properties": {"magmom": 6.788}, "label": "Eu", "xyz": [3.9128684799999998, 3.91286472, 0.00089584]}, {"species": [{"element": "Eu", "occu": 1}], "abc": [0.0, 0.0, 0.0], "properties": {"magmom": 6.788}, "label": "Eu", "xyz": [0.0, 0.0, 0.0]}, {"species": [{"element": "Si", "occu": 1}], "abc": [0.39113723, 0.89113805, -1.77e-06], "properties": {"magmom": -0.085}, "label": "Si", "xyz": [3.061051726686151, 6.973704472072772, 0.0011354332298920001]}, {"species": [{"element": "Si", "occu": 1}], "abc": [0.60886277, 0.10886195, 1.77e-06], "properties": {"magmom": -0.085}, "label": "Si", "xyz": [4.764685233313848, 0.8520249679272281, 0.000656246770108]}, {"species": [{"element": "Si", "occu": 1}], "abc": [0.10884905, 0.39115034, 1e-08], "properties": {"magmom": -0.085}, "label": "Si", "xyz": [0.8518848163386691, 3.0609758702709646, 0.0004479403092687]}, {"species": [{"element": "Si", "occu": 1}], "abc": [0.89115095, 0.60884966, -1e-08], "properties": {"magmom": -0.085}, "label": "Si", "xyz": [6.973852143661331, 4.764753569729035, 0.0013437396907313]}, {"species": [{"element": "Si", "occu": 1}], "abc": [0.25001216, 0.24998776, 0.50000061], "properties": {"magmom": -0.129}, "label": "Si", "xyz": [0.0005195343753339188, 0.0003284720016563103, 3.725101274004517]}, {"species": [{"element": "Si", "occu": 1}], "abc": [0.74998784, 0.75001224, 0.49999939], "properties": {"magmom": -0.129}, "label": "Si", "xyz": [3.913202475624666, 3.913389527998344, 3.725988025995483]}]}, "task_ids": null, "uncorrected_energy_per_atom": null, "energy_per_atom": -27.951633545, "formation_energy_per_atom": -0.585920125000001, "energy_above_hull": 0.0, "is_stable": true, "equilibrium_reaction_energy_per_atom": null, "decomposes_to": null, "xas": null, "grain_boundaries": null, "band_gap": 0.0, "cbm": null, "vbm": null, "efermi": 3.53090181, "is_gap_direct": null, "is_metal": null, "es_source_calc_id": null, "bandstructure": null, "dos": null, "dos_energy_up": null, "dos_energy_down": null, "is_magnetic": null, "ordering": null, "total_magnetization": 70.55221710000001, "total_magnetization_normalized_vol": null, "total_magnetization_normalized_formula_units": null, "num_magnetic_sites": null, "num_unique_magnetic_sites": null, "types_of_magnetic_species": null, "bulk_modulus": null, "shear_modulus": null, "universal_anisotropy": null, "homogeneous_poisson": null, "e_total": null, "e_ionic": null, "e_electronic": null, "n": null, "e_ij_max": null, "weighted_surface_energy_EV_PER_ANG2": null, "weighted_surface_energy": null, "weighted_work_function": null, "surface_anisotropy": null, "shape_factor": null, "has_reconstructed": null, "possible_species": null, "has_props": null, "theoretical": null, "database_IDs": null, "fields_not_requested": ["builder_meta", "nsites", "elements", "nelements", "composition", "composition_reduced", "chemsys", "symmetry", "property_name", "deprecated", "deprecation_reasons", "last_updated", "origins", "warnings", "task_ids", "uncorrected_energy_per_atom", "equilibrium_reaction_energy_per_atom", "decomposes_to", "xas", "grain_boundaries", "cbm", "vbm", "is_gap_direct", "is_metal", "es_source_calc_id", "bandstructure", "dos", "dos_energy_up", "dos_energy_down", "is_magnetic", "ordering", "total_magnetization_normalized_vol", "total_magnetization_normalized_formula_units", "num_magnetic_sites", "num_unique_magnetic_sites", "types_of_magnetic_species", "bulk_modulus", "shear_modulus", "universal_anisotropy", "homogeneous_poisson", "e_total", "e_ionic", "e_electronic", "n", "e_ij_max", "weighted_surface_energy_EV_PER_ANG2", "weighted_surface_energy", "weighted_work_function", "surface_anisotropy", "shape_factor", "has_reconstructed", "possible_species", "has_props", "theoretical", "database_IDs"]}