{"builder_meta": null, "nsites": null, "elements": null, "nelements": null, "composition": null, "composition_reduced": null, "formula_pretty": "Eu5Sb3", "formula_anonymous": "A3B5", "chemsys": null, "volume": 542.8151173121141, "density": 6.88364212508628, "density_atomic": 33.92594483200713, "symmetry": null, "property_name": null, "material_id": "mp-1105949", "deprecated": null, "deprecation_reasons": null, "last_updated": null, "origins": null, "warnings": null, "structure": {"@module": "pymatgen.core.structure", "@class": "Structure", "charge": 0, "lattice": {"matrix": [[9.206e-05, 0.00011165, -7.07377186], [-4.70667535, -8.15184575, 0.00018979], [-4.7066864299999995, 8.15185258, -6.76e-05]], "pbc": [true, true, true], "a": 7.07377186148017, "b": 9.413043185819925, "c": 9.413054639221453, "alpha": 119.99780099806559, "beta": 89.99917820351838, "gamma": 90.00231123716522, "volume": 542.8151173121141}, "properties": {}, "sites": [{"species": [{"element": "Eu", "occu": 1}], "abc": [0.5000081200000001, 0.33334256, 0.66666883], "properties": {"magmom": 6.837}, "label": "Eu", "xyz": [-4.706690314975345, 2.7172847167175593, -3.5369251707559495]}, {"species": [{"element": "Eu", "occu": 1}], "abc": [0.50000683, 0.66666065, 0.33333268], "properties": {"magmom": 6.837}, "label": "Eu", "xyz": [-4.70660161917274, -2.7171800931758536, -3.536830251626208]}, {"species": [{"element": "Eu", "occu": 1}], "abc": [6.179999999999998e-06, 0.6666572900000001, 0.33333809000000003], "properties": {"magmom": 6.837}, "label": "Eu", "xyz": [-4.70665729797699, -2.717164426524248, 6.027532209030004e-05]}, {"species": [{"element": "Eu", "occu": 1}], "abc": [5.089999999999999e-06, 0.33333239000000003, 0.66666291], "properties": {"magmom": 6.837}, "label": "Eu", "xyz": [-4.7066606147823125, 2.717263536683263, -1.780875718529999e-05]}, {"species": [{"element": "Eu", "occu": 1}], "abc": [0.75001292, 0.25504131, 1.24e-06], "properties": {"magmom": 6.8629999999999995}, "label": "Eu", "xyz": [-1.2003334371104666, -2.0789635717582153, -5.305371883926029]}, {"species": [{"element": "Eu", "occu": 1}], "abc": [0.75000929, 0.7449517, 0.74495132], "properties": {"magmom": 6.8629999999999995}, "label": "Eu", "xyz": [-7.012429026329945, 8.572885335933478e-05, -5.305303584666668]}, {"species": [{"element": "Eu", "occu": 1}], "abc": [0.75000907, 9.960000000000001e-06, 0.25505094], "properties": {"magmom": 6.8629999999999995}, "label": "Eu", "xyz": [-1.200422630908246, 2.0791402093994207, -5.305410293664006]}, {"species": [{"element": "Eu", "occu": 1}], "abc": [0.25001182, 0.74495605, -4.33e-06], "properties": {"magmom": 6.8629999999999995}, "label": "Eu", "xyz": [-3.5062228813279765, -6.072774193831256, -1.7683851914819475]}, {"species": [{"element": "Eu", "occu": 1}], "abc": [0.25000931, 0.255042999999999, 0.25505111], "properties": {"magmom": 6.8629999999999995}, "label": "Eu", "xyz": [-2.4008271838264044, 9.576700758362477e-05, -1.7684776586600823]}, {"species": [{"element": "Eu", "occu": 1}], "abc": [0.25000934, -3.4700000000000002e-06, 0.74495911], "properties": {"magmom": 6.8629999999999995}, "label": "Eu", "xyz": [-3.5062495859185723, 6.072853043295567, -1.7685593939235797]}, {"species": [{"element": "Sb", "occu": 1}], "abc": [0.7500581900000001, 0.6124702, 5.73e-06], "properties": {"magmom": -0.101}, "label": "Sb", "xyz": [-2.882656311905843, -4.992632142759453, -5.305624277452623]}, {"species": [{"element": "Sb", "occu": 1}], "abc": [0.7499350100000001, 0.38756361, 0.38756893000000003], "properties": {"magmom": -0.101}, "label": "Sb", "xyz": [-3.648232474247613, 0.00012974515904851103, -5.304821814528946]}, {"species": [{"element": "Sb", "occu": 1}], "abc": [0.74994625, -6.81e-06, 0.61243146], "properties": {"magmom": -0.101}, "label": "Sb", "xyz": [-2.8824217495761792, 4.992590222842537, -5.304990081421691]}, {"species": [{"element": "Sb", "occu": 1}], "abc": [0.25007407, 0.38755636, -2.459999999999999e-06], "properties": {"magmom": -0.101}, "label": "Sb", "xyz": [-1.824067366080224, -3.159291798938901, -1.7688933647938097]}, {"species": [{"element": "Sb", "occu": 1}], "abc": [0.24994528, 0.61242759, 0.61242571], "properties": {"magmom": -0.101}, "label": "Sb", "xyz": [-5.764970610190545, 1.676378810167023e-05, -1.7679810555495106]}, {"species": [{"element": "Sb", "occu": 1}], "abc": [0.24995224, -2.4e-06, 0.38755874], "properties": {"magmom": -0.101}, "label": "Sb", "xyz": [-1.8240831557618435, 3.1593691861679454, -1.7681313210822862]}]}, "task_ids": null, "uncorrected_energy_per_atom": null, "energy_per_atom": -9.052205399999998, "formation_energy_per_atom": -1.073759988125001, "energy_above_hull": 0.0, "is_stable": true, "equilibrium_reaction_energy_per_atom": null, "decomposes_to": null, "xas": null, "grain_boundaries": null, "band_gap": 0.0, "cbm": null, "vbm": null, "efermi": 4.19538846, "is_gap_direct": null, "is_metal": null, "es_source_calc_id": null, "bandstructure": null, "dos": null, "dos_energy_up": null, "dos_energy_down": null, "is_magnetic": null, "ordering": null, "total_magnetization": 72.0000012, "total_magnetization_normalized_vol": null, "total_magnetization_normalized_formula_units": null, "num_magnetic_sites": null, "num_unique_magnetic_sites": null, "types_of_magnetic_species": null, "bulk_modulus": null, "shear_modulus": null, "universal_anisotropy": null, "homogeneous_poisson": null, "e_total": null, "e_ionic": null, "e_electronic": null, "n": null, "e_ij_max": null, "weighted_surface_energy_EV_PER_ANG2": null, "weighted_surface_energy": null, "weighted_work_function": null, "surface_anisotropy": null, "shape_factor": null, "has_reconstructed": null, "possible_species": null, "has_props": null, "theoretical": null, "database_IDs": null, "fields_not_requested": ["builder_meta", "nsites", "elements", "nelements", "composition", "composition_reduced", "chemsys", "symmetry", "property_name", "deprecated", "deprecation_reasons", "last_updated", "origins", "warnings", "task_ids", "uncorrected_energy_per_atom", "equilibrium_reaction_energy_per_atom", "decomposes_to", "xas", "grain_boundaries", "cbm", "vbm", "is_gap_direct", "is_metal", "es_source_calc_id", "bandstructure", "dos", "dos_energy_up", "dos_energy_down", "is_magnetic", "ordering", "total_magnetization_normalized_vol", "total_magnetization_normalized_formula_units", "num_magnetic_sites", "num_unique_magnetic_sites", "types_of_magnetic_species", "bulk_modulus", "shear_modulus", "universal_anisotropy", "homogeneous_poisson", "e_total", "e_ionic", "e_electronic", "n", "e_ij_max", "weighted_surface_energy_EV_PER_ANG2", "weighted_surface_energy", "weighted_work_function", "surface_anisotropy", "shape_factor", "has_reconstructed", "possible_species", "has_props", "theoretical", "database_IDs"]}