{
  "builder_meta": null,
  "nsites": null,
  "elements": null,
  "nelements": null,
  "composition": null,
  "composition_reduced": null,
  "formula_pretty": "Eu7Au3",
  "formula_anonymous": "A3B7",
  "chemsys": null,
  "volume": 691.7712314055746,
  "density": 7.943687260168041,
  "density_atomic": 34.58856157027873,
  "symmetry": null,
  "property_name": null,
  "material_id": "mp-1106137",
  "deprecated": null,
  "deprecation_reasons": null,
  "last_updated": null,
  "origins": null,
  "warnings": null,
  "structure": {
    "@module": "pymatgen.core.structure",
    "@class": "Structure",
    "charge": 0,
    "lattice": {
      "matrix": [
        [5.414794, -9.378698, 0.0],
        [5.414794, 9.378698, 0.0],
        [0.0, 0.0, 6.810955]
      ],
      "pbc": [true, true, true],
      "a": 10.829587722422309,
      "b": 10.829587722422309,
      "c": 6.810955,
      "alpha": 90.0,
      "beta": 90.0,
      "gamma": 119.99999830423901,
      "volume": 691.7712314055746
    },
    "properties": {},
    "sites": [
      {
        "species": [{ "element": "Eu", "occu": 1 }],
        "abc": [0.666667, 0.333333, 0.538497],
        "properties": { "magmom": 6.892 },
        "label": "Eu",
        "xyz": [5.414794, -3.126238919132, 3.6676788346349998]
      },
      {
        "species": [{ "element": "Eu", "occu": 1 }],
        "abc": [0.333333, 0.666667, 0.038496999999999004],
        "properties": { "magmom": 6.891 },
        "label": "Eu",
        "xyz": [5.414794, 3.126238919132, 0.26220133463499323]
      },
      {
        "species": [{ "element": "Eu", "occu": 1 }],
        "abc": [0.874618999999999, 0.749236999999999, 0.748378],
        "properties": { "magmom": 6.904 },
        "label": "Eu",
        "xyz": [8.79284572566399, -1.175919912636001, 5.09716888099]
      },
      {
        "species": [{ "element": "Eu", "occu": 1 }],
        "abc": [0.250763, 0.125381, 0.748378],
        "properties": { "magmom": 6.921 },
        "label": "Eu",
        "xyz": [2.036742274336, -1.1759199126360003, 5.09716888099]
      },
      {
        "species": [{ "element": "Eu", "occu": 1 }],
        "abc": [0.874618999999999, 0.125381, 0.748378],
        "properties": { "magmom": 6.904 },
        "label": "Eu",
        "xyz": [5.414793999999994, -7.026876932123992, 5.09716888099]
      },
      {
        "species": [{ "element": "Eu", "occu": 1 }],
        "abc": [0.125381, 0.250763, 0.248378],
        "properties": { "magmom": 6.904 },
        "label": "Eu",
        "xyz": [2.036742274336, 1.1759199126360003, 1.6916913809899998]
      },
      {
        "species": [{ "element": "Eu", "occu": 1 }],
        "abc": [0.749236999999999, 0.874618999999999, 0.248378],
        "properties": { "magmom": 6.9190000000000005 },
        "label": "Eu",
        "xyz": [8.79284572566399, 1.175919912636001, 1.6916913809899998]
      },
      {
        "species": [{ "element": "Eu", "occu": 1 }],
        "abc": [0.125381, 0.874618999999999, 0.248378],
        "properties": { "magmom": 6.904 },
        "label": "Eu",
        "xyz": [5.414793999999994, 7.026876932123992, 1.6916913809899998]
      },
      {
        "species": [{ "element": "Eu", "occu": 1 }],
        "abc": [0.460132999999999, 0.920265, 0.544212],
        "properties": { "magmom": 6.923 },
        "label": "Eu",
        "xyz": [7.474570808011995, 4.315439068136009, 3.70660344246]
      },
      {
        "species": [{ "element": "Eu", "occu": 1 }],
        "abc": [0.079735, 0.539867, 0.544212],
        "properties": { "magmom": 6.958 },
        "label": "Eu",
        "xyz": [3.355017191988, 4.3154390681359995, 3.70660344246]
      },
      {
        "species": [{ "element": "Eu", "occu": 1 }],
        "abc": [0.460132999999999, 0.539867, 0.544212],
        "properties": { "magmom": 6.922 },
        "label": "Eu",
        "xyz": [5.414793999999994, 0.7478011063320089, 3.70660344246]
      },
      {
        "species": [{ "element": "Eu", "occu": 1 }],
        "abc": [0.539867, 0.079735, 0.044212],
        "properties": { "magmom": 6.924 },
        "label": "Eu",
        "xyz": [3.355017191988, -4.3154390681359995, 0.30112594246]
      },
      {
        "species": [{ "element": "Eu", "occu": 1 }],
        "abc": [0.920265, 0.460132999999999, 0.044212],
        "properties": { "magmom": 6.957 },
        "label": "Eu",
        "xyz": [7.474570808011995, -4.315439068136009, 0.30112594246]
      },
      {
        "species": [{ "element": "Eu", "occu": 1 }],
        "abc": [0.539867, 0.460132999999999, 0.044212],
        "properties": { "magmom": 6.923 },
        "label": "Eu",
        "xyz": [5.414793999999994, -0.7478011063320089, 0.30112594246]
      },
      {
        "species": [{ "element": "Au", "occu": 1 }],
        "abc": [0.188893999999999, 0.377787999999999, 0.808728],
        "properties": { "magmom": 0.003 },
        "label": "Au",
        "xyz": [3.068466293507989, 1.7715797800120001, 5.5082100152399995]
      },
      {
        "species": [{ "element": "Au", "occu": 1 }],
        "abc": [0.622212, 0.811106, 0.808728],
        "properties": { "magmom": -0.004 },
        "label": "Au",
        "xyz": [7.761121706491999, 1.771579780012, 5.5082100152399995]
      },
      {
        "species": [{ "element": "Au", "occu": 1 }],
        "abc": [0.188893999999999, 0.811106, 0.808728],
        "properties": { "magmom": 0.003 },
        "label": "Au",
        "xyz": [5.4147939999999934, 5.835538439976009, 5.5082100152399995]
      },
      {
        "species": [{ "element": "Au", "occu": 1 }],
        "abc": [0.811106, 0.622212, 0.308728],
        "properties": { "magmom": 0.002 },
        "label": "Au",
        "xyz": [7.761121706491999, -1.771579780012, 2.10273251524]
      },
      {
        "species": [{ "element": "Au", "occu": 1 }],
        "abc": [0.377787999999999, 0.188893999999999, 0.308728],
        "properties": { "magmom": -0.003 },
        "label": "Au",
        "xyz": [3.068466293507989, -1.7715797800120001, 2.10273251524]
      },
      {
        "species": [{ "element": "Au", "occu": 1 }],
        "abc": [0.811106, 0.188893999999999, 0.308728],
        "properties": { "magmom": 0.002 },
        "label": "Au",
        "xyz": [5.4147939999999934, -5.835538439976009, 2.10273251524]
      }
    ]
  },
  "task_ids": null,
  "uncorrected_energy_per_atom": null,
  "energy_per_atom": -8.718672979,
  "formation_energy_per_atom": -0.534830038500004,
  "energy_above_hull": 0.0,
  "is_stable": true,
  "equilibrium_reaction_energy_per_atom": null,
  "decomposes_to": null,
  "xas": null,
  "grain_boundaries": null,
  "band_gap": 0.0,
  "cbm": null,
  "vbm": null,
  "efermi": 2.70214494,
  "is_gap_direct": null,
  "is_metal": null,
  "es_source_calc_id": null,
  "bandstructure": null,
  "dos": null,
  "dos_energy_up": null,
  "dos_energy_down": null,
  "is_magnetic": null,
  "ordering": null,
  "total_magnetization": 102.1698792,
  "total_magnetization_normalized_vol": null,
  "total_magnetization_normalized_formula_units": null,
  "num_magnetic_sites": null,
  "num_unique_magnetic_sites": null,
  "types_of_magnetic_species": null,
  "bulk_modulus": null,
  "shear_modulus": null,
  "universal_anisotropy": null,
  "homogeneous_poisson": null,
  "e_total": null,
  "e_ionic": null,
  "e_electronic": null,
  "n": null,
  "e_ij_max": null,
  "weighted_surface_energy_EV_PER_ANG2": null,
  "weighted_surface_energy": null,
  "weighted_work_function": null,
  "surface_anisotropy": null,
  "shape_factor": null,
  "has_reconstructed": null,
  "possible_species": null,
  "has_props": null,
  "theoretical": null,
  "database_IDs": null,
  "fields_not_requested": [
    "builder_meta",
    "nsites",
    "elements",
    "nelements",
    "composition",
    "composition_reduced",
    "chemsys",
    "symmetry",
    "property_name",
    "deprecated",
    "deprecation_reasons",
    "last_updated",
    "origins",
    "warnings",
    "task_ids",
    "uncorrected_energy_per_atom",
    "equilibrium_reaction_energy_per_atom",
    "decomposes_to",
    "xas",
    "grain_boundaries",
    "cbm",
    "vbm",
    "is_gap_direct",
    "is_metal",
    "es_source_calc_id",
    "bandstructure",
    "dos",
    "dos_energy_up",
    "dos_energy_down",
    "is_magnetic",
    "ordering",
    "total_magnetization_normalized_vol",
    "total_magnetization_normalized_formula_units",
    "num_magnetic_sites",
    "num_unique_magnetic_sites",
    "types_of_magnetic_species",
    "bulk_modulus",
    "shear_modulus",
    "universal_anisotropy",
    "homogeneous_poisson",
    "e_total",
    "e_ionic",
    "e_electronic",
    "n",
    "e_ij_max",
    "weighted_surface_energy_EV_PER_ANG2",
    "weighted_surface_energy",
    "weighted_work_function",
    "surface_anisotropy",
    "shape_factor",
    "has_reconstructed",
    "possible_species",
    "has_props",
    "theoretical",
    "database_IDs"
  ]
}
