{"builder_meta": null, "nsites": null, "elements": null, "nelements": null, "composition": null, "composition_reduced": null, "formula_pretty": "Eu8In3", "formula_anonymous": "A3B8", "chemsys": null, "volume": 813.7777862627121, "density": 6.3671351986123, "density_atomic": 36.98989937557782, "symmetry": null, "property_name": null, "material_id": "mp-1192827", "deprecated": null, "deprecation_reasons": null, "last_updated": null, "origins": null, "warnings": null, "structure": {"@module": "pymatgen.core.structure", "@class": "Structure", "charge": 0, "lattice": {"matrix": [[9.927176, 0.0, 0.0], [-4.9113109999999995, 8.68803, 0.0], [-1.955896, -2.941541, 9.435367]], "pbc": [true, true, true], "a": 9.927176, "b": 9.980122294822895, "c": 10.074936379063939, "alpha": 99.12743142662188, "beta": 101.19418685280651, "gamma": 119.47931429787674, "volume": 813.7777862627121}, "properties": {}, "sites": [{"species": [{"element": "Eu", "occu": 1}], "abc": [0.959074, 0.060619, 0.670083], "properties": {"magmom": 6.916}, "label": "Eu", "xyz": [7.912564974147, -1.444416927333, 6.322479025460999]}, {"species": [{"element": "Eu", "occu": 1}], "abc": [0.040926, 0.939380999999999, 0.329916999999999], "properties": {"magmom": 6.916}, "label": "Eu", "xyz": [-4.852595974146993, 7.190905927332993, 3.1128879745389906]}, {"species": [{"element": "Eu", "occu": 1}], "abc": [0.922682, 0.770959, 0.892726999999999], "properties": {"magmom": 6.883}, "label": "Eu", "xyz": [3.6271260203910014, 4.072121848463002, 8.42320687580899]}, {"species": [{"element": "Eu", "occu": 1}], "abc": [0.077318, 0.229041, 0.107273], "properties": {"magmom": 6.883}, "label": "Eu", "xyz": [-0.5671570203909998, 1.6743671515369998, 1.0121601241909999]}, {"species": [{"element": "Eu", "occu": 1}], "abc": [0.534872, 0.701143, 0.647841999999999], "properties": {"magmom": 6.896}, "label": "Eu", "xyz": [0.5991255765670023, 4.185897613768002, 6.11262702801399]}, {"species": [{"element": "Eu", "occu": 1}], "abc": [0.465128, 0.298857, 0.352157999999999], "properties": {"magmom": 6.896}, "label": "Eu", "xyz": [2.4608434234330017, 1.5605913862320024, 3.3227399719859907]}, {"species": [{"element": "Eu", "occu": 1}], "abc": [0.702579, 0.499949, 0.11352000000000001], "properties": {"magmom": 6.877}, "label": "Eu", "xyz": [4.297187049844999, 4.00964817615, 1.07110286184]}, {"species": [{"element": "Eu", "occu": 1}], "abc": [0.297421, 0.500051, 0.88648], "properties": {"magmom": 6.877}, "label": "Eu", "xyz": [-1.2372180498450005, 1.7368408238499997, 8.36426413816]}, {"species": [{"element": "Eu", "occu": 1}], "abc": [0.878792999999999, 0.399273999999999, 0.645304], "properties": {"magmom": 6.883}, "label": "Eu", "xyz": [5.500826477969995, 1.5707163167559914, 6.088680066567999]}, {"species": [{"element": "Eu", "occu": 1}], "abc": [0.121207, 0.600726, 0.354696], "properties": {"magmom": 6.883}, "label": "Eu", "xyz": [-2.44085747797, 4.175772683243999, 3.3466869334319997]}, {"species": [{"element": "Eu", "occu": 1}], "abc": [0.667482, 0.12066, 0.886815999999999], "properties": {"magmom": 6.885}, "label": "Eu", "xyz": [4.299092638436002, -1.5603079236559974, 8.367434421471991]}, {"species": [{"element": "Eu", "occu": 1}], "abc": [0.332518, 0.8793400000000001, 0.11318399999999901], "properties": {"magmom": 6.885}, "label": "Eu", "xyz": [-1.2391236384359992, 7.3067969236560035, 1.0679325785279905]}, {"species": [{"element": "Eu", "occu": 1}], "abc": [0.536782, 0.705851999999999, 0.293473], "properties": {"magmom": 6.91}, "label": "Eu", "xyz": [1.2880680288520043, 5.269200489666991, 2.7690254595909995]}, {"species": [{"element": "Eu", "occu": 1}], "abc": [0.463217999999999, 0.294147999999999, 0.706527], "properties": {"magmom": 6.91}, "label": "Eu", "xyz": [1.771900971147995, 0.47728851033299113, 6.666341540408999]}, {"species": [{"element": "Eu", "occu": 1}], "abc": [0.769872999999999, 0.155007, 0.295672999999999], "properties": {"magmom": 6.918}, "label": "Eu", "xyz": [6.303071546462992, 0.47697121411700283, 2.7897832669909906]}, {"species": [{"element": "Eu", "occu": 1}], "abc": [0.230127, 0.844993, 0.704326999999999], "properties": {"magmom": 6.918}, "label": "Eu", "xyz": [-3.2431025464629974, 5.269517785883003, 6.645583733008991]}, {"species": [{"element": "In", "occu": 1}], "abc": [0.828133, 0.663086, 0.49945199999999906], "properties": {"magmom": -0.095}, "label": "In", "xyz": [3.987524307670003, 4.291752525048002, 4.7125129188839905]}, {"species": [{"element": "In", "occu": 1}], "abc": [0.171867, 0.336914, 0.500548], "properties": {"magmom": -0.095}, "label": "In", "xyz": [-0.92755530767, 1.4547364749519998, 4.722854081116]}, {"species": [{"element": "In", "occu": 1}], "abc": [0.674284, 0.837704999999999, 0.025646], "properties": {"magmom": -0.10300000000000001}, "label": "In", "xyz": [2.5293452519130044, 7.202567410663992, 0.24197942208199996]}, {"species": [{"element": "In", "occu": 1}], "abc": [0.325716, 0.162295, 0.974353999999999], "properties": {"magmom": -0.10300000000000001}, "label": "In", "xyz": [0.5306237480870017, -1.4560784106639975, 9.19338757791799]}, {"species": [{"element": "In", "occu": 1}], "abc": [0.0, 0.5, 0.0], "properties": {"magmom": -0.112}, "label": "In", "xyz": [-2.4556554999999998, 4.344015, 0.0]}, {"species": [{"element": "In", "occu": 1}], "abc": [0.5, 0.0, 0.5], "properties": {"magmom": -0.096}, "label": "In", "xyz": [3.9856399999999996, -1.4707705, 4.7176835]}]}, "task_ids": null, "uncorrected_energy_per_atom": null, "energy_per_atom": -8.508905015454546, "formation_energy_per_atom": -0.274139874545458, "energy_above_hull": 0.0, "is_stable": true, "equilibrium_reaction_energy_per_atom": null, "decomposes_to": null, "xas": null, "grain_boundaries": null, "band_gap": 0.0, "cbm": null, "vbm": null, "efermi": 3.0397439, "is_gap_direct": null, "is_metal": null, "es_source_calc_id": null, "bandstructure": null, "dos": null, "dos_energy_up": null, "dos_energy_down": null, "is_magnetic": null, "ordering": null, "total_magnetization": 114.0006528, "total_magnetization_normalized_vol": null, "total_magnetization_normalized_formula_units": null, "num_magnetic_sites": null, "num_unique_magnetic_sites": null, "types_of_magnetic_species": null, "bulk_modulus": null, "shear_modulus": null, "universal_anisotropy": null, "homogeneous_poisson": null, "e_total": null, "e_ionic": null, "e_electronic": null, "n": null, "e_ij_max": null, "weighted_surface_energy_EV_PER_ANG2": null, "weighted_surface_energy": null, "weighted_work_function": null, "surface_anisotropy": null, "shape_factor": null, "has_reconstructed": null, "possible_species": null, "has_props": null, "theoretical": null, "database_IDs": null, "fields_not_requested": ["builder_meta", "nsites", "elements", "nelements", "composition", "composition_reduced", "chemsys", "symmetry", "property_name", "deprecated", "deprecation_reasons", "last_updated", "origins", "warnings", "task_ids", "uncorrected_energy_per_atom", "equilibrium_reaction_energy_per_atom", "decomposes_to", "xas", "grain_boundaries", "cbm", "vbm", "is_gap_direct", "is_metal", "es_source_calc_id", "bandstructure", "dos", "dos_energy_up", "dos_energy_down", "is_magnetic", "ordering", "total_magnetization_normalized_vol", "total_magnetization_normalized_formula_units", "num_magnetic_sites", "num_unique_magnetic_sites", "types_of_magnetic_species", "bulk_modulus", "shear_modulus", "universal_anisotropy", "homogeneous_poisson", "e_total", "e_ionic", "e_electronic", "n", "e_ij_max", "weighted_surface_energy_EV_PER_ANG2", "weighted_surface_energy", "weighted_work_function", "surface_anisotropy", "shape_factor", "has_reconstructed", "possible_species", "has_props", "theoretical", "database_IDs"]}