{
  "builder_meta": null,
  "nsites": null,
  "elements": null,
  "nelements": null,
  "composition": null,
  "composition_reduced": null,
  "formula_pretty": "EuAg3",
  "formula_anonymous": "AB3",
  "chemsys": null,
  "volume": 190.75077603276407,
  "density": 8.279916397431869,
  "density_atomic": 23.843847004095508,
  "symmetry": null,
  "property_name": null,
  "material_id": "mp-1184392",
  "deprecated": null,
  "deprecation_reasons": null,
  "last_updated": null,
  "origins": null,
  "warnings": null,
  "structure": {
    "@module": "pymatgen.core.structure",
    "@class": "Structure",
    "charge": 0,
    "lattice": {
      "matrix": [
        [3.377183, -5.849452, 0.0],
        [3.377183, 5.849452, 0.0],
        [0.0, 0.0, 4.827992]
      ],
      "pbc": [true, true, true],
      "a": 6.754365530217698,
      "b": 6.754365530217698,
      "c": 4.827992,
      "alpha": 90.0,
      "beta": 90.0,
      "gamma": 119.9999953984505,
      "volume": 190.75077603276407
    },
    "properties": {},
    "sites": [
      {
        "species": [{ "element": "Eu", "occu": 1 }],
        "abc": [0.333333, 0.666667, 0.75],
        "properties": { "magmom": 6.795 },
        "label": "Eu",
        "xyz": [3.377183, 1.9498212329680003, 3.620994]
      },
      {
        "species": [{ "element": "Eu", "occu": 1 }],
        "abc": [0.666667, 0.333333, 0.25],
        "properties": { "magmom": 6.7940000000000005 },
        "label": "Eu",
        "xyz": [3.377183, -1.9498212329680003, 1.206998]
      },
      {
        "species": [{ "element": "Ag", "occu": 1 }],
        "abc": [0.143919, 0.287838, 0.25],
        "properties": { "magmom": -0.001 },
        "label": "Ag",
        "xyz": [1.4581224005309998, 0.841847282388, 1.206998]
      },
      {
        "species": [{ "element": "Ag", "occu": 1 }],
        "abc": [0.712162, 0.856081, 0.25],
        "properties": { "magmom": -0.002 },
        "label": "Ag",
        "xyz": [5.296243599468999, 0.8418472823879997, 1.206998]
      },
      {
        "species": [{ "element": "Ag", "occu": 1 }],
        "abc": [0.143919, 0.856081, 0.25],
        "properties": { "magmom": -0.001 },
        "label": "Ag",
        "xyz": [3.3771829999999996, 4.165757435224, 1.206998]
      },
      {
        "species": [{ "element": "Ag", "occu": 1 }],
        "abc": [0.856081, 0.712162, 0.75],
        "properties": { "magmom": -0.002 },
        "label": "Ag",
        "xyz": [5.296243599468999, -0.8418472823879997, 3.620994]
      },
      {
        "species": [{ "element": "Ag", "occu": 1 }],
        "abc": [0.287838, 0.143919, 0.75],
        "properties": { "magmom": -0.002 },
        "label": "Ag",
        "xyz": [1.4581224005309998, -0.841847282388, 3.620994]
      },
      {
        "species": [{ "element": "Ag", "occu": 1 }],
        "abc": [0.856081, 0.143919, 0.75],
        "properties": { "magmom": -0.003 },
        "label": "Ag",
        "xyz": [3.3771829999999996, -4.165757435224, 3.620994]
      }
    ]
  },
  "task_ids": null,
  "uncorrected_energy_per_atom": null,
  "energy_per_atom": -25.823250773750004,
  "formation_energy_per_atom": -0.176122236250002,
  "energy_above_hull": 0.06485277291666501,
  "is_stable": false,
  "equilibrium_reaction_energy_per_atom": null,
  "decomposes_to": null,
  "xas": null,
  "grain_boundaries": null,
  "band_gap": 0.0,
  "cbm": null,
  "vbm": null,
  "efermi": 2.7796794400000002,
  "is_gap_direct": null,
  "is_metal": null,
  "es_source_calc_id": null,
  "bandstructure": null,
  "dos": null,
  "dos_energy_up": null,
  "dos_energy_down": null,
  "is_magnetic": null,
  "ordering": null,
  "total_magnetization": 13.9752893,
  "total_magnetization_normalized_vol": null,
  "total_magnetization_normalized_formula_units": null,
  "num_magnetic_sites": null,
  "num_unique_magnetic_sites": null,
  "types_of_magnetic_species": null,
  "bulk_modulus": null,
  "shear_modulus": null,
  "universal_anisotropy": null,
  "homogeneous_poisson": null,
  "e_total": null,
  "e_ionic": null,
  "e_electronic": null,
  "n": null,
  "e_ij_max": null,
  "weighted_surface_energy_EV_PER_ANG2": null,
  "weighted_surface_energy": null,
  "weighted_work_function": null,
  "surface_anisotropy": null,
  "shape_factor": null,
  "has_reconstructed": null,
  "possible_species": null,
  "has_props": null,
  "theoretical": null,
  "database_IDs": null,
  "fields_not_requested": [
    "builder_meta",
    "nsites",
    "elements",
    "nelements",
    "composition",
    "composition_reduced",
    "chemsys",
    "symmetry",
    "property_name",
    "deprecated",
    "deprecation_reasons",
    "last_updated",
    "origins",
    "warnings",
    "task_ids",
    "uncorrected_energy_per_atom",
    "equilibrium_reaction_energy_per_atom",
    "decomposes_to",
    "xas",
    "grain_boundaries",
    "cbm",
    "vbm",
    "is_gap_direct",
    "is_metal",
    "es_source_calc_id",
    "bandstructure",
    "dos",
    "dos_energy_up",
    "dos_energy_down",
    "is_magnetic",
    "ordering",
    "total_magnetization_normalized_vol",
    "total_magnetization_normalized_formula_units",
    "num_magnetic_sites",
    "num_unique_magnetic_sites",
    "types_of_magnetic_species",
    "bulk_modulus",
    "shear_modulus",
    "universal_anisotropy",
    "homogeneous_poisson",
    "e_total",
    "e_ionic",
    "e_electronic",
    "n",
    "e_ij_max",
    "weighted_surface_energy_EV_PER_ANG2",
    "weighted_surface_energy",
    "weighted_work_function",
    "surface_anisotropy",
    "shape_factor",
    "has_reconstructed",
    "possible_species",
    "has_props",
    "theoretical",
    "database_IDs"
  ]
}
