{
  "builder_meta": null,
  "nsites": null,
  "elements": null,
  "nelements": null,
  "composition": null,
  "composition_reduced": null,
  "formula_pretty": "EuAg",
  "formula_anonymous": "AB",
  "chemsys": null,
  "volume": 232.03534843581795,
  "density": 7.437858443020267,
  "density_atomic": 29.004418554477244,
  "symmetry": null,
  "property_name": null,
  "material_id": "mp-665747",
  "deprecated": null,
  "deprecation_reasons": null,
  "last_updated": null,
  "origins": null,
  "warnings": null,
  "structure": {
    "@module": "pymatgen.core.structure",
    "@class": "Structure",
    "charge": 0,
    "lattice": {
      "matrix": [
        [4.71200782, 0.0, 0.0],
        [0.0, 6.15542757, 0.0008309400000000001],
        [0.0, 0.0005444, 7.99999889]
      ],
      "pbc": [true, true, true],
      "a": 4.71200782,
      "b": 6.155427626085566,
      "c": 7.999998908523212,
      "alpha": 89.98836648914516,
      "beta": 90.0,
      "gamma": 90.0,
      "volume": 232.03534843581792
    },
    "properties": {},
    "sites": [
      {
        "species": [{ "element": "Eu", "occu": 1 }],
        "abc": [0.75, 0.86750709, 0.8202928700000001],
        "properties": { "magmom": 6.855 },
        "label": "Eu",
        "xyz": [3.534005865, 5.340323626394899, 6.563062895816279]
      },
      {
        "species": [{ "element": "Eu", "occu": 1 }],
        "abc": [0.25, 0.36745476, 0.6796995100000001],
        "properties": { "magmom": 6.855 },
        "label": "Eu",
        "xyz": [1.178001955, 2.262211188844977, 5.437900658391818]
      },
      {
        "species": [{ "element": "Eu", "occu": 1 }],
        "abc": [0.75, 0.63254524, 0.32030049],
        "properties": { "magmom": 6.855 },
        "label": "Eu",
        "xyz": [3.534005865, 3.8937607811550223, 2.5629291716081815]
      },
      {
        "species": [{ "element": "Eu", "occu": 1 }],
        "abc": [0.25, 0.13249291, 0.17970713],
        "properties": { "magmom": 6.855 },
        "label": "Eu",
        "xyz": [1.178001955, 0.8156483436051006, 1.437766934183721]
      },
      {
        "species": [{ "element": "Ag", "occu": 1 }],
        "abc": [0.25, 0.62650763, 0.03570675],
        "properties": { "magmom": 0.017 },
        "label": "Ag",
        "xyz": [1.178001955, 3.856441777272059, 0.28617455061557967]
      },
      {
        "species": [{ "element": "Ag", "occu": 1 }],
        "abc": [0.75, 0.12652738, 0.46429364],
        "properties": { "magmom": 0.017 },
        "label": "Ag",
        "xyz": [3.534005865, 0.7790828846694825, 3.7144537412951966]
      },
      {
        "species": [{ "element": "Ag", "occu": 1 }],
        "abc": [0.75, 0.37349237, 0.96429325],
        "properties": { "magmom": 0.017 },
        "label": "Ag",
        "xyz": [3.534005865, 2.299530192727941, 7.714655279384419]
      },
      {
        "species": [{ "element": "Ag", "occu": 1 }],
        "abc": [0.25, 0.87347262, 0.53570636],
        "properties": { "magmom": 0.017 },
        "label": "Ag",
        "xyz": [1.178001955, 5.376889085330517, 4.286376088704803]
      }
    ]
  },
  "task_ids": null,
  "uncorrected_energy_per_atom": null,
  "energy_per_atom": -30.24788995,
  "formation_energy_per_atom": -0.30951002000000105,
  "energy_above_hull": 0.0,
  "is_stable": true,
  "equilibrium_reaction_energy_per_atom": null,
  "decomposes_to": null,
  "xas": null,
  "grain_boundaries": null,
  "band_gap": 0.0,
  "cbm": null,
  "vbm": null,
  "efermi": 2.51532993,
  "is_gap_direct": null,
  "is_metal": null,
  "es_source_calc_id": null,
  "bandstructure": null,
  "dos": null,
  "dos_energy_up": null,
  "dos_energy_down": null,
  "is_magnetic": null,
  "ordering": null,
  "total_magnetization": 29.4503879,
  "total_magnetization_normalized_vol": null,
  "total_magnetization_normalized_formula_units": null,
  "num_magnetic_sites": null,
  "num_unique_magnetic_sites": null,
  "types_of_magnetic_species": null,
  "bulk_modulus": null,
  "shear_modulus": null,
  "universal_anisotropy": null,
  "homogeneous_poisson": null,
  "e_total": null,
  "e_ionic": null,
  "e_electronic": null,
  "n": null,
  "e_ij_max": null,
  "weighted_surface_energy_EV_PER_ANG2": null,
  "weighted_surface_energy": null,
  "weighted_work_function": null,
  "surface_anisotropy": null,
  "shape_factor": null,
  "has_reconstructed": null,
  "possible_species": null,
  "has_props": null,
  "theoretical": null,
  "database_IDs": null,
  "fields_not_requested": [
    "builder_meta",
    "nsites",
    "elements",
    "nelements",
    "composition",
    "composition_reduced",
    "chemsys",
    "symmetry",
    "property_name",
    "deprecated",
    "deprecation_reasons",
    "last_updated",
    "origins",
    "warnings",
    "task_ids",
    "uncorrected_energy_per_atom",
    "equilibrium_reaction_energy_per_atom",
    "decomposes_to",
    "xas",
    "grain_boundaries",
    "cbm",
    "vbm",
    "is_gap_direct",
    "is_metal",
    "es_source_calc_id",
    "bandstructure",
    "dos",
    "dos_energy_up",
    "dos_energy_down",
    "is_magnetic",
    "ordering",
    "total_magnetization_normalized_vol",
    "total_magnetization_normalized_formula_units",
    "num_magnetic_sites",
    "num_unique_magnetic_sites",
    "types_of_magnetic_species",
    "bulk_modulus",
    "shear_modulus",
    "universal_anisotropy",
    "homogeneous_poisson",
    "e_total",
    "e_ionic",
    "e_electronic",
    "n",
    "e_ij_max",
    "weighted_surface_energy_EV_PER_ANG2",
    "weighted_surface_energy",
    "weighted_work_function",
    "surface_anisotropy",
    "shape_factor",
    "has_reconstructed",
    "possible_species",
    "has_props",
    "theoretical",
    "database_IDs"
  ]
}
