{"builder_meta": null, "nsites": null, "elements": null, "nelements": null, "composition": null, "composition_reduced": null, "formula_pretty": "EuAg2", "formula_anonymous": "AB2", "chemsys": null, "volume": 145.93066746491007, "density": 8.368095474534364, "density_atomic": 24.321777910818344, "symmetry": null, "property_name": null, "material_id": "mp-1436", "deprecated": null, "deprecation_reasons": null, "last_updated": null, "origins": null, "warnings": null, "structure": {"@module": "pymatgen.core.structure", "@class": "Structure", "charge": 0, "lattice": {"matrix": [[4.38644403, -2e-08, 1.8830025], [1.99190514, 5.51885201, 1.410464629999999], [0.00696253, 0.03205421, 6.03438094]], "pbc": [true, true, true], "a": 4.773530102903813, "b": 6.034469659176397, "c": 6.0344700909224835, "alpha": 76.17424164530948, "beta": 66.70147195457535, "gamma": 66.70148409204373, "volume": 145.93066746491004}, "properties": {}, "sites": [{"species": [{"element": "Eu", "occu": 1}], "abc": [0.45551147000000003, 0.29448853, 0.79448853], "properties": {"magmom": 6.796}, "label": "Eu", "xyz": [2.59020043498085, 1.6507053087854273, 6.067341334774986]}, {"species": [{"element": "Eu", "occu": 1}], "abc": [0.54448853, 0.70551147, 0.20551147], "properties": {"magmom": 6.796}, "label": "Eu", "xyz": [3.7951112650191505, 3.900200891214573, 3.260506735225012]}, {"species": [{"element": "Ag", "occu": 1}], "abc": [0.8369469900000001, 0.11057559, 0.21552743], "properties": {"magmom": 0.001}, "label": "Ag", "xyz": [3.8929778299887006, 0.6171588618914764, 3.0325108488130406]}, {"species": [{"element": "Ag", "occu": 1}], "abc": [0.16305301, 0.88942441, 0.78447257], "properties": {"magmom": 0.001}, "label": "Ag", "xyz": [2.4923338700113002, 4.933747338108525, 6.2953372211869585]}, {"species": [{"element": "Ag", "occu": 1}], "abc": [0.16305301, 0.28447257, 0.38942441], "properties": {"magmom": 0.001}, "label": "Ag", "xyz": [1.2845766557973972, 1.5824447032905713, 3.0582029609274692]}, {"species": [{"element": "Ag", "occu": 1}], "abc": [0.8369469900000001, 0.71552743, 0.6105755900000001], "properties": {"magmom": 0.001}, "label": "Ag", "xyz": [5.100735044202603, 3.968461496709428, 6.26964510907253]}]}, "task_ids": null, "uncorrected_energy_per_atom": null, "energy_per_atom": -27.386487715, "formation_energy_per_atom": -0.308942046666667, "energy_above_hull": 0.0, "is_stable": true, "equilibrium_reaction_energy_per_atom": null, "decomposes_to": null, "xas": null, "grain_boundaries": null, "band_gap": 0.0, "cbm": null, "vbm": null, "efermi": 2.71615616, "is_gap_direct": null, "is_metal": null, "es_source_calc_id": null, "bandstructure": null, "dos": null, "dos_energy_up": null, "dos_energy_down": null, "is_magnetic": null, "ordering": null, "total_magnetization": 14.2994575, "total_magnetization_normalized_vol": null, "total_magnetization_normalized_formula_units": null, "num_magnetic_sites": null, "num_unique_magnetic_sites": null, "types_of_magnetic_species": null, "bulk_modulus": null, "shear_modulus": null, "universal_anisotropy": null, "homogeneous_poisson": null, "e_total": null, "e_ionic": null, "e_electronic": null, "n": null, "e_ij_max": null, "weighted_surface_energy_EV_PER_ANG2": null, "weighted_surface_energy": null, "weighted_work_function": null, "surface_anisotropy": null, "shape_factor": null, "has_reconstructed": null, "possible_species": null, "has_props": null, "theoretical": null, "database_IDs": null, "fields_not_requested": ["builder_meta", "nsites", "elements", "nelements", "composition", "composition_reduced", "chemsys", "symmetry", "property_name", "deprecated", "deprecation_reasons", "last_updated", "origins", "warnings", "task_ids", "uncorrected_energy_per_atom", "equilibrium_reaction_energy_per_atom", "decomposes_to", "xas", "grain_boundaries", "cbm", "vbm", "is_gap_direct", "is_metal", "es_source_calc_id", "bandstructure", "dos", "dos_energy_up", "dos_energy_down", "is_magnetic", "ordering", "total_magnetization_normalized_vol", "total_magnetization_normalized_formula_units", "num_magnetic_sites", "num_unique_magnetic_sites", "types_of_magnetic_species", "bulk_modulus", "shear_modulus", "universal_anisotropy", "homogeneous_poisson", "e_total", "e_ionic", "e_electronic", "n", "e_ij_max", "weighted_surface_energy_EV_PER_ANG2", "weighted_surface_energy", "weighted_work_function", "surface_anisotropy", "shape_factor", "has_reconstructed", "possible_species", "has_props", "theoretical", "database_IDs"]}