{"builder_meta": null, "nsites": null, "elements": null, "nelements": null, "composition": null, "composition_reduced": null, "formula_pretty": "EuAl", "formula_anonymous": "AB", "chemsys": null, "volume": 543.6888217277907, "density": 5.465370001442675, "density_atomic": 27.184441086389533, "symmetry": null, "property_name": null, "material_id": "mp-1189619", "deprecated": null, "deprecation_reasons": null, "last_updated": null, "origins": null, "warnings": null, "structure": {"@module": "pymatgen.core.structure", "@class": "Structure", "charge": 0, "lattice": {"matrix": [[5.75072286, 0.0, 0.0], [0.0, 9.4778015, 0.0], [0.0, 0.0, 9.97517117]], "pbc": [true, true, true], "a": 5.75072286, "b": 9.4778015, "c": 9.97517117, "alpha": 90.0, "beta": 90.0, "gamma": 90.0, "volume": 543.6888217277907}, "properties": {}, "sites": [{"species": [{"element": "Eu", "occu": 1}], "abc": [0.5, 0.82000209, 0.9143195900000001], "properties": {"magmom": 6.884}, "label": "Eu", "xyz": [2.87536143, 7.7718170386051355, 9.120494414334221]}, {"species": [{"element": "Eu", "occu": 1}], "abc": [0.5, 0.17999791, 0.9143195900000001], "properties": {"magmom": 6.884}, "label": "Eu", "xyz": [2.87536143, 1.7059844613948651, 9.120494414334221]}, {"species": [{"element": "Eu", "occu": 1}], "abc": [0.0, 0.67999791, 0.08568041], "properties": {"magmom": 6.884}, "label": "Eu", "xyz": [0.0, 6.4448852113948645, 0.8546767556657796]}, {"species": [{"element": "Eu", "occu": 1}], "abc": [-0.0, 0.32000209, 0.08568041], "properties": {"magmom": 6.884}, "label": "Eu", "xyz": [0.0, 3.032916288605135, 0.8546767556657796]}, {"species": [{"element": "Eu", "occu": 1}], "abc": [0.5, 0.69869714, 0.30942925], "properties": {"magmom": 6.866}, "label": "Eu", "xyz": [2.87536143, 6.62211280153771, 3.086609733754722]}, {"species": [{"element": "Eu", "occu": 1}], "abc": [0.5, 0.30130286, 0.30942925], "properties": {"magmom": 6.866}, "label": "Eu", "xyz": [2.87536143, 2.85568869846229, 3.086609733754722]}, {"species": [{"element": "Eu", "occu": 1}], "abc": [0.0, 0.8013028600000001, 0.69057075], "properties": {"magmom": 6.866}, "label": "Eu", "xyz": [0.0, 7.5945894484622904, 6.888561436245277]}, {"species": [{"element": "Eu", "occu": 1}], "abc": [0.0, 0.19869714, 0.69057075], "properties": {"magmom": 6.866}, "label": "Eu", "xyz": [0.0, 1.88321205153771, 6.888561436245277]}, {"species": [{"element": "Eu", "occu": 1}], "abc": [0.5, 0.0, 0.5077463600000001], "properties": {"magmom": 6.889}, "label": "Eu", "xyz": [2.87536143, 0.0, 5.064856851944442]}, {"species": [{"element": "Eu", "occu": 1}], "abc": [-0.0, 0.5, 0.49225364], "properties": {"magmom": 6.889}, "label": "Eu", "xyz": [0.0, 4.73890075, 4.910314318055558]}, {"species": [{"element": "Al", "occu": 1}], "abc": [0.74222624, 0.0, 0.18489062], "properties": {"magmom": -0.029}, "label": "Al", "xyz": [4.268337405659847, 0.0, 1.8443155822274253]}, {"species": [{"element": "Al", "occu": 1}], "abc": [0.25777376, 0.0, 0.18489062], "properties": {"magmom": -0.029}, "label": "Al", "xyz": [1.4823854543401536, 0.0, 1.8443155822274253]}, {"species": [{"element": "Al", "occu": 1}], "abc": [0.75777376, 0.5, 0.81510938], "properties": {"magmom": -0.029}, "label": "Al", "xyz": [4.357746884340153, 4.73890075, 8.130855587772574]}, {"species": [{"element": "Al", "occu": 1}], "abc": [0.24222624, 0.5, 0.81510938], "properties": {"magmom": -0.029}, "label": "Al", "xyz": [1.3929759756598463, 4.73890075, 8.130855587772574]}, {"species": [{"element": "Al", "occu": 1}], "abc": [0.5, 0.64199439, 0.62861936], "properties": {"magmom": -0.044}, "label": "Al", "xyz": [2.87536143, 6.084695392533585, 6.270585716775851]}, {"species": [{"element": "Al", "occu": 1}], "abc": [0.5, 0.35800561000000003, 0.62861936], "properties": {"magmom": -0.044}, "label": "Al", "xyz": [2.87536143, 3.3931061074664153, 6.270585716775851]}, {"species": [{"element": "Al", "occu": 1}], "abc": [-0.0, 0.85800561, 0.37138064], "properties": {"magmom": -0.044}, "label": "Al", "xyz": [0.0, 8.132006857466415, 3.7045854532241482]}, {"species": [{"element": "Al", "occu": 1}], "abc": [-0.0, 0.14199439, 0.37138064], "properties": {"magmom": -0.044}, "label": "Al", "xyz": [0.0, 1.345794642533585, 3.7045854532241482]}, {"species": [{"element": "Al", "occu": 1}], "abc": [0.5, 0.5, 0.04187734], "properties": {"magmom": -0.05}, "label": "Al", "xyz": [2.87536143, 4.73890075, 0.41773363464428775]}, {"species": [{"element": "Al", "occu": 1}], "abc": [0.0, 0.0, 0.95812266], "properties": {"magmom": -0.05}, "label": "Al", "xyz": [0.0, 0.0, 9.557437535355712]}]}, "task_ids": null, "uncorrected_energy_per_atom": null, "energy_per_atom": -22.981265126, "formation_energy_per_atom": -0.354774603499998, "energy_above_hull": 0.0, "is_stable": true, "equilibrium_reaction_energy_per_atom": null, "decomposes_to": null, "xas": null, "grain_boundaries": null, "band_gap": 0.0, "cbm": null, "vbm": null, "efermi": 3.92641989, "is_gap_direct": null, "is_metal": null, "es_source_calc_id": null, "bandstructure": null, "dos": null, "dos_energy_up": null, "dos_energy_down": null, "is_magnetic": null, "ordering": null, "total_magnetization": 73.4059516, "total_magnetization_normalized_vol": null, "total_magnetization_normalized_formula_units": null, "num_magnetic_sites": null, "num_unique_magnetic_sites": null, "types_of_magnetic_species": null, "bulk_modulus": null, "shear_modulus": null, "universal_anisotropy": null, "homogeneous_poisson": null, "e_total": null, "e_ionic": null, "e_electronic": null, "n": null, "e_ij_max": null, "weighted_surface_energy_EV_PER_ANG2": null, "weighted_surface_energy": null, "weighted_work_function": null, "surface_anisotropy": null, "shape_factor": null, "has_reconstructed": null, "possible_species": null, "has_props": null, "theoretical": null, "database_IDs": null, "fields_not_requested": ["builder_meta", "nsites", "elements", "nelements", "composition", "composition_reduced", "chemsys", "symmetry", "property_name", "deprecated", "deprecation_reasons", "last_updated", "origins", "warnings", "task_ids", "uncorrected_energy_per_atom", "equilibrium_reaction_energy_per_atom", "decomposes_to", "xas", "grain_boundaries", "cbm", "vbm", "is_gap_direct", "is_metal", "es_source_calc_id", "bandstructure", "dos", "dos_energy_up", "dos_energy_down", "is_magnetic", "ordering", "total_magnetization_normalized_vol", "total_magnetization_normalized_formula_units", "num_magnetic_sites", "num_unique_magnetic_sites", "types_of_magnetic_species", "bulk_modulus", "shear_modulus", "universal_anisotropy", "homogeneous_poisson", "e_total", "e_ionic", "e_electronic", "n", "e_ij_max", "weighted_surface_energy_EV_PER_ANG2", "weighted_surface_energy", "weighted_work_function", "surface_anisotropy", "shape_factor", "has_reconstructed", "possible_species", "has_props", "theoretical", "database_IDs"]}