{
  "builder_meta": null,
  "nsites": null,
  "elements": null,
  "nelements": null,
  "composition": null,
  "composition_reduced": null,
  "formula_pretty": "EuAs3",
  "formula_anonymous": "AB3",
  "chemsys": null,
  "volume": 191.56836511773682,
  "density": 6.53106675028379,
  "density_atomic": 23.946045639717102,
  "symmetry": null,
  "property_name": null,
  "material_id": "mp-1078796",
  "deprecated": null,
  "deprecation_reasons": null,
  "last_updated": null,
  "origins": null,
  "warnings": null,
  "structure": {
    "@module": "pymatgen.core.structure",
    "@class": "Structure",
    "charge": 0,
    "lattice": {
      "matrix": [
        [0.02793634, 0.0, 5.76263536],
        [-4.34259521, 3.8199438, 1.788692779999999],
        [-4.34259521, -3.8199438, 1.788692779999999]
      ],
      "pbc": [true, true, true],
      "a": 5.762703075069453,
      "b": 6.053885170227257,
      "c": 6.053885170227257,
      "alpha": 78.24646976267805,
      "beta": 73.02340362882555,
      "gamma": 73.02340362882555,
      "volume": 191.56836511773682
    },
    "properties": {},
    "sites": [
      {
        "species": [{ "element": "Eu", "occu": 1 }],
        "abc": [0.66853574, 0.16508626, 0.16508626],
        "properties": { "magmom": 6.735 },
        "label": "Eu",
        "xyz": [-1.4151291620908377, 0.0, 4.4431048974261715]
      },
      {
        "species": [{ "element": "Eu", "occu": 1 }],
        "abc": [0.33146426, 0.8349137400000001, 0.8349137400000001],
        "properties": { "magmom": 6.735 },
        "label": "Eu",
        "xyz": [-7.2421249179091625, 0.0, 4.896916022573826]
      },
      {
        "species": [{ "element": "As", "occu": 1 }],
        "abc": [0.2203646, 0.49202152, 0.49202152],
        "properties": { "magmom": 0.001 },
        "label": "As",
        "xyz": [-4.267144411548275, 0.0, 3.030031516909506]
      },
      {
        "species": [{ "element": "As", "occu": 1 }],
        "abc": [0.7796354, 0.50797848, 0.50797848],
        "properties": { "magmom": 0.001 },
        "label": "As",
        "xyz": [-4.390109668451725, 0.0, 6.309989403090491]
      },
      {
        "species": [{ "element": "As", "occu": 1 }],
        "abc": [0.198768299999999, 0.36565743, 0.91026565],
        "properties": { "magmom": -0.024 },
        "label": "As",
        "xyz": [-5.5352645967264245, -2.080372793418036, 3.4276636350584435]
      },
      {
        "species": [{ "element": "As", "occu": 1 }],
        "abc": [0.198768299999999, 0.91026565, 0.36565743],
        "properties": { "magmom": -0.024 },
        "label": "As",
        "xyz": [-5.5352645967264245, 2.080372793418036, 3.4276636350584435]
      },
      {
        "species": [{ "element": "As", "occu": 1 }],
        "abc": [0.8012317, 0.63434257, 0.08973435],
        "properties": { "magmom": -0.024 },
        "label": "As",
        "xyz": [-3.121989483273575, 2.080372793418036, 5.912357284941549]
      },
      {
        "species": [{ "element": "As", "occu": 1 }],
        "abc": [0.8012317, 0.08973435, 0.63434257],
        "properties": { "magmom": -0.024 },
        "label": "As",
        "xyz": [-3.1219894832735755, -2.080372793418036, 5.912357284941549]
      }
    ]
  },
  "task_ids": null,
  "uncorrected_energy_per_atom": null,
  "energy_per_atom": -6.69403957125,
  "formation_energy_per_atom": -0.619419693125002,
  "energy_above_hull": 0.0,
  "is_stable": true,
  "equilibrium_reaction_energy_per_atom": null,
  "decomposes_to": null,
  "xas": null,
  "grain_boundaries": null,
  "band_gap": 0.0,
  "cbm": null,
  "vbm": null,
  "efermi": 4.52043335,
  "is_gap_direct": null,
  "is_metal": null,
  "es_source_calc_id": null,
  "bandstructure": null,
  "dos": null,
  "dos_energy_up": null,
  "dos_energy_down": null,
  "is_magnetic": null,
  "ordering": null,
  "total_magnetization": 13.8923903,
  "total_magnetization_normalized_vol": null,
  "total_magnetization_normalized_formula_units": null,
  "num_magnetic_sites": null,
  "num_unique_magnetic_sites": null,
  "types_of_magnetic_species": null,
  "bulk_modulus": null,
  "shear_modulus": null,
  "universal_anisotropy": null,
  "homogeneous_poisson": null,
  "e_total": null,
  "e_ionic": null,
  "e_electronic": null,
  "n": null,
  "e_ij_max": null,
  "weighted_surface_energy_EV_PER_ANG2": null,
  "weighted_surface_energy": null,
  "weighted_work_function": null,
  "surface_anisotropy": null,
  "shape_factor": null,
  "has_reconstructed": null,
  "possible_species": null,
  "has_props": null,
  "theoretical": null,
  "database_IDs": null,
  "fields_not_requested": [
    "builder_meta",
    "nsites",
    "elements",
    "nelements",
    "composition",
    "composition_reduced",
    "chemsys",
    "symmetry",
    "property_name",
    "deprecated",
    "deprecation_reasons",
    "last_updated",
    "origins",
    "warnings",
    "task_ids",
    "uncorrected_energy_per_atom",
    "equilibrium_reaction_energy_per_atom",
    "decomposes_to",
    "xas",
    "grain_boundaries",
    "cbm",
    "vbm",
    "is_gap_direct",
    "is_metal",
    "es_source_calc_id",
    "bandstructure",
    "dos",
    "dos_energy_up",
    "dos_energy_down",
    "is_magnetic",
    "ordering",
    "total_magnetization_normalized_vol",
    "total_magnetization_normalized_formula_units",
    "num_magnetic_sites",
    "num_unique_magnetic_sites",
    "types_of_magnetic_species",
    "bulk_modulus",
    "shear_modulus",
    "universal_anisotropy",
    "homogeneous_poisson",
    "e_total",
    "e_ionic",
    "e_electronic",
    "n",
    "e_ij_max",
    "weighted_surface_energy_EV_PER_ANG2",
    "weighted_surface_energy",
    "weighted_work_function",
    "surface_anisotropy",
    "shape_factor",
    "has_reconstructed",
    "possible_species",
    "has_props",
    "theoretical",
    "database_IDs"
  ]
}
