{"builder_meta": null, "nsites": null, "elements": null, "nelements": null, "composition": null, "composition_reduced": null, "formula_pretty": "EuAs", "formula_anonymous": "AB", "chemsys": null, "volume": 344.1564272367937, "density": 6.568276039019196, "density_atomic": 28.67970226973281, "symmetry": null, "property_name": null, "material_id": "mp-1101926", "deprecated": null, "deprecation_reasons": null, "last_updated": null, "origins": null, "warnings": null, "structure": {"@module": "pymatgen.core.structure", "@class": "Structure", "charge": 0, "lattice": {"matrix": [[4.000107, -6.928388, 0.0], [4.000107, 6.928388, 0.0], [0.0, 0.0, 6.209006]], "pbc": [true, true, true], "a": 8.000213515275265, "b": 8.000213515275265, "c": 6.209006, "alpha": 90.0, "beta": 90.0, "gamma": 119.99999599146565, "volume": 344.1564272367937}, "properties": {}, "sites": [{"species": [{"element": "Eu", "occu": 1}], "abc": [0.341769, 0.341769, 0.5], "properties": {"magmom": 6.732}, "label": "Eu", "xyz": [2.734225138566, 0.0, 3.104503]}, {"species": [{"element": "Eu", "occu": 1}], "abc": [0.658231, 0.0, 0.5], "properties": {"magmom": 6.731}, "label": "Eu", "xyz": [2.632994430717, -4.560479761628, 3.104503]}, {"species": [{"element": "Eu", "occu": 1}], "abc": [0.0, 0.658231, 0.5], "properties": {"magmom": 6.732}, "label": "Eu", "xyz": [2.632994430717, 4.560479761628, 3.104503]}, {"species": [{"element": "Eu", "occu": 1}], "abc": [0.674647, 0.674647, 0.0], "properties": {"magmom": 6.724}, "label": "Eu", "xyz": [5.397320374457999, 0.0, 0.0]}, {"species": [{"element": "Eu", "occu": 1}], "abc": [0.325353, 0.0, 0.0], "properties": {"magmom": 6.7219999999999995}, "label": "Eu", "xyz": [1.301446812771, -2.254171820964, 0.0]}, {"species": [{"element": "Eu", "occu": 1}], "abc": [0.0, 0.325353, 0.0], "properties": {"magmom": 6.723}, "label": "Eu", "xyz": [1.301446812771, 2.254171820964, 0.0]}, {"species": [{"element": "As", "occu": 1}], "abc": [0.0, 0.0, 0.727789], "properties": {"magmom": -0.052000000000000005}, "label": "As", "xyz": [0.0, 0.0, 4.518846267734]}, {"species": [{"element": "As", "occu": 1}], "abc": [0.0, 0.0, 0.272211], "properties": {"magmom": -0.052000000000000005}, "label": "As", "xyz": [0.0, 0.0, 1.6901597322659998]}, {"species": [{"element": "As", "occu": 1}], "abc": [0.666667, 0.333333, 0.766655], "properties": {"magmom": -0.055}, "label": "As", "xyz": [4.000107, -2.309467285592, 4.76016549493]}, {"species": [{"element": "As", "occu": 1}], "abc": [0.666667, 0.333333, 0.233345], "properties": {"magmom": -0.055}, "label": "As", "xyz": [4.000107, -2.309467285592, 1.44884050507]}, {"species": [{"element": "As", "occu": 1}], "abc": [0.333333, 0.666667, 0.766655], "properties": {"magmom": -0.055}, "label": "As", "xyz": [4.000107, 2.309467285592, 4.76016549493]}, {"species": [{"element": "As", "occu": 1}], "abc": [0.333333, 0.666667, 0.233345], "properties": {"magmom": -0.055}, "label": "As", "xyz": [4.000107, 2.309467285592, 1.44884050507]}]}, "task_ids": null, "uncorrected_energy_per_atom": null, "energy_per_atom": -8.622997401666668, "formation_energy_per_atom": -1.143880177916669, "energy_above_hull": 0.0, "is_stable": true, "equilibrium_reaction_energy_per_atom": null, "decomposes_to": null, "xas": null, "grain_boundaries": null, "band_gap": 0.0, "cbm": null, "vbm": null, "efermi": 2.84805776, "is_gap_direct": null, "is_metal": null, "es_source_calc_id": null, "bandstructure": null, "dos": null, "dos_energy_up": null, "dos_energy_down": null, "is_magnetic": null, "ordering": null, "total_magnetization": 40.9964485, "total_magnetization_normalized_vol": null, "total_magnetization_normalized_formula_units": null, "num_magnetic_sites": null, "num_unique_magnetic_sites": null, "types_of_magnetic_species": null, "bulk_modulus": null, "shear_modulus": null, "universal_anisotropy": null, "homogeneous_poisson": null, "e_total": null, "e_ionic": null, "e_electronic": null, "n": null, "e_ij_max": null, "weighted_surface_energy_EV_PER_ANG2": null, "weighted_surface_energy": null, "weighted_work_function": null, "surface_anisotropy": null, "shape_factor": null, "has_reconstructed": null, "possible_species": null, "has_props": null, "theoretical": null, "database_IDs": null, "fields_not_requested": ["builder_meta", "nsites", "elements", "nelements", "composition", "composition_reduced", "chemsys", "symmetry", "property_name", "deprecated", "deprecation_reasons", "last_updated", "origins", "warnings", "task_ids", "uncorrected_energy_per_atom", "equilibrium_reaction_energy_per_atom", "decomposes_to", "xas", "grain_boundaries", "cbm", "vbm", "is_gap_direct", "is_metal", "es_source_calc_id", "bandstructure", "dos", "dos_energy_up", "dos_energy_down", "is_magnetic", "ordering", "total_magnetization_normalized_vol", "total_magnetization_normalized_formula_units", "num_magnetic_sites", "num_unique_magnetic_sites", "types_of_magnetic_species", "bulk_modulus", "shear_modulus", "universal_anisotropy", "homogeneous_poisson", "e_total", "e_ionic", "e_electronic", "n", "e_ij_max", "weighted_surface_energy_EV_PER_ANG2", "weighted_surface_energy", "weighted_work_function", "surface_anisotropy", "shape_factor", "has_reconstructed", "possible_species", "has_props", "theoretical", "database_IDs"]}