{"builder_meta": null, "nsites": null, "elements": null, "nelements": null, "composition": null, "composition_reduced": null, "formula_pretty": "EuAu", "formula_anonymous": "AB", "chemsys": null, "volume": 218.14900159190483, "density": 10.624166732413189, "density_atomic": 27.268625198988104, "symmetry": null, "property_name": null, "material_id": "mp-1078589", "deprecated": null, "deprecation_reasons": null, "last_updated": null, "origins": null, "warnings": null, "structure": {"@module": "pymatgen.core.structure", "@class": "Structure", "charge": 0, "lattice": {"matrix": [[-1.9020000000000004e-05, 4.72049987, 1.0520000000000001e-05], [0.00011044, 1.2650000000000003e-05, 5.98607364], [7.7201046, -3.265e-05, 0.00014028]], "pbc": [true, true, true], "a": 4.72049987005004, "b": 5.986073641032147, "c": 7.720104601343538, "alpha": 89.99790181604355, "beta": 90.00047317210236, "gamma": 89.99975123653685, "volume": 218.14900159190483}, "properties": {}, "sites": [{"species": [{"element": "Eu", "occu": 1}], "abc": [0.250001, 0.35977045, 0.68291415], "properties": {"magmom": 6.822}, "label": "Eu", "xyz": [5.272203648849568, 1.180111941949065, 2.15371083640342]}, {"species": [{"element": "Eu", "occu": 1}], "abc": [0.25, 0.14021392, 0.18285524], "properties": {"magmom": 6.822}, "label": "Eu", "xyz": [1.4116723096834287, 1.1801207709825021, 0.8393591314061359]}, {"species": [{"element": "Eu", "occu": 1}], "abc": [0.749999, 0.64022917, 0.31711578], "properties": {"magmom": 6.822}, "label": "Eu", "xyz": [2.448223433839143, 3.540367927068913, 3.832511333087177]}, {"species": [{"element": "Eu", "occu": 1}], "abc": [0.75, 0.85976759, 0.81710849], "properties": {"magmom": 6.822}, "label": "Eu", "xyz": [6.308243700080693, 3.540359099967815, 5.1467546210043045]}, {"species": [{"element": "Au", "occu": 1}], "abc": [0.25, 0.85611543, 0.5397772200000001], "properties": {"magmom": 0.005}, "label": "Au", "xyz": [4.1672263934853015, 1.1801181736339565, 5.124848358268687]}, {"species": [{"element": "Au", "occu": 1}], "abc": [0.25, 0.64390092, 0.03978741], "properties": {"magmom": 0.005}, "label": "Au", "xyz": [0.30722932438069084, 1.1801318137877017, 3.8544465353616237]}, {"species": [{"element": "Au", "occu": 1}], "abc": [0.75, 0.14388175, 0.46020342000000003], "properties": {"magmom": 0.005}, "label": "Au", "xyz": [3.5528201649782023, 3.5403616969624747, 0.8613591982878276]}, {"species": [{"element": "Au", "occu": 1}], "abc": [0.75, 0.35611978, 0.96023828], "properties": {"magmom": 0.005}, "label": "Au", "xyz": [7.4131650273925915, 3.540348055635375, 2.1319018199665174]}]}, "task_ids": null, "uncorrected_energy_per_atom": null, "energy_per_atom": -7.586372560000001, "formation_energy_per_atom": -0.8053756025000031, "energy_above_hull": 0.0, "is_stable": true, "equilibrium_reaction_energy_per_atom": null, "decomposes_to": null, "xas": null, "grain_boundaries": null, "band_gap": 0.0, "cbm": null, "vbm": null, "efermi": 3.47549764, "is_gap_direct": null, "is_metal": null, "es_source_calc_id": null, "bandstructure": null, "dos": null, "dos_energy_up": null, "dos_energy_down": null, "is_magnetic": null, "ordering": null, "total_magnetization": 29.0682353, "total_magnetization_normalized_vol": null, "total_magnetization_normalized_formula_units": null, "num_magnetic_sites": null, "num_unique_magnetic_sites": null, "types_of_magnetic_species": null, "bulk_modulus": null, "shear_modulus": null, "universal_anisotropy": null, "homogeneous_poisson": null, "e_total": null, "e_ionic": null, "e_electronic": null, "n": null, "e_ij_max": null, "weighted_surface_energy_EV_PER_ANG2": null, "weighted_surface_energy": null, "weighted_work_function": null, "surface_anisotropy": null, "shape_factor": null, "has_reconstructed": null, "possible_species": null, "has_props": null, "theoretical": null, "database_IDs": null, "fields_not_requested": ["builder_meta", "nsites", "elements", "nelements", "composition", "composition_reduced", "chemsys", "symmetry", "property_name", "deprecated", "deprecation_reasons", "last_updated", "origins", "warnings", "task_ids", "uncorrected_energy_per_atom", "equilibrium_reaction_energy_per_atom", "decomposes_to", "xas", "grain_boundaries", "cbm", "vbm", "is_gap_direct", "is_metal", "es_source_calc_id", "bandstructure", "dos", "dos_energy_up", "dos_energy_down", "is_magnetic", "ordering", "total_magnetization_normalized_vol", "total_magnetization_normalized_formula_units", "num_magnetic_sites", "num_unique_magnetic_sites", "types_of_magnetic_species", "bulk_modulus", "shear_modulus", "universal_anisotropy", "homogeneous_poisson", "e_total", "e_ionic", "e_electronic", "n", "e_ij_max", "weighted_surface_energy_EV_PER_ANG2", "weighted_surface_energy", "weighted_work_function", "surface_anisotropy", "shape_factor", "has_reconstructed", "possible_species", "has_props", "theoretical", "database_IDs"]}