{"builder_meta": null, "nsites": null, "elements": null, "nelements": null, "composition": null, "composition_reduced": null, "formula_pretty": "EuAu3", "formula_anonymous": "AB3", "chemsys": null, "volume": 174.31536441711265, "density": 14.153132292814654, "density_atomic": 21.78942055213908, "symmetry": null, "property_name": null, "material_id": "mp-1184419", "deprecated": null, "deprecation_reasons": null, "last_updated": null, "origins": null, "warnings": null, "structure": {"@module": "pymatgen.core.structure", "@class": "Structure", "charge": 0, "lattice": {"matrix": [[3.24191999, -5.61517964, 0.0], [3.24192213, 5.61518071, -0.0], [-0.0, -0.0, 4.78783903]], "pbc": [true, true, true], "a": 6.4838482100549, "b": 6.483850206701249, "c": 4.78783903, "alpha": 90.0, "beta": 90.0, "gamma": 120.00007232790699, "volume": 174.31536441711265}, "properties": {}, "sites": [{"species": [{"element": "Eu", "occu": 1}], "abc": [0.333333, 0.666667, 0.75], "properties": {"magmom": 6.665}, "label": "Eu", "xyz": [3.24192141666738, 1.8717310034534498, 3.5908792724999996]}, {"species": [{"element": "Eu", "occu": 1}], "abc": [0.666667, 0.333333, 0.25], "properties": {"magmom": 6.665}, "label": "Eu", "xyz": [3.24192070333262, -1.8717299334534505, 1.1969597575]}, {"species": [{"element": "Au", "occu": 1}], "abc": [0.15143086, 0.30286173, 0.25], "properties": {"magmom": 0.001}, "label": "Au", "xyz": [1.4727808769539763, 0.8503118621535377, 1.1969597575]}, {"species": [{"element": "Au", "occu": 1}], "abc": [0.69713927, 0.84856914, 0.25], "properties": {"magmom": 0.001}, "label": "Au", "xyz": [5.011064809028076, 0.850306830880827, 1.1969597575]}, {"species": [{"element": "Au", "occu": 1}], "abc": [0.15143086, 0.84856914, 0.25], "properties": {"magmom": 0.001}, "label": "Au", "xyz": [3.24192180593796, 3.914557584089599, 1.1969597575]}, {"species": [{"element": "Au", "occu": 1}], "abc": [0.84856385, 0.69712871, 0.75], "properties": {"magmom": 0.001}, "label": "Au", "xyz": [5.011013100513713, -0.8503347689808298, 3.5908792724999996]}, {"species": [{"element": "Au", "occu": 1}], "abc": [0.30287129, 0.15143615, 0.75], "properties": {"magmom": 0.001}, "label": "Au", "xyz": [1.4728286954150867, -0.8503353528718693, 3.5908792724999996]}, {"species": [{"element": "Au", "occu": 1}], "abc": [0.84856485, 0.15143515, 0.75], "properties": {"magmom": 0.001}, "label": "Au", "xyz": [3.241920314071221, -3.9145083358436974, 3.5908792724999996]}]}, "task_ids": null, "uncorrected_energy_per_atom": null, "energy_per_atom": -5.575321728749998, "formation_energy_per_atom": -0.547882249999998, "energy_above_hull": 0.038978152916671005, "is_stable": false, "equilibrium_reaction_energy_per_atom": null, "decomposes_to": null, "xas": null, "grain_boundaries": null, "band_gap": 0.0, "cbm": null, "vbm": null, "efermi": 3.63080637, "is_gap_direct": null, "is_metal": null, "es_source_calc_id": null, "bandstructure": null, "dos": null, "dos_energy_up": null, "dos_energy_down": null, "is_magnetic": null, "ordering": null, "total_magnetization": 13.8786324, "total_magnetization_normalized_vol": null, "total_magnetization_normalized_formula_units": null, "num_magnetic_sites": null, "num_unique_magnetic_sites": null, "types_of_magnetic_species": null, "bulk_modulus": null, "shear_modulus": null, "universal_anisotropy": null, "homogeneous_poisson": null, "e_total": null, "e_ionic": null, "e_electronic": null, "n": null, "e_ij_max": null, "weighted_surface_energy_EV_PER_ANG2": null, "weighted_surface_energy": null, "weighted_work_function": null, "surface_anisotropy": null, "shape_factor": null, "has_reconstructed": null, "possible_species": null, "has_props": null, "theoretical": null, "database_IDs": null, "fields_not_requested": ["builder_meta", "nsites", "elements", "nelements", "composition", "composition_reduced", "chemsys", "symmetry", "property_name", "deprecated", "deprecation_reasons", "last_updated", "origins", "warnings", "task_ids", "uncorrected_energy_per_atom", "equilibrium_reaction_energy_per_atom", "decomposes_to", "xas", "grain_boundaries", "cbm", "vbm", "is_gap_direct", "is_metal", "es_source_calc_id", "bandstructure", "dos", "dos_energy_up", "dos_energy_down", "is_magnetic", "ordering", "total_magnetization_normalized_vol", "total_magnetization_normalized_formula_units", "num_magnetic_sites", "num_unique_magnetic_sites", "types_of_magnetic_species", "bulk_modulus", "shear_modulus", "universal_anisotropy", "homogeneous_poisson", "e_total", "e_ionic", "e_electronic", "n", "e_ij_max", "weighted_surface_energy_EV_PER_ANG2", "weighted_surface_energy", "weighted_work_function", "surface_anisotropy", "shape_factor", "has_reconstructed", "possible_species", "has_props", "theoretical", "database_IDs"]}