{
  "builder_meta": null,
  "nsites": null,
  "elements": null,
  "nelements": null,
  "composition": null,
  "composition_reduced": null,
  "formula_pretty": "EuAu5",
  "formula_anonymous": "AB5",
  "chemsys": null,
  "volume": 126.4517118076028,
  "density": 14.928193101745169,
  "density_atomic": 21.075285301267133,
  "symmetry": null,
  "property_name": null,
  "material_id": "mp-510098",
  "deprecated": null,
  "deprecation_reasons": null,
  "last_updated": null,
  "origins": null,
  "warnings": null,
  "structure": {
    "@module": "pymatgen.core.structure",
    "@class": "Structure",
    "charge": 0,
    "lattice": {
      "matrix": [
        [5.59156007, 1.02e-6, 0.0],
        [-2.79578002, 4.84243705, 0.0],
        [0.0, 0.0, 4.67011622]
      ],
      "pbc": [true, true, true],
      "a": 5.591560070000093,
      "b": 5.591563511527335,
      "c": 4.67011622,
      "alpha": 90.0,
      "beta": 90.0,
      "gamma": 119.99996901064993,
      "volume": 126.4517118076028
    },
    "properties": {},
    "sites": [
      {
        "species": [{ "element": "Eu", "occu": 1 }],
        "abc": [-0.0, -0.0, -0.0],
        "properties": { "magmom": 6.7780000000000005 },
        "label": "Eu",
        "xyz": [0.0, 0.0, 0.0]
      },
      {
        "species": [{ "element": "Au", "occu": 1 }],
        "abc": [0.333333, 0.666667, -0.0],
        "properties": { "magmom": 0.004 },
        "label": "Au",
        "xyz": [-2.785780030212237e-6, 3.22829332081201, 0.0]
      },
      {
        "species": [{ "element": "Au", "occu": 1 }],
        "abc": [0.666667, 0.333333, 0.0],
        "properties": { "magmom": 0.004 },
        "label": "Au",
        "xyz": [2.79578283578003, 1.61414474918799, 0.0]
      },
      {
        "species": [{ "element": "Au", "occu": 1 }],
        "abc": [0.5, -0.0, 0.5],
        "properties": { "magmom": 0.008 },
        "label": "Au",
        "xyz": [2.795780035, 5.1e-7, 2.33505811]
      },
      {
        "species": [{ "element": "Au", "occu": 1 }],
        "abc": [0.5, 0.5, 0.5],
        "properties": { "magmom": 0.008 },
        "label": "Au",
        "xyz": [1.397890025, 2.421219035, 2.33505811]
      },
      {
        "species": [{ "element": "Au", "occu": 1 }],
        "abc": [-0.0, 0.5, 0.5],
        "properties": { "magmom": 0.008 },
        "label": "Au",
        "xyz": [-1.39789001, 2.421218525, 2.33505811]
      }
    ]
  },
  "task_ids": null,
  "uncorrected_energy_per_atom": null,
  "energy_per_atom": -4.872917221666673,
  "formation_energy_per_atom": -0.42999690250000605,
  "energy_above_hull": 0.0,
  "is_stable": true,
  "equilibrium_reaction_energy_per_atom": null,
  "decomposes_to": null,
  "xas": null,
  "grain_boundaries": null,
  "band_gap": 0.0,
  "cbm": null,
  "vbm": null,
  "efermi": 4.88953143,
  "is_gap_direct": null,
  "is_metal": null,
  "es_source_calc_id": null,
  "bandstructure": null,
  "dos": null,
  "dos_energy_up": null,
  "dos_energy_down": null,
  "is_magnetic": null,
  "ordering": null,
  "total_magnetization": 7.1244371,
  "total_magnetization_normalized_vol": null,
  "total_magnetization_normalized_formula_units": null,
  "num_magnetic_sites": null,
  "num_unique_magnetic_sites": null,
  "types_of_magnetic_species": null,
  "bulk_modulus": null,
  "shear_modulus": null,
  "universal_anisotropy": null,
  "homogeneous_poisson": null,
  "e_total": null,
  "e_ionic": null,
  "e_electronic": null,
  "n": null,
  "e_ij_max": null,
  "weighted_surface_energy_EV_PER_ANG2": null,
  "weighted_surface_energy": null,
  "weighted_work_function": null,
  "surface_anisotropy": null,
  "shape_factor": null,
  "has_reconstructed": null,
  "possible_species": null,
  "has_props": null,
  "theoretical": null,
  "database_IDs": null,
  "fields_not_requested": [
    "builder_meta",
    "nsites",
    "elements",
    "nelements",
    "composition",
    "composition_reduced",
    "chemsys",
    "symmetry",
    "property_name",
    "deprecated",
    "deprecation_reasons",
    "last_updated",
    "origins",
    "warnings",
    "task_ids",
    "uncorrected_energy_per_atom",
    "equilibrium_reaction_energy_per_atom",
    "decomposes_to",
    "xas",
    "grain_boundaries",
    "cbm",
    "vbm",
    "is_gap_direct",
    "is_metal",
    "es_source_calc_id",
    "bandstructure",
    "dos",
    "dos_energy_up",
    "dos_energy_down",
    "is_magnetic",
    "ordering",
    "total_magnetization_normalized_vol",
    "total_magnetization_normalized_formula_units",
    "num_magnetic_sites",
    "num_unique_magnetic_sites",
    "types_of_magnetic_species",
    "bulk_modulus",
    "shear_modulus",
    "universal_anisotropy",
    "homogeneous_poisson",
    "e_total",
    "e_ionic",
    "e_electronic",
    "n",
    "e_ij_max",
    "weighted_surface_energy_EV_PER_ANG2",
    "weighted_surface_energy",
    "weighted_work_function",
    "surface_anisotropy",
    "shape_factor",
    "has_reconstructed",
    "possible_species",
    "has_props",
    "theoretical",
    "database_IDs"
  ]
}
