{"builder_meta": null, "nsites": null, "elements": null, "nelements": null, "composition": null, "composition_reduced": null, "formula_pretty": "EuBi2", "formula_anonymous": "AB2", "chemsys": null, "volume": 193.0183684055891, "density": 9.806138174741589, "density_atomic": 32.16972806759818, "symmetry": null, "property_name": null, "material_id": "mp-1077479", "deprecated": null, "deprecation_reasons": null, "last_updated": null, "origins": null, "warnings": null, "structure": {"@module": "pymatgen.core.structure", "@class": "Structure", "charge": 0, "lattice": {"matrix": [[-4.83475478, -2e-08, 0.0], [0.0, 0.0, -4.58797282], [2.41737633, -8.70168488, 0.0]], "pbc": [true, true, true], "a": 4.83475478, "b": 4.58797282, "c": 9.031225170023438, "alpha": 90.0, "beta": 105.5255878484447, "gamma": 90.0, "volume": 193.0183684055891}, "properties": {}, "sites": [{"species": [{"element": "Eu", "occu": 1}], "abc": [0.89796566, 0.75, 0.79592832], "properties": {"magmom": 6.745}, "label": "Eu", "xyz": [-2.417385485816189, -6.925917445667115, -3.440979615]}, {"species": [{"element": "Eu", "occu": 1}], "abc": [0.10201589999999901, 0.25, 0.20403279], "properties": {"magmom": 6.745}, "label": "Eu", "xyz": [2.176928863562022e-06, -1.775429045807533, -1.146993205]}, {"species": [{"element": "Bi", "occu": 1}], "abc": [0.56314359, 0.75, 0.12628519], "properties": {"magmom": -0.04}, "label": "Bi", "xyz": [-2.4173823344433076, -1.098893939653799, -3.440979615]}, {"species": [{"element": "Bi", "occu": 1}], "abc": [0.43689245, 0.25, 0.8737859], "properties": {"magmom": -0.04}, "label": "Bi", "xyz": [1.4911643364534655e-06, -7.603409563125041, -1.146993205]}, {"species": [{"element": "Bi", "occu": 1}], "abc": [0.25383432, 0.75, 0.50766963], "properties": {"magmom": -0.054}, "label": "Bi", "xyz": [1.855073808343377e-06, -4.417581148482881, -3.440979615]}, {"species": [{"element": "Bi", "occu": 1}], "abc": [0.74614708, 0.25, 0.49229517], "properties": {"magmom": -0.054}, "label": "Bi", "xyz": [-2.417375470281716, -4.2837974522089715, -1.146993205]}]}, "task_ids": null, "uncorrected_energy_per_atom": null, "energy_per_atom": -52.55788493, "formation_energy_per_atom": -0.716074861666669, "energy_above_hull": 0.0, "is_stable": true, "equilibrium_reaction_energy_per_atom": null, "decomposes_to": null, "xas": null, "grain_boundaries": null, "band_gap": 0.0, "cbm": null, "vbm": null, "efermi": 5.07236888, "is_gap_direct": null, "is_metal": null, "es_source_calc_id": null, "bandstructure": null, "dos": null, "dos_energy_up": null, "dos_energy_down": null, "is_magnetic": null, "ordering": null, "total_magnetization": 13.7728651, "total_magnetization_normalized_vol": null, "total_magnetization_normalized_formula_units": null, "num_magnetic_sites": null, "num_unique_magnetic_sites": null, "types_of_magnetic_species": null, "bulk_modulus": null, "shear_modulus": null, "universal_anisotropy": null, "homogeneous_poisson": null, "e_total": null, "e_ionic": null, "e_electronic": null, "n": null, "e_ij_max": null, "weighted_surface_energy_EV_PER_ANG2": null, "weighted_surface_energy": null, "weighted_work_function": null, "surface_anisotropy": null, "shape_factor": null, "has_reconstructed": null, "possible_species": null, "has_props": null, "theoretical": null, "database_IDs": null, "fields_not_requested": ["builder_meta", "nsites", "elements", "nelements", "composition", "composition_reduced", "chemsys", "symmetry", "property_name", "deprecated", "deprecation_reasons", "last_updated", "origins", "warnings", "task_ids", "uncorrected_energy_per_atom", "equilibrium_reaction_energy_per_atom", "decomposes_to", "xas", "grain_boundaries", "cbm", "vbm", "is_gap_direct", "is_metal", "es_source_calc_id", "bandstructure", "dos", "dos_energy_up", "dos_energy_down", "is_magnetic", "ordering", "total_magnetization_normalized_vol", "total_magnetization_normalized_formula_units", "num_magnetic_sites", "num_unique_magnetic_sites", "types_of_magnetic_species", "bulk_modulus", "shear_modulus", "universal_anisotropy", "homogeneous_poisson", "e_total", "e_ionic", "e_electronic", "n", "e_ij_max", "weighted_surface_energy_EV_PER_ANG2", "weighted_surface_energy", "weighted_work_function", "surface_anisotropy", "shape_factor", "has_reconstructed", "possible_species", "has_props", "theoretical", "database_IDs"]}