{"builder_meta": null, "nsites": null, "elements": null, "nelements": null, "composition": null, "composition_reduced": null, "formula_pretty": "EuBi3", "formula_anonymous": "AB3", "chemsys": null, "volume": 124.95979996224067, "density": 10.350548849859843, "density_atomic": 31.239949990560167, "symmetry": null, "property_name": null, "material_id": "mp-865246", "deprecated": null, "deprecation_reasons": null, "last_updated": null, "origins": null, "warnings": null, "structure": {"@module": "pymatgen.core.structure", "@class": "Structure", "charge": 0, "lattice": {"matrix": [[4.99963097, 0.00606943, -0.00454854], [0.0060320700000000005, 4.9996134, 0.00605685], [-0.00450405, 0.00614604, 4.99916635]], "pbc": [true, true, true], "a": 4.999636723140972, "b": 4.999620707689731, "c": 4.999172156992237, "alpha": 89.86021057901337, "beta": 90.1036617983722, "gamma": 89.8613799222417, "volume": 124.95979996224067}, "properties": {}, "sites": [{"species": [{"element": "Eu", "occu": 1}], "abc": [0.99999081, 0.99999097, 0.99999863], "properties": {"magmom": 6.761}, "label": "Eu", "xyz": [5.001112995092342, 5.011783659292862, 5.000667798249828]}, {"species": [{"element": "Bi", "occu": 1}], "abc": [5.28e-06, 0.50000457, 0.5000009], "properties": {"magmom": -0.008}, "label": "Bi", "xyz": [0.0007904315644365, 2.5029026058112644, 2.5026161029132283]}, {"species": [{"element": "Bi", "occu": 1}], "abc": [0.5000043200000001, 7.509999999999997e-06, 0.5000007], "properties": {"magmom": -0.008}, "label": "Bi", "xyz": [2.4975851005538012, 0.0061453126187996, 2.4973124302536953]}, {"species": [{"element": "Bi", "occu": 1}], "abc": [0.50000159, 0.49999895, 3.77e-06], "properties": {"magmom": -0.008}, "label": "Bi", "xyz": [2.5028394460993004, 2.5028361982268947, 0.0007729882652683999]}]}, "task_ids": null, "uncorrected_energy_per_atom": null, "energy_per_atom": -54.0031392375, "formation_energy_per_atom": -0.49621325000000305, "energy_above_hull": 0.040842896249998005, "is_stable": false, "equilibrium_reaction_energy_per_atom": null, "decomposes_to": null, "xas": null, "grain_boundaries": null, "band_gap": 0.0, "cbm": null, "vbm": null, "efermi": 5.3508402, "is_gap_direct": null, "is_metal": null, "es_source_calc_id": null, "bandstructure": null, "dos": null, "dos_energy_up": null, "dos_energy_down": null, "is_magnetic": null, "ordering": null, "total_magnetization": 6.9869243, "total_magnetization_normalized_vol": null, "total_magnetization_normalized_formula_units": null, "num_magnetic_sites": null, "num_unique_magnetic_sites": null, "types_of_magnetic_species": null, "bulk_modulus": null, "shear_modulus": null, "universal_anisotropy": null, "homogeneous_poisson": null, "e_total": null, "e_ionic": null, "e_electronic": null, "n": null, "e_ij_max": null, "weighted_surface_energy_EV_PER_ANG2": null, "weighted_surface_energy": null, "weighted_work_function": null, "surface_anisotropy": null, "shape_factor": null, "has_reconstructed": null, "possible_species": null, "has_props": null, "theoretical": null, "database_IDs": null, "fields_not_requested": ["builder_meta", "nsites", "elements", "nelements", "composition", "composition_reduced", "chemsys", "symmetry", "property_name", "deprecated", "deprecation_reasons", "last_updated", "origins", "warnings", "task_ids", "uncorrected_energy_per_atom", "equilibrium_reaction_energy_per_atom", "decomposes_to", "xas", "grain_boundaries", "cbm", "vbm", "is_gap_direct", "is_metal", "es_source_calc_id", "bandstructure", "dos", "dos_energy_up", "dos_energy_down", "is_magnetic", "ordering", "total_magnetization_normalized_vol", "total_magnetization_normalized_formula_units", "num_magnetic_sites", "num_unique_magnetic_sites", "types_of_magnetic_species", "bulk_modulus", "shear_modulus", "universal_anisotropy", "homogeneous_poisson", "e_total", "e_ionic", "e_electronic", "n", "e_ij_max", "weighted_surface_energy_EV_PER_ANG2", "weighted_surface_energy", "weighted_work_function", "surface_anisotropy", "shape_factor", "has_reconstructed", "possible_species", "has_props", "theoretical", "database_IDs"]}