{
  "builder_meta": null,
  "nsites": null,
  "elements": null,
  "nelements": null,
  "composition": null,
  "composition_reduced": null,
  "formula_pretty": "EuBr2",
  "formula_anonymous": "AB2",
  "chemsys": null,
  "volume": 949.5815900272147,
  "density": 5.451975810284797,
  "density_atomic": 31.652719667573823,
  "symmetry": null,
  "property_name": null,
  "material_id": "mp-23311",
  "deprecated": null,
  "deprecation_reasons": null,
  "last_updated": null,
  "origins": null,
  "warnings": null,
  "structure": {
    "@module": "pymatgen.core.structure",
    "@class": "Structure",
    "charge": 0,
    "lattice": {
      "matrix": [
        [7.1218801, 0.0, 0.0],
        [-0.0, 11.54699065, -3.5e-6],
        [-0.0, 3.5e-6, 11.54699065]
      ],
      "pbc": [true, true, true],
      "a": 7.1218801,
      "b": 11.54699065000053,
      "c": 11.54699065000053,
      "alpha": 90.0,
      "beta": 90.0,
      "gamma": 90.0,
      "volume": 949.5815900272147
    },
    "properties": {},
    "sites": [
      {
        "species": [{ "element": "Eu", "occu": 1 }],
        "abc": [0.14852538, 0.75, 0.75],
        "properties": { "magmom": 6.831 },
        "label": "Eu",
        "xyz": [1.057779948166938, 8.6602456125, 8.6602403625]
      },
      {
        "species": [{ "element": "Eu", "occu": 1 }],
        "abc": [0.8514746200000001, 0.25, 0.25],
        "properties": { "magmom": 6.831 },
        "label": "Eu",
        "xyz": [6.064100151833062, 2.8867485375, 2.8867467875]
      },
      {
        "species": [{ "element": "Eu", "occu": 1 }],
        "abc": [0.75150154, 0.60273374, 0.08671271],
        "properties": { "magmom": 6.837 },
        "label": "Eu",
        "xyz": [5.352103862845355, 6.959761163714016, 1.0012687420380715]
      },
      {
        "species": [{ "element": "Eu", "occu": 1 }],
        "abc": [0.75150154, 0.41328729000000003, 0.60273374],
        "properties": { "magmom": 6.837 },
        "label": "Eu",
        "xyz": [5.352103862845355, 4.772226582961928, 6.959759413714016]
      },
      {
        "species": [{ "element": "Eu", "occu": 1 }],
        "abc": [0.75150154, 0.08671271, 0.89726626],
        "properties": { "magmom": 6.837 },
        "label": "Eu",
        "xyz": [5.352103862845355, 1.0012739920380715, 10.360724811285984]
      },
      {
        "species": [{ "element": "Eu", "occu": 1 }],
        "abc": [0.75150154, 0.89726626, 0.41328729000000003],
        "properties": { "magmom": 6.837 },
        "label": "Eu",
        "xyz": [5.352103862845355, 10.360726561285983, 4.772221332961928]
      },
      {
        "species": [{ "element": "Eu", "occu": 1 }],
        "abc": [0.24849846, 0.39726626, 0.91328729],
        "properties": { "magmom": 6.837 },
        "label": "Eu",
        "xyz": [1.7697762371546462, 4.587232986285984, 10.545718407961928]
      },
      {
        "species": [{ "element": "Eu", "occu": 1 }],
        "abc": [0.24849846, 0.58671271, 0.39726626],
        "properties": { "magmom": 6.837 },
        "label": "Eu",
        "xyz": [1.7697762371546462, 6.774767567038071, 4.587227736285984]
      },
      {
        "species": [{ "element": "Eu", "occu": 1 }],
        "abc": [0.24849846, 0.91328729, 0.10273374],
        "properties": { "magmom": 6.837 },
        "label": "Eu",
        "xyz": [1.7697762371546462, 10.545720157961929, 1.186262338714016]
      },
      {
        "species": [{ "element": "Eu", "occu": 1 }],
        "abc": [0.24849846, 0.10273374, 0.58671271],
        "properties": { "magmom": 6.837 },
        "label": "Eu",
        "xyz": [1.7697762371546462, 1.186267588714016, 6.774765817038071]
      },
      {
        "species": [{ "element": "Br", "occu": 1 }],
        "abc": [0.5, 0.75, 0.25],
        "properties": { "magmom": -0.031 },
        "label": "Br",
        "xyz": [3.56094005, 8.6602438625, 2.8867450375]
      },
      {
        "species": [{ "element": "Br", "occu": 1 }],
        "abc": [0.5, 0.25, 0.75],
        "properties": { "magmom": -0.031 },
        "label": "Br",
        "xyz": [3.56094005, 2.8867502875, 8.6602421125]
      },
      {
        "species": [{ "element": "Br", "occu": 1 }],
        "abc": [0.0, 0.75, 0.25],
        "properties": { "magmom": -0.03 },
        "label": "Br",
        "xyz": [0.0, 8.6602438625, 2.8867450375]
      },
      {
        "species": [{ "element": "Br", "occu": 1 }],
        "abc": [0.0, 0.25, 0.75],
        "properties": { "magmom": -0.03 },
        "label": "Br",
        "xyz": [0.0, 2.8867502875, 8.6602421125]
      },
      {
        "species": [{ "element": "Br", "occu": 1 }],
        "abc": [0.9005704, 0.838839, 0.95732089],
        "properties": { "magmom": -0.029 },
        "label": "Br",
        "xyz": [6.41375441040904, 9.686069440478466, 11.054172429943177]
      },
      {
        "species": [{ "element": "Br", "occu": 1 }],
        "abc": [0.9005704, 0.54267911, 0.838839],
        "properties": { "magmom": -0.029 },
        "label": "Br",
        "xyz": [6.41375441040904, 6.266313545056822, 9.686064190478465]
      },
      {
        "species": [{ "element": "Br", "occu": 1 }],
        "abc": [0.9005704, 0.95732089, 0.661161],
        "properties": { "magmom": -0.029 },
        "label": "Br",
        "xyz": [6.41375441040904, 11.054177679943178, 7.6344165345215345]
      },
      {
        "species": [{ "element": "Br", "occu": 1 }],
        "abc": [0.9005704, 0.661161, 0.54267911],
        "properties": { "magmom": -0.029 },
        "label": "Br",
        "xyz": [6.41375441040904, 7.6344217845215345, 6.266308295056822]
      },
      {
        "species": [{ "element": "Br", "occu": 1 }],
        "abc": [0.09942959999999901, 0.161161, 0.04267911],
        "properties": { "magmom": -0.029 },
        "label": "Br",
        "xyz": [0.708125689590953, 1.860924709521535, 0.4928147200568215]
      },
      {
        "species": [{ "element": "Br", "occu": 1 }],
        "abc": [0.09942959999999901, 0.45732089000000004, 0.161161],
        "properties": { "magmom": -0.029 },
        "label": "Br",
        "xyz": [0.708125689590953, 5.2806806049431785, 1.860922959521535]
      },
      {
        "species": [{ "element": "Br", "occu": 1 }],
        "abc": [0.62302071, 0.15334604000000002, 0.45955203],
        "properties": { "magmom": -0.026000000000000002 },
        "label": "Br",
        "xyz": [4.437078796436872, 1.7706868985266313, 5.306442456887379]
      },
      {
        "species": [{ "element": "Br", "occu": 1 }],
        "abc": [0.62302071, 0.04044797, 0.15334604000000002],
        "properties": { "magmom": -0.026000000000000002 },
        "label": "Br",
        "xyz": [4.437078796436872, 0.4670528681126205, 1.7706851485266313]
      },
      {
        "species": [{ "element": "Br", "occu": 1 }],
        "abc": [0.62302071, 0.45955203, 0.34665396],
        "properties": { "magmom": -0.026000000000000002 },
        "label": "Br",
        "xyz": [4.437078796436872, 5.306444206887379, 4.0028084264733685]
      },
      {
        "species": [{ "element": "Br", "occu": 1 }],
        "abc": [0.62302071, 0.34665396, 0.04044797],
        "properties": { "magmom": -0.026000000000000002 },
        "label": "Br",
        "xyz": [4.437078796436872, 4.002810176473369, 0.4670511181126205]
      },
      {
        "species": [{ "element": "Br", "occu": 1 }],
        "abc": [0.37697929, 0.84665396, 0.54044797],
        "properties": { "magmom": -0.026000000000000002 },
        "label": "Br",
        "xyz": [2.684801303563129, 9.77630725147337, 6.2405446931126205]
      },
      {
        "species": [{ "element": "Br", "occu": 1 }],
        "abc": [0.37697929, 0.95955203, 0.84665396],
        "properties": { "magmom": -0.026000000000000002 },
        "label": "Br",
        "xyz": [2.684801303563129, 11.079941281887379, 9.77630200147337]
      },
      {
        "species": [{ "element": "Br", "occu": 1 }],
        "abc": [0.37697929, 0.54044797, 0.65334604],
        "properties": { "magmom": -0.026000000000000002 },
        "label": "Br",
        "xyz": [2.684801303563129, 6.240549943112621, 7.54417872352663]
      },
      {
        "species": [{ "element": "Br", "occu": 1 }],
        "abc": [0.37697929, 0.65334604, 0.95955203],
        "properties": { "magmom": -0.026000000000000002 },
        "label": "Br",
        "xyz": [2.684801303563129, 7.54418397352663, 11.079936031887378]
      },
      {
        "species": [{ "element": "Br", "occu": 1 }],
        "abc": [0.09942959999999901, 0.338839, 0.45732089000000004],
        "properties": { "magmom": -0.029 },
        "label": "Br",
        "xyz": [0.708125689590953, 3.9125723654784648, 5.2806788549431785]
      },
      {
        "species": [{ "element": "Br", "occu": 1 }],
        "abc": [0.09942959999999901, 0.04267911, 0.338839],
        "properties": { "magmom": -0.029 },
        "label": "Br",
        "xyz": [0.708125689590953, 0.4928164700568215, 3.9125706154784647]
      }
    ]
  },
  "task_ids": null,
  "uncorrected_energy_per_atom": null,
  "energy_per_atom": -6.913731128333336,
  "formation_energy_per_atom": -2.393062800000004,
  "energy_above_hull": 0.0,
  "is_stable": true,
  "equilibrium_reaction_energy_per_atom": null,
  "decomposes_to": null,
  "xas": null,
  "grain_boundaries": null,
  "band_gap": 1.045799999999999,
  "cbm": null,
  "vbm": null,
  "efermi": 3.20478735,
  "is_gap_direct": null,
  "is_metal": null,
  "es_source_calc_id": null,
  "bandstructure": null,
  "dos": null,
  "dos_energy_up": null,
  "dos_energy_down": null,
  "is_magnetic": null,
  "ordering": null,
  "total_magnetization": 70.0000028,
  "total_magnetization_normalized_vol": null,
  "total_magnetization_normalized_formula_units": null,
  "num_magnetic_sites": null,
  "num_unique_magnetic_sites": null,
  "types_of_magnetic_species": null,
  "bulk_modulus": null,
  "shear_modulus": null,
  "universal_anisotropy": null,
  "homogeneous_poisson": null,
  "e_total": null,
  "e_ionic": null,
  "e_electronic": null,
  "n": null,
  "e_ij_max": null,
  "weighted_surface_energy_EV_PER_ANG2": null,
  "weighted_surface_energy": null,
  "weighted_work_function": null,
  "surface_anisotropy": null,
  "shape_factor": null,
  "has_reconstructed": null,
  "possible_species": null,
  "has_props": null,
  "theoretical": null,
  "database_IDs": null,
  "fields_not_requested": [
    "builder_meta",
    "nsites",
    "elements",
    "nelements",
    "composition",
    "composition_reduced",
    "chemsys",
    "symmetry",
    "property_name",
    "deprecated",
    "deprecation_reasons",
    "last_updated",
    "origins",
    "warnings",
    "task_ids",
    "uncorrected_energy_per_atom",
    "equilibrium_reaction_energy_per_atom",
    "decomposes_to",
    "xas",
    "grain_boundaries",
    "cbm",
    "vbm",
    "is_gap_direct",
    "is_metal",
    "es_source_calc_id",
    "bandstructure",
    "dos",
    "dos_energy_up",
    "dos_energy_down",
    "is_magnetic",
    "ordering",
    "total_magnetization_normalized_vol",
    "total_magnetization_normalized_formula_units",
    "num_magnetic_sites",
    "num_unique_magnetic_sites",
    "types_of_magnetic_species",
    "bulk_modulus",
    "shear_modulus",
    "universal_anisotropy",
    "homogeneous_poisson",
    "e_total",
    "e_ionic",
    "e_electronic",
    "n",
    "e_ij_max",
    "weighted_surface_energy_EV_PER_ANG2",
    "weighted_surface_energy",
    "weighted_work_function",
    "surface_anisotropy",
    "shape_factor",
    "has_reconstructed",
    "possible_species",
    "has_props",
    "theoretical",
    "database_IDs"
  ]
}
