{
  "builder_meta": null,
  "nsites": null,
  "elements": null,
  "nelements": null,
  "composition": null,
  "composition_reduced": null,
  "formula_pretty": "EuBr3",
  "formula_anonymous": "AB3",
  "chemsys": null,
  "volume": 251.96612876348502,
  "density": 5.162545478961033,
  "density_atomic": 31.495766095435627,
  "symmetry": null,
  "property_name": null,
  "material_id": "mp-1205810",
  "deprecated": null,
  "deprecation_reasons": null,
  "last_updated": null,
  "origins": null,
  "warnings": null,
  "structure": {
    "@module": "pymatgen.core.structure",
    "@class": "Structure",
    "charge": 0,
    "lattice": {
      "matrix": [
        [2.05898232, -6.70550809, -0.0],
        [2.05898232, 6.70550809, 0.0],
        [0.0, -0.0, 9.12489466]
      ],
      "pbc": [true, true, true],
      "a": 7.014502615234243,
      "b": 7.014502615234243,
      "c": 9.12489466,
      "alpha": 90.0,
      "beta": 90.0,
      "gamma": 145.860916075033,
      "volume": 251.96612876348502
    },
    "properties": {},
    "sites": [
      {
        "species": [{ "element": "Eu", "occu": 1 }],
        "abc": [0.25448997, 0.74551003, 0.25],
        "properties": { "magmom": -6.377 },
        "label": "Eu",
        "xyz": [2.05898232, 3.292538984682286, 2.281223665]
      },
      {
        "species": [{ "element": "Eu", "occu": 1 }],
        "abc": [0.74551003, 0.25448997, 0.75],
        "properties": { "magmom": -6.377 },
        "label": "Eu",
        "xyz": [2.05898232, -3.292538984682286, 6.843670995]
      },
      {
        "species": [{ "element": "Br", "occu": 1 }],
        "abc": [0.64555164, 0.35444836, 0.06588103000000001],
        "properties": { "magmom": 0.117 },
        "label": "Br",
        "xyz": [2.05898232, -1.951995399065535, 0.6011574588422999]
      },
      {
        "species": [{ "element": "Br", "occu": 1 }],
        "abc": [0.35444836, 0.64555164, 0.93411897],
        "properties": { "magmom": 0.117 },
        "label": "Br",
        "xyz": [2.05898232, 1.951995399065535, 8.5237372011577]
      },
      {
        "species": [{ "element": "Br", "occu": 1 }],
        "abc": [0.35444836, 0.64555164, 0.56588103],
        "properties": { "magmom": 0.117 },
        "label": "Br",
        "xyz": [2.05898232, 1.951995399065535, 5.1636047888423]
      },
      {
        "species": [{ "element": "Br", "occu": 1 }],
        "abc": [0.64555164, 0.35444836, 0.43411897],
        "properties": { "magmom": 0.117 },
        "label": "Br",
        "xyz": [2.05898232, -1.951995399065535, 3.9612898711577005]
      },
      {
        "species": [{ "element": "Br", "occu": 1 }],
        "abc": [0.90929804, 0.09070196, 0.25],
        "properties": { "magmom": 0.181 },
        "label": "Br",
        "xyz": [2.05898232, -5.489102636882288, 2.281223665]
      },
      {
        "species": [{ "element": "Br", "occu": 1 }],
        "abc": [0.09070196, 0.90929804, 0.75],
        "properties": { "magmom": 0.181 },
        "label": "Br",
        "xyz": [2.05898232, 5.489102636882288, 6.843670995]
      }
    ]
  },
  "task_ids": null,
  "uncorrected_energy_per_atom": null,
  "energy_per_atom": -5.757277468750001,
  "formation_energy_per_atom": -1.9575395887500022,
  "energy_above_hull": 0.0,
  "is_stable": true,
  "equilibrium_reaction_energy_per_atom": null,
  "decomposes_to": null,
  "xas": null,
  "grain_boundaries": null,
  "band_gap": 0.0,
  "cbm": null,
  "vbm": null,
  "efermi": 0.49028099,
  "is_gap_direct": null,
  "is_metal": null,
  "es_source_calc_id": null,
  "bandstructure": null,
  "dos": null,
  "dos_energy_up": null,
  "dos_energy_down": null,
  "is_magnetic": null,
  "ordering": null,
  "total_magnetization": 12.0586824,
  "total_magnetization_normalized_vol": null,
  "total_magnetization_normalized_formula_units": null,
  "num_magnetic_sites": null,
  "num_unique_magnetic_sites": null,
  "types_of_magnetic_species": null,
  "bulk_modulus": null,
  "shear_modulus": null,
  "universal_anisotropy": null,
  "homogeneous_poisson": null,
  "e_total": null,
  "e_ionic": null,
  "e_electronic": null,
  "n": null,
  "e_ij_max": null,
  "weighted_surface_energy_EV_PER_ANG2": null,
  "weighted_surface_energy": null,
  "weighted_work_function": null,
  "surface_anisotropy": null,
  "shape_factor": null,
  "has_reconstructed": null,
  "possible_species": null,
  "has_props": null,
  "theoretical": null,
  "database_IDs": null,
  "fields_not_requested": [
    "builder_meta",
    "nsites",
    "elements",
    "nelements",
    "composition",
    "composition_reduced",
    "chemsys",
    "symmetry",
    "property_name",
    "deprecated",
    "deprecation_reasons",
    "last_updated",
    "origins",
    "warnings",
    "task_ids",
    "uncorrected_energy_per_atom",
    "equilibrium_reaction_energy_per_atom",
    "decomposes_to",
    "xas",
    "grain_boundaries",
    "cbm",
    "vbm",
    "is_gap_direct",
    "is_metal",
    "es_source_calc_id",
    "bandstructure",
    "dos",
    "dos_energy_up",
    "dos_energy_down",
    "is_magnetic",
    "ordering",
    "total_magnetization_normalized_vol",
    "total_magnetization_normalized_formula_units",
    "num_magnetic_sites",
    "num_unique_magnetic_sites",
    "types_of_magnetic_species",
    "bulk_modulus",
    "shear_modulus",
    "universal_anisotropy",
    "homogeneous_poisson",
    "e_total",
    "e_ionic",
    "e_electronic",
    "n",
    "e_ij_max",
    "weighted_surface_energy_EV_PER_ANG2",
    "weighted_surface_energy",
    "weighted_work_function",
    "surface_anisotropy",
    "shape_factor",
    "has_reconstructed",
    "possible_species",
    "has_props",
    "theoretical",
    "database_IDs"
  ]
}
