{
  "builder_meta": null,
  "nsites": null,
  "elements": null,
  "nelements": null,
  "composition": null,
  "composition_reduced": null,
  "formula_pretty": "EuC2",
  "formula_anonymous": "AB2",
  "chemsys": null,
  "volume": 103.21622545426112,
  "density": 5.6624940616671875,
  "density_atomic": 17.202704242376853,
  "symmetry": null,
  "property_name": null,
  "material_id": "mp-1077301",
  "deprecated": null,
  "deprecation_reasons": null,
  "last_updated": null,
  "origins": null,
  "warnings": null,
  "structure": {
    "@module": "pymatgen.core.structure",
    "@class": "Structure",
    "charge": 0,
    "lattice": {
      "matrix": [
        [2.14873884, 3.40862854, -0.02855016],
        [-2.14874096, 3.4086286, -0.02855232],
        [3.22e-6, 2.01646032, 7.02930141]
      ],
      "pbc": [true, true, true],
      "a": 4.029471707043382,
      "b": 4.02947290360626,
      "c": 7.312810029993455,
      "alpha": 76.91203261059223,
      "beta": 76.91197096225848,
      "gamma": 64.45141662301388,
      "volume": 103.21622545426112
    },
    "properties": {},
    "sites": [
      {
        "species": [{ "element": "Eu", "occu": 1 }],
        "abc": [0.18026525000000002, 0.8197347500000001, 0.75],
        "properties": { "magmom": 6.662 },
        "label": "Eu",
        "xyz": [-1.3740522744830501, 4.920973829184085, 5.24342412687294]
      },
      {
        "species": [{ "element": "Eu", "occu": 1 }],
        "abc": [0.8197347500000001, 0.18026525000000002, 0.25],
        "properties": { "magmom": 6.662 },
        "label": "Eu",
        "xyz": [1.37405337448305, 3.9127436308159154, 1.72877480312706]
      },
      {
        "species": [{ "element": "C", "occu": 1 }],
        "abc": [0.8514794800000001, 0.57161024, 0.55531939],
        "properties": { "magmom": -0.017 },
        "label": "C",
        "xyz": [0.6013664824240086, 5.970563783730828, 3.862876697248866]
      },
      {
        "species": [{ "element": "C", "occu": 1 }],
        "abc": [0.42838876000000004, 0.14852052000000002, 0.94468061],
        "properties": { "magmom": -0.017 },
        "label": "C",
        "xyz": [0.6013664843785034, 3.871380410848478, 6.623973570818853]
      },
      {
        "species": [{ "element": "C", "occu": 1 }],
        "abc": [0.14852052000000002, 0.42838976, 0.44468061000000003],
        "properties": { "magmom": -0.017 },
        "label": "C",
        "xyz": [-0.6013653824240086, 2.8631536762691723, 3.109322232751134]
      },
      {
        "species": [{ "element": "C", "occu": 1 }],
        "abc": [0.57161124, 0.8514794800000001, 0.05531939],
        "properties": { "magmom": -0.017 },
        "label": "C",
        "xyz": [-0.6013653843785036, 4.962337049151523, 0.34822535918114794]
      }
    ]
  },
  "task_ids": null,
  "uncorrected_energy_per_atom": null,
  "energy_per_atom": -9.590513276666668,
  "formation_energy_per_atom": -0.008698976666669,
  "energy_above_hull": 0.038362153888886,
  "is_stable": false,
  "equilibrium_reaction_energy_per_atom": null,
  "decomposes_to": null,
  "xas": null,
  "grain_boundaries": null,
  "band_gap": 0.0,
  "cbm": null,
  "vbm": null,
  "efermi": 2.84417689,
  "is_gap_direct": null,
  "is_metal": null,
  "es_source_calc_id": null,
  "bandstructure": null,
  "dos": null,
  "dos_energy_up": null,
  "dos_energy_down": null,
  "is_magnetic": null,
  "ordering": null,
  "total_magnetization": 13.8883462,
  "total_magnetization_normalized_vol": null,
  "total_magnetization_normalized_formula_units": null,
  "num_magnetic_sites": null,
  "num_unique_magnetic_sites": null,
  "types_of_magnetic_species": null,
  "bulk_modulus": null,
  "shear_modulus": null,
  "universal_anisotropy": null,
  "homogeneous_poisson": null,
  "e_total": null,
  "e_ionic": null,
  "e_electronic": null,
  "n": null,
  "e_ij_max": null,
  "weighted_surface_energy_EV_PER_ANG2": null,
  "weighted_surface_energy": null,
  "weighted_work_function": null,
  "surface_anisotropy": null,
  "shape_factor": null,
  "has_reconstructed": null,
  "possible_species": null,
  "has_props": null,
  "theoretical": null,
  "database_IDs": null,
  "fields_not_requested": [
    "builder_meta",
    "nsites",
    "elements",
    "nelements",
    "composition",
    "composition_reduced",
    "chemsys",
    "symmetry",
    "property_name",
    "deprecated",
    "deprecation_reasons",
    "last_updated",
    "origins",
    "warnings",
    "task_ids",
    "uncorrected_energy_per_atom",
    "equilibrium_reaction_energy_per_atom",
    "decomposes_to",
    "xas",
    "grain_boundaries",
    "cbm",
    "vbm",
    "is_gap_direct",
    "is_metal",
    "es_source_calc_id",
    "bandstructure",
    "dos",
    "dos_energy_up",
    "dos_energy_down",
    "is_magnetic",
    "ordering",
    "total_magnetization_normalized_vol",
    "total_magnetization_normalized_formula_units",
    "num_magnetic_sites",
    "num_unique_magnetic_sites",
    "types_of_magnetic_species",
    "bulk_modulus",
    "shear_modulus",
    "universal_anisotropy",
    "homogeneous_poisson",
    "e_total",
    "e_ionic",
    "e_electronic",
    "n",
    "e_ij_max",
    "weighted_surface_energy_EV_PER_ANG2",
    "weighted_surface_energy",
    "weighted_work_function",
    "surface_anisotropy",
    "shape_factor",
    "has_reconstructed",
    "possible_species",
    "has_props",
    "theoretical",
    "database_IDs"
  ]
}
