{"builder_meta": null, "nsites": null, "elements": null, "nelements": null, "composition": null, "composition_reduced": null, "formula_pretty": "EuC6", "formula_anonymous": "AB6", "chemsys": null, "volume": 154.51209501937186, "density": 4.815255117386608, "density_atomic": 11.036578215669419, "symmetry": null, "property_name": null, "material_id": "mp-1103990", "deprecated": null, "deprecation_reasons": null, "last_updated": null, "origins": null, "warnings": null, "structure": {"@module": "pymatgen.core.structure", "@class": "Structure", "charge": 0, "lattice": {"matrix": [[-2.15805203, -3.7378623600000003, -3.5170000000000004e-05], [-2.15805226, 3.73786249, 3.497e-05], [5.5e-07, -8.254e-05, -9.57739145]], "pbc": [true, true, true], "a": 4.316109774754208, "b": 4.316110002335785, "c": 9.57739145035569, "alpha": 90.00089349967269, "beta": 89.99910713563726, "gamma": 120.00008581724859, "volume": 154.51209501937186}, "properties": {}, "sites": [{"species": [{"element": "Eu", "occu": 1}], "abc": [0.66666421, 0.33333581, 0.74999993], "properties": {"magmom": 6.811}, "label": "Eu", "xyz": [-2.1580517373283157, -1.2459975415395907, -7.183054706909589]}, {"species": [{"element": "Eu", "occu": 1}], "abc": [0.3333363, 0.66666376, 0.24999968], "properties": {"magmom": 6.811}, "label": "Eu", "xyz": [-2.1580521753159627, 1.2459116179811076, -2.3943332079407202]}, {"species": [{"element": "C", "occu": 1}], "abc": [0.66657355, 1.99e-06, 0.49997568000000003], "properties": {"magmom": -0.013000000000000001}, "label": "C", "xyz": [-1.4385044222591796, -2.49159401236285, -4.7884862461621]}, {"species": [{"element": "C", "occu": 1}], "abc": [0.33343037000000003, 0.33342978, 0.49997626], "properties": {"magmom": -0.013000000000000001}, "label": "C", "xyz": [-1.4391187021355107, -4.343003342153473e-05, -4.788468424433683]}, {"species": [{"element": "C", "occu": 1}], "abc": [9.699999999999996e-07, 0.66657328, 0.49997681], "properties": {"magmom": -0.013000000000000001}, "label": "C", "xyz": [-1.4385017916828367, 2.4915143663358807, -4.788450315258788]}, {"species": [{"element": "C", "occu": 1}], "abc": [0.333426699999999, -9.4e-07, 0.4999768], "properties": {"magmom": -0.013000000000000001}, "label": "C", "xyz": [-0.7195498632348345, -1.246347893424821, -4.788485256168271]}, {"species": [{"element": "C", "occu": 1}], "abc": [-1.98e-06, 0.33342636000000003, 0.49997558000000003], "properties": {"magmom": -0.013000000000000001}, "label": "C", "xyz": [-0.7195469618119853, 1.2462680172043363, -4.788450185111346]}, {"species": [{"element": "C", "occu": 1}], "abc": [0.6665701900000001, 0.6665696600000001, 0.49997627], "properties": {"magmom": -0.013000000000000001}, "label": "C", "xyz": [-2.876985037890469, -4.316245432116242e-05, -4.788468586833464]}, {"species": [{"element": "C", "occu": 1}], "abc": [0.33342675, -1.8e-07, 2.4340000000000004e-05], "properties": {"magmom": -0.013000000000000001}, "label": "C", "xyz": [-0.7195518862310087, -1.2463039734664019, -0.0002448403329851]}, {"species": [{"element": "C", "occu": 1}], "abc": [0.66657066, 0.66657026, 2.344e-05], "properties": {"magmom": -0.013000000000000001}, "label": "C", "xyz": [-2.8769876219803354, -1.4104255482504202e-06, -0.000224627383708]}, {"species": [{"element": "C", "occu": 1}], "abc": [-2.059999999999999e-06, 0.33342668000000003, 2.2770000000000004e-05], "properties": {"magmom": -0.013000000000000001}, "label": "C", "xyz": [-0.7195477547185914, 1.246310778454259, -0.00020641719986670004]}, {"species": [{"element": "C", "occu": 1}], "abc": [0.66657355, 2.1e-06, 2.265e-05], "properties": {"magmom": -0.013000000000000001}, "label": "C", "xyz": [-1.4385049346190946, -2.4915523350748803, -0.00024037123465900001]}, {"species": [{"element": "C", "occu": 1}], "abc": [3.299999999999998e-07, 0.66657317, 2.4340000000000004e-05], "properties": {"magmom": -0.013000000000000001}, "label": "C", "xyz": [-1.438500448117647, 2.4915576134797908, -0.00020980365574420004]}, {"species": [{"element": "C", "occu": 1}], "abc": [0.33342946, 0.33342927, 2.3450000000000004e-05], "properties": {"magmom": -0.013000000000000001}, "label": "C", "xyz": [-1.4391159126755564, -6.687836064512958e-07, -0.00022465652203880004]}]}, "task_ids": null, "uncorrected_energy_per_atom": null, "energy_per_atom": -9.440522149285714, "formation_energy_per_atom": -0.060507167857143, "energy_above_hull": 0.0, "is_stable": true, "equilibrium_reaction_energy_per_atom": null, "decomposes_to": null, "xas": null, "grain_boundaries": null, "band_gap": 0.0, "cbm": null, "vbm": null, "efermi": 5.58802839, "is_gap_direct": null, "is_metal": null, "es_source_calc_id": null, "bandstructure": null, "dos": null, "dos_energy_up": null, "dos_energy_down": null, "is_magnetic": null, "ordering": null, "total_magnetization": 14.2260481, "total_magnetization_normalized_vol": null, "total_magnetization_normalized_formula_units": null, "num_magnetic_sites": null, "num_unique_magnetic_sites": null, "types_of_magnetic_species": null, "bulk_modulus": null, "shear_modulus": null, "universal_anisotropy": null, "homogeneous_poisson": null, "e_total": null, "e_ionic": null, "e_electronic": null, "n": null, "e_ij_max": null, "weighted_surface_energy_EV_PER_ANG2": null, "weighted_surface_energy": null, "weighted_work_function": null, "surface_anisotropy": null, "shape_factor": null, "has_reconstructed": null, "possible_species": null, "has_props": null, "theoretical": null, "database_IDs": null, "fields_not_requested": ["builder_meta", "nsites", "elements", "nelements", "composition", "composition_reduced", "chemsys", "symmetry", "property_name", "deprecated", "deprecation_reasons", "last_updated", "origins", "warnings", "task_ids", "uncorrected_energy_per_atom", "equilibrium_reaction_energy_per_atom", "decomposes_to", "xas", "grain_boundaries", "cbm", "vbm", "is_gap_direct", "is_metal", "es_source_calc_id", "bandstructure", "dos", "dos_energy_up", "dos_energy_down", "is_magnetic", "ordering", "total_magnetization_normalized_vol", "total_magnetization_normalized_formula_units", "num_magnetic_sites", "num_unique_magnetic_sites", "types_of_magnetic_species", "bulk_modulus", "shear_modulus", "universal_anisotropy", "homogeneous_poisson", "e_total", "e_ionic", "e_electronic", "n", "e_ij_max", "weighted_surface_energy_EV_PER_ANG2", "weighted_surface_energy", "weighted_work_function", "surface_anisotropy", "shape_factor", "has_reconstructed", "possible_species", "has_props", "theoretical", "database_IDs"]}