{"builder_meta": null, "nsites": null, "elements": null, "nelements": null, "composition": null, "composition_reduced": null, "formula_pretty": "EuCd3", "formula_anonymous": "AB3", "chemsys": null, "volume": 98.12806320354993, "density": 8.278271304290177, "density_atomic": 24.532015800887482, "symmetry": null, "property_name": null, "material_id": "mp-864634", "deprecated": null, "deprecation_reasons": null, "last_updated": null, "origins": null, "warnings": null, "structure": {"@module": "pymatgen.core.structure", "@class": "Structure", "charge": 0, "lattice": {"matrix": [[1.11e-06, 3.66089897, 3.660898989999999], [3.66089954, 5.599999999999997e-07, 3.66089954], [3.66089952, 3.66089951, 5.8e-07]], "pbc": [true, true, true], "a": 5.177292987993948, "b": 5.177293779953455, "c": 5.177293744598119, "alpha": 59.99998965382815, "beta": 59.99998486476893, "gamma": 59.99998481958918, "volume": 98.1280632035499}, "properties": {}, "sites": [{"species": [{"element": "Eu", "occu": 1}], "abc": [0.749999499999999, 0.749999499999999, 0.749999499999999], "properties": {"magmom": 6.771}, "label": "Eu", "xyz": [5.491346466599908, 5.491345619100473, 5.491345671600437]}, {"species": [{"element": "Cd", "occu": 1}], "abc": [-2.7e-07, -2.5e-07, -2.6e-07], "properties": {"magmom": 0.008}, "label": "Cd", "xyz": [-1.8670590599000002e-06, -1.9402767345e-06, -1.9036677631e-06]}, {"species": [{"element": "Cd", "occu": 1}], "abc": [0.50000089, 0.50000087, 0.50000087], "properties": {"magmom": 0.008}, "label": "Cd", "xyz": [3.6609064549661703, 3.6609059631831444, 3.660905998183205]}, {"species": [{"element": "Cd", "occu": 1}], "abc": [0.25000089000000003, 0.25000089000000003, 0.25000089000000003], "properties": {"magmom": -0.01}, "label": "Cd", "xyz": [1.8304565589021515, 1.8304562764011458, 1.830456293901208]}]}, "task_ids": null, "uncorrected_energy_per_atom": null, "energy_per_atom": -25.01228434, "formation_energy_per_atom": -0.30332289374999905, "energy_above_hull": 0.00365819958333, "is_stable": false, "equilibrium_reaction_energy_per_atom": null, "decomposes_to": null, "xas": null, "grain_boundaries": null, "band_gap": 0.0, "cbm": null, "vbm": null, "efermi": 2.42497217, "is_gap_direct": null, "is_metal": null, "es_source_calc_id": null, "bandstructure": null, "dos": null, "dos_energy_up": null, "dos_energy_down": null, "is_magnetic": null, "ordering": null, "total_magnetization": 7.0859936, "total_magnetization_normalized_vol": null, "total_magnetization_normalized_formula_units": null, "num_magnetic_sites": null, "num_unique_magnetic_sites": null, "types_of_magnetic_species": null, "bulk_modulus": null, "shear_modulus": null, "universal_anisotropy": null, "homogeneous_poisson": null, "e_total": null, "e_ionic": null, "e_electronic": null, "n": null, "e_ij_max": null, "weighted_surface_energy_EV_PER_ANG2": null, "weighted_surface_energy": null, "weighted_work_function": null, "surface_anisotropy": null, "shape_factor": null, "has_reconstructed": null, "possible_species": null, "has_props": null, "theoretical": null, "database_IDs": null, "fields_not_requested": ["builder_meta", "nsites", "elements", "nelements", "composition", "composition_reduced", "chemsys", "symmetry", "property_name", "deprecated", "deprecation_reasons", "last_updated", "origins", "warnings", "task_ids", "uncorrected_energy_per_atom", "equilibrium_reaction_energy_per_atom", "decomposes_to", "xas", "grain_boundaries", "cbm", "vbm", "is_gap_direct", "is_metal", "es_source_calc_id", "bandstructure", "dos", "dos_energy_up", "dos_energy_down", "is_magnetic", "ordering", "total_magnetization_normalized_vol", "total_magnetization_normalized_formula_units", "num_magnetic_sites", "num_unique_magnetic_sites", "types_of_magnetic_species", "bulk_modulus", "shear_modulus", "universal_anisotropy", "homogeneous_poisson", "e_total", "e_ionic", "e_electronic", "n", "e_ij_max", "weighted_surface_energy_EV_PER_ANG2", "weighted_surface_energy", "weighted_work_function", "surface_anisotropy", "shape_factor", "has_reconstructed", "possible_species", "has_props", "theoretical", "database_IDs"]}