{"builder_meta": null, "nsites": null, "elements": null, "nelements": null, "composition": null, "composition_reduced": null, "formula_pretty": "EuCd2", "formula_anonymous": "AB2", "chemsys": null, "volume": 165.6315464774181, "density": 7.5549360741282445, "density_atomic": 27.60525774623635, "symmetry": null, "property_name": null, "material_id": "mp-30487", "deprecated": null, "deprecation_reasons": null, "last_updated": null, "origins": null, "warnings": null, "structure": {"@module": "pymatgen.core.structure", "@class": "Structure", "charge": 0, "lattice": {"matrix": [[4.62346665, 1e-08, 2.0176138], [2.14887894, 5.7242814200000005, 1.38199867], [0.0165103, 0.03808393, 6.26843133]], "pbc": [true, true, true], "a": 5.044522703845495, "b": 6.268572309387084, "c": 6.268568761260892, "alpha": 76.8847479676668, "beta": 66.273796408036, "gamma": 66.27380792682828, "volume": 165.6315464774181}, "properties": {}, "sites": [{"species": [{"element": "Eu", "occu": 1}], "abc": [0.95793485, 0.79206515, 0.29206515], "properties": {"magmom": 6.825}, "label": "Eu", "xyz": [6.135854035036738, 4.545126819881902, 4.85816589337543]}, {"species": [{"element": "Eu", "occu": 1}], "abc": [0.04206515, 0.20793485, 0.70793485], "properties": {"magmom": 6.825}, "label": "Eu", "xyz": [0.6530018549632616, 1.2172385401180992, 4.809877906624569]}, {"species": [{"element": "Cd", "occu": 1}], "abc": [0.6648925, 0.78229171, 0.88792129], "properties": {"magmom": 0.013000000000000001}, "label": "Cd", "xyz": [4.769818327015, 4.511873439475823, 7.988496019098541]}, {"species": [{"element": "Cd", "occu": 1}], "abc": [0.3351075, 0.21770829, 0.11207871], "properties": {"magmom": 0.013000000000000001}, "label": "Cd", "xyz": [2.019037562985001, 1.2504919205241771, 1.6795477809014585]}, {"species": [{"element": "Cd", "occu": 1}], "abc": [0.3351075, 0.61207871, 0.71770829], "properties": {"magmom": 0.013000000000000001}, "label": "Cd", "xyz": [2.8764909791366295, 3.5310439428584233, 6.0209146104755416]}, {"species": [{"element": "Cd", "occu": 1}], "abc": [0.6648925, 0.38792129000000003, 0.28229171000000003], "properties": {"magmom": 0.013000000000000001}, "label": "Cd", "xyz": [3.9123649108633707, 2.2313214171415776, 3.647129189524459]}]}, "task_ids": null, "uncorrected_energy_per_atom": null, "energy_per_atom": -26.625953623333334, "formation_energy_per_atom": -0.382334258333334, "energy_above_hull": 0.0, "is_stable": true, "equilibrium_reaction_energy_per_atom": null, "decomposes_to": null, "xas": null, "grain_boundaries": null, "band_gap": 0.0, "cbm": null, "vbm": null, "efermi": 2.26614459, "is_gap_direct": null, "is_metal": null, "es_source_calc_id": null, "bandstructure": null, "dos": null, "dos_energy_up": null, "dos_energy_down": null, "is_magnetic": null, "ordering": null, "total_magnetization": 14.6419755, "total_magnetization_normalized_vol": null, "total_magnetization_normalized_formula_units": null, "num_magnetic_sites": null, "num_unique_magnetic_sites": null, "types_of_magnetic_species": null, "bulk_modulus": null, "shear_modulus": null, "universal_anisotropy": null, "homogeneous_poisson": null, "e_total": null, "e_ionic": null, "e_electronic": null, "n": null, "e_ij_max": null, "weighted_surface_energy_EV_PER_ANG2": null, "weighted_surface_energy": null, "weighted_work_function": null, "surface_anisotropy": null, "shape_factor": null, "has_reconstructed": null, "possible_species": null, "has_props": null, "theoretical": null, "database_IDs": null, "fields_not_requested": ["builder_meta", "nsites", "elements", "nelements", "composition", "composition_reduced", "chemsys", "symmetry", "property_name", "deprecated", "deprecation_reasons", "last_updated", "origins", "warnings", "task_ids", "uncorrected_energy_per_atom", "equilibrium_reaction_energy_per_atom", "decomposes_to", "xas", "grain_boundaries", "cbm", "vbm", "is_gap_direct", "is_metal", "es_source_calc_id", "bandstructure", "dos", "dos_energy_up", "dos_energy_down", "is_magnetic", "ordering", "total_magnetization_normalized_vol", "total_magnetization_normalized_formula_units", "num_magnetic_sites", "num_unique_magnetic_sites", "types_of_magnetic_species", "bulk_modulus", "shear_modulus", "universal_anisotropy", "homogeneous_poisson", "e_total", "e_ionic", "e_electronic", "n", "e_ij_max", "weighted_surface_energy_EV_PER_ANG2", "weighted_surface_energy", "weighted_work_function", "surface_anisotropy", "shape_factor", "has_reconstructed", "possible_species", "has_props", "theoretical", "database_IDs"]}