{"builder_meta": null, "nsites": null, "elements": null, "nelements": null, "composition": null, "composition_reduced": null, "formula_pretty": "EuCl3", "formula_anonymous": "AB3", "chemsys": null, "volume": 204.5083633107625, "density": 4.194991601878781, "density_atomic": 25.56354541384531, "symmetry": null, "property_name": null, "material_id": "mp-569895", "deprecated": null, "deprecation_reasons": null, "last_updated": null, "origins": null, "warnings": null, "structure": {"@module": "pymatgen.core.structure", "@class": "Structure", "charge": 0, "lattice": {"matrix": [[3.78161392, -6.46020096, -2.5e-07], [3.731329569999999, 6.43133188, 1.629999999999999e-06], [8.199999999999999e-07, 6e-07, 4.22311489]], "pbc": [true, true, true], "a": 7.485639604170291, "b": 7.435378276232042, "c": 4.223114890000122, "alpha": 89.99997481546514, "beta": 90.00000331851241, "gamma": 119.53508799295294, "volume": 204.50836331076243}, "properties": {}, "sites": [{"species": [{"element": "Eu", "occu": 1}], "abc": [0.3343712, 0.666886299999999, 0.24999996], "properties": {"magmom": -6.269}, "label": "Eu", "xyz": [3.752835560384958, 2.1288621242888626, 1.0557795570072732]}, {"species": [{"element": "Eu", "occu": 1}], "abc": [0.66981533, 0.33042135, 0.74999974], "properties": {"magmom": -6.27}, "label": "Eu", "xyz": [3.7658945445714993, -2.202091825801235, 3.1673354406230962]}, {"species": [{"element": "Cl", "occu": 1}], "abc": [0.39127093, 0.30860759, 0.25000012], "properties": {"magmom": 0.133}, "label": "Cl", "xyz": [2.63115242647288, -0.5429308556290516, 1.0557796344864259]}, {"species": [{"element": "Cl", "occu": 1}], "abc": [0.91025112, 0.6075511, 0.24999981000000002], "properties": {"magmom": 0.14100000000000001}, "label": "Cl", "xyz": [5.7091918958034595, -1.9730422511061205, 1.055778682853684]}, {"species": [{"element": "Cl", "occu": 1}], "abc": [0.30281214, 0.91624817, 0.7500001], "properties": {"magmom": 0.096}, "label": "Cl", "xyz": [4.563943108948457, 3.9364692381850657, 3.1673380075929707]}, {"species": [{"element": "Cl", "occu": 1}], "abc": [0.60980479, 0.69544356, 0.7500000800000001], "properties": {"magmom": 0.149}, "label": "Cl", "xyz": [4.9009760170408105, 0.533167298398142, 3.167337486470996]}, {"species": [{"element": "Cl", "occu": 1}], "abc": [0.08530573, 0.39255749, 0.75000002], "properties": {"magmom": 0.123}, "label": "Cl", "xyz": [1.787355321385757, 1.9735757913302923, 3.1673368705045735]}, {"species": [{"element": "Cl", "occu": 1}], "abc": [0.69636875, 0.08228543, 0.25000017], "properties": {"magmom": 0.1}, "label": "Cl", "xyz": [2.9404320215923043, -3.9694770080453896, 1.0557794004625947]}]}, "task_ids": null, "uncorrected_energy_per_atom": null, "energy_per_atom": -16.37020995625, "formation_energy_per_atom": -2.125660104375001, "energy_above_hull": 0.0, "is_stable": true, "equilibrium_reaction_energy_per_atom": null, "decomposes_to": null, "xas": null, "grain_boundaries": null, "band_gap": 0.0, "cbm": null, "vbm": null, "efermi": 0.25566316, "is_gap_direct": null, "is_metal": null, "es_source_calc_id": null, "bandstructure": null, "dos": null, "dos_energy_up": null, "dos_energy_down": null, "is_magnetic": null, "ordering": null, "total_magnetization": 12.0005901, "total_magnetization_normalized_vol": null, "total_magnetization_normalized_formula_units": null, "num_magnetic_sites": null, "num_unique_magnetic_sites": null, "types_of_magnetic_species": null, "bulk_modulus": null, "shear_modulus": null, "universal_anisotropy": null, "homogeneous_poisson": null, "e_total": null, "e_ionic": null, "e_electronic": null, "n": null, "e_ij_max": null, "weighted_surface_energy_EV_PER_ANG2": null, "weighted_surface_energy": null, "weighted_work_function": null, "surface_anisotropy": null, "shape_factor": null, "has_reconstructed": null, "possible_species": null, "has_props": null, "theoretical": null, "database_IDs": null, "fields_not_requested": ["builder_meta", "nsites", "elements", "nelements", "composition", "composition_reduced", "chemsys", "symmetry", "property_name", "deprecated", "deprecation_reasons", "last_updated", "origins", "warnings", "task_ids", "uncorrected_energy_per_atom", "equilibrium_reaction_energy_per_atom", "decomposes_to", "xas", "grain_boundaries", "cbm", "vbm", "is_gap_direct", "is_metal", "es_source_calc_id", "bandstructure", "dos", "dos_energy_up", "dos_energy_down", "is_magnetic", "ordering", "total_magnetization_normalized_vol", "total_magnetization_normalized_formula_units", "num_magnetic_sites", "num_unique_magnetic_sites", "types_of_magnetic_species", "bulk_modulus", "shear_modulus", "universal_anisotropy", "homogeneous_poisson", "e_total", "e_ionic", "e_electronic", "n", "e_ij_max", "weighted_surface_energy_EV_PER_ANG2", "weighted_surface_energy", "weighted_work_function", "surface_anisotropy", "shape_factor", "has_reconstructed", "possible_species", "has_props", "theoretical", "database_IDs"]}