{"builder_meta": null, "nsites": null, "elements": null, "nelements": null, "composition": null, "composition_reduced": null, "formula_pretty": "EuCl2", "formula_anonymous": "AB2", "chemsys": null, "volume": 303.88117919445483, "density": 4.871434851663826, "density_atomic": 25.3234315995379, "symmetry": null, "property_name": null, "material_id": "mp-22887", "deprecated": null, "deprecation_reasons": null, "last_updated": null, "origins": null, "warnings": null, "structure": {"@module": "pymatgen.core.structure", "@class": "Structure", "charge": 0, "lattice": {"matrix": [[4.51535416, -0.0, 0.0], [-0.0, 7.49668229, 0.0], [0.0, 0.0, 8.97724086]], "pbc": [true, true, true], "a": 4.51535416, "b": 7.49668229, "c": 8.97724086, "alpha": 90.0, "beta": 90.0, "gamma": 90.0, "volume": 303.88117919445483}, "properties": {}, "sites": [{"species": [{"element": "Eu", "occu": 1}], "abc": [0.25, 0.74634185, 0.38936765], "properties": {"magmom": 6.829}, "label": "Eu", "xyz": [1.12883854, 5.595087729180836, 3.495447177142179]}, {"species": [{"element": "Eu", "occu": 1}], "abc": [0.75, 0.25365815, 0.61063235], "properties": {"magmom": 6.829}, "label": "Eu", "xyz": [3.38651562, 1.9015945608191636, 5.4817936828578215]}, {"species": [{"element": "Eu", "occu": 1}], "abc": [0.25, 0.24634185, 0.11063235], "properties": {"magmom": 6.829}, "label": "Eu", "xyz": [1.12883854, 1.8467465841808364, 0.9931732528578211]}, {"species": [{"element": "Eu", "occu": 1}], "abc": [0.75, 0.75365815, 0.8893676500000001], "properties": {"magmom": 6.829}, "label": "Eu", "xyz": [3.38651562, 5.649935705819163, 7.98406760714218]}, {"species": [{"element": "Cl", "occu": 1}], "abc": [0.25, 0.51906612, 0.6632855], "properties": {"magmom": -0.025}, "label": "Cl", "xyz": [1.12883854, 3.8912737891430145, 5.9544736924455295]}, {"species": [{"element": "Cl", "occu": 1}], "abc": [0.75, 0.48093388000000004, 0.33671449999999903], "properties": {"magmom": -0.025}, "label": "Cl", "xyz": [3.38651562, 3.6054085008569854, 3.0227671675544614]}, {"species": [{"element": "Cl", "occu": 1}], "abc": [0.25, 0.01906612, 0.836714499999999], "properties": {"magmom": -0.025}, "label": "Cl", "xyz": [1.12883854, 0.1429326441430148, 7.511387597554461]}, {"species": [{"element": "Cl", "occu": 1}], "abc": [0.75, 0.98093388, 0.1632855], "properties": {"magmom": -0.025}, "label": "Cl", "xyz": [3.38651562, 7.353749645856985, 1.46585326244553]}, {"species": [{"element": "Cl", "occu": 1}], "abc": [0.75, 0.85812089, 0.57578604], "properties": {"magmom": -0.031}, "label": "Cl", "xyz": [3.38651562, 6.433059678742038, 5.168969964905594]}, {"species": [{"element": "Cl", "occu": 1}], "abc": [0.25, 0.14187911, 0.42421396], "properties": {"magmom": -0.031}, "label": "Cl", "xyz": [1.12883854, 1.0636226112579619, 3.8082708950944055]}, {"species": [{"element": "Cl", "occu": 1}], "abc": [0.75, 0.35812089, 0.92421396], "properties": {"magmom": -0.031}, "label": "Cl", "xyz": [3.38651562, 2.6847185337420383, 8.296891325094405]}, {"species": [{"element": "Cl", "occu": 1}], "abc": [0.25, 0.64187911, 0.07578604], "properties": {"magmom": -0.031}, "label": "Cl", "xyz": [1.12883854, 4.811963756257962, 0.6803495349055944]}]}, "task_ids": null, "uncorrected_energy_per_atom": null, "energy_per_atom": -19.615381216666666, "formation_energy_per_atom": -2.6734610466666693, "energy_above_hull": 0.0, "is_stable": true, "equilibrium_reaction_energy_per_atom": null, "decomposes_to": null, "xas": null, "grain_boundaries": null, "band_gap": 1.214399999999999, "cbm": null, "vbm": null, "efermi": 4.34222328, "is_gap_direct": null, "is_metal": null, "es_source_calc_id": null, "bandstructure": null, "dos": null, "dos_energy_up": null, "dos_energy_down": null, "is_magnetic": null, "ordering": null, "total_magnetization": 27.9999994, "total_magnetization_normalized_vol": null, "total_magnetization_normalized_formula_units": null, "num_magnetic_sites": null, "num_unique_magnetic_sites": null, "types_of_magnetic_species": null, "bulk_modulus": null, "shear_modulus": null, "universal_anisotropy": null, "homogeneous_poisson": null, "e_total": null, "e_ionic": null, "e_electronic": null, "n": null, "e_ij_max": null, "weighted_surface_energy_EV_PER_ANG2": null, "weighted_surface_energy": null, "weighted_work_function": null, "surface_anisotropy": null, "shape_factor": null, "has_reconstructed": null, "possible_species": null, "has_props": null, "theoretical": null, "database_IDs": null, "fields_not_requested": ["builder_meta", "nsites", "elements", "nelements", "composition", "composition_reduced", "chemsys", "symmetry", "property_name", "deprecated", "deprecation_reasons", "last_updated", "origins", "warnings", "task_ids", "uncorrected_energy_per_atom", "equilibrium_reaction_energy_per_atom", "decomposes_to", "xas", "grain_boundaries", "cbm", "vbm", "is_gap_direct", "is_metal", "es_source_calc_id", "bandstructure", "dos", "dos_energy_up", "dos_energy_down", "is_magnetic", "ordering", "total_magnetization_normalized_vol", "total_magnetization_normalized_formula_units", "num_magnetic_sites", "num_unique_magnetic_sites", "types_of_magnetic_species", "bulk_modulus", "shear_modulus", "universal_anisotropy", "homogeneous_poisson", "e_total", "e_ionic", "e_electronic", "n", "e_ij_max", "weighted_surface_energy_EV_PER_ANG2", "weighted_surface_energy", "weighted_work_function", "surface_anisotropy", "shape_factor", "has_reconstructed", "possible_species", "has_props", "theoretical", "database_IDs"]}