{
  "builder_meta": null,
  "nsites": null,
  "elements": null,
  "nelements": null,
  "composition": null,
  "composition_reduced": null,
  "formula_pretty": "EuCu",
  "formula_anonymous": "AB",
  "chemsys": null,
  "volume": 201.10782730492102,
  "density": 7.117828859050266,
  "density_atomic": 25.138478413115127,
  "symmetry": null,
  "property_name": null,
  "material_id": "mp-1087547",
  "deprecated": null,
  "deprecation_reasons": null,
  "last_updated": null,
  "origins": null,
  "warnings": null,
  "structure": {
    "@module": "pymatgen.core.structure",
    "@class": "Structure",
    "charge": 0,
    "lattice": {
      "matrix": [
        [-2.35e-6, 4.29263433, -1.2e-6],
        [5.67e-6, -3.969999999999997e-6, 5.92876766],
        [7.90206592, -3.38e-6, 1.4290000000000002e-5]
      ],
      "pbc": [true, true, true],
      "a": 4.292634330000811,
      "b": 5.92876766000404,
      "c": 7.902065920013643,
      "alpha": 89.99984159195058,
      "beta": 90.00005587404945,
      "gamma": 90.00005438317912,
      "volume": 201.10782730492102
    },
    "properties": {},
    "sites": [
      {
        "species": [{ "element": "Eu", "occu": 1 }],
        "abc": [0.24999997000000002, 0.37513312, 0.6787945400000001],
        "properties": { "magmom": 6.843 },
        "label": "Eu",
        "xyz": [5.363880740720938, 1.0731546701169388, 2.224086510024912]
      },
      {
        "species": [{ "element": "Eu", "occu": 1 }],
        "abc": [0.24999972, 0.12487404, 0.17880934],
        "properties": { "magmom": 6.843 },
        "label": "Eu",
        "xyz": [1.4129633123281578, 1.0731562804368797, 0.740351425111351]
      },
      {
        "species": [{ "element": "Eu", "occu": 1 }],
        "abc": [0.74999974, 0.624874199999999, 0.3211904],
        "properties": { "magmom": 6.843 },
        "label": "Eu",
        "xyz": [2.538069494208493, 3.2194710650409486, 3.7047376383394943]
      },
      {
        "species": [{ "element": "Eu", "occu": 1 }],
        "abc": [0.75000009, 0.8751323, 0.82120602],
        "properties": { "magmom": 6.843 },
        "label": "Eu",
        "xyz": [6.489227303440768, 3.2194698838855116, 5.188466913495335]
      },
      {
        "species": [{ "element": "Cu", "occu": 1 }],
        "abc": [0.25000003, 0.900228399999999, 0.52868445],
        "properties": { "magmom": -0.019 },
        "label": "Cu",
        "xyz": [4.177703891573901, 1.0731533504188409, 5.337252279434292]
      },
      {
        "species": [{ "element": "Cu", "occu": 1 }],
        "abc": [0.2499991, 0.5997672900000001, 0.02871862],
        "properties": { "magmom": -0.019 },
        "label": "Cu",
        "xyz": [0.2269392415540797, 1.0731522409840262, 3.5558810228680016]
      },
      {
        "species": [{ "element": "Cu", "occu": 1 }],
        "abc": [0.74999954, 0.09976619, 0.47128081],
        "properties": { "magmom": -0.019 },
        "label": "Cu",
        "xyz": [3.7240908306263734, 3.219471783887296, 0.5914963954367424]
      },
      {
        "species": [{ "element": "Cu", "occu": 1 }],
        "abc": [0.75000081, 0.40022446, 0.97131581],
        "properties": { "magmom": -0.019 },
        "label": "Cu",
        "xyz": [7.67540206652898, 3.219474352595263, 2.3728508152909167]
      }
    ]
  },
  "task_ids": null,
  "uncorrected_energy_per_atom": null,
  "energy_per_atom": -7.329796671250001,
  "formation_energy_per_atom": -0.136137378750003,
  "energy_above_hull": 0.0,
  "is_stable": true,
  "equilibrium_reaction_energy_per_atom": null,
  "decomposes_to": null,
  "xas": null,
  "grain_boundaries": null,
  "band_gap": 0.0,
  "cbm": null,
  "vbm": null,
  "efermi": 3.42653503,
  "is_gap_direct": null,
  "is_metal": null,
  "es_source_calc_id": null,
  "bandstructure": null,
  "dos": null,
  "dos_energy_up": null,
  "dos_energy_down": null,
  "is_magnetic": null,
  "ordering": null,
  "total_magnetization": 29.3235868,
  "total_magnetization_normalized_vol": null,
  "total_magnetization_normalized_formula_units": null,
  "num_magnetic_sites": null,
  "num_unique_magnetic_sites": null,
  "types_of_magnetic_species": null,
  "bulk_modulus": null,
  "shear_modulus": null,
  "universal_anisotropy": null,
  "homogeneous_poisson": null,
  "e_total": null,
  "e_ionic": null,
  "e_electronic": null,
  "n": null,
  "e_ij_max": null,
  "weighted_surface_energy_EV_PER_ANG2": null,
  "weighted_surface_energy": null,
  "weighted_work_function": null,
  "surface_anisotropy": null,
  "shape_factor": null,
  "has_reconstructed": null,
  "possible_species": null,
  "has_props": null,
  "theoretical": null,
  "database_IDs": null,
  "fields_not_requested": [
    "builder_meta",
    "nsites",
    "elements",
    "nelements",
    "composition",
    "composition_reduced",
    "chemsys",
    "symmetry",
    "property_name",
    "deprecated",
    "deprecation_reasons",
    "last_updated",
    "origins",
    "warnings",
    "task_ids",
    "uncorrected_energy_per_atom",
    "equilibrium_reaction_energy_per_atom",
    "decomposes_to",
    "xas",
    "grain_boundaries",
    "cbm",
    "vbm",
    "is_gap_direct",
    "is_metal",
    "es_source_calc_id",
    "bandstructure",
    "dos",
    "dos_energy_up",
    "dos_energy_down",
    "is_magnetic",
    "ordering",
    "total_magnetization_normalized_vol",
    "total_magnetization_normalized_formula_units",
    "num_magnetic_sites",
    "num_unique_magnetic_sites",
    "types_of_magnetic_species",
    "bulk_modulus",
    "shear_modulus",
    "universal_anisotropy",
    "homogeneous_poisson",
    "e_total",
    "e_ionic",
    "e_electronic",
    "n",
    "e_ij_max",
    "weighted_surface_energy_EV_PER_ANG2",
    "weighted_surface_energy",
    "weighted_work_function",
    "surface_anisotropy",
    "shape_factor",
    "has_reconstructed",
    "possible_species",
    "has_props",
    "theoretical",
    "database_IDs"
  ]
}
