{"builder_meta": null, "nsites": null, "elements": null, "nelements": null, "composition": null, "composition_reduced": null, "formula_pretty": "EuCu5", "formula_anonymous": "AB5", "chemsys": null, "volume": 90.82609307824028, "density": 8.587237542803393, "density_atomic": 15.137682179706713, "symmetry": null, "property_name": null, "material_id": "mp-2066", "deprecated": null, "deprecation_reasons": null, "last_updated": null, "origins": null, "warnings": null, "structure": {"@module": "pymatgen.core.structure", "@class": "Structure", "charge": 0, "lattice": {"matrix": [[5.1069185, -2.04e-06, -0.0], [-2.55346078, 4.42272091, 0.0], [-0.0, 0.0, 4.02126109]], "pbc": [true, true, true], "a": 5.106918500000408, "b": 5.106919051908835, "c": 4.02126109, "alpha": 90.0, "beta": 90.0, "gamma": 120.00003913326127, "volume": 90.82609307824028}, "properties": {}, "sites": [{"species": [{"element": "Eu", "occu": 1}], "abc": [0.0, 0.0, -0.0], "properties": {"magmom": 6.746}, "label": "Eu", "xyz": [0.0, 0.0, 0.0]}, {"species": [{"element": "Cu", "occu": 1}], "abc": [0.0, 0.5, 0.5], "properties": {"magmom": 0.031}, "label": "Cu", "xyz": [-1.27673039, 2.211360455, 2.010630545]}, {"species": [{"element": "Cu", "occu": 1}], "abc": [0.333333, 0.666667, 0.0], "properties": {"magmom": 0.003}, "label": "Cu", "xyz": [-3.573459760097819e-06, 2.94848140090765, 0.0]}, {"species": [{"element": "Cu", "occu": 1}], "abc": [0.666667, 0.333333, 0.0], "properties": {"magmom": 0.003}, "label": "Cu", "xyz": [2.55346129345976, 1.4742374690923499, 0.0]}, {"species": [{"element": "Cu", "occu": 1}], "abc": [0.5, 0.0, 0.5], "properties": {"magmom": 0.031}, "label": "Cu", "xyz": [2.55345925, -1.02e-06, 2.010630545]}, {"species": [{"element": "Cu", "occu": 1}], "abc": [0.5, 0.5, 0.5], "properties": {"magmom": 0.031}, "label": "Cu", "xyz": [1.27672886, 2.211359435, 2.010630545]}]}, "task_ids": null, "uncorrected_energy_per_atom": null, "energy_per_atom": -5.238339471666667, "formation_energy_per_atom": -0.10764859416666801, "energy_above_hull": 0.0, "is_stable": true, "equilibrium_reaction_energy_per_atom": null, "decomposes_to": null, "xas": null, "grain_boundaries": null, "band_gap": 0.0, "cbm": null, "vbm": null, "efermi": 5.38771119, "is_gap_direct": null, "is_metal": null, "es_source_calc_id": null, "bandstructure": null, "dos": null, "dos_energy_up": null, "dos_energy_down": null, "is_magnetic": null, "ordering": null, "total_magnetization": 7.3044963, "total_magnetization_normalized_vol": null, "total_magnetization_normalized_formula_units": null, "num_magnetic_sites": null, "num_unique_magnetic_sites": null, "types_of_magnetic_species": null, "bulk_modulus": null, "shear_modulus": null, "universal_anisotropy": null, "homogeneous_poisson": null, "e_total": null, "e_ionic": null, "e_electronic": null, "n": null, "e_ij_max": null, "weighted_surface_energy_EV_PER_ANG2": null, "weighted_surface_energy": null, "weighted_work_function": null, "surface_anisotropy": null, "shape_factor": null, "has_reconstructed": null, "possible_species": null, "has_props": null, "theoretical": null, "database_IDs": null, "fields_not_requested": ["builder_meta", "nsites", "elements", "nelements", "composition", "composition_reduced", "chemsys", "symmetry", "property_name", "deprecated", "deprecation_reasons", "last_updated", "origins", "warnings", "task_ids", "uncorrected_energy_per_atom", "equilibrium_reaction_energy_per_atom", "decomposes_to", "xas", "grain_boundaries", "cbm", "vbm", "is_gap_direct", "is_metal", "es_source_calc_id", "bandstructure", "dos", "dos_energy_up", "dos_energy_down", "is_magnetic", "ordering", "total_magnetization_normalized_vol", "total_magnetization_normalized_formula_units", "num_magnetic_sites", "num_unique_magnetic_sites", "types_of_magnetic_species", "bulk_modulus", "shear_modulus", "universal_anisotropy", "homogeneous_poisson", "e_total", "e_ionic", "e_electronic", "n", "e_ij_max", "weighted_surface_energy_EV_PER_ANG2", "weighted_surface_energy", "weighted_work_function", "surface_anisotropy", "shape_factor", "has_reconstructed", "possible_species", "has_props", "theoretical", "database_IDs"]}