{
  "builder_meta": null,
  "nsites": null,
  "elements": null,
  "nelements": null,
  "composition": null,
  "composition_reduced": null,
  "formula_pretty": "EuCu2",
  "formula_anonymous": "AB2",
  "chemsys": null,
  "volume": 115.31815409312925,
  "density": 8.036607824903404,
  "density_atomic": 19.219692348854874,
  "symmetry": null,
  "property_name": null,
  "material_id": "mp-1071732",
  "deprecated": null,
  "deprecation_reasons": null,
  "last_updated": null,
  "origins": null,
  "warnings": null,
  "structure": {
    "@module": "pymatgen.core.structure",
    "@class": "Structure",
    "charge": 0,
    "lattice": {
      "matrix": [
        [-4.35643178, 0.0, 0.0],
        [-2.17821589, -3.57800822, 3.69909403],
        [-2.17821589, 3.57800926, 3.69909404]
      ],
      "pbc": [true, true, true],
      "a": 4.35643178,
      "b": 5.588386522836238,
      "c": 5.588387195323689,
      "alpha": 79.62210375298955,
      "beta": 67.0594747462243,
      "gamma": 67.05947182800682,
      "volume": 115.31815409312924
    },
    "properties": {},
    "sites": [
      {
        "species": [{ "element": "Eu", "occu": 1 }],
        "abc": [0.54653271, 0.70346729, 0.20346729],
        "properties": { "magmom": 6.75 },
        "label": "Eu",
        "xyz": [-4.35643178, -1.7890038983940184, 3.3548362925132302]
      },
      {
        "species": [{ "element": "Eu", "occu": 1 }],
        "abc": [0.45346729, 0.29653271000000003, 0.79653271],
        "properties": { "magmom": 6.75 },
        "label": "Eu",
        "xyz": [-4.35643178, 1.7890049383940183, 4.0433517774867695]
      },
      {
        "species": [{ "element": "Cu", "occu": 1 }],
        "abc": [0.16390524, 0.27521282, 0.39697669],
        "properties": { "magmom": -0.019 },
        "label": "Cu",
        "xyz": [-2.1782158682178414, 0.4356725406147689, 2.486492207439392]
      },
      {
        "species": [{ "element": "Cu", "occu": 1 }],
        "abc": [0.83609476, 0.72478718, 0.60302331],
        "properties": { "magmom": -0.019 },
        "label": "Cu",
        "xyz": [-6.534647691782159, -0.43567150061476934, 4.911695862560608]
      },
      {
        "species": [{ "element": "Cu", "occu": 1 }],
        "abc": [0.83609476, 0.10302331, 0.22478718],
        "properties": { "magmom": -0.019 },
        "label": "Cu",
        "xyz": [-4.3564318017821595, 0.4356723615376786, 1.2126018287782465]
      },
      {
        "species": [{ "element": "Cu", "occu": 1 }],
        "abc": [0.16390524, 0.89697669, 0.77521282],
        "properties": { "magmom": -0.019 },
        "label": "Cu",
        "xyz": [-4.356431758217842, -0.43567132153767885, 6.1855862412217535]
      }
    ]
  },
  "task_ids": null,
  "uncorrected_energy_per_atom": null,
  "energy_per_atom": -6.290343103333335,
  "formation_energy_per_atom": -0.12816801833333502,
  "energy_above_hull": 0.0,
  "is_stable": true,
  "equilibrium_reaction_energy_per_atom": null,
  "decomposes_to": null,
  "xas": null,
  "grain_boundaries": null,
  "band_gap": 0.0,
  "cbm": null,
  "vbm": null,
  "efermi": 4.282287249999999,
  "is_gap_direct": null,
  "is_metal": null,
  "es_source_calc_id": null,
  "bandstructure": null,
  "dos": null,
  "dos_energy_up": null,
  "dos_energy_down": null,
  "is_magnetic": null,
  "ordering": null,
  "total_magnetization": 14.2010083,
  "total_magnetization_normalized_vol": null,
  "total_magnetization_normalized_formula_units": null,
  "num_magnetic_sites": null,
  "num_unique_magnetic_sites": null,
  "types_of_magnetic_species": null,
  "bulk_modulus": null,
  "shear_modulus": null,
  "universal_anisotropy": null,
  "homogeneous_poisson": null,
  "e_total": null,
  "e_ionic": null,
  "e_electronic": null,
  "n": null,
  "e_ij_max": null,
  "weighted_surface_energy_EV_PER_ANG2": null,
  "weighted_surface_energy": null,
  "weighted_work_function": null,
  "surface_anisotropy": null,
  "shape_factor": null,
  "has_reconstructed": null,
  "possible_species": null,
  "has_props": null,
  "theoretical": null,
  "database_IDs": null,
  "fields_not_requested": [
    "builder_meta",
    "nsites",
    "elements",
    "nelements",
    "composition",
    "composition_reduced",
    "chemsys",
    "symmetry",
    "property_name",
    "deprecated",
    "deprecation_reasons",
    "last_updated",
    "origins",
    "warnings",
    "task_ids",
    "uncorrected_energy_per_atom",
    "equilibrium_reaction_energy_per_atom",
    "decomposes_to",
    "xas",
    "grain_boundaries",
    "cbm",
    "vbm",
    "is_gap_direct",
    "is_metal",
    "es_source_calc_id",
    "bandstructure",
    "dos",
    "dos_energy_up",
    "dos_energy_down",
    "is_magnetic",
    "ordering",
    "total_magnetization_normalized_vol",
    "total_magnetization_normalized_formula_units",
    "num_magnetic_sites",
    "num_unique_magnetic_sites",
    "types_of_magnetic_species",
    "bulk_modulus",
    "shear_modulus",
    "universal_anisotropy",
    "homogeneous_poisson",
    "e_total",
    "e_ionic",
    "e_electronic",
    "n",
    "e_ij_max",
    "weighted_surface_energy_EV_PER_ANG2",
    "weighted_surface_energy",
    "weighted_work_function",
    "surface_anisotropy",
    "shape_factor",
    "has_reconstructed",
    "possible_species",
    "has_props",
    "theoretical",
    "database_IDs"
  ]
}
