{"builder_meta": null, "nsites": null, "elements": null, "nelements": null, "composition": null, "composition_reduced": null, "formula_pretty": "EuF3", "formula_anonymous": "AB3", "chemsys": null, "volume": 202.50875402961117, "density": 6.8537270406773825, "density_atomic": 12.656797126850698, "symmetry": null, "property_name": null, "material_id": "mp-19908", "deprecated": null, "deprecation_reasons": null, "last_updated": null, "origins": null, "warnings": null, "structure": {"@module": "pymatgen.core.structure", "@class": "Structure", "charge": 0, "lattice": {"matrix": [[4.31982316, 0.0, 0.0], [-0.0, 6.7178634299999995, 0.0], [0.0, 0.0, 6.97825222]], "pbc": [true, true, true], "a": 4.31982316, "b": 6.7178634299999995, "c": 6.97825222, "alpha": 90.0, "beta": 90.0, "gamma": 90.0, "volume": 202.50875402961114}, "properties": {}, "sites": [{"species": [{"element": "Eu", "occu": 1}], "abc": [0.9478789, 0.6385553900000001, 0.75], "properties": {"magmom": 5.976}, "label": "Eu", "xyz": [4.094669225095324, 4.289727902510387, 5.2336891649999995]}, {"species": [{"element": "Eu", "occu": 1}], "abc": [0.447878899999999, 0.86144461, 0.25], "properties": {"magmom": 5.976}, "label": "Eu", "xyz": [1.93475764509532, 5.787067242489612, 1.744563055]}, {"species": [{"element": "Eu", "occu": 1}], "abc": [0.552121099999999, 0.13855539, 0.75], "properties": {"magmom": 5.976}, "label": "Eu", "xyz": [2.385065514904672, 0.9307961875103876, 5.2336891649999995]}, {"species": [{"element": "Eu", "occu": 1}], "abc": [0.0521211, 0.36144461, 0.25], "properties": {"magmom": 5.976}, "label": "Eu", "xyz": [0.225153934904676, 2.428135527489612, 1.744563055]}, {"species": [{"element": "F", "occu": 1}], "abc": [0.4112277, 0.16466511, 0.43334059], "properties": {"magmom": -0.04}, "label": "F", "xyz": [1.776430942493532, 1.1061977206659273, 3.02395993418361]}, {"species": [{"element": "F", "occu": 1}], "abc": [0.9112277, 0.33533489, 0.56665941], "properties": {"magmom": -0.04}, "label": "F", "xyz": [3.9363425224935322, 2.2527339943340725, 3.95429228581639]}, {"species": [{"element": "F", "occu": 1}], "abc": [0.0887723, 0.6646651100000001, 0.06665941], "properties": {"magmom": -0.04}, "label": "F", "xyz": [0.38348063750646805, 4.4651294356659275, 0.4651661758163902]}, {"species": [{"element": "F", "occu": 1}], "abc": [0.5887723, 0.83533489, 0.93334059], "properties": {"magmom": -0.04}, "label": "F", "xyz": [2.5433922175064683, 5.611665709334073, 6.51308604418361]}, {"species": [{"element": "F", "occu": 1}], "abc": [0.5638018300000001, 0.5154103, 0.25], "properties": {"magmom": -0.02}, "label": "F", "xyz": [2.435524202884383, 3.4624560058153286, 1.744563055]}, {"species": [{"element": "F", "occu": 1}], "abc": [0.06380183, 0.9845896999999991, 0.75], "properties": {"magmom": -0.02}, "label": "F", "xyz": [0.2756126228843828, 6.614339139184665, 5.2336891649999995]}, {"species": [{"element": "F", "occu": 1}], "abc": [0.93619817, 0.0154103, 0.25], "properties": {"magmom": -0.02}, "label": "F", "xyz": [4.044210537115617, 0.10352429081532899, 1.744563055]}, {"species": [{"element": "F", "occu": 1}], "abc": [0.43619817, 0.484589699999999, 0.75], "properties": {"magmom": -0.02}, "label": "F", "xyz": [1.8842989571156172, 3.2554074241846642, 5.2336891649999995]}, {"species": [{"element": "F", "occu": 1}], "abc": [0.4112277, 0.16466511, 0.06665941], "properties": {"magmom": -0.04}, "label": "F", "xyz": [1.776430942493532, 1.1061977206659273, 0.4651661758163902]}, {"species": [{"element": "F", "occu": 1}], "abc": [0.9112277, 0.33533489, 0.93334059], "properties": {"magmom": -0.04}, "label": "F", "xyz": [3.9363425224935322, 2.2527339943340725, 6.51308604418361]}, {"species": [{"element": "F", "occu": 1}], "abc": [0.0887723, 0.6646651100000001, 0.43334059], "properties": {"magmom": -0.04}, "label": "F", "xyz": [0.38348063750646805, 4.4651294356659275, 3.02395993418361]}, {"species": [{"element": "F", "occu": 1}], "abc": [0.5887723, 0.83533489, 0.56665941], "properties": {"magmom": -0.04}, "label": "F", "xyz": [2.5433922175064683, 5.611665709334073, 3.95429228581639]}]}, "task_ids": null, "uncorrected_energy_per_atom": null, "energy_per_atom": -15.83214384375, "formation_energy_per_atom": -3.857402202500001, "energy_above_hull": 0.0, "is_stable": true, "equilibrium_reaction_energy_per_atom": null, "decomposes_to": null, "xas": null, "grain_boundaries": null, "band_gap": 0.0, "cbm": null, "vbm": null, "efermi": 0.00824476, "is_gap_direct": null, "is_metal": null, "es_source_calc_id": null, "bandstructure": null, "dos": null, "dos_energy_up": null, "dos_energy_down": null, "is_magnetic": null, "ordering": null, "total_magnetization": 23.9999995, "total_magnetization_normalized_vol": null, "total_magnetization_normalized_formula_units": null, "num_magnetic_sites": null, "num_unique_magnetic_sites": null, "types_of_magnetic_species": null, "bulk_modulus": null, "shear_modulus": null, "universal_anisotropy": null, "homogeneous_poisson": null, "e_total": null, "e_ionic": null, "e_electronic": null, "n": null, "e_ij_max": null, "weighted_surface_energy_EV_PER_ANG2": null, "weighted_surface_energy": null, "weighted_work_function": null, "surface_anisotropy": null, "shape_factor": null, "has_reconstructed": null, "possible_species": null, "has_props": null, "theoretical": null, "database_IDs": null, "fields_not_requested": ["builder_meta", "nsites", "elements", "nelements", "composition", "composition_reduced", "chemsys", "symmetry", "property_name", "deprecated", "deprecation_reasons", "last_updated", "origins", "warnings", "task_ids", "uncorrected_energy_per_atom", "equilibrium_reaction_energy_per_atom", "decomposes_to", "xas", "grain_boundaries", "cbm", "vbm", "is_gap_direct", "is_metal", "es_source_calc_id", "bandstructure", "dos", "dos_energy_up", "dos_energy_down", "is_magnetic", "ordering", "total_magnetization_normalized_vol", "total_magnetization_normalized_formula_units", "num_magnetic_sites", "num_unique_magnetic_sites", "types_of_magnetic_species", "bulk_modulus", "shear_modulus", "universal_anisotropy", "homogeneous_poisson", "e_total", "e_ionic", "e_electronic", "n", "e_ij_max", "weighted_surface_energy_EV_PER_ANG2", "weighted_surface_energy", "weighted_work_function", "surface_anisotropy", "shape_factor", "has_reconstructed", "possible_species", "has_props", "theoretical", "database_IDs"]}