{
  "builder_meta": null,
  "nsites": null,
  "elements": null,
  "nelements": null,
  "composition": null,
  "composition_reduced": null,
  "formula_pretty": "EuFe2",
  "formula_anonymous": "AB2",
  "chemsys": null,
  "volume": 223.73290360154033,
  "density": 7.827329105692476,
  "density_atomic": 18.644408633461694,
  "symmetry": null,
  "property_name": null,
  "material_id": "mp-1101922",
  "deprecated": null,
  "deprecation_reasons": null,
  "last_updated": null,
  "origins": null,
  "warnings": null,
  "structure": {
    "@module": "pymatgen.core.structure",
    "@class": "Structure",
    "charge": 0,
    "lattice": {
      "matrix": [
        [5.501304, 0.0, 0.0],
        [-2.750652, 4.764269, 0.0],
        [0.0, 0.0, 8.536266]
      ],
      "pbc": [true, true, true],
      "a": 5.501304,
      "b": 5.501303984462684,
      "c": 8.536266,
      "alpha": 90.0,
      "beta": 90.0,
      "gamma": 120.000000093427,
      "volume": 223.73290360154033
    },
    "properties": {},
    "sites": [
      {
        "species": [{ "element": "Eu", "occu": 1 }],
        "abc": [0.333333, 0.666667, 0.442656999999999],
        "properties": { "magmom": 6.632 },
        "label": "Eu",
        "xyz": [-2.7506520001718826e-6, 3.1761809214229997, 3.7786378987619913]
      },
      {
        "species": [{ "element": "Eu", "occu": 1 }],
        "abc": [0.666667, 0.333333, 0.557342999999999],
        "properties": { "magmom": 6.632 },
        "label": "Eu",
        "xyz": [2.750654750652, 1.5880880785769997, 4.757628101237992]
      },
      {
        "species": [{ "element": "Eu", "occu": 1 }],
        "abc": [0.666667, 0.333333, 0.942657],
        "properties": { "magmom": 6.632 },
        "label": "Eu",
        "xyz": [2.750654750652, 1.5880880785769997, 8.046770898761999]
      },
      {
        "species": [{ "element": "Eu", "occu": 1 }],
        "abc": [0.333333, 0.666667, 0.057343],
        "properties": { "magmom": 6.632 },
        "label": "Eu",
        "xyz": [-2.7506520001718826e-6, 3.1761809214229997, 0.48949510123799994]
      },
      {
        "species": [{ "element": "Fe", "occu": 1 }],
        "abc": [0.0, 0.0, 0.5],
        "properties": { "magmom": 2.45 },
        "label": "Fe",
        "xyz": [0.0, 0.0, 4.268133]
      },
      {
        "species": [{ "element": "Fe", "occu": 1 }],
        "abc": [0.0, 0.0, 0.0],
        "properties": { "magmom": 2.45 },
        "label": "Fe",
        "xyz": [0.0, 0.0, 0.0]
      },
      {
        "species": [{ "element": "Fe", "occu": 1 }],
        "abc": [0.852858, 0.147142, 0.25],
        "properties": { "magmom": 2.393 },
        "label": "Fe",
        "xyz": [4.287094690248001, 0.701024069198, 2.1340665]
      },
      {
        "species": [{ "element": "Fe", "occu": 1 }],
        "abc": [0.852858, 0.705716999999999, 0.25],
        "properties": { "magmom": 2.393 },
        "label": "Fe",
        "xyz": [2.750649249348003, 3.3622256258729952, 2.1340665]
      },
      {
        "species": [{ "element": "Fe", "occu": 1 }],
        "abc": [0.294282999999999, 0.147142, 0.25],
        "properties": { "magmom": 2.393 },
        "label": "Fe",
        "xyz": [1.2142038084479947, 0.701024069198, 2.1340665]
      },
      {
        "species": [{ "element": "Fe", "occu": 1 }],
        "abc": [0.147142, 0.852858, 0.75],
        "properties": { "magmom": 2.393 },
        "label": "Fe",
        "xyz": [-1.5364426902480002, 4.063244930802, 6.4021995]
      },
      {
        "species": [{ "element": "Fe", "occu": 1 }],
        "abc": [0.147142, 0.294282999999999, 0.75],
        "properties": { "magmom": 2.393 },
        "label": "Fe",
        "xyz": [2.7506520026143733e-6, 1.4020433741269953, 6.4021995]
      },
      {
        "species": [{ "element": "Fe", "occu": 1 }],
        "abc": [0.705716999999999, 0.852858, 0.75],
        "properties": { "magmom": 2.393 },
        "label": "Fe",
        "xyz": [1.5364481915519947, 4.063244930802, 6.4021995]
      }
    ]
  },
  "task_ids": null,
  "uncorrected_energy_per_atom": null,
  "energy_per_atom": -8.732350159166666,
  "formation_energy_per_atom": 0.34370128583333204,
  "energy_above_hull": 0.34370128583333304,
  "is_stable": false,
  "equilibrium_reaction_energy_per_atom": null,
  "decomposes_to": null,
  "xas": null,
  "grain_boundaries": null,
  "band_gap": 0.0,
  "cbm": null,
  "vbm": null,
  "efermi": 3.78516784,
  "is_gap_direct": null,
  "is_metal": null,
  "es_source_calc_id": null,
  "bandstructure": null,
  "dos": null,
  "dos_energy_up": null,
  "dos_energy_down": null,
  "is_magnetic": null,
  "ordering": null,
  "total_magnetization": 46.6368476,
  "total_magnetization_normalized_vol": null,
  "total_magnetization_normalized_formula_units": null,
  "num_magnetic_sites": null,
  "num_unique_magnetic_sites": null,
  "types_of_magnetic_species": null,
  "bulk_modulus": null,
  "shear_modulus": null,
  "universal_anisotropy": null,
  "homogeneous_poisson": null,
  "e_total": null,
  "e_ionic": null,
  "e_electronic": null,
  "n": null,
  "e_ij_max": null,
  "weighted_surface_energy_EV_PER_ANG2": null,
  "weighted_surface_energy": null,
  "weighted_work_function": null,
  "surface_anisotropy": null,
  "shape_factor": null,
  "has_reconstructed": null,
  "possible_species": null,
  "has_props": null,
  "theoretical": null,
  "database_IDs": null,
  "fields_not_requested": [
    "builder_meta",
    "nsites",
    "elements",
    "nelements",
    "composition",
    "composition_reduced",
    "chemsys",
    "symmetry",
    "property_name",
    "deprecated",
    "deprecation_reasons",
    "last_updated",
    "origins",
    "warnings",
    "task_ids",
    "uncorrected_energy_per_atom",
    "equilibrium_reaction_energy_per_atom",
    "decomposes_to",
    "xas",
    "grain_boundaries",
    "cbm",
    "vbm",
    "is_gap_direct",
    "is_metal",
    "es_source_calc_id",
    "bandstructure",
    "dos",
    "dos_energy_up",
    "dos_energy_down",
    "is_magnetic",
    "ordering",
    "total_magnetization_normalized_vol",
    "total_magnetization_normalized_formula_units",
    "num_magnetic_sites",
    "num_unique_magnetic_sites",
    "types_of_magnetic_species",
    "bulk_modulus",
    "shear_modulus",
    "universal_anisotropy",
    "homogeneous_poisson",
    "e_total",
    "e_ionic",
    "e_electronic",
    "n",
    "e_ij_max",
    "weighted_surface_energy_EV_PER_ANG2",
    "weighted_surface_energy",
    "weighted_work_function",
    "surface_anisotropy",
    "shape_factor",
    "has_reconstructed",
    "possible_species",
    "has_props",
    "theoretical",
    "database_IDs"
  ]
}
