{"builder_meta": null, "nsites": null, "elements": null, "nelements": null, "composition": null, "composition_reduced": null, "formula_pretty": "EuGa4", "formula_anonymous": "AB4", "chemsys": null, "volume": 101.04626965708096, "density": 7.080451584279471, "density_atomic": 20.209253931416193, "symmetry": null, "property_name": null, "material_id": "mp-21884", "deprecated": null, "deprecation_reasons": null, "last_updated": null, "origins": null, "warnings": null, "structure": {"@module": "pymatgen.core.structure", "@class": "Structure", "charge": 0, "lattice": {"matrix": [[4.09049423, 0.00026949, -1.55818821], [-0.5939272, 4.04714746, -1.55818821], [-0.01104304, -0.01278253, 6.11351541]], "pbc": [true, true, true], "a": 4.37722441920347, "b": 4.377225443093752, "c": 6.113538746921713, "alpha": 110.95674001647303, "beta": 110.95674724545238, "gamma": 90.00123987039748, "volume": 101.04626965708096}, "properties": {}, "sites": [{"species": [{"element": "Eu", "occu": 1}], "abc": [-0.0, 0.0, 0.0], "properties": {"magmom": 6.7620000000000005}, "label": "Eu", "xyz": [0.0, 0.0, 0.0]}, {"species": [{"element": "Ga", "occu": 1}], "abc": [0.61697969, 0.61697969, 0.23409036], "properties": {"magmom": -0.025}, "label": "Ga", "xyz": [2.154725773024526, 2.4941817880623343, -0.49162593434246227]}, {"species": [{"element": "Ga", "occu": 1}], "abc": [0.25007748, 0.74992252, 0.5], "properties": {"magmom": -0.015}, "label": "Ga", "xyz": [0.5720195864723966, 3.028723150394884, 1.4985694949999997]}, {"species": [{"element": "Ga", "occu": 1}], "abc": [0.74992252, 0.25007748, 0.5], "properties": {"magmom": -0.015}, "label": "Ga", "xyz": [2.913504403527604, 1.0059112696051156, 1.4985694949999997]}, {"species": [{"element": "Ga", "occu": 1}], "abc": [0.38302031000000003, 0.38302031000000003, 0.7659096400000001], "properties": {"magmom": -0.025}, "label": "Ga", "xyz": [1.3307982169754737, 1.5404526319376652, 3.4887649243424623]}]}, "task_ids": null, "uncorrected_energy_per_atom": null, "energy_per_atom": -17.365724546000003, "formation_energy_per_atom": -0.5073272430000031, "energy_above_hull": 0.0, "is_stable": true, "equilibrium_reaction_energy_per_atom": null, "decomposes_to": null, "xas": null, "grain_boundaries": null, "band_gap": 0.0, "cbm": null, "vbm": null, "efermi": 3.62309329, "is_gap_direct": null, "is_metal": null, "es_source_calc_id": null, "bandstructure": null, "dos": null, "dos_energy_up": null, "dos_energy_down": null, "is_magnetic": null, "ordering": null, "total_magnetization": 6.9526392, "total_magnetization_normalized_vol": null, "total_magnetization_normalized_formula_units": null, "num_magnetic_sites": null, "num_unique_magnetic_sites": null, "types_of_magnetic_species": null, "bulk_modulus": null, "shear_modulus": null, "universal_anisotropy": null, "homogeneous_poisson": null, "e_total": null, "e_ionic": null, "e_electronic": null, "n": null, "e_ij_max": null, "weighted_surface_energy_EV_PER_ANG2": null, "weighted_surface_energy": null, "weighted_work_function": null, "surface_anisotropy": null, "shape_factor": null, "has_reconstructed": null, "possible_species": null, "has_props": null, "theoretical": null, "database_IDs": null, "fields_not_requested": ["builder_meta", "nsites", "elements", "nelements", "composition", "composition_reduced", "chemsys", "symmetry", "property_name", "deprecated", "deprecation_reasons", "last_updated", "origins", "warnings", "task_ids", "uncorrected_energy_per_atom", "equilibrium_reaction_energy_per_atom", "decomposes_to", "xas", "grain_boundaries", "cbm", "vbm", "is_gap_direct", "is_metal", "es_source_calc_id", "bandstructure", "dos", "dos_energy_up", "dos_energy_down", "is_magnetic", "ordering", "total_magnetization_normalized_vol", "total_magnetization_normalized_formula_units", "num_magnetic_sites", "num_unique_magnetic_sites", "types_of_magnetic_species", "bulk_modulus", "shear_modulus", "universal_anisotropy", "homogeneous_poisson", "e_total", "e_ionic", "e_electronic", "n", "e_ij_max", "weighted_surface_energy_EV_PER_ANG2", "weighted_surface_energy", "weighted_work_function", "surface_anisotropy", "shape_factor", "has_reconstructed", "possible_species", "has_props", "theoretical", "database_IDs"]}