{
  "builder_meta": null,
  "nsites": null,
  "elements": null,
  "nelements": null,
  "composition": null,
  "composition_reduced": null,
  "formula_pretty": "EuGa",
  "formula_anonymous": "AB",
  "chemsys": null,
  "volume": 211.7681197292472,
  "density": 6.953264250124299,
  "density_atomic": 26.4710149661559,
  "symmetry": null,
  "property_name": null,
  "material_id": "mp-1079244",
  "deprecated": null,
  "deprecation_reasons": null,
  "last_updated": null,
  "origins": null,
  "warnings": null,
  "structure": {
    "@module": "pymatgen.core.structure",
    "@class": "Structure",
    "charge": 0,
    "lattice": {
      "matrix": [
        [5.68403964, 0.0461318, 1.10902203],
        [0.18869699, 5.76564051, 2.36850595],
        [-0.0054325300000000005, 0.039588780000000004, 6.47852499]
      ],
      "pbc": [true, true, true],
      "a": 5.791404375027518,
      "b": 6.236027379652332,
      "c": 6.478648225512679,
      "alpha": 67.32973674614949,
      "beta": 79.00539642616762,
      "gamma": 83.69653311328051,
      "volume": 211.7681197292472
    },
    "properties": {},
    "sites": [
      {
        "species": [{ "element": "Eu", "occu": 1 }],
        "abc": [0.76240344, 0.85042691, 0.9217464400000001],
        "properties": { "magmom": 6.788 },
        "label": "Eu",
        "xyz": [4.488996957576669, 4.974917703132459, 8.831320753066434]
      },
      {
        "species": [{ "element": "Eu", "occu": 1 }],
        "abc": [0.23759656, 0.14957309, 0.07825356],
        "properties": { "magmom": 6.788 },
        "label": "Eu",
        "xyz": [1.3783071424233306, 0.8764433868675406, 1.1247322169335667]
      },
      {
        "species": [{ "element": "Eu", "occu": 1 }],
        "abc": [0.3245461, 0.69857598, 0.6492179100000001],
        "properties": { "magmom": 6.774 },
        "label": "Eu",
        "xyz": [1.973025186347092, 4.0684116103879795, 6.220484593698235]
      },
      {
        "species": [{ "element": "Eu", "occu": 1 }],
        "abc": [0.675453899999999, 0.30142402, 0.35078209],
        "properties": { "magmom": 6.774 },
        "label": "Eu",
        "xyz": [3.8942789136529026, 1.7829494796120204, 3.735568376301764]
      },
      {
        "species": [{ "element": "Ga", "occu": 1 }],
        "abc": [0.8601143800000001, 0.75477587, 0.42855438],
        "properties": { "magmom": -0.022 },
        "label": "Ga",
        "xyz": [5.029020031121672, 4.4084109016656345, 5.517977195155174]
      },
      {
        "species": [{ "element": "Ga", "occu": 1 }],
        "abc": [0.13988562000000002, 0.24522413, 0.57144562],
        "properties": { "magmom": -0.022 },
        "label": "Ga",
        "xyz": [0.838284068878327, 1.4429501883343658, 4.438075774844826]
      },
      {
        "species": [{ "element": "Ga", "occu": 1 }],
        "abc": [0.79096638, 0.38975508000000003, 0.80653679],
        "properties": { "magmom": -0.059000000000000004 },
        "label": "Ga",
        "xyz": [4.565048332952733, 2.315606188616391, 7.02550511580146]
      },
      {
        "species": [{ "element": "Ga", "occu": 1 }],
        "abc": [0.20903362, 0.61024492, 0.19346321],
        "properties": { "magmom": -0.059000000000000004 },
        "label": "Ga",
        "xyz": [1.3022557670472665, 3.535754901383609, 2.9305478541985406]
      }
    ]
  },
  "task_ids": null,
  "uncorrected_energy_per_atom": null,
  "energy_per_atom": -25.52320080875,
  "formation_energy_per_atom": -0.541371476250002,
  "energy_above_hull": 0.0,
  "is_stable": true,
  "equilibrium_reaction_energy_per_atom": null,
  "decomposes_to": null,
  "xas": null,
  "grain_boundaries": null,
  "band_gap": 0.0,
  "cbm": null,
  "vbm": null,
  "efermi": 2.67873353,
  "is_gap_direct": null,
  "is_metal": null,
  "es_source_calc_id": null,
  "bandstructure": null,
  "dos": null,
  "dos_energy_up": null,
  "dos_energy_down": null,
  "is_magnetic": null,
  "ordering": null,
  "total_magnetization": 28.24915,
  "total_magnetization_normalized_vol": null,
  "total_magnetization_normalized_formula_units": null,
  "num_magnetic_sites": null,
  "num_unique_magnetic_sites": null,
  "types_of_magnetic_species": null,
  "bulk_modulus": null,
  "shear_modulus": null,
  "universal_anisotropy": null,
  "homogeneous_poisson": null,
  "e_total": null,
  "e_ionic": null,
  "e_electronic": null,
  "n": null,
  "e_ij_max": null,
  "weighted_surface_energy_EV_PER_ANG2": null,
  "weighted_surface_energy": null,
  "weighted_work_function": null,
  "surface_anisotropy": null,
  "shape_factor": null,
  "has_reconstructed": null,
  "possible_species": null,
  "has_props": null,
  "theoretical": null,
  "database_IDs": null,
  "fields_not_requested": [
    "builder_meta",
    "nsites",
    "elements",
    "nelements",
    "composition",
    "composition_reduced",
    "chemsys",
    "symmetry",
    "property_name",
    "deprecated",
    "deprecation_reasons",
    "last_updated",
    "origins",
    "warnings",
    "task_ids",
    "uncorrected_energy_per_atom",
    "equilibrium_reaction_energy_per_atom",
    "decomposes_to",
    "xas",
    "grain_boundaries",
    "cbm",
    "vbm",
    "is_gap_direct",
    "is_metal",
    "es_source_calc_id",
    "bandstructure",
    "dos",
    "dos_energy_up",
    "dos_energy_down",
    "is_magnetic",
    "ordering",
    "total_magnetization_normalized_vol",
    "total_magnetization_normalized_formula_units",
    "num_magnetic_sites",
    "num_unique_magnetic_sites",
    "types_of_magnetic_species",
    "bulk_modulus",
    "shear_modulus",
    "universal_anisotropy",
    "homogeneous_poisson",
    "e_total",
    "e_ionic",
    "e_electronic",
    "n",
    "e_ij_max",
    "weighted_surface_energy_EV_PER_ANG2",
    "weighted_surface_energy",
    "weighted_work_function",
    "surface_anisotropy",
    "shape_factor",
    "has_reconstructed",
    "possible_species",
    "has_props",
    "theoretical",
    "database_IDs"
  ]
}
