{
  "builder_meta": null,
  "nsites": null,
  "elements": null,
  "nelements": null,
  "composition": null,
  "composition_reduced": null,
  "formula_pretty": "EuGe",
  "formula_anonymous": "AB",
  "chemsys": null,
  "volume": 105.61938028988673,
  "density": 7.062410619925563,
  "density_atomic": 26.404845072471684,
  "symmetry": null,
  "property_name": null,
  "material_id": "mp-20712",
  "deprecated": null,
  "deprecation_reasons": null,
  "last_updated": null,
  "origins": null,
  "warnings": null,
  "structure": {
    "@module": "pymatgen.core.structure",
    "@class": "Structure",
    "charge": 0,
    "lattice": {
      "matrix": [
        [4.06519021, 2.21e-6, -1.44e-6],
        [2.98e-6, 4.28136241, -1.80266236],
        [-2.13e-6, 0.02971758, 6.05597901]
      ],
      "pbc": [true, true, true],
      "a": 4.065190210000856,
      "b": 4.6453907984076706,
      "c": 6.0560519238300925,
      "alpha": 112.55230949106209,
      "beta": 90.0000402943629,
      "gamma": 89.99992666175679,
      "volume": 105.61938028988673
    },
    "properties": {},
    "sites": [
      {
        "species": [{ "element": "Eu", "occu": 1 }],
        "abc": [0.24999985, 0.8604149600000001, 0.72084703],
        "properties": { "magmom": 6.795 },
        "label": "Eu",
        "xyz": [1.0162979713538756, 3.7051706485271096, 2.814396460728151]
      },
      {
        "species": [{ "element": "Eu", "occu": 1 }],
        "abc": [0.75000014, 0.1395653, 0.27911355],
        "properties": { "magmom": 6.795 },
        "label": "Eu",
        "xyz": [3.048893048019362, 0.6058258659118915, 1.4387156071342757]
      },
      {
        "species": [{ "element": "Ge", "occu": 1 }],
        "abc": [0.25000002, 0.57204942, 0.14407913],
        "properties": { "magmom": -0.047 },
        "label": "Ge",
        "xyz": [1.0162990316225289, 2.453433119022452, -0.15867213043479889]
      },
      {
        "species": [{ "element": "Ge", "occu": 1 }],
        "abc": [0.7499999900000001, 0.42797032, 0.8559602900000001],
        "properties": { "magmom": -0.047 },
        "label": "Ge",
        "xyz": [3.048892069004234, 1.8577347665385473, 4.412190482572372]
      }
    ]
  },
  "task_ids": null,
  "uncorrected_energy_per_atom": null,
  "energy_per_atom": -27.004442515,
  "formation_energy_per_atom": -0.808012367500001,
  "energy_above_hull": 0.0,
  "is_stable": true,
  "equilibrium_reaction_energy_per_atom": null,
  "decomposes_to": null,
  "xas": null,
  "grain_boundaries": null,
  "band_gap": 0.0,
  "cbm": null,
  "vbm": null,
  "efermi": 3.7875244,
  "is_gap_direct": null,
  "is_metal": null,
  "es_source_calc_id": null,
  "bandstructure": null,
  "dos": null,
  "dos_energy_up": null,
  "dos_energy_down": null,
  "is_magnetic": null,
  "ordering": null,
  "total_magnetization": 14.3591118,
  "total_magnetization_normalized_vol": null,
  "total_magnetization_normalized_formula_units": null,
  "num_magnetic_sites": null,
  "num_unique_magnetic_sites": null,
  "types_of_magnetic_species": null,
  "bulk_modulus": null,
  "shear_modulus": null,
  "universal_anisotropy": null,
  "homogeneous_poisson": null,
  "e_total": null,
  "e_ionic": null,
  "e_electronic": null,
  "n": null,
  "e_ij_max": null,
  "weighted_surface_energy_EV_PER_ANG2": null,
  "weighted_surface_energy": null,
  "weighted_work_function": null,
  "surface_anisotropy": null,
  "shape_factor": null,
  "has_reconstructed": null,
  "possible_species": null,
  "has_props": null,
  "theoretical": null,
  "database_IDs": null,
  "fields_not_requested": [
    "builder_meta",
    "nsites",
    "elements",
    "nelements",
    "composition",
    "composition_reduced",
    "chemsys",
    "symmetry",
    "property_name",
    "deprecated",
    "deprecation_reasons",
    "last_updated",
    "origins",
    "warnings",
    "task_ids",
    "uncorrected_energy_per_atom",
    "equilibrium_reaction_energy_per_atom",
    "decomposes_to",
    "xas",
    "grain_boundaries",
    "cbm",
    "vbm",
    "is_gap_direct",
    "is_metal",
    "es_source_calc_id",
    "bandstructure",
    "dos",
    "dos_energy_up",
    "dos_energy_down",
    "is_magnetic",
    "ordering",
    "total_magnetization_normalized_vol",
    "total_magnetization_normalized_formula_units",
    "num_magnetic_sites",
    "num_unique_magnetic_sites",
    "types_of_magnetic_species",
    "bulk_modulus",
    "shear_modulus",
    "universal_anisotropy",
    "homogeneous_poisson",
    "e_total",
    "e_ionic",
    "e_electronic",
    "n",
    "e_ij_max",
    "weighted_surface_energy_EV_PER_ANG2",
    "weighted_surface_energy",
    "weighted_work_function",
    "surface_anisotropy",
    "shape_factor",
    "has_reconstructed",
    "possible_species",
    "has_props",
    "theoretical",
    "database_IDs"
  ]
}
