{
  "builder_meta": null,
  "nsites": null,
  "elements": null,
  "nelements": null,
  "composition": null,
  "composition_reduced": null,
  "formula_pretty": "EuH2",
  "formula_anonymous": "AB2",
  "chemsys": null,
  "volume": 161.99294975710583,
  "density": 6.313598378047046,
  "density_atomic": 13.499412479758819,
  "symmetry": null,
  "property_name": null,
  "material_id": "mp-1102496",
  "deprecated": null,
  "deprecation_reasons": null,
  "last_updated": null,
  "origins": null,
  "warnings": null,
  "structure": {
    "@module": "pymatgen.core.structure",
    "@class": "Structure",
    "charge": 0,
    "lattice": {
      "matrix": [
        [6.699999999999999e-7, -3.72589767, 5e-8],
        [-6.12157113, 1.1e-6, -1.4920000000000001e-5],
        [-1.5620000000000003e-5, 9e-8, -7.1023536]
      ],
      "pbc": [true, true, true],
      "a": 3.7258976700000606,
      "b": 6.121571130018281,
      "c": 7.102353600017177,
      "alpha": 89.99973434503832,
      "beta": 90.00000149495209,
      "gamma": 90.00002059868652,
      "volume": 161.99294975710586
    },
    "properties": {},
    "sites": [
      {
        "species": [{ "element": "Eu", "occu": 1 }],
        "abc": [0.74999981, 0.25833386, 0.61419801],
        "properties": { "magmom": 6.774 },
        "label": "Eu",
        "xyz": [-1.5814181905505056, -2.7944222051343757, -4.362255264277536]
      },
      {
        "species": [{ "element": "Eu", "occu": 1 }],
        "abc": [0.74999958, 0.75831275, 0.88578017],
        "properties": { "magmom": 6.774 },
        "label": "Eu",
        "xyz": [-4.642078771297445, -2.7944207737587385, -6.291135255734363]
      },
      {
        "species": [{ "element": "Eu", "occu": 1 }],
        "abc": [0.25000038, 0.74166571, 0.38579184],
        "properties": { "magmom": 6.774 },
        "label": "Eu",
        "xyz": [-4.540165257015239, -0.9314749827875681, -2.740041116826998]
      },
      {
        "species": [{ "element": "Eu", "occu": 1 }],
        "abc": [0.2500002, 0.241686699999999, 0.11422998000000001],
        "properties": { "magmom": 6.774 },
        "label": "Eu",
        "xyz": [-1.4795039419971188, -0.9314748865434658, -0.8113053031464821]
      },
      {
        "species": [{ "element": "H", "occu": 1 }],
        "abc": [0.75000003, 0.14394977, 0.93090057],
        "properties": { "magmom": -0.022 },
        "label": "H",
        "xyz": [-0.8812127943690234, -2.794423122151132, -6.611587124812119]
      },
      {
        "species": [{ "element": "H", "occu": 1 }],
        "abc": [0.75000005, 0.6439486600000001, 0.56909706],
        "properties": { "magmom": -0.022 },
        "label": "H",
        "xyz": [-3.94198591305423, -2.794422679232622, -4.041938123054421]
      },
      {
        "species": [{ "element": "H", "occu": 1 }],
        "abc": [0.24999997000000002, 0.8560507700000001, 0.06910115],
        "properties": { "magmom": -0.022 },
        "label": "H",
        "xyz": [-5.240376591306254, -0.9314733578481196, -0.4907935612441299]
      },
      {
        "species": [{ "element": "H", "occu": 1 }],
        "abc": [0.24999995, 0.3560521, 0.4309012],
        "properties": { "magmom": -0.022 },
        "label": "H",
        "xyz": [-2.1796048193126505, -0.9314738007666985, -3.060417988861654]
      },
      {
        "species": [{ "element": "H", "occu": 1 }],
        "abc": [0.74999998, 0.53081808, 0.18148693],
        "properties": { "magmom": -0.023 },
        "label": "H",
        "xyz": [-3.2494429661358906, -2.7944225777483354, -1.2889922329442025]
      },
      {
        "species": [{ "element": "H", "occu": 1 }],
        "abc": [0.7499999900000001, 0.03082138, 0.31851862000000003],
        "properties": { "magmom": -0.023 },
        "label": "H",
        "xyz": [-0.18867974275561047, -2.79442315267083, -2.262232289779022]
      },
      {
        "species": [{ "element": "H", "occu": 1 }],
        "abc": [0.25000003, 0.4691819, 0.81851362],
        "properties": { "magmom": -0.023 },
        "label": "H",
        "xyz": [-2.8721429914412715, -0.9314739395106143, -5.8133801433499785]
      },
      {
        "species": [{ "element": "H", "occu": 1 }],
        "abc": [0.25000003, 0.96917832, 0.68148084],
        "properties": { "magmom": -0.023 },
        "label": "H",
        "xyz": [-5.932904500764603, -0.9314734018475025, -4.840132344945556]
      }
    ]
  },
  "task_ids": null,
  "uncorrected_energy_per_atom": null,
  "energy_per_atom": -15.830400685,
  "formation_energy_per_atom": -0.6866981791666681,
  "energy_above_hull": 0.0,
  "is_stable": true,
  "equilibrium_reaction_energy_per_atom": null,
  "decomposes_to": null,
  "xas": null,
  "grain_boundaries": null,
  "band_gap": 0.0,
  "cbm": null,
  "vbm": null,
  "efermi": 3.79581724,
  "is_gap_direct": null,
  "is_metal": null,
  "es_source_calc_id": null,
  "bandstructure": null,
  "dos": null,
  "dos_energy_up": null,
  "dos_energy_down": null,
  "is_magnetic": null,
  "ordering": null,
  "total_magnetization": 28.0000005,
  "total_magnetization_normalized_vol": null,
  "total_magnetization_normalized_formula_units": null,
  "num_magnetic_sites": null,
  "num_unique_magnetic_sites": null,
  "types_of_magnetic_species": null,
  "bulk_modulus": null,
  "shear_modulus": null,
  "universal_anisotropy": null,
  "homogeneous_poisson": null,
  "e_total": null,
  "e_ionic": null,
  "e_electronic": null,
  "n": null,
  "e_ij_max": null,
  "weighted_surface_energy_EV_PER_ANG2": null,
  "weighted_surface_energy": null,
  "weighted_work_function": null,
  "surface_anisotropy": null,
  "shape_factor": null,
  "has_reconstructed": null,
  "possible_species": null,
  "has_props": null,
  "theoretical": null,
  "database_IDs": null,
  "fields_not_requested": [
    "builder_meta",
    "nsites",
    "elements",
    "nelements",
    "composition",
    "composition_reduced",
    "chemsys",
    "symmetry",
    "property_name",
    "deprecated",
    "deprecation_reasons",
    "last_updated",
    "origins",
    "warnings",
    "task_ids",
    "uncorrected_energy_per_atom",
    "equilibrium_reaction_energy_per_atom",
    "decomposes_to",
    "xas",
    "grain_boundaries",
    "cbm",
    "vbm",
    "is_gap_direct",
    "is_metal",
    "es_source_calc_id",
    "bandstructure",
    "dos",
    "dos_energy_up",
    "dos_energy_down",
    "is_magnetic",
    "ordering",
    "total_magnetization_normalized_vol",
    "total_magnetization_normalized_formula_units",
    "num_magnetic_sites",
    "num_unique_magnetic_sites",
    "types_of_magnetic_species",
    "bulk_modulus",
    "shear_modulus",
    "universal_anisotropy",
    "homogeneous_poisson",
    "e_total",
    "e_ionic",
    "e_electronic",
    "n",
    "e_ij_max",
    "weighted_surface_energy_EV_PER_ANG2",
    "weighted_surface_energy",
    "weighted_work_function",
    "surface_anisotropy",
    "shape_factor",
    "has_reconstructed",
    "possible_species",
    "has_props",
    "theoretical",
    "database_IDs"
  ]
}
