{
  "builder_meta": null,
  "nsites": null,
  "elements": null,
  "nelements": null,
  "composition": null,
  "composition_reduced": null,
  "formula_pretty": "EuHg3",
  "formula_anonymous": "AB3",
  "chemsys": null,
  "volume": 209.03363515088023,
  "density": 11.9751517684824,
  "density_atomic": 26.12920439386003,
  "symmetry": null,
  "property_name": null,
  "material_id": "mp-1080132",
  "deprecated": null,
  "deprecation_reasons": null,
  "last_updated": null,
  "origins": null,
  "warnings": null,
  "structure": {
    "@module": "pymatgen.core.structure",
    "@class": "Structure",
    "charge": 0,
    "lattice": {
      "matrix": [
        [0.0, 0.0, -5.17045749],
        [-3.4156217, -5.91817098, 0.0],
        [-3.41562066, 5.91817097, -0.0]
      ],
      "pbc": [true, true, true],
      "a": 5.17045749,
      "b": 6.833097346447294,
      "c": 6.833096817927402,
      "alpha": 120.01795699381843,
      "beta": 90.0,
      "gamma": 90.0,
      "volume": 209.03363515088023
    },
    "properties": {},
    "sites": [
      {
        "species": [{ "element": "Eu", "occu": 1 }],
        "abc": [0.75, 0.6668614700000001, 0.33313853],
        "properties": { "magmom": 6.7940000000000005 },
        "label": "Eu",
        "xyz": [-3.415621353535929, -1.9750294221996672, -3.8778431175000003]
      },
      {
        "species": [{ "element": "Eu", "occu": 1 }],
        "abc": [0.25, 0.33313853, 0.6668614700000001],
        "properties": { "magmom": 6.7940000000000005 },
        "label": "Eu",
        "xyz": [-3.4156210064640717, 1.975029412199667, -1.2926143725]
      },
      {
        "species": [{ "element": "Hg", "occu": 1 }],
        "abc": [0.75, 0.1604919, 0.32045595],
        "properties": { "magmom": 0.004 },
        "label": "Hg",
        "xyz": [-1.6427355797541567, 0.9466945953487095, -3.8778431175000003]
      },
      {
        "species": [{ "element": "Hg", "occu": 1 }],
        "abc": [0.75, 0.1596012, 0.8403988],
        "properties": { "magmom": 0.004 },
        "label": "Hg",
        "xyz": [-3.4156208259852483, 4.029076591169661, -3.8778431175000003]
      },
      {
        "species": [{ "element": "Hg", "occu": 1 }],
        "abc": [0.75, 0.6795440500000001, 0.8395081],
        "properties": { "magmom": 0.004 },
        "label": "Hg",
        "xyz": [-5.188506613883231, 0.9466945901581871, -3.8778431175000003]
      },
      {
        "species": [{ "element": "Hg", "occu": 1 }],
        "abc": [0.25, 0.8395081, 0.6795440500000001],
        "properties": { "magmom": 0.004 },
        "label": "Hg",
        "xyz": [-5.188506780245843, -0.9466946053487089, -1.2926143725]
      },
      {
        "species": [{ "element": "Hg", "occu": 1 }],
        "abc": [0.25, 0.8403988, 0.1596012],
        "properties": { "magmom": 0.004 },
        "label": "Hg",
        "xyz": [-3.415621534014752, -4.029076601169661, -1.2926143725]
      },
      {
        "species": [{ "element": "Hg", "occu": 1 }],
        "abc": [0.25, 0.32045595, 0.1604919],
        "properties": { "magmom": 0.004 },
        "label": "Hg",
        "xyz": [-1.6427357461167689, -0.946694600158188, -1.2926143725]
      }
    ]
  },
  "task_ids": null,
  "uncorrected_energy_per_atom": null,
  "energy_per_atom": -47.12754112875,
  "formation_energy_per_atom": -0.471465558125004,
  "energy_above_hull": 0.0,
  "is_stable": true,
  "equilibrium_reaction_energy_per_atom": null,
  "decomposes_to": null,
  "xas": null,
  "grain_boundaries": null,
  "band_gap": 0.0,
  "cbm": null,
  "vbm": null,
  "efermi": 2.7137632,
  "is_gap_direct": null,
  "is_metal": null,
  "es_source_calc_id": null,
  "bandstructure": null,
  "dos": null,
  "dos_energy_up": null,
  "dos_energy_down": null,
  "is_magnetic": null,
  "ordering": null,
  "total_magnetization": 14.3499424,
  "total_magnetization_normalized_vol": null,
  "total_magnetization_normalized_formula_units": null,
  "num_magnetic_sites": null,
  "num_unique_magnetic_sites": null,
  "types_of_magnetic_species": null,
  "bulk_modulus": null,
  "shear_modulus": null,
  "universal_anisotropy": null,
  "homogeneous_poisson": null,
  "e_total": null,
  "e_ionic": null,
  "e_electronic": null,
  "n": null,
  "e_ij_max": null,
  "weighted_surface_energy_EV_PER_ANG2": null,
  "weighted_surface_energy": null,
  "weighted_work_function": null,
  "surface_anisotropy": null,
  "shape_factor": null,
  "has_reconstructed": null,
  "possible_species": null,
  "has_props": null,
  "theoretical": null,
  "database_IDs": null,
  "fields_not_requested": [
    "builder_meta",
    "nsites",
    "elements",
    "nelements",
    "composition",
    "composition_reduced",
    "chemsys",
    "symmetry",
    "property_name",
    "deprecated",
    "deprecation_reasons",
    "last_updated",
    "origins",
    "warnings",
    "task_ids",
    "uncorrected_energy_per_atom",
    "equilibrium_reaction_energy_per_atom",
    "decomposes_to",
    "xas",
    "grain_boundaries",
    "cbm",
    "vbm",
    "is_gap_direct",
    "is_metal",
    "es_source_calc_id",
    "bandstructure",
    "dos",
    "dos_energy_up",
    "dos_energy_down",
    "is_magnetic",
    "ordering",
    "total_magnetization_normalized_vol",
    "total_magnetization_normalized_formula_units",
    "num_magnetic_sites",
    "num_unique_magnetic_sites",
    "types_of_magnetic_species",
    "bulk_modulus",
    "shear_modulus",
    "universal_anisotropy",
    "homogeneous_poisson",
    "e_total",
    "e_ionic",
    "e_electronic",
    "n",
    "e_ij_max",
    "weighted_surface_energy_EV_PER_ANG2",
    "weighted_surface_energy",
    "weighted_work_function",
    "surface_anisotropy",
    "shape_factor",
    "has_reconstructed",
    "possible_species",
    "has_props",
    "theoretical",
    "database_IDs"
  ]
}
