{"builder_meta": null, "nsites": null, "elements": null, "nelements": null, "composition": null, "composition_reduced": null, "formula_pretty": "EuI2", "formula_anonymous": "AB2", "chemsys": null, "volume": 509.22795200753416, "density": 5.292732391321431, "density_atomic": 42.435662667294515, "symmetry": null, "property_name": null, "material_id": "mp-1102093", "deprecated": null, "deprecation_reasons": null, "last_updated": null, "origins": null, "warnings": null, "structure": {"@module": "pymatgen.core.structure", "@class": "Structure", "charge": 0, "lattice": {"matrix": [[0.0, 4.88592076, 0.0], [0.0, -0.0, 8.42455016], [12.371407, 0.0, 0.0]], "pbc": [true, true, true], "a": 4.88592076, "b": 8.42455016, "c": 12.371407, "alpha": 90.0, "beta": 90.0, "gamma": 90.0, "volume": 509.22795200753416}, "properties": {}, "sites": [{"species": [{"element": "Eu", "occu": 1}], "abc": [0.75, 0.8706630200000001, 0.82844056], "properties": {"magmom": 6.843}, "label": "Eu", "xyz": [10.24897534306792, 3.66444057, 7.334944284447085]}, {"species": [{"element": "Eu", "occu": 1}], "abc": [0.75, 0.62933698, 0.32844056], "properties": {"magmom": 6.843}, "label": "Eu", "xyz": [4.06327184306792, 3.66444057, 5.301880955552917]}, {"species": [{"element": "Eu", "occu": 1}], "abc": [0.25, 0.12933698, 0.17155944], "properties": {"magmom": 6.843}, "label": "Eu", "xyz": [2.12243165693208, 1.22148019, 1.0896058755529168]}, {"species": [{"element": "Eu", "occu": 1}], "abc": [0.25, 0.37066302, 0.67155944], "properties": {"magmom": 6.843}, "label": "Eu", "xyz": [8.30813515693208, 1.22148019, 3.1226692044470834]}, {"species": [{"element": "I", "occu": 1}], "abc": [0.25, 0.12588249, 0.89267808], "properties": {"magmom": -0.032}, "label": "I", "xyz": [11.04368384765856, 1.22148019, 1.0605033512706985]}, {"species": [{"element": "I", "occu": 1}], "abc": [0.25, 0.37411751, 0.39267808], "properties": {"magmom": -0.032}, "label": "I", "xyz": [4.857980347658559, 1.22148019, 3.151771728729302]}, {"species": [{"element": "I", "occu": 1}], "abc": [0.75, 0.87411751, 0.10732192], "properties": {"magmom": -0.032}, "label": "I", "xyz": [1.32772315234144, 3.66444057, 7.364046808729302]}, {"species": [{"element": "I", "occu": 1}], "abc": [0.75, 0.62588249, 0.60732192], "properties": {"magmom": -0.032}, "label": "I", "xyz": [7.5134266523414395, 3.66444057, 5.272778431270699]}, {"species": [{"element": "I", "occu": 1}], "abc": [0.25, 0.61969034, 0.87775088], "properties": {"magmom": -0.033}, "label": "I", "xyz": [10.85901338108816, 1.22148019, 5.220612352997455]}, {"species": [{"element": "I", "occu": 1}], "abc": [0.25, 0.88030966, 0.37775088], "properties": {"magmom": -0.033}, "label": "I", "xyz": [4.67330988108816, 1.22148019, 7.416212887002546]}, {"species": [{"element": "I", "occu": 1}], "abc": [0.75, 0.38030966, 0.12224912], "properties": {"magmom": -0.033}, "label": "I", "xyz": [1.5123936189118399, 3.66444057, 3.203937807002546]}, {"species": [{"element": "I", "occu": 1}], "abc": [0.75, 0.11969034, 0.62224912], "properties": {"magmom": -0.033}, "label": "I", "xyz": [7.698097118911839, 3.66444057, 1.0083372729974545]}]}, "task_ids": null, "uncorrected_energy_per_atom": null, "energy_per_atom": -6.320225555833332, "formation_energy_per_atom": -1.8748465075, "energy_above_hull": 0.0, "is_stable": true, "equilibrium_reaction_energy_per_atom": null, "decomposes_to": null, "xas": null, "grain_boundaries": null, "band_gap": 1.3259, "cbm": null, "vbm": null, "efermi": 3.44438261, "is_gap_direct": null, "is_metal": null, "es_source_calc_id": null, "bandstructure": null, "dos": null, "dos_energy_up": null, "dos_energy_down": null, "is_magnetic": null, "ordering": null, "total_magnetization": 27.9999999, "total_magnetization_normalized_vol": null, "total_magnetization_normalized_formula_units": null, "num_magnetic_sites": null, "num_unique_magnetic_sites": null, "types_of_magnetic_species": null, "bulk_modulus": null, "shear_modulus": null, "universal_anisotropy": null, "homogeneous_poisson": null, "e_total": null, "e_ionic": null, "e_electronic": null, "n": null, "e_ij_max": null, "weighted_surface_energy_EV_PER_ANG2": null, "weighted_surface_energy": null, "weighted_work_function": null, "surface_anisotropy": null, "shape_factor": null, "has_reconstructed": null, "possible_species": null, "has_props": null, "theoretical": null, "database_IDs": null, "fields_not_requested": ["builder_meta", "nsites", "elements", "nelements", "composition", "composition_reduced", "chemsys", "symmetry", "property_name", "deprecated", "deprecation_reasons", "last_updated", "origins", "warnings", "task_ids", "uncorrected_energy_per_atom", "equilibrium_reaction_energy_per_atom", "decomposes_to", "xas", "grain_boundaries", "cbm", "vbm", "is_gap_direct", "is_metal", "es_source_calc_id", "bandstructure", "dos", "dos_energy_up", "dos_energy_down", "is_magnetic", "ordering", "total_magnetization_normalized_vol", "total_magnetization_normalized_formula_units", "num_magnetic_sites", "num_unique_magnetic_sites", "types_of_magnetic_species", "bulk_modulus", "shear_modulus", "universal_anisotropy", "homogeneous_poisson", "e_total", "e_ionic", "e_electronic", "n", "e_ij_max", "weighted_surface_energy_EV_PER_ANG2", "weighted_surface_energy", "weighted_work_function", "surface_anisotropy", "shape_factor", "has_reconstructed", "possible_species", "has_props", "theoretical", "database_IDs"]}