{"builder_meta": null, "nsites": null, "elements": null, "nelements": null, "composition": null, "composition_reduced": null, "formula_pretty": "EuIn4", "formula_anonymous": "AB4", "chemsys": null, "volume": 278.73493460032637, "density": 7.282770337831411, "density_atomic": 27.873493460032638, "symmetry": null, "property_name": null, "material_id": "mp-638253", "deprecated": null, "deprecation_reasons": null, "last_updated": null, "origins": null, "warnings": null, "structure": {"@module": "pymatgen.core.structure", "@class": "Structure", "charge": 0, "lattice": {"matrix": [[2.47180851, 6.2465531, -0.17223507], [-2.47180851, 6.2465531, -0.17223507], [-0.0, 4.03662599, 8.91492371]], "pbc": [true, true, true], "a": 6.720039275224955, "b": 6.720039275224955, "c": 9.78622573509643, "alpha": 68.89554518029756, "beta": 68.89554518029756, "gamma": 43.163268122457126, "volume": 278.7349346003264}, "properties": {}, "sites": [{"species": [{"element": "Eu", "occu": 1}], "abc": [0.14759952, 0.14759952, 0.29833636], "properties": {"magmom": 6.816}, "label": "Eu", "xyz": [0.0, 3.0482487829670206, 2.608802262000763]}, {"species": [{"element": "Eu", "occu": 1}], "abc": [0.85240048, 0.85240048, 0.70166364], "properties": {"magmom": 6.816}, "label": "Eu", "xyz": [0.0, 13.481483407032979, 5.9616513079992375]}, {"species": [{"element": "In", "occu": 1}], "abc": [0.4352491, 0.4352491, 0.90509763], "properties": {"magmom": -0.013000000000000001}, "label": "In", "xyz": [0.0, 9.091153846499823, 7.918946003139933]}, {"species": [{"element": "In", "occu": 1}], "abc": [0.17261752, 0.17261752, 0.6400281800000001], "properties": {"magmom": -0.006}, "label": "In", "xyz": [0.0, 4.740083395061022, 5.646340815669296]}, {"species": [{"element": "In", "occu": 1}], "abc": [0.57106341, 0.57106341, 0.58646287], "properties": {"magmom": -0.025}, "label": "In", "xyz": [0.0, 9.501687091276134, 5.03155745200607]}, {"species": [{"element": "In", "occu": 1}], "abc": [0.5647509, 0.5647509, 0.09490237], "properties": {"magmom": -0.013000000000000001}, "label": "In", "xyz": [0.0, 7.4385783435001755, 0.6515075668600667]}, {"species": [{"element": "In", "occu": 1}], "abc": [0.82738248, 0.82738248, 0.35997182], "properties": {"magmom": -0.006}, "label": "In", "xyz": [0.0, 11.789648794938978, 2.924112754330705]}, {"species": [{"element": "In", "occu": 1}], "abc": [0.17341529, 0.17341529, 0.9419077100000001], "properties": {"magmom": -0.003}, "label": "In", "xyz": [0.0, 5.968624777041181, 8.337298987286365]}, {"species": [{"element": "In", "occu": 1}], "abc": [0.82658471, 0.82658471, 0.05809229], "properties": {"magmom": -0.003}, "label": "In", "xyz": [0.0, 10.561107412958819, 0.23315458271363643]}, {"species": [{"element": "In", "occu": 1}], "abc": [0.42893659, 0.42893659, 0.41353713000000003], "properties": {"magmom": -0.025}, "label": "In", "xyz": [0.0, 7.028045098723867, 3.53889611799393]}]}, "task_ids": null, "uncorrected_energy_per_atom": null, "energy_per_atom": -4.5204545729999985, "formation_energy_per_atom": -0.25549319533333004, "energy_above_hull": 0.032856411666668, "is_stable": false, "equilibrium_reaction_energy_per_atom": null, "decomposes_to": null, "xas": null, "grain_boundaries": null, "band_gap": 0.0, "cbm": null, "vbm": null, "efermi": 6.20671056, "is_gap_direct": null, "is_metal": null, "es_source_calc_id": null, "bandstructure": null, "dos": null, "dos_energy_up": null, "dos_energy_down": null, "is_magnetic": null, "ordering": null, "total_magnetization": 14.1440053, "total_magnetization_normalized_vol": null, "total_magnetization_normalized_formula_units": null, "num_magnetic_sites": null, "num_unique_magnetic_sites": null, "types_of_magnetic_species": null, "bulk_modulus": null, "shear_modulus": null, "universal_anisotropy": null, "homogeneous_poisson": null, "e_total": null, "e_ionic": null, "e_electronic": null, "n": null, "e_ij_max": null, "weighted_surface_energy_EV_PER_ANG2": null, "weighted_surface_energy": null, "weighted_work_function": null, "surface_anisotropy": null, "shape_factor": null, "has_reconstructed": null, "possible_species": null, "has_props": null, "theoretical": null, "database_IDs": null, "fields_not_requested": ["builder_meta", "nsites", "elements", "nelements", "composition", "composition_reduced", "chemsys", "symmetry", "property_name", "deprecated", "deprecation_reasons", "last_updated", "origins", "warnings", "task_ids", "uncorrected_energy_per_atom", "equilibrium_reaction_energy_per_atom", "decomposes_to", "xas", "grain_boundaries", "cbm", "vbm", "is_gap_direct", "is_metal", "es_source_calc_id", "bandstructure", "dos", "dos_energy_up", "dos_energy_down", "is_magnetic", "ordering", "total_magnetization_normalized_vol", "total_magnetization_normalized_formula_units", "num_magnetic_sites", "num_unique_magnetic_sites", "types_of_magnetic_species", "bulk_modulus", "shear_modulus", "universal_anisotropy", "homogeneous_poisson", "e_total", "e_ionic", "e_electronic", "n", "e_ij_max", "weighted_surface_energy_EV_PER_ANG2", "weighted_surface_energy", "weighted_work_function", "surface_anisotropy", "shape_factor", "has_reconstructed", "possible_species", "has_props", "theoretical", "database_IDs"]}