{
  "builder_meta": null,
  "nsites": null,
  "elements": null,
  "nelements": null,
  "composition": null,
  "composition_reduced": null,
  "formula_pretty": "EuIn2",
  "formula_anonymous": "AB2",
  "chemsys": null,
  "volume": 170.09037737667106,
  "density": 7.45088249655998,
  "density_atomic": 28.348396229445175,
  "symmetry": null,
  "property_name": null,
  "material_id": "mp-636316",
  "deprecated": null,
  "deprecation_reasons": null,
  "last_updated": null,
  "origins": null,
  "warnings": null,
  "structure": {
    "@module": "pymatgen.core.structure",
    "@class": "Structure",
    "charge": 0,
    "lattice": {
      "matrix": [
        [4.99559845, -1.04e-6, 0.0],
        [-2.49780026, 4.32631418, -0.0],
        [0.0, -0.0, 7.86999071]
      ],
      "pbc": [true, true, true],
      "a": 4.9955984500001085,
      "b": 4.995598114633036,
      "c": 7.86999071,
      "alpha": 90.0,
      "beta": 90.0,
      "gamma": 120.00002785582599,
      "volume": 170.09037737667106
    },
    "properties": {},
    "sites": [
      {
        "species": [{ "element": "Eu", "occu": 1 }],
        "abc": [-0.0, 0.0, 0.249999],
        "properties": { "magmom": 6.812 },
        "label": "Eu",
        "xyz": [0.0, 0.0, 1.96748980750929]
      },
      {
        "species": [{ "element": "Eu", "occu": 1 }],
        "abc": [-0.0, 0.0, 0.750000999999999],
        "properties": { "magmom": 6.812 },
        "label": "Eu",
        "xyz": [0.0, 0.0, 5.9025009024907025]
      },
      {
        "species": [{ "element": "In", "occu": 1 }],
        "abc": [0.333333, 0.666667, 0.455157],
        "properties": { "magmom": -0.028 },
        "label": "In",
        "xyz": [-3.187799570092409e-6, 2.88421054877174, 3.5820813615914697]
      },
      {
        "species": [{ "element": "In", "occu": 1 }],
        "abc": [0.666667, 0.333333, 0.95511736],
        "properties": { "magmom": -0.028 },
        "label": "In",
        "xyz": [2.4978013777995702, 1.44210259122826, 7.516764750159726]
      },
      {
        "species": [{ "element": "In", "occu": 1 }],
        "abc": [0.666667, 0.333333, 0.54488264],
        "properties": { "magmom": -0.028 },
        "label": "In",
        "xyz": [2.4978013777995702, 1.44210259122826, 4.288221314840274]
      },
      {
        "species": [{ "element": "In", "occu": 1 }],
        "abc": [0.333333, 0.666667, 0.044843],
        "properties": { "magmom": -0.028 },
        "label": "In",
        "xyz": [-3.187799570092409e-6, 2.88421054877174, 0.35291399340852997]
      }
    ]
  },
  "task_ids": null,
  "uncorrected_energy_per_atom": null,
  "energy_per_atom": -5.731567233333332,
  "formation_energy_per_atom": -0.462747432777777,
  "energy_above_hull": 0.0,
  "is_stable": true,
  "equilibrium_reaction_energy_per_atom": null,
  "decomposes_to": null,
  "xas": null,
  "grain_boundaries": null,
  "band_gap": 0.0,
  "cbm": null,
  "vbm": null,
  "efermi": 5.82182487,
  "is_gap_direct": null,
  "is_metal": null,
  "es_source_calc_id": null,
  "bandstructure": null,
  "dos": null,
  "dos_energy_up": null,
  "dos_energy_down": null,
  "is_magnetic": null,
  "ordering": null,
  "total_magnetization": 14.1242074,
  "total_magnetization_normalized_vol": null,
  "total_magnetization_normalized_formula_units": null,
  "num_magnetic_sites": null,
  "num_unique_magnetic_sites": null,
  "types_of_magnetic_species": null,
  "bulk_modulus": null,
  "shear_modulus": null,
  "universal_anisotropy": null,
  "homogeneous_poisson": null,
  "e_total": null,
  "e_ionic": null,
  "e_electronic": null,
  "n": null,
  "e_ij_max": null,
  "weighted_surface_energy_EV_PER_ANG2": null,
  "weighted_surface_energy": null,
  "weighted_work_function": null,
  "surface_anisotropy": null,
  "shape_factor": null,
  "has_reconstructed": null,
  "possible_species": null,
  "has_props": null,
  "theoretical": null,
  "database_IDs": null,
  "fields_not_requested": [
    "builder_meta",
    "nsites",
    "elements",
    "nelements",
    "composition",
    "composition_reduced",
    "chemsys",
    "symmetry",
    "property_name",
    "deprecated",
    "deprecation_reasons",
    "last_updated",
    "origins",
    "warnings",
    "task_ids",
    "uncorrected_energy_per_atom",
    "equilibrium_reaction_energy_per_atom",
    "decomposes_to",
    "xas",
    "grain_boundaries",
    "cbm",
    "vbm",
    "is_gap_direct",
    "is_metal",
    "es_source_calc_id",
    "bandstructure",
    "dos",
    "dos_energy_up",
    "dos_energy_down",
    "is_magnetic",
    "ordering",
    "total_magnetization_normalized_vol",
    "total_magnetization_normalized_formula_units",
    "num_magnetic_sites",
    "num_unique_magnetic_sites",
    "types_of_magnetic_species",
    "bulk_modulus",
    "shear_modulus",
    "universal_anisotropy",
    "homogeneous_poisson",
    "e_total",
    "e_ionic",
    "e_electronic",
    "n",
    "e_ij_max",
    "weighted_surface_energy_EV_PER_ANG2",
    "weighted_surface_energy",
    "weighted_work_function",
    "surface_anisotropy",
    "shape_factor",
    "has_reconstructed",
    "possible_species",
    "has_props",
    "theoretical",
    "database_IDs"
  ]
}
