{
  "builder_meta": null,
  "nsites": null,
  "elements": null,
  "nelements": null,
  "composition": null,
  "composition_reduced": null,
  "formula_pretty": "EuMg2",
  "formula_anonymous": "AB2",
  "chemsys": null,
  "volume": 352.3630688555451,
  "density": 3.780883891447433,
  "density_atomic": 29.363589071295426,
  "symmetry": null,
  "property_name": null,
  "material_id": "mp-1101792",
  "deprecated": null,
  "deprecation_reasons": null,
  "last_updated": null,
  "origins": null,
  "warnings": null,
  "structure": {
    "@module": "pymatgen.core.structure",
    "@class": "Structure",
    "charge": 0,
    "lattice": {
      "matrix": [
        [3.1565625, -5.46734991, 1e-8],
        [3.1565625, 5.46734991, 1e-8],
        [1.029999999999998e-6, -0.0, 10.20866907]
      ],
      "pbc": [true, true, true],
      "a": 6.313145163449298,
      "b": 6.313145163449298,
      "c": 10.20866907000005,
      "alpha": 89.99999701883438,
      "beta": 89.99999701883438,
      "gamma": 120.00021130550981,
      "volume": 352.3630688555451
    },
    "properties": {},
    "sites": [
      {
        "species": [{ "element": "Eu", "occu": 1 }],
        "abc": [0.333333, 0.666667, 0.43905953000000003],
        "properties": { "magmom": 6.883 },
        "label": "Eu",
        "xyz": [3.1565629522313166, 1.8224536148999402, 4.482213453799737]
      },
      {
        "species": [{ "element": "Eu", "occu": 1 }],
        "abc": [0.666667, 0.333333, 0.5609197300000001],
        "properties": { "magmom": 6.883 },
        "label": "Eu",
        "xyz": [3.1565630777473226, -1.8224536148999402, 5.7262439084037515]
      },
      {
        "species": [{ "element": "Eu", "occu": 1 }],
        "abc": [0.666667, 0.333333999999999, 0.93915909],
        "properties": { "magmom": 6.883 },
        "label": "Eu",
        "xyz": [3.15656662389636, -1.8224481475500356, 9.587564363892355]
      },
      {
        "species": [{ "element": "Eu", "occu": 1 }],
        "abc": [0.333333, 0.666666, 0.06086135],
        "properties": { "magmom": 6.883 },
        "label": "Eu",
        "xyz": [3.156559406124691, 1.82244814755003, 0.6213133913034344]
      },
      {
        "species": [{ "element": "Mg", "occu": 1 }],
        "abc": [0.0, 0.0, 0.49999432],
        "properties": { "magmom": -0.006 },
        "label": "Mg",
        "xyz": [5.14994149599999e-7, 0.0, 5.104276549759682]
      },
      {
        "species": [{ "element": "Mg", "occu": 1 }],
        "abc": [-0.0, -0.0, 5.539999999999999e-6],
        "properties": { "magmom": -0.006 },
        "label": "Mg",
        "xyz": [5.706199999999987e-12, 0.0, 5.655602664779998e-5]
      },
      {
        "species": [{ "element": "Mg", "occu": 1 }],
        "abc": [0.83272661, 0.16727339, 0.24994798000000001],
        "properties": { "magmom": 0.002 },
        "label": "Mg",
        "xyz": [3.1565627574464195, -3.638265602476211, 2.5516362225349787]
      },
      {
        "species": [{ "element": "Mg", "occu": 1 }],
        "abc": [0.83272661, 0.66545422, 0.24994798000000001],
        "properties": { "magmom": 0.002 },
        "label": "Mg",
        "xyz": [4.729101683643295, -0.914536686411985, 2.551636227516787]
      },
      {
        "species": [{ "element": "Mg", "occu": 1 }],
        "abc": [0.33454578, 0.16727339, 0.24994798000000001],
        "properties": { "magmom": 0.002 },
        "label": "Mg",
        "xyz": [1.5840238312495445, -0.914536686411985, 2.5516362175531704]
      },
      {
        "species": [{ "element": "Mg", "occu": 1 }],
        "abc": [0.16727286, 0.83272714, 0.75005183],
        "properties": { "magmom": 0.002 },
        "label": "Mg",
        "xyz": [3.156563272553385, 3.6382713978671153, 7.657030927817897]
      },
      {
        "species": [{ "element": "Mg", "occu": 1 }],
        "abc": [0.16727286, 0.33454571, 0.75005183],
        "properties": { "magmom": 0.002 },
        "label": "Mg",
        "xyz": [1.5840224524190099, 0.9145392013929435, 7.657030922836083]
      },
      {
        "species": [{ "element": "Mg", "occu": 1 }],
        "abc": [0.66545529, 0.8327281400000001, 0.75005183],
        "properties": { "magmom": 0.002 },
        "label": "Mg",
        "xyz": [4.72911040581276, 0.9145392013929436, 7.6570309327997315]
      }
    ]
  },
  "task_ids": null,
  "uncorrected_energy_per_atom": null,
  "energy_per_atom": -4.602242995833333,
  "formation_energy_per_atom": -0.085892347500002,
  "energy_above_hull": 0.0,
  "is_stable": true,
  "equilibrium_reaction_energy_per_atom": null,
  "decomposes_to": null,
  "xas": null,
  "grain_boundaries": null,
  "band_gap": 0.0,
  "cbm": null,
  "vbm": null,
  "efermi": 2.73977458,
  "is_gap_direct": null,
  "is_metal": null,
  "es_source_calc_id": null,
  "bandstructure": null,
  "dos": null,
  "dos_energy_up": null,
  "dos_energy_down": null,
  "is_magnetic": null,
  "ordering": null,
  "total_magnetization": 30.1293503,
  "total_magnetization_normalized_vol": null,
  "total_magnetization_normalized_formula_units": null,
  "num_magnetic_sites": null,
  "num_unique_magnetic_sites": null,
  "types_of_magnetic_species": null,
  "bulk_modulus": null,
  "shear_modulus": null,
  "universal_anisotropy": null,
  "homogeneous_poisson": null,
  "e_total": null,
  "e_ionic": null,
  "e_electronic": null,
  "n": null,
  "e_ij_max": null,
  "weighted_surface_energy_EV_PER_ANG2": null,
  "weighted_surface_energy": null,
  "weighted_work_function": null,
  "surface_anisotropy": null,
  "shape_factor": null,
  "has_reconstructed": null,
  "possible_species": null,
  "has_props": null,
  "theoretical": null,
  "database_IDs": null,
  "fields_not_requested": [
    "builder_meta",
    "nsites",
    "elements",
    "nelements",
    "composition",
    "composition_reduced",
    "chemsys",
    "symmetry",
    "property_name",
    "deprecated",
    "deprecation_reasons",
    "last_updated",
    "origins",
    "warnings",
    "task_ids",
    "uncorrected_energy_per_atom",
    "equilibrium_reaction_energy_per_atom",
    "decomposes_to",
    "xas",
    "grain_boundaries",
    "cbm",
    "vbm",
    "is_gap_direct",
    "is_metal",
    "es_source_calc_id",
    "bandstructure",
    "dos",
    "dos_energy_up",
    "dos_energy_down",
    "is_magnetic",
    "ordering",
    "total_magnetization_normalized_vol",
    "total_magnetization_normalized_formula_units",
    "num_magnetic_sites",
    "num_unique_magnetic_sites",
    "types_of_magnetic_species",
    "bulk_modulus",
    "shear_modulus",
    "universal_anisotropy",
    "homogeneous_poisson",
    "e_total",
    "e_ionic",
    "e_electronic",
    "n",
    "e_ij_max",
    "weighted_surface_energy_EV_PER_ANG2",
    "weighted_surface_energy",
    "weighted_work_function",
    "surface_anisotropy",
    "shape_factor",
    "has_reconstructed",
    "possible_species",
    "has_props",
    "theoretical",
    "database_IDs"
  ]
}
