{"builder_meta": null, "nsites": null, "elements": null, "nelements": null, "composition": null, "composition_reduced": null, "formula_pretty": "EuN2", "formula_anonymous": "AB2", "chemsys": null, "volume": 122.53404604097882, "density": 4.8779831150788535, "density_atomic": 20.422341006829804, "symmetry": null, "property_name": null, "material_id": "mp-1072167", "deprecated": null, "deprecation_reasons": null, "last_updated": null, "origins": null, "warnings": null, "structure": {"@module": "pymatgen.core.structure", "@class": "Structure", "charge": 0, "lattice": {"matrix": [[4.534642, 0.0, 0.0], [0.0, 4.534642, 0.0], [-2.267321, -2.267321, 5.958964]], "pbc": [true, true, true], "a": 4.534642, "b": 4.534642, "c": 6.7668856194986775, "alpha": 109.57626118074867, "beta": 109.57626118074867, "gamma": 90.0, "volume": 122.53404604097882}, "properties": {}, "sites": [{"species": [{"element": "Eu", "occu": 1}], "abc": [0.75, 0.25, 0.5], "properties": {"magmom": -6.06}, "label": "Eu", "xyz": [2.267321, 0.0, 2.979482]}, {"species": [{"element": "Eu", "occu": 1}], "abc": [0.5, 0.5, 0.0], "properties": {"magmom": -6.06}, "label": "Eu", "xyz": [2.267321, 2.267321, 0.0]}, {"species": [{"element": "N", "occu": 1}], "abc": [0.302872, 0.302872, 0.605744], "properties": {"magmom": 1.065}, "label": "N", "xyz": [0.0, 0.0, 3.6096066892159997]}, {"species": [{"element": "N", "occu": 1}], "abc": [0.552872, 0.052871999999999, 0.105743999999999], "properties": {"magmom": 1.054}, "label": "N", "xyz": [2.2673210000000026, -2.275957200481571e-15, 0.6301246892159941]}, {"species": [{"element": "N", "occu": 1}], "abc": [0.947128, 0.447127999999999, 0.894255999999999], "properties": {"magmom": 1.065}, "label": "N", "xyz": [2.2673210000000017, -2.220446049250313e-15, 5.328839310783994]}, {"species": [{"element": "N", "occu": 1}], "abc": [0.697128, 0.697128, 0.394256], "properties": {"magmom": 1.054}, "label": "N", "xyz": [2.267321, 2.267321, 2.349357310784]}]}, "task_ids": null, "uncorrected_energy_per_atom": null, "energy_per_atom": -18.23244161708334, "formation_energy_per_atom": 0.6936864020833271, "energy_above_hull": 1.393290233333331, "is_stable": false, "equilibrium_reaction_energy_per_atom": null, "decomposes_to": null, "xas": null, "grain_boundaries": null, "band_gap": 0.0, "cbm": null, "vbm": null, "efermi": -0.17109535, "is_gap_direct": null, "is_metal": null, "es_source_calc_id": null, "bandstructure": null, "dos": null, "dos_energy_up": null, "dos_energy_down": null, "is_magnetic": null, "ordering": null, "total_magnetization": 6.1019582, "total_magnetization_normalized_vol": null, "total_magnetization_normalized_formula_units": null, "num_magnetic_sites": null, "num_unique_magnetic_sites": null, "types_of_magnetic_species": null, "bulk_modulus": null, "shear_modulus": null, "universal_anisotropy": null, "homogeneous_poisson": null, "e_total": null, "e_ionic": null, "e_electronic": null, "n": null, "e_ij_max": null, "weighted_surface_energy_EV_PER_ANG2": null, "weighted_surface_energy": null, "weighted_work_function": null, "surface_anisotropy": null, "shape_factor": null, "has_reconstructed": null, "possible_species": null, "has_props": null, "theoretical": null, "database_IDs": null, "fields_not_requested": ["builder_meta", "nsites", "elements", "nelements", "composition", "composition_reduced", "chemsys", "symmetry", "property_name", "deprecated", "deprecation_reasons", "last_updated", "origins", "warnings", "task_ids", "uncorrected_energy_per_atom", "equilibrium_reaction_energy_per_atom", "decomposes_to", "xas", "grain_boundaries", "cbm", "vbm", "is_gap_direct", "is_metal", "es_source_calc_id", "bandstructure", "dos", "dos_energy_up", "dos_energy_down", "is_magnetic", "ordering", "total_magnetization_normalized_vol", "total_magnetization_normalized_formula_units", "num_magnetic_sites", "num_unique_magnetic_sites", "types_of_magnetic_species", "bulk_modulus", "shear_modulus", "universal_anisotropy", "homogeneous_poisson", "e_total", "e_ionic", "e_electronic", "n", "e_ij_max", "weighted_surface_energy_EV_PER_ANG2", "weighted_surface_energy", "weighted_work_function", "surface_anisotropy", "shape_factor", "has_reconstructed", "possible_species", "has_props", "theoretical", "database_IDs"]}