{"builder_meta": null, "nsites": null, "elements": null, "nelements": null, "composition": null, "composition_reduced": null, "formula_pretty": "EuNb3", "formula_anonymous": "AB3", "chemsys": null, "volume": 184.9869663734066, "density": 7.732071002800855, "density_atomic": 23.123370796675825, "symmetry": null, "property_name": null, "material_id": "mp-1184454", "deprecated": null, "deprecation_reasons": null, "last_updated": null, "origins": null, "warnings": null, "structure": {"@module": "pymatgen.core.structure", "@class": "Structure", "charge": 0, "lattice": {"matrix": [[3.24311, -5.617232, 0.0], [3.24311, 5.617232, 0.0], [0.0, 0.0, 5.077233]], "pbc": [true, true, true], "a": 6.486220610950879, "b": 6.486220610950879, "c": 5.077233, "alpha": 90.0, "beta": 90.0, "gamma": 120.0000062317005, "volume": 184.9869663734066}, "properties": {}, "sites": [{"species": [{"element": "Eu", "occu": 1}], "abc": [0.333333, 0.666667, 0.75], "properties": {"magmom": 6.719}, "label": "Eu", "xyz": [3.24311, 1.8724144114880001, 3.8079247499999997]}, {"species": [{"element": "Eu", "occu": 1}], "abc": [0.666667, 0.333333, 0.25], "properties": {"magmom": 6.719}, "label": "Eu", "xyz": [3.24311, -1.8724144114880001, 1.26930825]}, {"species": [{"element": "Nb", "occu": 1}], "abc": [0.141781, 0.283562, 0.25], "properties": {"magmom": -0.053}, "label": "Nb", "xyz": [1.37943413673, 0.7964167701919999, 1.26930825]}, {"species": [{"element": "Nb", "occu": 1}], "abc": [0.716438, 0.858219, 0.25], "properties": {"magmom": -0.052000000000000005}, "label": "Nb", "xyz": [5.10678586327, 0.7964167701919989, 1.26930825]}, {"species": [{"element": "Nb", "occu": 1}], "abc": [0.141781, 0.858219, 0.25], "properties": {"magmom": -0.054}, "label": "Nb", "xyz": [3.24311, 4.024398459615999, 1.26930825]}, {"species": [{"element": "Nb", "occu": 1}], "abc": [0.858219, 0.716438, 0.75], "properties": {"magmom": -0.053}, "label": "Nb", "xyz": [5.10678586327, -0.7964167701919989, 3.8079247499999997]}, {"species": [{"element": "Nb", "occu": 1}], "abc": [0.283562, 0.141781, 0.75], "properties": {"magmom": -0.053}, "label": "Nb", "xyz": [1.37943413673, -0.7964167701919999, 3.8079247499999997]}, {"species": [{"element": "Nb", "occu": 1}], "abc": [0.858219, 0.141781, 0.75], "properties": {"magmom": -0.055}, "label": "Nb", "xyz": [3.24311, -4.024398459615999, 3.8079247499999997]}]}, "task_ids": null, "uncorrected_energy_per_atom": null, "energy_per_atom": -27.59637505125, "formation_energy_per_atom": 0.5844016150000001, "energy_above_hull": 0.5844016150000001, "is_stable": false, "equilibrium_reaction_energy_per_atom": null, "decomposes_to": null, "xas": null, "grain_boundaries": null, "band_gap": 0.0, "cbm": null, "vbm": null, "efermi": 3.87694061, "is_gap_direct": null, "is_metal": null, "es_source_calc_id": null, "bandstructure": null, "dos": null, "dos_energy_up": null, "dos_energy_down": null, "is_magnetic": null, "ordering": null, "total_magnetization": 13.5493761, "total_magnetization_normalized_vol": null, "total_magnetization_normalized_formula_units": null, "num_magnetic_sites": null, "num_unique_magnetic_sites": null, "types_of_magnetic_species": null, "bulk_modulus": null, "shear_modulus": null, "universal_anisotropy": null, "homogeneous_poisson": null, "e_total": null, "e_ionic": null, "e_electronic": null, "n": null, "e_ij_max": null, "weighted_surface_energy_EV_PER_ANG2": null, "weighted_surface_energy": null, "weighted_work_function": null, "surface_anisotropy": null, "shape_factor": null, "has_reconstructed": null, "possible_species": null, "has_props": null, "theoretical": null, "database_IDs": null, "fields_not_requested": ["builder_meta", "nsites", "elements", "nelements", "composition", "composition_reduced", "chemsys", "symmetry", "property_name", "deprecated", "deprecation_reasons", "last_updated", "origins", "warnings", "task_ids", "uncorrected_energy_per_atom", "equilibrium_reaction_energy_per_atom", "decomposes_to", "xas", "grain_boundaries", "cbm", "vbm", "is_gap_direct", "is_metal", "es_source_calc_id", "bandstructure", "dos", "dos_energy_up", "dos_energy_down", "is_magnetic", "ordering", "total_magnetization_normalized_vol", "total_magnetization_normalized_formula_units", "num_magnetic_sites", "num_unique_magnetic_sites", "types_of_magnetic_species", "bulk_modulus", "shear_modulus", "universal_anisotropy", "homogeneous_poisson", "e_total", "e_ionic", "e_electronic", "n", "e_ij_max", "weighted_surface_energy_EV_PER_ANG2", "weighted_surface_energy", "weighted_work_function", "surface_anisotropy", "shape_factor", "has_reconstructed", "possible_species", "has_props", "theoretical", "database_IDs"]}