{"builder_meta": null, "nsites": null, "elements": null, "nelements": null, "composition": null, "composition_reduced": null, "formula_pretty": "EuO2", "formula_anonymous": "AB2", "chemsys": null, "volume": 81.65517739800451, "density": 7.482132203624058, "density_atomic": 13.609196233000752, "symmetry": null, "property_name": null, "material_id": "mp-1206506", "deprecated": null, "deprecation_reasons": null, "last_updated": null, "origins": null, "warnings": null, "structure": {"@module": "pymatgen.core.structure", "@class": "Structure", "charge": 0, "lattice": {"matrix": [[0.0, -3.86042171, 0.0], [-3.81323979, 0.0, 0.61044783], [-0.865508699999999, 0.0, -5.40840162]], "pbc": [true, true, true], "a": 3.86042171, "b": 3.8617928801517762, "c": 5.47721766894418, "alpha": 90.00312815075903, "beta": 90.0, "gamma": 90.0, "volume": 81.65517739800451}, "properties": {}, "sites": [{"species": [{"element": "Eu", "occu": 1}], "abc": [0.75, 0.2500284, 0.74997611], "properties": {"magmom": 6.051}, "label": "Eu", "xyz": [-1.6025290915071921, -2.8953162824999996, -3.903542714066926]}, {"species": [{"element": "Eu", "occu": 1}], "abc": [0.25, 0.7499716, 0.25002389], "properties": {"magmom": 6.051}, "label": "Eu", "xyz": [-3.0762193984928063, -0.9651054275, -0.8944110759330739]}, {"species": [{"element": "O", "occu": 1}], "abc": [0.75, 0.75006745, 0.49989013], "properties": {"magmom": -0.519}, "label": "O", "xyz": [-3.2928463020829657, -2.8953162824999996, -2.245729541707877]}, {"species": [{"element": "O", "occu": 1}], "abc": [0.25, 0.24993255, 0.50010987], "properties": {"magmom": -0.519}, "label": "O", "xyz": [-1.385902187917033, -0.9651054275, -2.5522242482921227]}, {"species": [{"element": "O", "occu": 1}], "abc": [0.75, 0.74998149, -0.00012546], "properties": {"magmom": -0.519}, "label": "O", "xyz": [-2.859750672709985, -2.8953162824999996, 0.4585031111779119]}, {"species": [{"element": "O", "occu": 1}], "abc": [0.25, 0.25001851, 0.00012546], "properties": {"magmom": -0.519}, "label": "O", "xyz": [-0.9534891172900151, -0.9651054275, 0.15194471882208813]}]}, "task_ids": null, "uncorrected_energy_per_atom": null, "energy_per_atom": -9.370198446666665, "formation_energy_per_atom": -2.642187138333334, "energy_above_hull": 0.228789992500002, "is_stable": false, "equilibrium_reaction_energy_per_atom": null, "decomposes_to": null, "xas": null, "grain_boundaries": null, "band_gap": 0.0, "cbm": null, "vbm": null, "efermi": 1.59734807, "is_gap_direct": null, "is_metal": null, "es_source_calc_id": null, "bandstructure": null, "dos": null, "dos_energy_up": null, "dos_energy_down": null, "is_magnetic": null, "ordering": null, "total_magnetization": 9.9999998, "total_magnetization_normalized_vol": null, "total_magnetization_normalized_formula_units": null, "num_magnetic_sites": null, "num_unique_magnetic_sites": null, "types_of_magnetic_species": null, "bulk_modulus": null, "shear_modulus": null, "universal_anisotropy": null, "homogeneous_poisson": null, "e_total": null, "e_ionic": null, "e_electronic": null, "n": null, "e_ij_max": null, "weighted_surface_energy_EV_PER_ANG2": null, "weighted_surface_energy": null, "weighted_work_function": null, "surface_anisotropy": null, "shape_factor": null, "has_reconstructed": null, "possible_species": null, "has_props": null, "theoretical": null, "database_IDs": null, "fields_not_requested": ["builder_meta", "nsites", "elements", "nelements", "composition", "composition_reduced", "chemsys", "symmetry", "property_name", "deprecated", "deprecation_reasons", "last_updated", "origins", "warnings", "task_ids", "uncorrected_energy_per_atom", "equilibrium_reaction_energy_per_atom", "decomposes_to", "xas", "grain_boundaries", "cbm", "vbm", "is_gap_direct", "is_metal", "es_source_calc_id", "bandstructure", "dos", "dos_energy_up", "dos_energy_down", "is_magnetic", "ordering", "total_magnetization_normalized_vol", "total_magnetization_normalized_formula_units", "num_magnetic_sites", "num_unique_magnetic_sites", "types_of_magnetic_species", "bulk_modulus", "shear_modulus", "universal_anisotropy", "homogeneous_poisson", "e_total", "e_ionic", "e_electronic", "n", "e_ij_max", "weighted_surface_energy_EV_PER_ANG2", "weighted_surface_energy", "weighted_work_function", "surface_anisotropy", "shape_factor", "has_reconstructed", "possible_species", "has_props", "theoretical", "database_IDs"]}