{"builder_meta": null, "nsites": null, "elements": null, "nelements": null, "composition": null, "composition_reduced": null, "formula_pretty": "EuO3", "formula_anonymous": "AB3", "chemsys": null, "volume": 103.36694666500415, "density": 6.424588432884406, "density_atomic": 12.920868333125519, "symmetry": null, "property_name": null, "material_id": "mp-1206587", "deprecated": null, "deprecation_reasons": null, "last_updated": null, "origins": null, "warnings": null, "structure": {"@module": "pymatgen.core.structure", "@class": "Structure", "charge": 0, "lattice": {"matrix": [[3.212853, 0.0, 0.0], [0.0, 4.958702, 0.0], [0.0, 0.0, 6.488179]], "pbc": [true, true, true], "a": 3.212853, "b": 4.958702, "c": 6.488179, "alpha": 90.0, "beta": 90.0, "gamma": 90.0, "volume": 103.36694666500415}, "properties": {}, "sites": [{"species": [{"element": "Eu", "occu": 1}], "abc": [0.5, 0.374384999999999, 0.010674], "properties": {"magmom": 6.337}, "label": "Eu", "xyz": [1.6064265, 1.856463648269995, 0.069254822646]}, {"species": [{"element": "Eu", "occu": 1}], "abc": [0.5, 0.625614999999999, 0.510674], "properties": {"magmom": 6.337}, "label": "Eu", "xyz": [1.6064265, 3.102238351729995, 3.3133443226459995]}, {"species": [{"element": "O", "occu": 1}], "abc": [0.5, 0.09704, 0.617277], "properties": {"magmom": -0.14}, "label": "O", "xyz": [1.6064265, 0.48119244208, 4.005003668583]}, {"species": [{"element": "O", "occu": 1}], "abc": [0.5, 0.9029600000000001, 0.11727699999999901], "properties": {"magmom": -0.14}, "label": "O", "xyz": [1.6064265, 4.47750955792, 0.7609141685829935]}, {"species": [{"element": "O", "occu": 1}], "abc": [0.0, 0.960542, 0.029952999999999], "properties": {"magmom": -0.247}, "label": "O", "xyz": [0.0, 4.763041536484, 0.19434042558699352]}, {"species": [{"element": "O", "occu": 1}], "abc": [0.0, 0.039458, 0.529953], "properties": {"magmom": -0.247}, "label": "O", "xyz": [0.0, 0.195660463516, 3.4384299255869997]}, {"species": [{"element": "O", "occu": 1}], "abc": [0.0, 0.47325399999999906, 0.269895999999999], "properties": {"magmom": -0.353}, "label": "O", "xyz": [0.0, 2.3467255563079954, 1.7511335593839936]}, {"species": [{"element": "O", "occu": 1}], "abc": [0.0, 0.526745999999999, 0.769895999999999], "properties": {"magmom": -0.353}, "label": "O", "xyz": [0.0, 2.611976443691995, 4.995223059383993]}]}, "task_ids": null, "uncorrected_energy_per_atom": null, "energy_per_atom": -7.9895912325000005, "formation_energy_per_atom": -1.706592500000001, "energy_above_hull": 0.44664034812500003, "is_stable": false, "equilibrium_reaction_energy_per_atom": null, "decomposes_to": null, "xas": null, "grain_boundaries": null, "band_gap": 0.0, "cbm": null, "vbm": null, "efermi": 1.7080992400000001, "is_gap_direct": null, "is_metal": null, "es_source_calc_id": null, "bandstructure": null, "dos": null, "dos_energy_up": null, "dos_energy_down": null, "is_magnetic": null, "ordering": null, "total_magnetization": 11.1204855, "total_magnetization_normalized_vol": null, "total_magnetization_normalized_formula_units": null, "num_magnetic_sites": null, "num_unique_magnetic_sites": null, "types_of_magnetic_species": null, "bulk_modulus": null, "shear_modulus": null, "universal_anisotropy": null, "homogeneous_poisson": null, "e_total": null, "e_ionic": null, "e_electronic": null, "n": null, "e_ij_max": null, "weighted_surface_energy_EV_PER_ANG2": null, "weighted_surface_energy": null, "weighted_work_function": null, "surface_anisotropy": null, "shape_factor": null, "has_reconstructed": null, "possible_species": null, "has_props": null, "theoretical": null, "database_IDs": null, "fields_not_requested": ["builder_meta", "nsites", "elements", "nelements", "composition", "composition_reduced", "chemsys", "symmetry", "property_name", "deprecated", "deprecation_reasons", "last_updated", "origins", "warnings", "task_ids", "uncorrected_energy_per_atom", "equilibrium_reaction_energy_per_atom", "decomposes_to", "xas", "grain_boundaries", "cbm", "vbm", "is_gap_direct", "is_metal", "es_source_calc_id", "bandstructure", "dos", "dos_energy_up", "dos_energy_down", "is_magnetic", "ordering", "total_magnetization_normalized_vol", "total_magnetization_normalized_formula_units", "num_magnetic_sites", "num_unique_magnetic_sites", "types_of_magnetic_species", "bulk_modulus", "shear_modulus", "universal_anisotropy", "homogeneous_poisson", "e_total", "e_ionic", "e_electronic", "n", "e_ij_max", "weighted_surface_energy_EV_PER_ANG2", "weighted_surface_energy", "weighted_work_function", "surface_anisotropy", "shape_factor", "has_reconstructed", "possible_species", "has_props", "theoretical", "database_IDs"]}