{"builder_meta": null, "nsites": null, "elements": null, "nelements": null, "composition": null, "composition_reduced": null, "formula_pretty": "EuP3", "formula_anonymous": "AB3", "chemsys": null, "volume": 166.57585419321939, "density": 4.88235928560007, "density_atomic": 20.821981774152423, "symmetry": null, "property_name": null, "material_id": "mp-1079534", "deprecated": null, "deprecation_reasons": null, "last_updated": null, "origins": null, "warnings": null, "structure": {"@module": "pymatgen.core.structure", "@class": "Structure", "charge": 0, "lattice": {"matrix": [[0.02485194, 7.599999999999997e-06, 5.57531167], [-4.11854548, 3.62029782, 1.75810883], [-4.1185403, -3.6202882, 1.7580987700000001]], "pbc": [true, true, true], "a": 5.575367058465093, "b": 5.758465058889318, "c": 5.758452234659835, "alpha": 77.90727380155495, "beta": 72.41528552161623, "gamma": 72.41511818292173, "volume": 166.57585419321939}, "properties": {}, "sites": [{"species": [{"element": "Eu", "occu": 1}], "abc": [0.64724768, 0.16299379, 0.16299479], "properties": {"magmom": 6.742}, "label": "Eu", "xyz": [-1.326512587869107, 2.866794427847097e-06, 4.181729304933999]}, {"species": [{"element": "Eu", "occu": 1}], "abc": [0.35275946, 0.8370109, 0.8370099], "properties": {"magmom": 6.742}, "label": "Eu", "xyz": [-6.885759706620349, 1.4353304954362045e-05, 4.909846263804968]}, {"species": [{"element": "P", "occu": 1}], "abc": [0.1838822, 0.38208687, 0.89816041], "properties": {"magmom": -0.026000000000000002}, "label": "P", "xyz": [-5.268182166453903, -1.8683298740138186, 3.2760055876230325]}, {"species": [{"element": "P", "occu": 1}], "abc": [0.1838822, 0.89816041, 0.38208587], "properties": {"magmom": -0.026000000000000002}, "label": "P", "xyz": [-5.26818072117454, 1.8683486052902925, 3.2760090212240742]}, {"species": [{"element": "P", "occu": 1}], "abc": [0.81611347, 0.6179085400000001, 0.10184565], "properties": {"magmom": -0.026000000000000002}, "label": "P", "xyz": [-2.9440578353854625, 1.8683085378674251, 5.815492125636453]}, {"species": [{"element": "P", "occu": 1}], "abc": [0.81611347, 0.10184665, 0.6179085400000001], "properties": {"magmom": -0.026000000000000002}, "label": "P", "xyz": [-2.9440592807251726, -1.8682855886095533, 5.81548869215261]}, {"species": [{"element": "P", "occu": 1}], "abc": [0.19840019, 0.50717372, 0.50717672], "properties": {"magmom": 0.001}, "label": "P", "xyz": [-4.172715163004733, -4.4740119695685365e-06, 2.8894762577177993]}, {"species": [{"element": "P", "occu": 1}], "abc": [0.80160234, 0.49282013, 0.49281913], "properties": {"magmom": 0.001}, "label": "P", "xyz": [-4.039476193122912, 1.4453395634994592e-05, 6.202039009341526]}]}, "task_ids": null, "uncorrected_energy_per_atom": null, "energy_per_atom": -17.1748210525, "formation_energy_per_atom": -0.793043139732141, "energy_above_hull": 0.0, "is_stable": true, "equilibrium_reaction_energy_per_atom": null, "decomposes_to": null, "xas": null, "grain_boundaries": null, "band_gap": 0.0, "cbm": null, "vbm": null, "efermi": 5.93323795, "is_gap_direct": null, "is_metal": null, "es_source_calc_id": null, "bandstructure": null, "dos": null, "dos_energy_up": null, "dos_energy_down": null, "is_magnetic": null, "ordering": null, "total_magnetization": 13.9757527, "total_magnetization_normalized_vol": null, "total_magnetization_normalized_formula_units": null, "num_magnetic_sites": null, "num_unique_magnetic_sites": null, "types_of_magnetic_species": null, "bulk_modulus": null, "shear_modulus": null, "universal_anisotropy": null, "homogeneous_poisson": null, "e_total": null, "e_ionic": null, "e_electronic": null, "n": null, "e_ij_max": null, "weighted_surface_energy_EV_PER_ANG2": null, "weighted_surface_energy": null, "weighted_work_function": null, "surface_anisotropy": null, "shape_factor": null, "has_reconstructed": null, "possible_species": null, "has_props": null, "theoretical": null, "database_IDs": null, "fields_not_requested": ["builder_meta", "nsites", "elements", "nelements", "composition", "composition_reduced", "chemsys", "symmetry", "property_name", "deprecated", "deprecation_reasons", "last_updated", "origins", "warnings", "task_ids", "uncorrected_energy_per_atom", "equilibrium_reaction_energy_per_atom", "decomposes_to", "xas", "grain_boundaries", "cbm", "vbm", "is_gap_direct", "is_metal", "es_source_calc_id", "bandstructure", "dos", "dos_energy_up", "dos_energy_down", "is_magnetic", "ordering", "total_magnetization_normalized_vol", "total_magnetization_normalized_formula_units", "num_magnetic_sites", "num_unique_magnetic_sites", "types_of_magnetic_species", "bulk_modulus", "shear_modulus", "universal_anisotropy", "homogeneous_poisson", "e_total", "e_ionic", "e_electronic", "n", "e_ij_max", "weighted_surface_energy_EV_PER_ANG2", "weighted_surface_energy", "weighted_work_function", "surface_anisotropy", "shape_factor", "has_reconstructed", "possible_species", "has_props", "theoretical", "database_IDs"]}