{
  "builder_meta": null,
  "nsites": null,
  "elements": null,
  "nelements": null,
  "composition": null,
  "composition_reduced": null,
  "formula_pretty": "EuPd3",
  "formula_anonymous": "AB3",
  "chemsys": null,
  "volume": 72.3118271065507,
  "density": 10.820994191815037,
  "density_atomic": 18.077956776637674,
  "symmetry": null,
  "property_name": null,
  "material_id": "mp-636279",
  "deprecated": null,
  "deprecation_reasons": null,
  "last_updated": null,
  "origins": null,
  "warnings": null,
  "structure": {
    "@module": "pymatgen.core.structure",
    "@class": "Structure",
    "charge": 0,
    "lattice": {
      "matrix": [
        [4.16615049, -3.973e-5, 6.472e-5],
        [-3.973e-5, 4.16625354, -0.00012337],
        [6.460000000000001e-5, -0.00012337, 4.16609037]
      ],
      "pbc": [true, true, true],
      "a": 4.166150490692144,
      "b": 4.166253542016035,
      "c": 4.1660903723275196,
      "alpha": 90.00339332991668,
      "beta": 89.99822147302584,
      "gamma": 90.00109280165215,
      "volume": 72.3118271065507
    },
    "properties": {},
    "sites": [
      {
        "species": [{ "element": "Eu", "occu": 1 }],
        "abc": [-5e-8, 0.0, 1.73e-6],
        "properties": { "magmom": 6.546 },
        "label": "Eu",
        "xyz": [-2.081957665e-7, -2.114436e-10, 7.207333104099999e-6]
      },
      {
        "species": [{ "element": "Pd", "occu": 1 }],
        "abc": [0.5000002100000001, 0.499998999999999, 1.1e-7],
        "properties": { "magmom": -0.024 },
        "label": "Pd",
        "xyz": [2.083056254938439, 2.083102738724542, -2.8866593098099883e-5]
      },
      {
        "species": [{ "element": "Pd", "occu": 1 }],
        "abc": [0.50000188, -0.0, 0.49999917],
        "properties": { "magmom": -0.024 },
        "label": "Pd",
        "xyz": [2.083115377309303, -8.15499722953e-5, 2.083074087266666]
      },
      {
        "species": [{ "element": "Pd", "occu": 1 }],
        "abc": [0.99999895, 0.500001, 0.49999899000000003],
        "properties": { "magmom": -0.024 },
        "label": "Pd",
        "xyz": [4.16615855043701, 2.0830295214198595, 2.0830440120574005]
      }
    ]
  },
  "task_ids": null,
  "uncorrected_energy_per_atom": null,
  "energy_per_atom": -27.39558589,
  "formation_energy_per_atom": -0.5450250037499981,
  "energy_above_hull": 0.017754212500001,
  "is_stable": false,
  "equilibrium_reaction_energy_per_atom": null,
  "decomposes_to": null,
  "xas": null,
  "grain_boundaries": null,
  "band_gap": 0.0,
  "cbm": null,
  "vbm": null,
  "efermi": 3.91123667,
  "is_gap_direct": null,
  "is_metal": null,
  "es_source_calc_id": null,
  "bandstructure": null,
  "dos": null,
  "dos_energy_up": null,
  "dos_energy_down": null,
  "is_magnetic": null,
  "ordering": null,
  "total_magnetization": 6.687419,
  "total_magnetization_normalized_vol": null,
  "total_magnetization_normalized_formula_units": null,
  "num_magnetic_sites": null,
  "num_unique_magnetic_sites": null,
  "types_of_magnetic_species": null,
  "bulk_modulus": null,
  "shear_modulus": null,
  "universal_anisotropy": null,
  "homogeneous_poisson": null,
  "e_total": null,
  "e_ionic": null,
  "e_electronic": null,
  "n": null,
  "e_ij_max": null,
  "weighted_surface_energy_EV_PER_ANG2": null,
  "weighted_surface_energy": null,
  "weighted_work_function": null,
  "surface_anisotropy": null,
  "shape_factor": null,
  "has_reconstructed": null,
  "possible_species": null,
  "has_props": null,
  "theoretical": null,
  "database_IDs": null,
  "fields_not_requested": [
    "builder_meta",
    "nsites",
    "elements",
    "nelements",
    "composition",
    "composition_reduced",
    "chemsys",
    "symmetry",
    "property_name",
    "deprecated",
    "deprecation_reasons",
    "last_updated",
    "origins",
    "warnings",
    "task_ids",
    "uncorrected_energy_per_atom",
    "equilibrium_reaction_energy_per_atom",
    "decomposes_to",
    "xas",
    "grain_boundaries",
    "cbm",
    "vbm",
    "is_gap_direct",
    "is_metal",
    "es_source_calc_id",
    "bandstructure",
    "dos",
    "dos_energy_up",
    "dos_energy_down",
    "is_magnetic",
    "ordering",
    "total_magnetization_normalized_vol",
    "total_magnetization_normalized_formula_units",
    "num_magnetic_sites",
    "num_unique_magnetic_sites",
    "types_of_magnetic_species",
    "bulk_modulus",
    "shear_modulus",
    "universal_anisotropy",
    "homogeneous_poisson",
    "e_total",
    "e_ionic",
    "e_electronic",
    "n",
    "e_ij_max",
    "weighted_surface_energy_EV_PER_ANG2",
    "weighted_surface_energy",
    "weighted_work_function",
    "surface_anisotropy",
    "shape_factor",
    "has_reconstructed",
    "possible_species",
    "has_props",
    "theoretical",
    "database_IDs"
  ]
}
