{"builder_meta": null, "nsites": null, "elements": null, "nelements": null, "composition": null, "composition_reduced": null, "formula_pretty": "EuPd2", "formula_anonymous": "AB2", "chemsys": null, "volume": 117.31917399258012, "density": 10.326893261117887, "density_atomic": 19.55319566543002, "symmetry": null, "property_name": null, "material_id": "mp-1854", "deprecated": null, "deprecation_reasons": null, "last_updated": null, "origins": null, "warnings": null, "structure": {"@module": "pymatgen.core.structure", "@class": "Structure", "charge": 0, "lattice": {"matrix": [[4.75873667, -3.859999999999999e-06, 2.7474534], [1.58624085, 4.48658489, 2.7474543000000002], [-5.15e-06, -2.35e-06, 5.49491525]], "pbc": [true, true, true], "a": 5.494913546143301, "b": 5.494916663605875, "c": 5.494915250002916, "alpha": 60.00008954531346, "beta": 60.00009431152182, "gamma": 60.00012744728234, "volume": 117.31917399258012}, "properties": {}, "sites": [{"species": [{"element": "Eu", "occu": 1}], "abc": [0.12499917, 0.12499997, 0.12500001], "properties": {"magmom": 6.814}, "label": "Eu", "xyz": [0.793117548911287, 0.5608222004056336, 1.3737255608892016]}, {"species": [{"element": "Eu", "occu": 1}], "abc": [0.87500085, 0.87500007, 0.87500004], "properties": {"magmom": 6.814}, "label": "Eu", "xyz": [5.551854979712823, 3.925756659057567, 9.6160978287038]}, {"species": [{"element": "Pd", "occu": 1}], "abc": [0.50000076, 0.99999864, 0.50000076], "properties": {"magmom": -0.054}, "label": "Pd", "xyz": [3.9656080693483995, 4.48657568323983, 6.8686411526623266]}, {"species": [{"element": "Pd", "occu": 1}], "abc": [0.99999865, 0.50000076, 0.50000076], "properties": {"magmom": -0.054}, "label": "Pd", "xyz": [5.551849301244628, 2.243290819807941, 6.868640730138768]}, {"species": [{"element": "Pd", "occu": 1}], "abc": [0.50000079, 0.50000082, 0.5000008], "properties": {"magmom": -0.054}, "label": "Pd", "xyz": [3.172491245115346, 2.2432930189946805, 5.494920294332912]}, {"species": [{"element": "Pd", "occu": 1}], "abc": [0.50000078, 0.50000075, 0.99999863], "properties": {"magmom": -0.054}, "label": "Pd", "xyz": [3.1724885115022956, 2.243291529938876, 8.242365775570484]}]}, "task_ids": null, "uncorrected_energy_per_atom": null, "energy_per_atom": -28.8976356, "formation_energy_per_atom": -0.750372288333333, "energy_above_hull": 0.0, "is_stable": true, "equilibrium_reaction_energy_per_atom": null, "decomposes_to": null, "xas": null, "grain_boundaries": null, "band_gap": 0.0, "cbm": null, "vbm": null, "efermi": 4.58546854, "is_gap_direct": null, "is_metal": null, "es_source_calc_id": null, "bandstructure": null, "dos": null, "dos_energy_up": null, "dos_energy_down": null, "is_magnetic": null, "ordering": null, "total_magnetization": 14.0870801, "total_magnetization_normalized_vol": null, "total_magnetization_normalized_formula_units": null, "num_magnetic_sites": null, "num_unique_magnetic_sites": null, "types_of_magnetic_species": null, "bulk_modulus": null, "shear_modulus": null, "universal_anisotropy": null, "homogeneous_poisson": null, "e_total": null, "e_ionic": null, "e_electronic": null, "n": null, "e_ij_max": null, "weighted_surface_energy_EV_PER_ANG2": null, "weighted_surface_energy": null, "weighted_work_function": null, "surface_anisotropy": null, "shape_factor": null, "has_reconstructed": null, "possible_species": null, "has_props": null, "theoretical": null, "database_IDs": null, "fields_not_requested": ["builder_meta", "nsites", "elements", "nelements", "composition", "composition_reduced", "chemsys", "symmetry", "property_name", "deprecated", "deprecation_reasons", "last_updated", "origins", "warnings", "task_ids", "uncorrected_energy_per_atom", "equilibrium_reaction_energy_per_atom", "decomposes_to", "xas", "grain_boundaries", "cbm", "vbm", "is_gap_direct", "is_metal", "es_source_calc_id", "bandstructure", "dos", "dos_energy_up", "dos_energy_down", "is_magnetic", "ordering", "total_magnetization_normalized_vol", "total_magnetization_normalized_formula_units", "num_magnetic_sites", "num_unique_magnetic_sites", "types_of_magnetic_species", "bulk_modulus", "shear_modulus", "universal_anisotropy", "homogeneous_poisson", "e_total", "e_ionic", "e_electronic", "n", "e_ij_max", "weighted_surface_energy_EV_PER_ANG2", "weighted_surface_energy", "weighted_work_function", "surface_anisotropy", "shape_factor", "has_reconstructed", "possible_species", "has_props", "theoretical", "database_IDs"]}