{
  "builder_meta": null,
  "nsites": null,
  "elements": null,
  "nelements": null,
  "composition": null,
  "composition_reduced": null,
  "formula_pretty": "EuPd",
  "formula_anonymous": "AB",
  "chemsys": null,
  "volume": 100.07876446477209,
  "density": 8.57438095841807,
  "density_atomic": 25.019691116193023,
  "symmetry": null,
  "property_name": null,
  "material_id": "mp-1018147",
  "deprecated": null,
  "deprecation_reasons": null,
  "last_updated": null,
  "origins": null,
  "warnings": null,
  "structure": {
    "@module": "pymatgen.core.structure",
    "@class": "Structure",
    "charge": 0,
    "lattice": {
      "matrix": [
        [-4.06816728, -1e-8, -0.0],
        [0.0, 0.0, -4.4234955],
        [-2.03408416, -5.56131562, -0.0]
      ],
      "pbc": [true, true, true],
      "a": 4.06816728,
      "b": 4.4234955,
      "c": 5.921632359005319,
      "alpha": 90.0,
      "beta": 69.90970731245055,
      "gamma": 90.0,
      "volume": 100.07876446477209
    },
    "properties": {},
    "sites": [
      {
        "species": [{ "element": "Eu", "occu": 1 }],
        "abc": [0.13949568, 0.75, 0.72100665],
        "properties": { "magmom": 6.75 },
        "label": "Eu",
        "xyz": [-2.034079967097014, -4.00974554616383, -3.3176216249999997]
      },
      {
        "species": [{ "element": "Eu", "occu": 1 }],
        "abc": [0.86050432, 0.25, 0.27899335000000003],
        "properties": { "magmom": 6.75 },
        "label": "Eu",
        "xyz": [-4.068171472902986, -1.5515700838361703, -1.105873875]
      },
      {
        "species": [{ "element": "Pd", "occu": 1 }],
        "abc": [0.42187334, 0.75, 0.15625532],
        "properties": { "magmom": -0.063 },
        "label": "Pd",
        "xyz": [-2.034087789420046, -0.8689851560428318, -3.3176216249999997]
      },
      {
        "species": [{ "element": "Pd", "occu": 1 }],
        "abc": [0.57812666, 0.25, 0.84374468],
        "properties": { "magmom": -0.063 },
        "label": "Pd",
        "xyz": [-4.068163650579954, -4.692330473957169, -1.105873875]
      }
    ]
  },
  "task_ids": null,
  "uncorrected_energy_per_atom": null,
  "energy_per_atom": -31.45018577,
  "formation_energy_per_atom": -0.7095176075,
  "energy_above_hull": 0.0,
  "is_stable": true,
  "equilibrium_reaction_energy_per_atom": null,
  "decomposes_to": null,
  "xas": null,
  "grain_boundaries": null,
  "band_gap": 0.0,
  "cbm": null,
  "vbm": null,
  "efermi": 2.89844186,
  "is_gap_direct": null,
  "is_metal": null,
  "es_source_calc_id": null,
  "bandstructure": null,
  "dos": null,
  "dos_energy_up": null,
  "dos_energy_down": null,
  "is_magnetic": null,
  "ordering": null,
  "total_magnetization": 14.0016095,
  "total_magnetization_normalized_vol": null,
  "total_magnetization_normalized_formula_units": null,
  "num_magnetic_sites": null,
  "num_unique_magnetic_sites": null,
  "types_of_magnetic_species": null,
  "bulk_modulus": null,
  "shear_modulus": null,
  "universal_anisotropy": null,
  "homogeneous_poisson": null,
  "e_total": null,
  "e_ionic": null,
  "e_electronic": null,
  "n": null,
  "e_ij_max": null,
  "weighted_surface_energy_EV_PER_ANG2": null,
  "weighted_surface_energy": null,
  "weighted_work_function": null,
  "surface_anisotropy": null,
  "shape_factor": null,
  "has_reconstructed": null,
  "possible_species": null,
  "has_props": null,
  "theoretical": null,
  "database_IDs": null,
  "fields_not_requested": [
    "builder_meta",
    "nsites",
    "elements",
    "nelements",
    "composition",
    "composition_reduced",
    "chemsys",
    "symmetry",
    "property_name",
    "deprecated",
    "deprecation_reasons",
    "last_updated",
    "origins",
    "warnings",
    "task_ids",
    "uncorrected_energy_per_atom",
    "equilibrium_reaction_energy_per_atom",
    "decomposes_to",
    "xas",
    "grain_boundaries",
    "cbm",
    "vbm",
    "is_gap_direct",
    "is_metal",
    "es_source_calc_id",
    "bandstructure",
    "dos",
    "dos_energy_up",
    "dos_energy_down",
    "is_magnetic",
    "ordering",
    "total_magnetization_normalized_vol",
    "total_magnetization_normalized_formula_units",
    "num_magnetic_sites",
    "num_unique_magnetic_sites",
    "types_of_magnetic_species",
    "bulk_modulus",
    "shear_modulus",
    "universal_anisotropy",
    "homogeneous_poisson",
    "e_total",
    "e_ionic",
    "e_electronic",
    "n",
    "e_ij_max",
    "weighted_surface_energy_EV_PER_ANG2",
    "weighted_surface_energy",
    "weighted_work_function",
    "surface_anisotropy",
    "shape_factor",
    "has_reconstructed",
    "possible_species",
    "has_props",
    "theoretical",
    "database_IDs"
  ]
}
