{"builder_meta": null, "nsites": null, "elements": null, "nelements": null, "composition": null, "composition_reduced": null, "formula_pretty": "EuRe2", "formula_anonymous": "AB2", "chemsys": null, "volume": 230.99311896563782, "density": 15.078373911131196, "density_atomic": 19.24942658046982, "symmetry": null, "property_name": null, "material_id": "mp-1101994", "deprecated": null, "deprecation_reasons": null, "last_updated": null, "origins": null, "warnings": null, "structure": {"@module": "pymatgen.core.structure", "@class": "Structure", "charge": 0, "lattice": {"matrix": [[2.748078, -4.75981, 0.0], [2.748078, 4.75981, 0.0], [0.0, 0.0, 8.82979]], "pbc": [true, true, true], "a": 5.49615537718722, "b": 5.49615537718722, "c": 8.82979, "alpha": 90.0, "beta": 90.0, "gamma": 119.99999250294802, "volume": 230.99311896563782}, "properties": {}, "sites": [{"species": [{"element": "Eu", "occu": 1}], "abc": [0.333333, 0.666667, 0.43779], "properties": {"magmom": 6.633}, "label": "Eu", "xyz": [2.748078, 1.58660650654, 3.8655937640999998]}, {"species": [{"element": "Eu", "occu": 1}], "abc": [0.666667, 0.333333, 0.5622100000000001], "properties": {"magmom": 6.631}, "label": "Eu", "xyz": [2.748078, -1.58660650654, 4.9641962359]}, {"species": [{"element": "Eu", "occu": 1}], "abc": [0.666667, 0.333333, 0.9377900000000001], "properties": {"magmom": 6.632}, "label": "Eu", "xyz": [2.748078, -1.58660650654, 8.280488764100001]}, {"species": [{"element": "Eu", "occu": 1}], "abc": [0.333333, 0.666667, 0.06221000000000001], "properties": {"magmom": 6.631}, "label": "Eu", "xyz": [2.748078, 1.58660650654, 0.5493012359]}, {"species": [{"element": "Re", "occu": 1}], "abc": [0.0, 0.0, 0.5], "properties": {"magmom": -0.064}, "label": "Re", "xyz": [0.0, 0.0, 4.414895]}, {"species": [{"element": "Re", "occu": 1}], "abc": [0.0, 0.0, 0.0], "properties": {"magmom": -0.064}, "label": "Re", "xyz": [0.0, 0.0, 0.0]}, {"species": [{"element": "Re", "occu": 1}], "abc": [0.8289700000000001, 0.17103000000000002, 0.25], "properties": {"magmom": -0.062}, "label": "Re", "xyz": [2.748078, -3.1316693914000004, 2.2074475]}, {"species": [{"element": "Re", "occu": 1}], "abc": [0.8289700000000001, 0.6579400000000001, 0.25], "properties": {"magmom": -0.06}, "label": "Re", "xyz": [4.08614465898, -0.8140703042999999, 2.2074475]}, {"species": [{"element": "Re", "occu": 1}], "abc": [0.34206000000000003, 0.17103000000000002, 0.25], "properties": {"magmom": -0.062}, "label": "Re", "xyz": [1.4100113410200001, -0.8140703043, 2.2074475]}, {"species": [{"element": "Re", "occu": 1}], "abc": [0.17103000000000002, 0.8289700000000001, 0.75], "properties": {"magmom": -0.062}, "label": "Re", "xyz": [2.748078, 3.1316693914000004, 6.622342499999999]}, {"species": [{"element": "Re", "occu": 1}], "abc": [0.17103000000000002, 0.34206000000000003, 0.75], "properties": {"magmom": -0.06}, "label": "Re", "xyz": [1.4100113410200001, 0.8140703043, 6.622342499999999]}, {"species": [{"element": "Re", "occu": 1}], "abc": [0.6579400000000001, 0.8289700000000001, 0.75], "properties": {"magmom": -0.062}, "label": "Re", "xyz": [4.08614465898, 0.8140703042999999, 6.622342499999999]}]}, "task_ids": null, "uncorrected_energy_per_atom": null, "energy_per_atom": -47.576742592500004, "formation_energy_per_atom": 0.203961450833332, "energy_above_hull": 0.203961450833332, "is_stable": false, "equilibrium_reaction_energy_per_atom": null, "decomposes_to": null, "xas": null, "grain_boundaries": null, "band_gap": 0.0, "cbm": null, "vbm": null, "efermi": 5.28836877, "is_gap_direct": null, "is_metal": null, "es_source_calc_id": null, "bandstructure": null, "dos": null, "dos_energy_up": null, "dos_energy_down": null, "is_magnetic": null, "ordering": null, "total_magnetization": 26.9032698, "total_magnetization_normalized_vol": null, "total_magnetization_normalized_formula_units": null, "num_magnetic_sites": null, "num_unique_magnetic_sites": null, "types_of_magnetic_species": null, "bulk_modulus": null, "shear_modulus": null, "universal_anisotropy": null, "homogeneous_poisson": null, "e_total": null, "e_ionic": null, "e_electronic": null, "n": null, "e_ij_max": null, "weighted_surface_energy_EV_PER_ANG2": null, "weighted_surface_energy": null, "weighted_work_function": null, "surface_anisotropy": null, "shape_factor": null, "has_reconstructed": null, "possible_species": null, "has_props": null, "theoretical": null, "database_IDs": null, "fields_not_requested": ["builder_meta", "nsites", "elements", "nelements", "composition", "composition_reduced", "chemsys", "symmetry", "property_name", "deprecated", "deprecation_reasons", "last_updated", "origins", "warnings", "task_ids", "uncorrected_energy_per_atom", "equilibrium_reaction_energy_per_atom", "decomposes_to", "xas", "grain_boundaries", "cbm", "vbm", "is_gap_direct", "is_metal", "es_source_calc_id", "bandstructure", "dos", "dos_energy_up", "dos_energy_down", "is_magnetic", "ordering", "total_magnetization_normalized_vol", "total_magnetization_normalized_formula_units", "num_magnetic_sites", "num_unique_magnetic_sites", "types_of_magnetic_species", "bulk_modulus", "shear_modulus", "universal_anisotropy", "homogeneous_poisson", "e_total", "e_ionic", "e_electronic", "n", "e_ij_max", "weighted_surface_energy_EV_PER_ANG2", "weighted_surface_energy", "weighted_work_function", "surface_anisotropy", "shape_factor", "has_reconstructed", "possible_species", "has_props", "theoretical", "database_IDs"]}