{
  "builder_meta": null,
  "nsites": null,
  "elements": null,
  "nelements": null,
  "composition": null,
  "composition_reduced": null,
  "formula_pretty": "EuRh2",
  "formula_anonymous": "AB2",
  "chemsys": null,
  "volume": 110.25696615009947,
  "density": 10.776631813794541,
  "density_atomic": 18.37616102501658,
  "symmetry": null,
  "property_name": null,
  "material_id": "mp-623827",
  "deprecated": null,
  "deprecation_reasons": null,
  "last_updated": null,
  "origins": null,
  "warnings": null,
  "structure": {
    "@module": "pymatgen.core.structure",
    "@class": "Structure",
    "charge": 0,
    "lattice": {
      "matrix": [
        [4.66120208, 0.00014994, 2.69093822],
        [1.553928529999999, 4.39449997, 2.69084647],
        [-0.00031579, -0.00033576, 5.38242285]
      ],
      "pbc": [true, true, true],
      "a": 5.382188528557421,
      "b": 5.3820979727044564,
      "c": 5.382422869736288,
      "alpha": 60.00697979176118,
      "beta": 60.00527988160809,
      "gamma": 59.997710492062275,
      "volume": 110.25696615009947
    },
    "properties": {},
    "sites": [
      {
        "species": [{ "element": "Eu", "occu": 1 }],
        "abc": [0.124988499999999, 0.12499216, 0.12498998],
        "properties": { "magmom": 6.709 },
        "label": "Eu",
        "xyz": [0.7767860690406159, 0.5492548175102404, 1.3454199685971857]
      },
      {
        "species": [{ "element": "Eu", "occu": 1 }],
        "abc": [0.8749959700000001, 0.87501108, 0.87500797],
        "properties": { "magmom": 6.708 },
        "label": "Eu",
        "xyz": [5.437961397866883, 3.8450735690294024, 9.418743465507976]
      },
      {
        "species": [{ "element": "Rh", "occu": 1 }],
        "abc": [0.50001526, 0.49998937, 4.28e-6],
        "properties": { "magmom": -0.514 },
        "label": "Rh",
        "xyz": [3.107619915331885, 2.1972782423163504, 2.6909278417890587]
      },
      {
        "species": [{ "element": "Rh", "occu": 1 }],
        "abc": [0.49999353, 7.709999999999999e-6, 0.49998287],
        "properties": { "magmom": -0.515 },
        "label": "Rh",
        "xyz": [2.330424973220991, -5.90236237743e-5, 4.03659167015258]
      },
      {
        "species": [{ "element": "Rh", "occu": 1 }],
        "abc": [0.49999307, 0.49999616, 0.50000773],
        "properties": { "magmom": -0.515 },
        "label": "Rh",
        "xyz": [3.107369138342973, 2.197140196485606, 5.382116395076321]
      },
      {
        "species": [{ "element": "Rh", "occu": 1 }],
        "abc": [1.268e-5, 0.50000451, 0.50000815],
        "properties": { "magmom": -0.515 },
        "label": "Rh",
        "xyz": [0.7768724796863558, 2.19710192335966, 4.036724783560437]
      }
    ]
  },
  "task_ids": null,
  "uncorrected_energy_per_atom": null,
  "energy_per_atom": -29.422136958333336,
  "formation_energy_per_atom": -0.49102363333333204,
  "energy_above_hull": 0.0,
  "is_stable": true,
  "equilibrium_reaction_energy_per_atom": null,
  "decomposes_to": null,
  "xas": null,
  "grain_boundaries": null,
  "band_gap": 0.0,
  "cbm": null,
  "vbm": null,
  "efermi": 4.82642039,
  "is_gap_direct": null,
  "is_metal": null,
  "es_source_calc_id": null,
  "bandstructure": null,
  "dos": null,
  "dos_energy_up": null,
  "dos_energy_down": null,
  "is_magnetic": null,
  "ordering": null,
  "total_magnetization": 11.9793846,
  "total_magnetization_normalized_vol": null,
  "total_magnetization_normalized_formula_units": null,
  "num_magnetic_sites": null,
  "num_unique_magnetic_sites": null,
  "types_of_magnetic_species": null,
  "bulk_modulus": null,
  "shear_modulus": null,
  "universal_anisotropy": null,
  "homogeneous_poisson": null,
  "e_total": null,
  "e_ionic": null,
  "e_electronic": null,
  "n": null,
  "e_ij_max": null,
  "weighted_surface_energy_EV_PER_ANG2": null,
  "weighted_surface_energy": null,
  "weighted_work_function": null,
  "surface_anisotropy": null,
  "shape_factor": null,
  "has_reconstructed": null,
  "possible_species": null,
  "has_props": null,
  "theoretical": null,
  "database_IDs": null,
  "fields_not_requested": [
    "builder_meta",
    "nsites",
    "elements",
    "nelements",
    "composition",
    "composition_reduced",
    "chemsys",
    "symmetry",
    "property_name",
    "deprecated",
    "deprecation_reasons",
    "last_updated",
    "origins",
    "warnings",
    "task_ids",
    "uncorrected_energy_per_atom",
    "equilibrium_reaction_energy_per_atom",
    "decomposes_to",
    "xas",
    "grain_boundaries",
    "cbm",
    "vbm",
    "is_gap_direct",
    "is_metal",
    "es_source_calc_id",
    "bandstructure",
    "dos",
    "dos_energy_up",
    "dos_energy_down",
    "is_magnetic",
    "ordering",
    "total_magnetization_normalized_vol",
    "total_magnetization_normalized_formula_units",
    "num_magnetic_sites",
    "num_unique_magnetic_sites",
    "types_of_magnetic_species",
    "bulk_modulus",
    "shear_modulus",
    "universal_anisotropy",
    "homogeneous_poisson",
    "e_total",
    "e_ionic",
    "e_electronic",
    "n",
    "e_ij_max",
    "weighted_surface_energy_EV_PER_ANG2",
    "weighted_surface_energy",
    "weighted_work_function",
    "surface_anisotropy",
    "shape_factor",
    "has_reconstructed",
    "possible_species",
    "has_props",
    "theoretical",
    "database_IDs"
  ]
}
