{
  "builder_meta": null,
  "nsites": null,
  "elements": null,
  "nelements": null,
  "composition": null,
  "composition_reduced": null,
  "formula_pretty": "EuS2",
  "formula_anonymous": "AB2",
  "chemsys": null,
  "volume": 268.5394411124478,
  "density": 5.344950858188513,
  "density_atomic": 22.37828675937065,
  "symmetry": null,
  "property_name": null,
  "material_id": "mp-1232155",
  "deprecated": null,
  "deprecation_reasons": null,
  "last_updated": null,
  "origins": null,
  "warnings": null,
  "structure": {
    "@module": "pymatgen.core.structure",
    "@class": "Structure",
    "charge": 0,
    "lattice": {
      "matrix": [
        [-3.028e-5, -4.0378118, -8.750000000000004e-5],
        [-7.92878775, -9.491e-5, -0.03577173],
        [-0.04982878, -0.00012957, -8.38816289]
      ],
      "pbc": [true, true, true],
      "a": 4.037811801061606,
      "b": 7.928868444502353,
      "c": 8.38831089035676,
      "alpha": 89.40115052852798,
      "beta": 89.99787084229658,
      "gamma": 89.99887889441008,
      "volume": 268.5394411124477
    },
    "properties": {},
    "sites": [
      {
        "species": [{ "element": "Eu", "occu": 1 }],
        "abc": [0.2610535, 0.37056179, 0.29380739],
        "properties": { "magmom": 6.457 },
        "label": "Eu",
        "xyz": [-2.9527537496687364, -1.0541581413743113, -2.477782724087204]
      },
      {
        "species": [{ "element": "Eu", "occu": 1 }],
        "abc": [0.76118622, 0.12943488, 0.70617412],
        "properties": { "magmom": 6.457 },
        "label": "Eu",
        "xyz": [-1.0614725345526352, -3.0736304847585854, -5.9282002606366]
      },
      {
        "species": [{ "element": "Eu", "occu": 1 }],
        "abc": [0.7389465, 0.62943821, 0.70619261],
        "properties": { "magmom": 6.457 },
        "label": "Eu",
        "xyz": [-5.025893060331263, -2.983878138625688, -5.946239395912797]
      },
      {
        "species": [{ "element": "Eu", "occu": 1 }],
        "abc": [0.23881378, 0.87056512, 0.29382588],
        "properties": { "magmom": 6.457 },
        "label": "Eu",
        "xyz": [-6.917174275447364, -0.9644057952414148, -2.4958218593634007]
      },
      {
        "species": [{ "element": "S", "occu": 1 }],
        "abc": [0.83120595, 0.4048234, 0.0004476],
        "properties": { "magmom": -0.128 },
        "label": "S",
        "xyz": [-3.209806287111444, -3.3562916729246357, -0.018308505592671002]
      },
      {
        "species": [{ "element": "S", "occu": 1 }],
        "abc": [0.33120833, 0.09521259, 0.9995744200000001],
        "properties": { "magmom": -0.128 },
        "label": "S",
        "xyz": [-0.8047380200938126, -1.3374954546168105, -8.38802795542823]
      },
      {
        "species": [{ "element": "S", "occu": 1 }],
        "abc": [0.16879405, 0.5951766, 0.9995524],
        "properties": { "magmom": -0.128 },
        "label": "S",
        "xyz": [-4.768840522888556, -0.681744607075364, -8.40571361440733]
      },
      {
        "species": [{ "element": "S", "occu": 1 }],
        "abc": [0.6687916700000001, 0.9047874100000001, 0.00042558],
        "properties": { "magmom": -0.128 },
        "label": "S",
        "xyz": [-7.173908789906188, -2.70054082538319, -0.0359941645717705]
      },
      {
        "species": [{ "element": "S", "occu": 1 }],
        "abc": [0.25822861, 0.37622119, 0.63789206],
        "properties": { "magmom": -0.17400000000000002 },
        "label": "S",
        "xyz": [-3.01477116484622, -1.0427968873829554, -5.364223183349988]
      },
      {
        "species": [{ "element": "S", "occu": 1 }],
        "abc": [0.7582445600000001, 0.12385001, 0.36208003],
        "properties": { "magmom": -0.17400000000000002 },
        "label": "S",
        "xyz": [-1.0000454079279175, -3.0617075009677444, -3.041682946373304]
      },
      {
        "species": [{ "element": "S", "occu": 1 }],
        "abc": [0.74177139, 0.62377881, 0.36210794],
        "properties": { "magmom": -0.17400000000000002 },
        "label": "S",
        "xyz": [-4.96387564515378, -2.995239392617045, -3.0597989366500133]
      },
      {
        "species": [{ "element": "S", "occu": 1 }],
        "abc": [0.24175544000000002, 0.87614999, 0.63791997],
        "properties": { "magmom": -0.17400000000000002 },
        "label": "S",
        "xyz": [-6.978601402072083, -0.9763287790322559, -5.382339173626696]
      }
    ]
  },
  "task_ids": null,
  "uncorrected_energy_per_atom": null,
  "energy_per_atom": -19.82001651,
  "formation_energy_per_atom": -1.623056216874999,
  "energy_above_hull": 0.041711238263889006,
  "is_stable": false,
  "equilibrium_reaction_energy_per_atom": null,
  "decomposes_to": null,
  "xas": null,
  "grain_boundaries": null,
  "band_gap": 0.0,
  "cbm": null,
  "vbm": null,
  "efermi": 3.55626894,
  "is_gap_direct": null,
  "is_metal": null,
  "es_source_calc_id": null,
  "bandstructure": null,
  "dos": null,
  "dos_energy_up": null,
  "dos_energy_down": null,
  "is_magnetic": null,
  "ordering": null,
  "total_magnetization": 24.8749994,
  "total_magnetization_normalized_vol": null,
  "total_magnetization_normalized_formula_units": null,
  "num_magnetic_sites": null,
  "num_unique_magnetic_sites": null,
  "types_of_magnetic_species": null,
  "bulk_modulus": null,
  "shear_modulus": null,
  "universal_anisotropy": null,
  "homogeneous_poisson": null,
  "e_total": null,
  "e_ionic": null,
  "e_electronic": null,
  "n": null,
  "e_ij_max": null,
  "weighted_surface_energy_EV_PER_ANG2": null,
  "weighted_surface_energy": null,
  "weighted_work_function": null,
  "surface_anisotropy": null,
  "shape_factor": null,
  "has_reconstructed": null,
  "possible_species": null,
  "has_props": null,
  "theoretical": null,
  "database_IDs": null,
  "fields_not_requested": [
    "builder_meta",
    "nsites",
    "elements",
    "nelements",
    "composition",
    "composition_reduced",
    "chemsys",
    "symmetry",
    "property_name",
    "deprecated",
    "deprecation_reasons",
    "last_updated",
    "origins",
    "warnings",
    "task_ids",
    "uncorrected_energy_per_atom",
    "equilibrium_reaction_energy_per_atom",
    "decomposes_to",
    "xas",
    "grain_boundaries",
    "cbm",
    "vbm",
    "is_gap_direct",
    "is_metal",
    "es_source_calc_id",
    "bandstructure",
    "dos",
    "dos_energy_up",
    "dos_energy_down",
    "is_magnetic",
    "ordering",
    "total_magnetization_normalized_vol",
    "total_magnetization_normalized_formula_units",
    "num_magnetic_sites",
    "num_unique_magnetic_sites",
    "types_of_magnetic_species",
    "bulk_modulus",
    "shear_modulus",
    "universal_anisotropy",
    "homogeneous_poisson",
    "e_total",
    "e_ionic",
    "e_electronic",
    "n",
    "e_ij_max",
    "weighted_surface_energy_EV_PER_ANG2",
    "weighted_surface_energy",
    "weighted_work_function",
    "surface_anisotropy",
    "shape_factor",
    "has_reconstructed",
    "possible_species",
    "has_props",
    "theoretical",
    "database_IDs"
  ]
}
