{
  "builder_meta": null,
  "nsites": null,
  "elements": null,
  "nelements": null,
  "composition": null,
  "composition_reduced": null,
  "formula_pretty": "EuSb2",
  "formula_anonymous": "AB2",
  "chemsys": null,
  "volume": 179.22036839564703,
  "density": 7.328593709454566,
  "density_atomic": 29.870061399274505,
  "symmetry": null,
  "property_name": null,
  "material_id": "mp-611062",
  "deprecated": null,
  "deprecation_reasons": null,
  "last_updated": null,
  "origins": null,
  "warnings": null,
  "structure": {
    "@module": "pymatgen.core.structure",
    "@class": "Structure",
    "charge": 0,
    "lattice": {
      "matrix": [
        [4.33781436, 0.0, 0.0],
        [0.0, 4.68146528, -0.01269026],
        [0.0, 2.11484733, 8.81967122]
      ],
      "pbc": [true, true, true],
      "a": 4.33781436,
      "b": 4.681482479999722,
      "c": 9.06968465042222,
      "alpha": 76.67109084270339,
      "beta": 90.0,
      "gamma": 90.0,
      "volume": 179.22036839564703
    },
    "properties": {},
    "sites": [
      {
        "species": [{ "element": "Eu", "occu": 1 }],
        "abc": [0.25, 0.59403813, 0.28907132],
        "properties": { "magmom": 6.743 },
        "label": "Eu",
        "xyz": [1.08445359, 3.3923105898727024, 2.5419755032117965]
      },
      {
        "species": [{ "element": "Eu", "occu": 1 }],
        "abc": [0.75, 0.40600369000000003, 0.71113572],
        "properties": { "magmom": 6.743 },
        "label": "Eu",
        "xyz": [3.2533607700000005, 3.4046356569965113, 6.2668309508109195]
      },
      {
        "species": [{ "element": "Sb", "occu": 1 }],
        "abc": [0.25, 0.94857267, 0.61436563],
        "properties": { "magmom": -0.025 },
        "label": "Sb",
        "xyz": [1.08445359, 5.739999532411166, 5.406465231656974]
      },
      {
        "species": [{ "element": "Sb", "occu": 1 }],
        "abc": [0.75, 0.05169844, 0.38533794],
        "properties": { "magmom": -0.025 },
        "label": "Sb",
        "xyz": [3.2533607700000005, 1.0569553654468633, 3.3978978727468925]
      },
      {
        "species": [{ "element": "Sb", "occu": 1 }],
        "abc": [0.75, 0.78995526, 0.9889687500000001],
        "properties": { "magmom": -0.017 },
        "label": "Sb",
        "xyz": [3.2533607700000005, 5.789666042834311, 8.712354484216608]
      },
      {
        "species": [{ "element": "Sb", "occu": 1 }],
        "abc": [0.25, 0.2097328, 0.011120650000000001],
        "properties": { "magmom": -0.017 },
        "label": "Sb",
        "xyz": [1.08445359, 1.0053752982375486, 0.095418912990165]
      }
    ]
  },
  "task_ids": null,
  "uncorrected_energy_per_atom": null,
  "energy_per_atom": -7.025084538333336,
  "formation_energy_per_atom": -0.8430464066666701,
  "energy_above_hull": 0.0,
  "is_stable": true,
  "equilibrium_reaction_energy_per_atom": null,
  "decomposes_to": null,
  "xas": null,
  "grain_boundaries": null,
  "band_gap": 0.0,
  "cbm": null,
  "vbm": null,
  "efermi": 6.01256632,
  "is_gap_direct": null,
  "is_metal": null,
  "es_source_calc_id": null,
  "bandstructure": null,
  "dos": null,
  "dos_energy_up": null,
  "dos_energy_down": null,
  "is_magnetic": null,
  "ordering": null,
  "total_magnetization": 13.9528899,
  "total_magnetization_normalized_vol": null,
  "total_magnetization_normalized_formula_units": null,
  "num_magnetic_sites": null,
  "num_unique_magnetic_sites": null,
  "types_of_magnetic_species": null,
  "bulk_modulus": null,
  "shear_modulus": null,
  "universal_anisotropy": null,
  "homogeneous_poisson": null,
  "e_total": null,
  "e_ionic": null,
  "e_electronic": null,
  "n": null,
  "e_ij_max": null,
  "weighted_surface_energy_EV_PER_ANG2": null,
  "weighted_surface_energy": null,
  "weighted_work_function": null,
  "surface_anisotropy": null,
  "shape_factor": null,
  "has_reconstructed": null,
  "possible_species": null,
  "has_props": null,
  "theoretical": null,
  "database_IDs": null,
  "fields_not_requested": [
    "builder_meta",
    "nsites",
    "elements",
    "nelements",
    "composition",
    "composition_reduced",
    "chemsys",
    "symmetry",
    "property_name",
    "deprecated",
    "deprecation_reasons",
    "last_updated",
    "origins",
    "warnings",
    "task_ids",
    "uncorrected_energy_per_atom",
    "equilibrium_reaction_energy_per_atom",
    "decomposes_to",
    "xas",
    "grain_boundaries",
    "cbm",
    "vbm",
    "is_gap_direct",
    "is_metal",
    "es_source_calc_id",
    "bandstructure",
    "dos",
    "dos_energy_up",
    "dos_energy_down",
    "is_magnetic",
    "ordering",
    "total_magnetization_normalized_vol",
    "total_magnetization_normalized_formula_units",
    "num_magnetic_sites",
    "num_unique_magnetic_sites",
    "types_of_magnetic_species",
    "bulk_modulus",
    "shear_modulus",
    "universal_anisotropy",
    "homogeneous_poisson",
    "e_total",
    "e_ionic",
    "e_electronic",
    "n",
    "e_ij_max",
    "weighted_surface_energy_EV_PER_ANG2",
    "weighted_surface_energy",
    "weighted_work_function",
    "surface_anisotropy",
    "shape_factor",
    "has_reconstructed",
    "possible_species",
    "has_props",
    "theoretical",
    "database_IDs"
  ]
}
