{"builder_meta": null, "nsites": null, "elements": null, "nelements": null, "composition": null, "composition_reduced": null, "formula_pretty": "EuSi2", "formula_anonymous": "AB2", "chemsys": null, "volume": 125.26906668769868, "density": 5.5179831344705015, "density_atomic": 20.878177781283114, "symmetry": null, "property_name": null, "material_id": "mp-1072248", "deprecated": null, "deprecation_reasons": null, "last_updated": null, "origins": null, "warnings": null, "structure": {"@module": "pymatgen.core.structure", "@class": "Structure", "charge": 0, "lattice": {"matrix": [[4.2787047, -0.0, 0.0], [-0.0, 4.2787047, 0.0], [-2.13935183, -2.13935183, 6.84256944]], "pbc": [true, true, true], "a": 4.2787047, "b": 4.2787047, "c": 7.481604710639998, "alpha": 106.61553882351254, "beta": 106.61553882351254, "gamma": 90.0, "volume": 125.26906668769868}, "properties": {}, "sites": [{"species": [{"element": "Eu", "occu": 1}], "abc": [0.25, 0.75, 0.499998999999999], "properties": {"magmom": 6.676}, "label": "Eu", "xyz": [2.3993518321052676e-06, 2.139354749351832, 3.4212778774305534]}, {"species": [{"element": "Eu", "occu": 1}], "abc": [-0.0, -0.0, 1e-06], "properties": {"magmom": 6.676}, "label": "Eu", "xyz": [-2.1393518299999998e-06, -2.1393518299999998e-06, 6.84256944e-06]}, {"species": [{"element": "Si", "occu": 1}], "abc": [0.66586334, 0.16586334, 0.33172669], "properties": {"magmom": -0.025}, "label": "Si", "xyz": [2.1393525011043555, 1.5110435525045318e-07, 2.2698629114263538]}, {"species": [{"element": "Si", "occu": 1}], "abc": [0.58413666, 0.58413666, 0.16827331], "properties": {"magmom": -0.025}, "label": "Si", "xyz": [2.1393524588956443, 2.1393524588956443, 1.1514218085736465]}, {"species": [{"element": "Si", "occu": 1}], "abc": [0.83413666, 0.33413666000000003, 0.66827331], "properties": {"magmom": -0.025}, "label": "Si", "xyz": [2.139352718895644, 3.68895644919931e-07, 4.572706528573646]}, {"species": [{"element": "Si", "occu": 1}], "abc": [0.41586334, 0.41586334, 0.83172669], "properties": {"magmom": -0.025}, "label": "Si", "xyz": [4.1110435522462296e-07, 4.1110435522462296e-07, 5.691147631426354]}]}, "task_ids": null, "uncorrected_energy_per_atom": null, "energy_per_atom": -19.247524406666667, "formation_energy_per_atom": -0.558053771666666, "energy_above_hull": 0.0, "is_stable": true, "equilibrium_reaction_energy_per_atom": null, "decomposes_to": null, "xas": null, "grain_boundaries": null, "band_gap": 0.0, "cbm": null, "vbm": null, "efermi": 5.86239349, "is_gap_direct": null, "is_metal": null, "es_source_calc_id": null, "bandstructure": null, "dos": null, "dos_energy_up": null, "dos_energy_down": null, "is_magnetic": null, "ordering": null, "total_magnetization": 13.8349623, "total_magnetization_normalized_vol": null, "total_magnetization_normalized_formula_units": null, "num_magnetic_sites": null, "num_unique_magnetic_sites": null, "types_of_magnetic_species": null, "bulk_modulus": null, "shear_modulus": null, "universal_anisotropy": null, "homogeneous_poisson": null, "e_total": null, "e_ionic": null, "e_electronic": null, "n": null, "e_ij_max": null, "weighted_surface_energy_EV_PER_ANG2": null, "weighted_surface_energy": null, "weighted_work_function": null, "surface_anisotropy": null, "shape_factor": null, "has_reconstructed": null, "possible_species": null, "has_props": null, "theoretical": null, "database_IDs": null, "fields_not_requested": ["builder_meta", "nsites", "elements", "nelements", "composition", "composition_reduced", "chemsys", "symmetry", "property_name", "deprecated", "deprecation_reasons", "last_updated", "origins", "warnings", "task_ids", "uncorrected_energy_per_atom", "equilibrium_reaction_energy_per_atom", "decomposes_to", "xas", "grain_boundaries", "cbm", "vbm", "is_gap_direct", "is_metal", "es_source_calc_id", "bandstructure", "dos", "dos_energy_up", "dos_energy_down", "is_magnetic", "ordering", "total_magnetization_normalized_vol", "total_magnetization_normalized_formula_units", "num_magnetic_sites", "num_unique_magnetic_sites", "types_of_magnetic_species", "bulk_modulus", "shear_modulus", "universal_anisotropy", "homogeneous_poisson", "e_total", "e_ionic", "e_electronic", "n", "e_ij_max", "weighted_surface_energy_EV_PER_ANG2", "weighted_surface_energy", "weighted_work_function", "surface_anisotropy", "shape_factor", "has_reconstructed", "possible_species", "has_props", "theoretical", "database_IDs"]}