{"builder_meta": null, "nsites": null, "elements": null, "nelements": null, "composition": null, "composition_reduced": null, "formula_pretty": "EuSi6", "formula_anonymous": "AB6", "chemsys": null, "volume": 264.5782364530136, "density": 4.022738873620659, "density_atomic": 18.89844546092954, "symmetry": null, "property_name": null, "material_id": "mp-542709", "deprecated": null, "deprecation_reasons": null, "last_updated": null, "origins": null, "warnings": null, "structure": {"@module": "pymatgen.core.structure", "@class": "Structure", "charge": 0, "lattice": {"matrix": [[2.249411, -5.092426, 0.0], [2.249411, 5.092426, 0.0], [0.0, 0.0, 11.548633]], "pbc": [true, true, true], "a": 5.567104490881862, "b": 5.567104490881862, "c": 11.548633, "alpha": 90.0, "beta": 90.0, "gamma": 132.33627737443223, "volume": 264.5782364530136}, "properties": {}, "sites": [{"species": [{"element": "Eu", "occu": 1}], "abc": [0.727013999999999, 0.272986, 0.75], "properties": {"magmom": 6.799}, "label": "Eu", "xyz": [2.2494109999999976, -2.312103991927995, 8.66147475]}, {"species": [{"element": "Eu", "occu": 1}], "abc": [0.272986, 0.727013999999999, 0.25], "properties": {"magmom": 6.799}, "label": "Eu", "xyz": [2.2494109999999976, 2.312103991927995, 2.88715825]}, {"species": [{"element": "Si", "occu": 1}], "abc": [0.752846999999999, 0.247152999999999, 0.462738], "properties": {"magmom": -0.005}, "label": "Si", "xyz": [2.2494109999999954, -2.575209273644, 5.343991337154]}, {"species": [{"element": "Si", "occu": 1}], "abc": [0.247152999999999, 0.752846999999999, 0.537262], "properties": {"magmom": -0.005}, "label": "Si", "xyz": [2.2494109999999954, 2.575209273644, 6.204641662846001]}, {"species": [{"element": "Si", "occu": 1}], "abc": [0.247152999999999, 0.752846999999999, 0.962738], "properties": {"magmom": -0.005}, "label": "Si", "xyz": [2.2494109999999954, 2.575209273644, 11.118307837154001]}, {"species": [{"element": "Si", "occu": 1}], "abc": [0.752846999999999, 0.247152999999999, 0.037261999999999004], "properties": {"magmom": -0.005}, "label": "Si", "xyz": [2.2494109999999954, -2.575209273644, 0.43032516284598854]}, {"species": [{"element": "Si", "occu": 1}], "abc": [0.443652, 0.556348, 0.64705], "properties": {"magmom": -0.003}, "label": "Si", "xyz": [2.249411, 0.5738960404959998, 7.47254298265]}, {"species": [{"element": "Si", "occu": 1}], "abc": [0.556348, 0.443652, 0.35295000000000004], "properties": {"magmom": -0.003}, "label": "Si", "xyz": [2.249411, -0.5738960404959998, 4.07609001735]}, {"species": [{"element": "Si", "occu": 1}], "abc": [0.556348, 0.443652, 0.14705000000000001], "properties": {"magmom": -0.003}, "label": "Si", "xyz": [2.249411, -0.5738960404959998, 1.6982264826500002]}, {"species": [{"element": "Si", "occu": 1}], "abc": [0.443652, 0.556348, 0.8529500000000001], "properties": {"magmom": -0.003}, "label": "Si", "xyz": [2.249411, 0.5738960404959998, 9.850406517350002]}, {"species": [{"element": "Si", "occu": 1}], "abc": [0.9778659999999991, 0.022133999999999, 0.397329], "properties": {"magmom": -0.004}, "label": "Si", "xyz": [2.249410999999996, -4.8669944858320004, 4.588606801257]}, {"species": [{"element": "Si", "occu": 1}], "abc": [0.022133999999999, 0.9778659999999991, 0.602671], "properties": {"magmom": -0.004}, "label": "Si", "xyz": [2.249410999999996, 4.8669944858320004, 6.960026198743]}, {"species": [{"element": "Si", "occu": 1}], "abc": [0.022133999999999, 0.9778659999999991, 0.897328999999999], "properties": {"magmom": -0.004}, "label": "Si", "xyz": [2.249410999999996, 4.8669944858320004, 10.36292330125699]}, {"species": [{"element": "Si", "occu": 1}], "abc": [0.9778659999999991, 0.022133999999999, 0.102671], "properties": {"magmom": -0.004}, "label": "Si", "xyz": [2.249410999999996, -4.8669944858320004, 1.185709698743]}]}, "task_ids": null, "uncorrected_energy_per_atom": null, "energy_per_atom": -13.113872497857143, "formation_energy_per_atom": -0.090519600000001, "energy_above_hull": 0.148646302142859, "is_stable": false, "equilibrium_reaction_energy_per_atom": null, "decomposes_to": null, "xas": null, "grain_boundaries": null, "band_gap": 0.0, "cbm": null, "vbm": null, "efermi": 7.11901225, "is_gap_direct": null, "is_metal": null, "es_source_calc_id": null, "bandstructure": null, "dos": null, "dos_energy_up": null, "dos_energy_down": null, "is_magnetic": null, "ordering": null, "total_magnetization": 13.9998433, "total_magnetization_normalized_vol": null, "total_magnetization_normalized_formula_units": null, "num_magnetic_sites": null, "num_unique_magnetic_sites": null, "types_of_magnetic_species": null, "bulk_modulus": null, "shear_modulus": null, "universal_anisotropy": null, "homogeneous_poisson": null, "e_total": null, "e_ionic": null, "e_electronic": null, "n": null, "e_ij_max": null, "weighted_surface_energy_EV_PER_ANG2": null, "weighted_surface_energy": null, "weighted_work_function": null, "surface_anisotropy": null, "shape_factor": null, "has_reconstructed": null, "possible_species": null, "has_props": null, "theoretical": null, "database_IDs": null, "fields_not_requested": ["builder_meta", "nsites", "elements", "nelements", "composition", "composition_reduced", "chemsys", "symmetry", "property_name", "deprecated", "deprecation_reasons", "last_updated", "origins", "warnings", "task_ids", "uncorrected_energy_per_atom", "equilibrium_reaction_energy_per_atom", "decomposes_to", "xas", "grain_boundaries", "cbm", "vbm", "is_gap_direct", "is_metal", "es_source_calc_id", "bandstructure", "dos", "dos_energy_up", "dos_energy_down", "is_magnetic", "ordering", "total_magnetization_normalized_vol", "total_magnetization_normalized_formula_units", "num_magnetic_sites", "num_unique_magnetic_sites", "types_of_magnetic_species", "bulk_modulus", "shear_modulus", "universal_anisotropy", "homogeneous_poisson", "e_total", "e_ionic", "e_electronic", "n", "e_ij_max", "weighted_surface_energy_EV_PER_ANG2", "weighted_surface_energy", "weighted_work_function", "surface_anisotropy", "shape_factor", "has_reconstructed", "possible_species", "has_props", "theoretical", "database_IDs"]}