{
  "builder_meta": null,
  "nsites": null,
  "elements": null,
  "nelements": null,
  "composition": null,
  "composition_reduced": null,
  "formula_pretty": "EuTl2",
  "formula_anonymous": "AB2",
  "chemsys": null,
  "volume": 180.65349123520278,
  "density": 10.308298619325189,
  "density_atomic": 30.10891520586713,
  "symmetry": null,
  "property_name": null,
  "material_id": "mp-30630",
  "deprecated": null,
  "deprecation_reasons": null,
  "last_updated": null,
  "origins": null,
  "warnings": null,
  "structure": {
    "@module": "pymatgen.core.structure",
    "@class": "Structure",
    "charge": 0,
    "lattice": {
      "matrix": [
        [5.09348316, -2e-8, -0.0],
        [-2.54674311, 4.41108817, 0.0],
        [-0.0, 0.0, 8.04054981]
      ],
      "pbc": [true, true, true],
      "a": 5.09348316,
      "b": 5.093485968553012,
      "c": 8.04054981,
      "alpha": 90.0,
      "beta": 90.0,
      "gamma": 120.00000185800367,
      "volume": 180.65349123520278
    },
    "properties": {},
    "sites": [
      {
        "species": [{ "element": "Eu", "occu": 1 }],
        "abc": [-0.0, -0.0, 0.249999],
        "properties": { "magmom": 6.823 },
        "label": "Eu",
        "xyz": [0.0, 0.0, 2.01012941195019]
      },
      {
        "species": [{ "element": "Eu", "occu": 1 }],
        "abc": [-0.0, -0.0, 0.750000999999999],
        "properties": { "magmom": 6.823 },
        "label": "Eu",
        "xyz": [0.0, 0.0, 6.030420398049802]
      },
      {
        "species": [{ "element": "Tl", "occu": 1 }],
        "abc": [0.333333, 0.666667, 0.45265901000000003],
        "properties": { "magmom": -0.016 },
        "label": "Tl",
        "xyz": [-3.566742090121977e-6, 2.9407269103627303, 3.639627316850288]
      },
      {
        "species": [{ "element": "Tl", "occu": 1 }],
        "abc": [0.666667, 0.333333, 0.95265901],
        "properties": { "magmom": -0.016 },
        "label": "Tl",
        "xyz": [2.5467436167420896, 1.47036123963727, 7.659902221850288]
      },
      {
        "species": [{ "element": "Tl", "occu": 1 }],
        "abc": [0.666667, 0.333333, 0.54734099],
        "properties": { "magmom": -0.016 },
        "label": "Tl",
        "xyz": [2.5467436167420896, 1.47036123963727, 4.400922493149712]
      },
      {
        "species": [{ "element": "Tl", "occu": 1 }],
        "abc": [0.333333, 0.666667, 0.04734099],
        "properties": { "magmom": -0.016 },
        "label": "Tl",
        "xyz": [-3.566742090121977e-6, 2.9407269103627303, 0.3806475881497119]
      }
    ]
  },
  "task_ids": null,
  "uncorrected_energy_per_atom": null,
  "energy_per_atom": -48.7338004,
  "formation_energy_per_atom": -0.44063644166666904,
  "energy_above_hull": 0.0,
  "is_stable": true,
  "equilibrium_reaction_energy_per_atom": null,
  "decomposes_to": null,
  "xas": null,
  "grain_boundaries": null,
  "band_gap": 0.0,
  "cbm": null,
  "vbm": null,
  "efermi": 5.10229549,
  "is_gap_direct": null,
  "is_metal": null,
  "es_source_calc_id": null,
  "bandstructure": null,
  "dos": null,
  "dos_energy_up": null,
  "dos_energy_down": null,
  "is_magnetic": null,
  "ordering": null,
  "total_magnetization": 14.1214837,
  "total_magnetization_normalized_vol": null,
  "total_magnetization_normalized_formula_units": null,
  "num_magnetic_sites": null,
  "num_unique_magnetic_sites": null,
  "types_of_magnetic_species": null,
  "bulk_modulus": null,
  "shear_modulus": null,
  "universal_anisotropy": null,
  "homogeneous_poisson": null,
  "e_total": null,
  "e_ionic": null,
  "e_electronic": null,
  "n": null,
  "e_ij_max": null,
  "weighted_surface_energy_EV_PER_ANG2": null,
  "weighted_surface_energy": null,
  "weighted_work_function": null,
  "surface_anisotropy": null,
  "shape_factor": null,
  "has_reconstructed": null,
  "possible_species": null,
  "has_props": null,
  "theoretical": null,
  "database_IDs": null,
  "fields_not_requested": [
    "builder_meta",
    "nsites",
    "elements",
    "nelements",
    "composition",
    "composition_reduced",
    "chemsys",
    "symmetry",
    "property_name",
    "deprecated",
    "deprecation_reasons",
    "last_updated",
    "origins",
    "warnings",
    "task_ids",
    "uncorrected_energy_per_atom",
    "equilibrium_reaction_energy_per_atom",
    "decomposes_to",
    "xas",
    "grain_boundaries",
    "cbm",
    "vbm",
    "is_gap_direct",
    "is_metal",
    "es_source_calc_id",
    "bandstructure",
    "dos",
    "dos_energy_up",
    "dos_energy_down",
    "is_magnetic",
    "ordering",
    "total_magnetization_normalized_vol",
    "total_magnetization_normalized_formula_units",
    "num_magnetic_sites",
    "num_unique_magnetic_sites",
    "types_of_magnetic_species",
    "bulk_modulus",
    "shear_modulus",
    "universal_anisotropy",
    "homogeneous_poisson",
    "e_total",
    "e_ionic",
    "e_electronic",
    "n",
    "e_ij_max",
    "weighted_surface_energy_EV_PER_ANG2",
    "weighted_surface_energy",
    "weighted_work_function",
    "surface_anisotropy",
    "shape_factor",
    "has_reconstructed",
    "possible_species",
    "has_props",
    "theoretical",
    "database_IDs"
  ]
}
