{
  "builder_meta": null,
  "nsites": null,
  "elements": null,
  "nelements": null,
  "composition": null,
  "composition_reduced": null,
  "formula_pretty": "EuZn5",
  "formula_anonymous": "AB5",
  "chemsys": null,
  "volume": 105.65995578068456,
  "density": 7.5280474222799825,
  "density_atomic": 17.609992630114093,
  "symmetry": null,
  "property_name": null,
  "material_id": "mp-2436",
  "deprecated": null,
  "deprecation_reasons": null,
  "last_updated": null,
  "origins": null,
  "warnings": null,
  "structure": {
    "@module": "pymatgen.core.structure",
    "@class": "Structure",
    "charge": 0,
    "lattice": {
      "matrix": [
        [5.37667203, 5.207e-5, 7.2e-6],
        [-2.68828894, 4.6563389, -5.139999999999996e-6],
        [6.159999999999999e-6, -1.029999999999998e-6, 4.2203636]
      ],
      "pbc": [true, true, true],
      "a": 5.376672030256955,
      "b": 5.376652246203575,
      "c": 4.220363600004621,
      "alpha": 90.00010869746674,
      "beta": 89.99983964596765,
      "gamma": 119.9989875877669,
      "volume": 105.65995578068454
    },
    "properties": {},
    "sites": [
      {
        "species": [{ "element": "Eu", "occu": 1 }],
        "abc": [0.0, 0.0, -0.0],
        "properties": { "magmom": 6.729 },
        "label": "Eu",
        "xyz": [0.0, 0.0, 0.0]
      },
      {
        "species": [{ "element": "Zn", "occu": 1 }],
        "abc": [0.0, 0.5, 0.5],
        "properties": { "magmom": 0.003 },
        "label": "Zn",
        "xyz": [-1.34414139, 2.328168935, 2.11017923]
      },
      {
        "species": [{ "element": "Zn", "occu": 1 }],
        "abc": [0.33333711, 0.6666648900000001, 0.0],
        "properties": { "magmom": 0.004 },
        "label": "Zn",
        "xyz": [5.646542471637872e-5, 3.104235017434539, -1.0266303425999977e-6]
      },
      {
        "species": [{ "element": "Zn", "occu": 1 }],
        "abc": [0.66666289, 0.33333511, -0.0],
        "properties": { "magmom": 0.004 },
        "label": "Zn",
        "xyz": [2.688326624575283, 1.5521559525654611, 3.0866303426000017e-6]
      },
      {
        "species": [{ "element": "Zn", "occu": 1 }],
        "abc": [0.5, 0.0, 0.5],
        "properties": { "magmom": 0.003 },
        "label": "Zn",
        "xyz": [2.688339095, 2.5520000000000003e-5, 2.1101853999999998]
      },
      {
        "species": [{ "element": "Zn", "occu": 1 }],
        "abc": [0.5, 0.5, 0.5],
        "properties": { "magmom": 0.003 },
        "label": "Zn",
        "xyz": [1.3441946249999999, 2.3281949699999998, 2.11018283]
      }
    ]
  },
  "task_ids": null,
  "uncorrected_energy_per_atom": null,
  "energy_per_atom": -3.015347161666665,
  "formation_energy_per_atom": -0.25087550083333204,
  "energy_above_hull": 0.0,
  "is_stable": true,
  "equilibrium_reaction_energy_per_atom": null,
  "decomposes_to": null,
  "xas": null,
  "grain_boundaries": null,
  "band_gap": 0.0,
  "cbm": null,
  "vbm": null,
  "efermi": 2.80782082,
  "is_gap_direct": null,
  "is_metal": null,
  "es_source_calc_id": null,
  "bandstructure": null,
  "dos": null,
  "dos_energy_up": null,
  "dos_energy_down": null,
  "is_magnetic": null,
  "ordering": null,
  "total_magnetization": 7.1059857,
  "total_magnetization_normalized_vol": null,
  "total_magnetization_normalized_formula_units": null,
  "num_magnetic_sites": null,
  "num_unique_magnetic_sites": null,
  "types_of_magnetic_species": null,
  "bulk_modulus": null,
  "shear_modulus": null,
  "universal_anisotropy": null,
  "homogeneous_poisson": null,
  "e_total": null,
  "e_ionic": null,
  "e_electronic": null,
  "n": null,
  "e_ij_max": null,
  "weighted_surface_energy_EV_PER_ANG2": null,
  "weighted_surface_energy": null,
  "weighted_work_function": null,
  "surface_anisotropy": null,
  "shape_factor": null,
  "has_reconstructed": null,
  "possible_species": null,
  "has_props": null,
  "theoretical": null,
  "database_IDs": null,
  "fields_not_requested": [
    "builder_meta",
    "nsites",
    "elements",
    "nelements",
    "composition",
    "composition_reduced",
    "chemsys",
    "symmetry",
    "property_name",
    "deprecated",
    "deprecation_reasons",
    "last_updated",
    "origins",
    "warnings",
    "task_ids",
    "uncorrected_energy_per_atom",
    "equilibrium_reaction_energy_per_atom",
    "decomposes_to",
    "xas",
    "grain_boundaries",
    "cbm",
    "vbm",
    "is_gap_direct",
    "is_metal",
    "es_source_calc_id",
    "bandstructure",
    "dos",
    "dos_energy_up",
    "dos_energy_down",
    "is_magnetic",
    "ordering",
    "total_magnetization_normalized_vol",
    "total_magnetization_normalized_formula_units",
    "num_magnetic_sites",
    "num_unique_magnetic_sites",
    "types_of_magnetic_species",
    "bulk_modulus",
    "shear_modulus",
    "universal_anisotropy",
    "homogeneous_poisson",
    "e_total",
    "e_ionic",
    "e_electronic",
    "n",
    "e_ij_max",
    "weighted_surface_energy_EV_PER_ANG2",
    "weighted_surface_energy",
    "weighted_work_function",
    "surface_anisotropy",
    "shape_factor",
    "has_reconstructed",
    "possible_species",
    "has_props",
    "theoretical",
    "database_IDs"
  ]
}
