{"builder_meta": null, "nsites": null, "elements": null, "nelements": null, "composition": null, "composition_reduced": null, "formula_pretty": "EuZn2", "formula_anonymous": "AB2", "chemsys": null, "volume": 130.44179055572303, "density": 7.199695072120108, "density_atomic": 21.74029842595384, "symmetry": null, "property_name": null, "material_id": "mp-681", "deprecated": null, "deprecation_reasons": null, "last_updated": null, "origins": null, "warnings": null, "structure": {"@module": "pymatgen.core.structure", "@class": "Structure", "charge": 0, "lattice": {"matrix": [[4.25102427, -2e-08, 1.857174259999999], [2.12725514, 5.30269384, 0.92459433], [0.00263479, -0.00782103, 5.78780007]], "pbc": [true, true, true], "a": 4.6389981220232865, "b": 5.787801920116005, "c": 5.787805953979506, "alpha": 80.86983457520421, "beta": 66.37453509126414, "gamma": 66.37453615301872, "volume": 130.44179055572303}, "properties": {}, "sites": [{"species": [{"element": "Eu", "occu": 1}], "abc": [0.55208917, 0.69791083, 0.19791083], "properties": {"magmom": 6.773}, "label": "Eu", "xyz": [3.832100314729098, 3.6992595815297484, 2.816078507740116]}, {"species": [{"element": "Eu", "occu": 1}], "abc": [0.44791083, 0.30208917, 0.80208917], "properties": {"magmom": 6.773}, "label": "Eu", "xyz": [2.5488138852709024, 1.595613208470251, 5.753490152259884]}, {"species": [{"element": "Zn", "occu": 1}], "abc": [0.83643586, 0.72877951, 0.59835078], "properties": {"magmom": 0.009000000000000001}, "label": "Zn", "xyz": [5.10758562838414, 3.8598148822655975, 5.6903672384676955]}, {"species": [{"element": "Zn", "occu": 1}], "abc": [0.16356414, 0.27122049, 0.40164922000000003], "properties": {"magmom": 0.009000000000000001}, "label": "Zn", "xyz": [1.2733285716158602, 1.4350579077344021, 2.8792014215323034]}, {"species": [{"element": "Zn", "occu": 1}], "abc": [0.83643586, 0.09835078, 0.22877951], "properties": {"magmom": 0.009000000000000001}, "label": "Zn", "xyz": [3.7655291294014845, 0.5197347671253827, 2.968471786864606]}, {"species": [{"element": "Zn", "occu": 1}], "abc": [0.16356414, 0.90164922, 0.77122049], "properties": {"magmom": 0.009000000000000001}, "label": "Zn", "xyz": [2.6153850705985153, 4.775138022874617, 5.601096873135393]}]}, "task_ids": null, "uncorrected_energy_per_atom": null, "energy_per_atom": -4.569242478333334, "formation_energy_per_atom": -0.300042766666669, "energy_above_hull": 0.0, "is_stable": true, "equilibrium_reaction_energy_per_atom": null, "decomposes_to": null, "xas": null, "grain_boundaries": null, "band_gap": 0.0, "cbm": null, "vbm": null, "efermi": 2.54534985, "is_gap_direct": null, "is_metal": null, "es_source_calc_id": null, "bandstructure": null, "dos": null, "dos_energy_up": null, "dos_energy_down": null, "is_magnetic": null, "ordering": null, "total_magnetization": 14.3842108, "total_magnetization_normalized_vol": null, "total_magnetization_normalized_formula_units": null, "num_magnetic_sites": null, "num_unique_magnetic_sites": null, "types_of_magnetic_species": null, "bulk_modulus": null, "shear_modulus": null, "universal_anisotropy": null, "homogeneous_poisson": null, "e_total": null, "e_ionic": null, "e_electronic": null, "n": null, "e_ij_max": null, "weighted_surface_energy_EV_PER_ANG2": null, "weighted_surface_energy": null, "weighted_work_function": null, "surface_anisotropy": null, "shape_factor": null, "has_reconstructed": null, "possible_species": null, "has_props": null, "theoretical": null, "database_IDs": null, "fields_not_requested": ["builder_meta", "nsites", "elements", "nelements", "composition", "composition_reduced", "chemsys", "symmetry", "property_name", "deprecated", "deprecation_reasons", "last_updated", "origins", "warnings", "task_ids", "uncorrected_energy_per_atom", "equilibrium_reaction_energy_per_atom", "decomposes_to", "xas", "grain_boundaries", "cbm", "vbm", "is_gap_direct", "is_metal", "es_source_calc_id", "bandstructure", "dos", "dos_energy_up", "dos_energy_down", "is_magnetic", "ordering", "total_magnetization_normalized_vol", "total_magnetization_normalized_formula_units", "num_magnetic_sites", "num_unique_magnetic_sites", "types_of_magnetic_species", "bulk_modulus", "shear_modulus", "universal_anisotropy", "homogeneous_poisson", "e_total", "e_ionic", "e_electronic", "n", "e_ij_max", "weighted_surface_energy_EV_PER_ANG2", "weighted_surface_energy", "weighted_work_function", "surface_anisotropy", "shape_factor", "has_reconstructed", "possible_species", "has_props", "theoretical", "database_IDs"]}