{"builder_meta": null, "nsites": null, "elements": null, "nelements": null, "composition": null, "composition_reduced": null, "formula_pretty": "Fe2B7", "formula_anonymous": "A2B7", "chemsys": null, "volume": 517.1049533233706, "density": 4.813417025569699, "density_atomic": 7.18201324060237, "symmetry": null, "property_name": null, "material_id": "mp-1194531", "deprecated": null, "deprecation_reasons": null, "last_updated": null, "origins": null, "warnings": null, "structure": {"@module": "pymatgen.core.structure", "@class": "Structure", "charge": 0, "lattice": {"matrix": [[0.0, 0.0, -2.888554], [0.0, -10.617927, 0.0], [-16.860035, 0.0, 0.0]], "pbc": [true, true, true], "a": 2.888554, "b": 10.617927, "c": 16.860035, "alpha": 90.0, "beta": 90.0, "gamma": 90.0, "volume": 517.1049533233706}, "properties": {}, "sites": [{"species": [{"element": "Fe", "occu": 1}], "abc": [0.5, 0.9679200000000001, 0.278539], "properties": {"magmom": -0.465}, "label": "Fe", "xyz": [-4.696177288865, -10.277303901840002, -1.444277]}, {"species": [{"element": "Fe", "occu": 1}], "abc": [0.5, 0.032080000000000004, 0.721461], "properties": {"magmom": -0.465}, "label": "Fe", "xyz": [-12.163857711135, -0.34062309816, -1.444277]}, {"species": [{"element": "Fe", "occu": 1}], "abc": [0.5, 0.53208, 0.778539], "properties": {"magmom": -0.465}, "label": "Fe", "xyz": [-13.126194788865, -5.64958659816, -1.444277]}, {"species": [{"element": "Fe", "occu": 1}], "abc": [0.5, 0.46792000000000006, 0.221461], "properties": {"magmom": -0.465}, "label": "Fe", "xyz": [-3.733840211135, -4.968340401840001, -1.444277]}, {"species": [{"element": "Fe", "occu": 1}], "abc": [0.0, 0.680196, 0.378878999999999], "properties": {"magmom": 0.505}, "label": "Fe", "xyz": [-6.3879132007649835, -7.222271473692, 0.0]}, {"species": [{"element": "Fe", "occu": 1}], "abc": [0.0, 0.319804, 0.621120999999999], "properties": {"magmom": 0.505}, "label": "Fe", "xyz": [-10.472121799234984, -3.395655526308, 0.0]}, {"species": [{"element": "Fe", "occu": 1}], "abc": [0.0, 0.819804, 0.878879], "properties": {"magmom": 0.505}, "label": "Fe", "xyz": [-14.817930700764999, -8.704619026308, 0.0]}, {"species": [{"element": "Fe", "occu": 1}], "abc": [0.0, 0.180196, 0.12112099999999901], "properties": {"magmom": 0.505}, "label": "Fe", "xyz": [-2.042104299234983, -1.913307973692, 0.0]}, {"species": [{"element": "Fe", "occu": 1}], "abc": [0.5, 0.606726, 0.033603], "properties": {"magmom": 0.329}, "label": "Fe", "xyz": [-0.566547756105, -6.442172377002, -1.444277]}, {"species": [{"element": "Fe", "occu": 1}], "abc": [0.5, 0.393273999999999, 0.966397], "properties": {"magmom": 0.329}, "label": "Fe", "xyz": [-16.293487243894997, -4.17575462299799, -1.444277]}, {"species": [{"element": "Fe", "occu": 1}], "abc": [0.5, 0.893274, 0.533602999999999], "properties": {"magmom": 0.329}, "label": "Fe", "xyz": [-8.996565256104985, -9.484718122998, -1.444277]}, {"species": [{"element": "Fe", "occu": 1}], "abc": [0.5, 0.106726, 0.466397], "properties": {"magmom": 0.329}, "label": "Fe", "xyz": [-7.863469743895, -1.133208877002, -1.444277]}, {"species": [{"element": "Fe", "occu": 1}], "abc": [0.0, 0.765672, 0.113500999999999], "properties": {"magmom": 0.5680000000000001}, "label": "Fe", "xyz": [-1.9136308325349831, -8.129849401944, 0.0]}, {"species": [{"element": "Fe", "occu": 1}], "abc": [0.0, 0.234327999999999, 0.886498999999999], "properties": {"magmom": 0.5680000000000001}, "label": "Fe", "xyz": [-14.946404167464983, -2.4880775980559893, 0.0]}, {"species": [{"element": "Fe", "occu": 1}], "abc": [0.0, 0.734328, 0.613501], "properties": {"magmom": 0.5680000000000001}, "label": "Fe", "xyz": [-10.343648332534999, -7.797041098056, 0.0]}, {"species": [{"element": "Fe", "occu": 1}], "abc": [0.0, 0.265671999999999, 0.386499], "properties": {"magmom": 0.5680000000000001}, "label": "Fe", "xyz": [-6.5163866674649995, -2.8208859019439894, 0.0]}, {"species": [{"element": "B", "occu": 1}], "abc": [0.0, 0.551848, 0.13175], "properties": {"magmom": 0.005}, "label": "B", "xyz": [-2.22130961125, -5.859481779096, 0.0]}, {"species": [{"element": "B", "occu": 1}], "abc": [0.0, 0.448152, 0.8682500000000001], "properties": {"magmom": 0.005}, "label": "B", "xyz": [-14.638725388750002, -4.758445220904, 0.0]}, {"species": [{"element": "B", "occu": 1}], "abc": [0.0, 0.948152, 0.63175], "properties": {"magmom": 0.005}, "label": "B", "xyz": [-10.65132711125, -10.067408720904, 0.0]}, {"species": [{"element": "B", "occu": 1}], "abc": [0.0, 0.051848, 0.36825], "properties": {"magmom": 0.005}, "label": "B", "xyz": [-6.20870788875, -0.5505182790959999, 0.0]}, {"species": [{"element": "B", "occu": 1}], "abc": [0.0, 0.960997999999999, 0.452667999999999], "properties": {"magmom": 0.002}, "label": "B", "xyz": [-7.6319983233799835, -10.203806611145989, 0.0]}, {"species": [{"element": "B", "occu": 1}], "abc": [0.0, 0.039001999999999, 0.547331999999999], "properties": {"magmom": 0.002}, "label": "B", "xyz": [-9.228036676619984, -0.4141203888539894, 0.0]}, {"species": [{"element": "B", "occu": 1}], "abc": [0.0, 0.539002, 0.952668], "properties": {"magmom": 0.002}, "label": "B", "xyz": [-16.062015823379998, -5.723083888854, 0.0]}, {"species": [{"element": "B", "occu": 1}], "abc": [0.0, 0.460997999999999, 0.047332], "properties": {"magmom": 0.002}, "label": "B", "xyz": [-0.79801917662, -4.894843111145989, 0.0]}, {"species": [{"element": "B", "occu": 1}], "abc": [0.0, 0.8916900000000001, 0.197021], "properties": {"magmom": 0.001}, "label": "B", "xyz": [-3.321780955735, -9.46789932663, 0.0]}, {"species": [{"element": "B", "occu": 1}], "abc": [0.0, 0.10831, 0.802979], "properties": {"magmom": 0.001}, "label": "B", "xyz": [-13.538254044264999, -1.1500276733700001, 0.0]}, {"species": [{"element": "B", "occu": 1}], "abc": [0.0, 0.60831, 0.697021], "properties": {"magmom": 0.001}, "label": "B", "xyz": [-11.751798455735, -6.45899117337, 0.0]}, {"species": [{"element": "B", "occu": 1}], "abc": [0.0, 0.39169000000000004, 0.302979], "properties": {"magmom": 0.001}, "label": "B", "xyz": [-5.108236544265, -4.1589358266300005, 0.0]}, {"species": [{"element": "B", "occu": 1}], "abc": [0.0, 0.875176, 0.35933000000000004], "properties": {"magmom": -0.005}, "label": "B", "xyz": [-6.0583163765500005, -9.292554880152, 0.0]}, {"species": [{"element": "B", "occu": 1}], "abc": [0.0, 0.124823999999999, 0.6406700000000001], "properties": {"magmom": -0.005}, "label": "B", "xyz": [-10.801718623450002, -1.3253721198479895, 0.0]}, {"species": [{"element": "B", "occu": 1}], "abc": [0.0, 0.624823999999999, 0.85933], "properties": {"magmom": -0.005}, "label": "B", "xyz": [-14.488333876550001, -6.63433561984799, 0.0]}, {"species": [{"element": "B", "occu": 1}], "abc": [0.0, 0.375176, 0.14067000000000002], "properties": {"magmom": -0.005}, "label": "B", "xyz": [-2.3717011234500003, -3.983591380152, 0.0]}, {"species": [{"element": "B", "occu": 1}], "abc": [0.5, 0.902451, 0.055341999999999], "properties": {"magmom": 0.003}, "label": "B", "xyz": [-0.9330680569699832, -9.582158839077, -1.444277]}, {"species": [{"element": "B", "occu": 1}], "abc": [0.5, 0.097549, 0.944658], "properties": {"magmom": 0.003}, "label": "B", "xyz": [-15.92696694303, -1.035768160923, -1.444277]}, {"species": [{"element": "B", "occu": 1}], "abc": [0.5, 0.597549, 0.555342], "properties": {"magmom": 0.003}, "label": "B", "xyz": [-9.36308555697, -6.344731660923, -1.444277]}, {"species": [{"element": "B", "occu": 1}], "abc": [0.5, 0.402451, 0.444658], "properties": {"magmom": 0.003}, "label": "B", "xyz": [-7.49694944303, -4.273195339077, -1.444277]}, {"species": [{"element": "B", "occu": 1}], "abc": [0.0, 0.544167, 0.29916000000000004], "properties": {"magmom": -0.003}, "label": "B", "xyz": [-5.0438480706, -5.777925481809, 0.0]}, {"species": [{"element": "B", "occu": 1}], "abc": [0.0, 0.455833, 0.70084], "properties": {"magmom": -0.003}, "label": "B", "xyz": [-11.8161869294, -4.840001518190999, 0.0]}, {"species": [{"element": "B", "occu": 1}], "abc": [0.0, 0.955832999999999, 0.7991600000000001], "properties": {"magmom": -0.003}, "label": "B", "xyz": [-13.473865570600001, -10.14896501819099, 0.0]}, {"species": [{"element": "B", "occu": 1}], "abc": [0.0, 0.044167, 0.20084000000000002], "properties": {"magmom": -0.003}, "label": "B", "xyz": [-3.3861694294, -0.46896198180899995, 0.0]}, {"species": [{"element": "B", "occu": 1}], "abc": [0.5, 0.787477, 0.209794999999999], "properties": {"magmom": -0.006}, "label": "B", "xyz": [-3.5371510428249833, -8.361373300179, -1.444277]}, {"species": [{"element": "B", "occu": 1}], "abc": [0.5, 0.212523, 0.790204999999999], "properties": {"magmom": -0.006}, "label": "B", "xyz": [-13.322883957174984, -2.256553699821, -1.444277]}, {"species": [{"element": "B", "occu": 1}], "abc": [0.5, 0.712523, 0.709795], "properties": {"magmom": -0.006}, "label": "B", "xyz": [-11.967168542824998, -7.5655171998210005, -1.444277]}, {"species": [{"element": "B", "occu": 1}], "abc": [0.5, 0.287477, 0.290205], "properties": {"magmom": -0.006}, "label": "B", "xyz": [-4.892866457175, -3.052409800179, -1.444277]}, {"species": [{"element": "B", "occu": 1}], "abc": [0.0, 0.804813999999999, 0.466873999999999], "properties": {"magmom": -0.007}, "label": "B", "xyz": [-7.871511980589983, -8.545456300577989, 0.0]}, {"species": [{"element": "B", "occu": 1}], "abc": [0.0, 0.195186, 0.533126], "properties": {"magmom": -0.007}, "label": "B", "xyz": [-8.98852301941, -2.072470699422, 0.0]}, {"species": [{"element": "B", "occu": 1}], "abc": [0.0, 0.695186, 0.966874], "properties": {"magmom": -0.007}, "label": "B", "xyz": [-16.30152948059, -7.381434199421999, 0.0]}, {"species": [{"element": "B", "occu": 1}], "abc": [0.0, 0.304814, 0.033125999999999], "properties": {"magmom": -0.007}, "label": "B", "xyz": [-0.5585055194099832, -3.2364928005779996, 0.0]}, {"species": [{"element": "B", "occu": 1}], "abc": [0.0, 0.97584, 0.100970999999999], "properties": {"magmom": 0.003}, "label": "B", "xyz": [-1.7023745939849833, -10.36139788368, 0.0]}, {"species": [{"element": "B", "occu": 1}], "abc": [0.0, 0.02416, 0.899029], "properties": {"magmom": 0.003}, "label": "B", "xyz": [-15.157660406015, -0.25652911632000003, 0.0]}, {"species": [{"element": "B", "occu": 1}], "abc": [0.0, 0.5241600000000001, 0.600970999999999], "properties": {"magmom": 0.003}, "label": "B", "xyz": [-10.132392093984983, -5.56549261632, 0.0]}, {"species": [{"element": "B", "occu": 1}], "abc": [0.0, 0.47584000000000004, 0.399028999999999], "properties": {"magmom": 0.003}, "label": "B", "xyz": [-6.727642906014983, -5.0524343836800005, 0.0]}, {"species": [{"element": "B", "occu": 1}], "abc": [0.5, 0.558588, 0.445955], "properties": {"magmom": 0.002}, "label": "B", "xyz": [-7.518816908424999, -5.9310466070759995, -1.444277]}, {"species": [{"element": "B", "occu": 1}], "abc": [0.5, 0.441411999999999, 0.554045], "properties": {"magmom": 0.002}, "label": "B", "xyz": [-9.341218091575, -4.68688039292399, -1.444277]}, {"species": [{"element": "B", "occu": 1}], "abc": [0.5, 0.941411999999999, 0.945955], "properties": {"magmom": 0.002}, "label": "B", "xyz": [-15.948834408425, -9.99584389292399, -1.444277]}, {"species": [{"element": "B", "occu": 1}], "abc": [0.5, 0.058587999999999, 0.054044999999999004], "properties": {"magmom": 0.002}, "label": "B", "xyz": [-0.9112005915749832, -0.6220831070759893, -1.444277]}, {"species": [{"element": "B", "occu": 1}], "abc": [0.5, 0.712429, 0.481745], "properties": {"magmom": -0.006}, "label": "B", "xyz": [-8.122237561075, -7.564519114683, -1.444277]}, {"species": [{"element": "B", "occu": 1}], "abc": [0.5, 0.287570999999999, 0.518255], "properties": {"magmom": -0.006}, "label": "B", "xyz": [-8.737797438925, -3.0534078853169895, -1.444277]}, {"species": [{"element": "B", "occu": 1}], "abc": [0.5, 0.787570999999999, 0.981745], "properties": {"magmom": -0.006}, "label": "B", "xyz": [-16.552255061074998, -8.36237138531699, -1.444277]}, {"species": [{"element": "B", "occu": 1}], "abc": [0.5, 0.212428999999999, 0.018255], "properties": {"magmom": -0.006}, "label": "B", "xyz": [-0.307779938925, -2.2555556146829896, -1.444277]}, {"species": [{"element": "B", "occu": 1}], "abc": [0.5, 0.638324999999999, 0.160292], "properties": {"magmom": -0.0}, "label": "B", "xyz": [-2.7025287302199996, -6.77768825227499, -1.444277]}, {"species": [{"element": "B", "occu": 1}], "abc": [0.5, 0.361674999999999, 0.839708], "properties": {"magmom": -0.0}, "label": "B", "xyz": [-14.15750626978, -3.8402387477249897, -1.444277]}, {"species": [{"element": "B", "occu": 1}], "abc": [0.5, 0.861675, 0.660292], "properties": {"magmom": -0.0}, "label": "B", "xyz": [-11.13254623022, -9.149202247725, -1.444277]}, {"species": [{"element": "B", "occu": 1}], "abc": [0.5, 0.138325, 0.339708], "properties": {"magmom": -0.0}, "label": "B", "xyz": [-5.72748876978, -1.468724752275, -1.444277]}, {"species": [{"element": "B", "occu": 1}], "abc": [0.5, 0.64373, 0.280542], "properties": {"magmom": -0.0}, "label": "B", "xyz": [-4.7299479389700005, -6.83507814771, -1.444277]}, {"species": [{"element": "B", "occu": 1}], "abc": [0.5, 0.35627000000000003, 0.719457999999999], "properties": {"magmom": -0.0}, "label": "B", "xyz": [-12.130087061029984, -3.7828488522900003, -1.444277]}, {"species": [{"element": "B", "occu": 1}], "abc": [0.5, 0.8562700000000001, 0.780542], "properties": {"magmom": -0.0}, "label": "B", "xyz": [-13.15996543897, -9.09181235229, -1.444277]}, {"species": [{"element": "B", "occu": 1}], "abc": [0.5, 0.14373000000000002, 0.219458], "properties": {"magmom": -0.0}, "label": "B", "xyz": [-3.70006956103, -1.5261146477100003, -1.444277]}, {"species": [{"element": "B", "occu": 1}], "abc": [0.5, 0.792204999999999, 0.320424], "properties": {"magmom": 0.002}, "label": "B", "xyz": [-5.402359854839999, -8.41157485903499, -1.444277]}, {"species": [{"element": "B", "occu": 1}], "abc": [0.5, 0.207794999999999, 0.679576], "properties": {"magmom": 0.002}, "label": "B", "xyz": [-11.45767514516, -2.2063521409649893, -1.444277]}, {"species": [{"element": "B", "occu": 1}], "abc": [0.5, 0.707795, 0.820423999999999], "properties": {"magmom": 0.002}, "label": "B", "xyz": [-13.832377354839984, -7.5153156409649995, -1.444277]}, {"species": [{"element": "B", "occu": 1}], "abc": [0.5, 0.292205, 0.17957599999999901], "properties": {"magmom": 0.002}, "label": "B", "xyz": [-3.0276576451599833, -3.102611359035, -1.444277]}]}, "task_ids": null, "uncorrected_energy_per_atom": null, "energy_per_atom": -7.267352963333333, "formation_energy_per_atom": -0.19004353935185, "energy_above_hull": 0.007321044166666001, "is_stable": false, "equilibrium_reaction_energy_per_atom": null, "decomposes_to": null, "xas": null, "grain_boundaries": null, "band_gap": 0.0, "cbm": null, "vbm": null, "efermi": 7.7424467, "is_gap_direct": null, "is_metal": null, "es_source_calc_id": null, "bandstructure": null, "dos": null, "dos_energy_up": null, "dos_energy_down": null, "is_magnetic": null, "ordering": null, "total_magnetization": 3.703064399999999, "total_magnetization_normalized_vol": null, "total_magnetization_normalized_formula_units": null, "num_magnetic_sites": null, "num_unique_magnetic_sites": null, "types_of_magnetic_species": null, "bulk_modulus": null, "shear_modulus": null, "universal_anisotropy": null, "homogeneous_poisson": null, "e_total": null, "e_ionic": null, "e_electronic": null, "n": null, "e_ij_max": null, "weighted_surface_energy_EV_PER_ANG2": null, "weighted_surface_energy": null, "weighted_work_function": null, "surface_anisotropy": null, "shape_factor": null, "has_reconstructed": null, "possible_species": null, "has_props": null, "theoretical": null, "database_IDs": null, "fields_not_requested": ["builder_meta", "nsites", "elements", "nelements", "composition", "composition_reduced", "chemsys", "symmetry", "property_name", "deprecated", "deprecation_reasons", "last_updated", "origins", "warnings", "task_ids", "uncorrected_energy_per_atom", "equilibrium_reaction_energy_per_atom", "decomposes_to", "xas", "grain_boundaries", "cbm", "vbm", "is_gap_direct", "is_metal", "es_source_calc_id", "bandstructure", "dos", "dos_energy_up", "dos_energy_down", "is_magnetic", "ordering", "total_magnetization_normalized_vol", "total_magnetization_normalized_formula_units", "num_magnetic_sites", "num_unique_magnetic_sites", "types_of_magnetic_species", "bulk_modulus", "shear_modulus", "universal_anisotropy", "homogeneous_poisson", "e_total", "e_ionic", "e_electronic", "n", "e_ij_max", "weighted_surface_energy_EV_PER_ANG2", "weighted_surface_energy", "weighted_work_function", "surface_anisotropy", "shape_factor", "has_reconstructed", "possible_species", "has_props", "theoretical", "database_IDs"]}