{
  "builder_meta": null,
  "nsites": null,
  "elements": null,
  "nelements": null,
  "composition": null,
  "composition_reduced": null,
  "formula_pretty": "Fe2B",
  "formula_anonymous": "AB2",
  "chemsys": null,
  "volume": 54.82899441398073,
  "density": 7.420077583830263,
  "density_atomic": 9.138165735663454,
  "symmetry": null,
  "property_name": null,
  "material_id": "mp-1915",
  "deprecated": null,
  "deprecation_reasons": null,
  "last_updated": null,
  "origins": null,
  "warnings": null,
  "structure": {
    "@module": "pymatgen.core.structure",
    "@class": "Structure",
    "charge": 0,
    "lattice": {
      "matrix": [
        [4.03528658, -0.0032908300000000002, -1.07304383],
        [-2.38597892, 3.25432647, -1.07304382],
        [0.00166591, 0.00328543, 4.17550523]
      ],
      "pbc": [true, true, true],
      "a": 4.175520527238641,
      "b": 4.175519035960346,
      "c": 4.175506854869689,
      "alpha": 104.86836428197223,
      "beta": 104.86837743070333,
      "gamma": 119.13067382368337,
      "volume": 54.82899441398073
    },
    "properties": {},
    "sites": [
      {
        "species": [{ "element": "Fe", "occu": 1 }],
        "abc": [0.16755223, 0.66755223, 0.83510346],
        "properties": { "magmom": 2.485 },
        "label": "Fe",
        "xyz": [-0.9152530764058693, 2.174625180252065, 2.5908751832881363]
      },
      {
        "species": [{ "element": "Fe", "occu": 1 }],
        "abc": [0.33244977000000003, 0.16754923, 0.499998999999999],
        "properties": { "magmom": 2.485 },
        "label": "Fe",
        "xyz": [0.9425941178969451, 0.5458085702550789, 1.551227599214088]
      },
      {
        "species": [{ "element": "Fe", "occu": 1 }],
        "abc": [0.8324487700000001, 0.33244877, 0.16489754],
        "properties": { "magmom": 2.485 },
        "label": "Fe",
        "xyz": [2.56622829737944, 1.0796991440690051, -0.5614555738705564]
      },
      {
        "species": [{ "element": "Fe", "occu": 1 }],
        "abc": [0.66754923, 0.83244977, 0.499998999999999],
        "properties": { "magmom": 2.485 },
        "label": "Fe",
        "xyz": [0.7083777994635753, 2.7085092421384207, 0.47818377586309335]
      },
      {
        "species": [{ "element": "B", "occu": 1 }],
        "abc": [0.75, 0.75, 1e-6],
        "properties": { "magmom": -0.17400000000000002 },
        "label": "B",
        "xyz": [1.23698074666591, 2.4382767332854303, -1.60956156199477]
      },
      {
        "species": [{ "element": "B", "occu": 1 }],
        "abc": [0.25, 0.25, 1e-6],
        "properties": { "magmom": -0.17400000000000002 },
        "label": "B",
        "xyz": [0.4123269166659101, 0.81275891328543, -0.53651773699477]
      }
    ]
  },
  "task_ids": null,
  "uncorrected_energy_per_atom": null,
  "energy_per_atom": -8.180638175,
  "formation_energy_per_atom": -0.307493444722221,
  "energy_above_hull": 0.0,
  "is_stable": true,
  "equilibrium_reaction_energy_per_atom": null,
  "decomposes_to": null,
  "xas": null,
  "grain_boundaries": null,
  "band_gap": 0.0,
  "cbm": null,
  "vbm": null,
  "efermi": 6.65516448,
  "is_gap_direct": null,
  "is_metal": null,
  "es_source_calc_id": null,
  "bandstructure": null,
  "dos": null,
  "dos_energy_up": null,
  "dos_energy_down": null,
  "is_magnetic": null,
  "ordering": null,
  "total_magnetization": 9.2991168,
  "total_magnetization_normalized_vol": null,
  "total_magnetization_normalized_formula_units": null,
  "num_magnetic_sites": null,
  "num_unique_magnetic_sites": null,
  "types_of_magnetic_species": null,
  "bulk_modulus": null,
  "shear_modulus": null,
  "universal_anisotropy": null,
  "homogeneous_poisson": null,
  "e_total": null,
  "e_ionic": null,
  "e_electronic": null,
  "n": null,
  "e_ij_max": null,
  "weighted_surface_energy_EV_PER_ANG2": null,
  "weighted_surface_energy": null,
  "weighted_work_function": null,
  "surface_anisotropy": null,
  "shape_factor": null,
  "has_reconstructed": null,
  "possible_species": null,
  "has_props": null,
  "theoretical": null,
  "database_IDs": null,
  "fields_not_requested": [
    "builder_meta",
    "nsites",
    "elements",
    "nelements",
    "composition",
    "composition_reduced",
    "chemsys",
    "symmetry",
    "property_name",
    "deprecated",
    "deprecation_reasons",
    "last_updated",
    "origins",
    "warnings",
    "task_ids",
    "uncorrected_energy_per_atom",
    "equilibrium_reaction_energy_per_atom",
    "decomposes_to",
    "xas",
    "grain_boundaries",
    "cbm",
    "vbm",
    "is_gap_direct",
    "is_metal",
    "es_source_calc_id",
    "bandstructure",
    "dos",
    "dos_energy_up",
    "dos_energy_down",
    "is_magnetic",
    "ordering",
    "total_magnetization_normalized_vol",
    "total_magnetization_normalized_formula_units",
    "num_magnetic_sites",
    "num_unique_magnetic_sites",
    "types_of_magnetic_species",
    "bulk_modulus",
    "shear_modulus",
    "universal_anisotropy",
    "homogeneous_poisson",
    "e_total",
    "e_ionic",
    "e_electronic",
    "n",
    "e_ij_max",
    "weighted_surface_energy_EV_PER_ANG2",
    "weighted_surface_energy",
    "weighted_work_function",
    "surface_anisotropy",
    "shape_factor",
    "has_reconstructed",
    "possible_species",
    "has_props",
    "theoretical",
    "database_IDs"
  ]
}
