{"builder_meta": null, "nsites": null, "elements": null, "nelements": null, "composition": null, "composition_reduced": null, "formula_pretty": "Fe2Mo", "formula_anonymous": "AB2", "chemsys": null, "volume": 149.52591536907536, "density": 9.223223293357323, "density_atomic": 12.460492947422948, "symmetry": null, "property_name": null, "material_id": "mp-1095682", "deprecated": null, "deprecation_reasons": null, "last_updated": null, "origins": null, "warnings": null, "structure": {"@module": "pymatgen.core.structure", "@class": "Structure", "charge": 0, "lattice": {"matrix": [[-2.31856356, -4.05880372, 0.0], [-2.31855433, 4.05879853, -0.0], [-0.0, -0.0, -7.94457301]], "pbc": [true, true, true], "a": 4.674358203993968, "b": 4.674349119213487, "c": 7.94457301, "alpha": 90.0, "beta": 90.0, "gamma": 120.52632847087573, "volume": 149.52591536907536}, "properties": {}, "sites": [{"species": [{"element": "Fe", "occu": 1}], "abc": [0.83081455, 0.65863512, 0.75], "properties": {"magmom": -1.871999999999999}, "label": "Fe", "xyz": [-3.4533776501138673, -0.6988459293077529, -5.9584297575]}, {"species": [{"element": "Fe", "occu": 1}], "abc": [0.82959178, 0.17040822, 0.75], "properties": {"magmom": -1.871999999999999}, "label": "Fe", "xyz": [-2.3185619871321292, -2.6754975699095054, -5.9584297575]}, {"species": [{"element": "Fe", "occu": 1}], "abc": [0.34136388, 0.16918645000000002, 0.75], "properties": {"magmom": -1.871999999999999}, "label": "Fe", "xyz": [-1.1837418290930413, -0.6988352714617151, -5.9584297575]}, {"species": [{"element": "Fe", "occu": 1}], "abc": [0.169117, 0.34126988, 0.25], "properties": {"magmom": -1.871999999999999}, "label": "Fe", "xyz": [-1.1833612715491004, 0.6987329785620365, -1.9861432525]}, {"species": [{"element": "Fe", "occu": 1}], "abc": [0.17037256, 0.82962744, 0.25], "properties": {"magmom": -1.871999999999999}, "label": "Fe", "xyz": [-2.3185559025387286, 2.6757818536057396, -1.9861432525]}, {"species": [{"element": "Fe", "occu": 1}], "abc": [0.65873012, 0.830882999999999, 0.25], "properties": {"magmom": -1.871999999999999}, "label": "Fe", "xyz": [-3.4537550294798147, 0.6987304374699392, -1.9861432525]}, {"species": [{"element": "Fe", "occu": 1}], "abc": [1.85e-06, -3.849999999999999e-06, 0.50003179], "properties": {"magmom": 2.708}, "label": "Fe", "xyz": [4.637091584499997e-06, -2.3135161222499992e-05, -3.972539062975988]}, {"species": [{"element": "Fe", "occu": 1}], "abc": [1.85e-06, -3.849999999999999e-06, -3.179e-05], "properties": {"magmom": 2.708}, "label": "Fe", "xyz": [4.637091584499997e-06, -2.3135161222499992e-05, 0.00025255797598789997]}, {"species": [{"element": "Mo", "occu": 1}], "abc": [0.6647469500000001, 0.33525405, 0.06816183], "properties": {"magmom": 0.11800000000000001}, "label": "Mo", "xyz": [-2.3185627841686784, -1.337348748202108, -0.5415166349302084]}, {"species": [{"element": "Mo", "occu": 1}], "abc": [0.33525525, 0.66474475, 0.9318610900000001], "properties": {"magmom": 0.11800000000000001}, "label": "Mo", "xyz": [-2.3185574244059572, 1.3373297582756871, -7.403238464683182]}, {"species": [{"element": "Mo", "occu": 1}], "abc": [0.33525525, 0.66474475, 0.56813891], "properties": {"magmom": 0.11800000000000001}, "label": "Mo", "xyz": [-2.3185574244059572, 1.3373297582756871, -4.51362105031682]}, {"species": [{"element": "Mo", "occu": 1}], "abc": [0.6647469500000001, 0.33525405, 0.43183817], "properties": {"magmom": 0.11800000000000001}, "label": "Mo", "xyz": [-2.3185627841686784, -1.337348748202108, -3.430769870069792]}]}, "task_ids": null, "uncorrected_energy_per_atom": null, "energy_per_atom": -9.2637983325, "formation_energy_per_atom": -0.0019008225, "energy_above_hull": 0.0016447674999980001, "is_stable": false, "equilibrium_reaction_energy_per_atom": null, "decomposes_to": null, "xas": null, "grain_boundaries": null, "band_gap": 0.0, "cbm": null, "vbm": null, "efermi": 7.01031999, "is_gap_direct": null, "is_metal": null, "es_source_calc_id": null, "bandstructure": null, "dos": null, "dos_energy_up": null, "dos_energy_down": null, "is_magnetic": null, "ordering": null, "total_magnetization": 5.1432307, "total_magnetization_normalized_vol": null, "total_magnetization_normalized_formula_units": null, "num_magnetic_sites": null, "num_unique_magnetic_sites": null, "types_of_magnetic_species": null, "bulk_modulus": null, "shear_modulus": null, "universal_anisotropy": null, "homogeneous_poisson": null, "e_total": null, "e_ionic": null, "e_electronic": null, "n": null, "e_ij_max": null, "weighted_surface_energy_EV_PER_ANG2": null, "weighted_surface_energy": null, "weighted_work_function": null, "surface_anisotropy": null, "shape_factor": null, "has_reconstructed": null, "possible_species": null, "has_props": null, "theoretical": null, "database_IDs": null, "fields_not_requested": ["builder_meta", "nsites", "elements", "nelements", "composition", "composition_reduced", "chemsys", "symmetry", "property_name", "deprecated", "deprecation_reasons", "last_updated", "origins", "warnings", "task_ids", "uncorrected_energy_per_atom", "equilibrium_reaction_energy_per_atom", "decomposes_to", "xas", "grain_boundaries", "cbm", "vbm", "is_gap_direct", "is_metal", "es_source_calc_id", "bandstructure", "dos", "dos_energy_up", "dos_energy_down", "is_magnetic", "ordering", "total_magnetization_normalized_vol", "total_magnetization_normalized_formula_units", "num_magnetic_sites", "num_unique_magnetic_sites", "types_of_magnetic_species", "bulk_modulus", "shear_modulus", "universal_anisotropy", "homogeneous_poisson", "e_total", "e_ionic", "e_electronic", "n", "e_ij_max", "weighted_surface_energy_EV_PER_ANG2", "weighted_surface_energy", "weighted_work_function", "surface_anisotropy", "shape_factor", "has_reconstructed", "possible_species", "has_props", "theoretical", "database_IDs"]}