{"builder_meta": null, "nsites": null, "elements": null, "nelements": null, "composition": null, "composition_reduced": null, "formula_pretty": "Fe2N", "formula_anonymous": "AB2", "chemsys": null, "volume": 112.83708126722532, "density": 7.399137891501853, "density_atomic": 9.403090105602109, "symmetry": null, "property_name": null, "material_id": "mp-21476", "deprecated": null, "deprecation_reasons": null, "last_updated": null, "origins": null, "warnings": null, "structure": {"@module": "pymatgen.core.structure", "@class": "Structure", "charge": 0, "lattice": {"matrix": [[4.3474450000000004, 0.0, 0.0], [0.0, 4.746325, 0.0], [0.0, 0.0, 5.4684]], "pbc": [true, true, true], "a": 4.3474450000000004, "b": 4.746325, "c": 5.4684, "alpha": 90.0, "beta": 90.0, "gamma": 90.0, "volume": 112.83708126722536}, "properties": {}, "sites": [{"species": [{"element": "Fe", "occu": 1}], "abc": [0.250818, 0.084657, 0.873433999999999], "properties": {"magmom": 1.521}, "label": "Fe", "xyz": [1.09041746001, 0.40180963552499993, 4.776286485599995]}, {"species": [{"element": "Fe", "occu": 1}], "abc": [0.750818, 0.915342999999999, 0.626566], "properties": {"magmom": 1.573}, "label": "Fe", "xyz": [3.26413996001, 4.344515364474995, 3.4263135144]}, {"species": [{"element": "Fe", "occu": 1}], "abc": [0.249182, 0.584657, 0.626566], "properties": {"magmom": 1.569}, "label": "Fe", "xyz": [1.0833050399900002, 2.7749721355249997, 3.4263135144]}, {"species": [{"element": "Fe", "occu": 1}], "abc": [0.749182, 0.415342999999999, 0.873433999999999], "properties": {"magmom": 1.532}, "label": "Fe", "xyz": [3.2570275399900006, 1.9713528644749951, 4.776286485599995]}, {"species": [{"element": "Fe", "occu": 1}], "abc": [0.250818, 0.584657, 0.126565999999999], "properties": {"magmom": 1.532}, "label": "Fe", "xyz": [1.09041746001, 2.7749721355249997, 0.6921135143999946]}, {"species": [{"element": "Fe", "occu": 1}], "abc": [0.750818, 0.415342999999999, 0.373434], "properties": {"magmom": 1.569}, "label": "Fe", "xyz": [3.26413996001, 1.9713528644749951, 2.0420864856]}, {"species": [{"element": "Fe", "occu": 1}], "abc": [0.249182, 0.084657, 0.373434], "properties": {"magmom": 1.573}, "label": "Fe", "xyz": [1.0833050399900002, 0.40180963552499993, 2.0420864856]}, {"species": [{"element": "Fe", "occu": 1}], "abc": [0.749182, 0.915342999999999, 0.126565999999999], "properties": {"magmom": 1.521}, "label": "Fe", "xyz": [3.2570275399900006, 4.344515364474995, 0.6921135143999946]}, {"species": [{"element": "N", "occu": 1}], "abc": [0.5, 0.75, 0.865066], "properties": {"magmom": -0.063}, "label": "N", "xyz": [2.1737225000000002, 3.55974375, 4.7305269143999995]}, {"species": [{"element": "N", "occu": 1}], "abc": [0.0, 0.25, 0.634934], "properties": {"magmom": -0.061}, "label": "N", "xyz": [0.0, 1.18658125, 3.4720730856]}, {"species": [{"element": "N", "occu": 1}], "abc": [0.5, 0.25, 0.134934], "properties": {"magmom": -0.063}, "label": "N", "xyz": [2.1737225000000002, 1.18658125, 0.7378730856]}, {"species": [{"element": "N", "occu": 1}], "abc": [0.0, 0.75, 0.365066], "properties": {"magmom": -0.061}, "label": "N", "xyz": [0.0, 3.55974375, 1.9963269144]}]}, "task_ids": null, "uncorrected_energy_per_atom": null, "energy_per_atom": -8.579033613333333, "formation_energy_per_atom": -0.152926891666666, "energy_above_hull": 0.056840972499999004, "is_stable": false, "equilibrium_reaction_energy_per_atom": null, "decomposes_to": null, "xas": null, "grain_boundaries": null, "band_gap": 0.0, "cbm": null, "vbm": null, "efermi": 6.84962023, "is_gap_direct": null, "is_metal": null, "es_source_calc_id": null, "bandstructure": null, "dos": null, "dos_energy_up": null, "dos_energy_down": null, "is_magnetic": null, "ordering": null, "total_magnetization": 12.0003146, "total_magnetization_normalized_vol": null, "total_magnetization_normalized_formula_units": null, "num_magnetic_sites": null, "num_unique_magnetic_sites": null, "types_of_magnetic_species": null, "bulk_modulus": null, "shear_modulus": null, "universal_anisotropy": null, "homogeneous_poisson": null, "e_total": null, "e_ionic": null, "e_electronic": null, "n": null, "e_ij_max": null, "weighted_surface_energy_EV_PER_ANG2": null, "weighted_surface_energy": null, "weighted_work_function": null, "surface_anisotropy": null, "shape_factor": null, "has_reconstructed": null, "possible_species": null, "has_props": null, "theoretical": null, "database_IDs": null, "fields_not_requested": ["builder_meta", "nsites", "elements", "nelements", "composition", "composition_reduced", "chemsys", "symmetry", "property_name", "deprecated", "deprecation_reasons", "last_updated", "origins", "warnings", "task_ids", "uncorrected_energy_per_atom", "equilibrium_reaction_energy_per_atom", "decomposes_to", "xas", "grain_boundaries", "cbm", "vbm", "is_gap_direct", "is_metal", "es_source_calc_id", "bandstructure", "dos", "dos_energy_up", "dos_energy_down", "is_magnetic", "ordering", "total_magnetization_normalized_vol", "total_magnetization_normalized_formula_units", "num_magnetic_sites", "num_unique_magnetic_sites", "types_of_magnetic_species", "bulk_modulus", "shear_modulus", "universal_anisotropy", "homogeneous_poisson", "e_total", "e_ionic", "e_electronic", "n", "e_ij_max", "weighted_surface_energy_EV_PER_ANG2", "weighted_surface_energy", "weighted_work_function", "surface_anisotropy", "shape_factor", "has_reconstructed", "possible_species", "has_props", "theoretical", "database_IDs"]}