{"builder_meta": null, "nsites": null, "elements": null, "nelements": null, "composition": null, "composition_reduced": null, "formula_pretty": "Fe2O5", "formula_anonymous": "A2B5", "chemsys": null, "volume": 287.2863301226924, "density": 4.4318677038815615, "density_atomic": 10.260226075810442, "symmetry": null, "property_name": null, "material_id": "mp-1147691", "deprecated": null, "deprecation_reasons": null, "last_updated": null, "origins": null, "warnings": null, "structure": {"@module": "pymatgen.core.structure", "@class": "Structure", "charge": 0, "lattice": {"matrix": [[8.753969, -0.040357, -3.272424], [-0.458493999999999, 5.194598, -1.108463], [-0.038877999999999004, 0.168802999999999, 6.293228]], "pbc": [true, true, true], "a": 9.345713497437528, "b": 5.33129959315822, "c": 6.29561153595717, "alpha": 100.43855739897057, "beta": 110.84984063498938, "gamma": 90.68529127101644, "volume": 287.28633012269245}, "properties": {}, "sites": [{"species": [{"element": "Fe", "occu": 1}], "abc": [0.197276999999999, 0.300811, 0.292442], "properties": {"magmom": 3.464}, "label": "Fe", "xyz": [1.5776671437029919, 1.6039957980149997, 0.8613923298350031]}, {"species": [{"element": "Fe", "occu": 1}], "abc": [0.697276999999999, 0.300811, 0.292442], "properties": {"magmom": 3.464}, "label": "Fe", "xyz": [5.954651643702992, 1.5838172980149996, -0.7748196701649974]}, {"species": [{"element": "Fe", "occu": 1}], "abc": [0.059087999999999, 0.203190999999999, 0.720254], "properties": {"magmom": 4.075}, "label": "Fe", "xyz": [0.3960906309059926, 1.1746919837639942, 4.114131945167004]}, {"species": [{"element": "Fe", "occu": 1}], "abc": [0.559088, 0.203190999999999, 0.720254], "properties": {"magmom": 4.075}, "label": "Fe", "xyz": [4.773075130906001, 1.1545134837639943, 2.4779199451670006]}, {"species": [{"element": "Fe", "occu": 1}], "abc": [0.302722999999999, 0.699189, 0.707558], "properties": {"magmom": 3.464}, "label": "Fe", "xyz": [2.301945356296993, 3.739226701984999, 2.687160670165003]}, {"species": [{"element": "Fe", "occu": 1}], "abc": [0.802723, 0.699189, 0.707558], "properties": {"magmom": 3.464}, "label": "Fe", "xyz": [6.6789298562970005, 3.719048201984999, 1.0509486701650004]}, {"species": [{"element": "Fe", "occu": 1}], "abc": [0.440911999999999, 0.796809, 0.279746], "properties": {"magmom": 4.075}, "label": "Fe", "xyz": [3.4835218690939924, 4.168530516236, -0.5655789451669966]}, {"species": [{"element": "Fe", "occu": 1}], "abc": [0.940912, 0.796809, 0.279746], "properties": {"magmom": 4.075}, "label": "Fe", "xyz": [7.860506369094, 4.148352016236, -2.2017909451669997]}, {"species": [{"element": "O", "occu": 1}], "abc": [0.359411, 0.376307, 0.584058], "properties": {"magmom": -0.042}, "label": "O", "xyz": [2.9510312436770003, 2.0388495824329995, 2.082342590819]}, {"species": [{"element": "O", "occu": 1}], "abc": [0.859410999999999, 0.376307, 0.584058], "properties": {"magmom": -0.042}, "label": "O", "xyz": [7.328015743676993, 2.0186710824329994, 0.4461305908190032]}, {"species": [{"element": "O", "occu": 1}], "abc": [0.070857, 0.127245, 0.409904], "properties": {"magmom": -0.041}, "label": "O", "xyz": [0.5460026646910004, 0.7273200714729996, 2.206698808309]}, {"species": [{"element": "O", "occu": 1}], "abc": [0.570857, 0.127245, 0.409904], "properties": {"magmom": -0.041}, "label": "O", "xyz": [4.922987164691, 0.7071415714729996, 0.570486808309]}, {"species": [{"element": "O", "occu": 1}], "abc": [0.140589, 0.623692999999999, 0.415942], "properties": {"magmom": -0.042}, "label": "O", "xyz": [0.9285812563230014, 3.304372917566995, 1.466210409181001]}, {"species": [{"element": "O", "occu": 1}], "abc": [0.640589, 0.623692999999999, 0.415942], "properties": {"magmom": -0.042}, "label": "O", "xyz": [5.305565756323, 3.284194417566995, -0.17000159081899868]}, {"species": [{"element": "O", "occu": 1}], "abc": [0.429143, 0.872755, 0.590096], "properties": {"magmom": -0.041}, "label": "O", "xyz": [3.333609835309001, 4.615902428527, 1.3418541916909996]}, {"species": [{"element": "O", "occu": 1}], "abc": [0.929142999999999, 0.872755, 0.590096], "properties": {"magmom": -0.041}, "label": "O", "xyz": [7.710594335308993, 4.595723928527, -0.2943578083089977]}, {"species": [{"element": "O", "occu": 1}], "abc": [0.458522, 0.736644, 0.982146], "properties": {"magmom": -0.33}, "label": "O", "xyz": [3.6379566474940015, 3.973854067995999, 3.863847691788]}, {"species": [{"element": "O", "occu": 1}], "abc": [0.958522, 0.736644, 0.982146], "properties": {"magmom": -0.33}, "label": "O", "xyz": [8.014941147494003, 3.9536755679959987, 2.227635691788]}, {"species": [{"element": "O", "occu": 1}], "abc": [0.041478, 0.263356, 0.017854], "properties": {"magmom": -0.33}, "label": "O", "xyz": [0.2416558525060003, 1.3693684320039998, -0.31529469178799996]}, {"species": [{"element": "O", "occu": 1}], "abc": [0.541478, 0.263356, 0.017854], "properties": {"magmom": -0.33}, "label": "O", "xyz": [4.618640352506, 1.349189932004, -1.951506691788]}, {"species": [{"element": "O", "occu": 1}], "abc": [0.182904999999999, 0.532578, 0.829749], "properties": {"magmom": -0.505}, "label": "O", "xyz": [1.3247019007909926, 2.8992112370059995, 4.032913920438003]}, {"species": [{"element": "O", "occu": 1}], "abc": [0.682905, 0.532578, 0.829749], "properties": {"magmom": -0.505}, "label": "O", "xyz": [5.701686400791, 2.8790327370059994, 2.396701920438]}, {"species": [{"element": "O", "occu": 1}], "abc": [0.25602199999999903, 0.99182, 0.178257], "properties": {"magmom": -0.449}, "label": "O", "xyz": [1.7795348565919924, 5.171864224877001, -0.815396366391997]}, {"species": [{"element": "O", "occu": 1}], "abc": [0.756022, 0.99182, 0.178257], "properties": {"magmom": -0.449}, "label": "O", "xyz": [6.156519356592001, 5.151685724877001, -2.4516083663920005]}, {"species": [{"element": "O", "occu": 1}], "abc": [0.317094999999999, 0.467422, 0.17025099999999901], "properties": {"magmom": -0.505}, "label": "O", "xyz": [2.5549105992089918, 2.4440112629939996, -0.48436092043800305]}, {"species": [{"element": "O", "occu": 1}], "abc": [0.817095, 0.467422, 0.17025099999999901], "properties": {"magmom": -0.505}, "label": "O", "xyz": [6.931895099209001, 2.4238327629939995, -2.1205729204380064]}, {"species": [{"element": "O", "occu": 1}], "abc": [0.243978, 0.008180000000000002, 0.821743], "properties": {"magmom": -0.449}, "label": "O", "xyz": [2.100077643408001, 0.1713582751229992, 4.363949366392]}, {"species": [{"element": "O", "occu": 1}], "abc": [0.743977999999999, 0.008180000000000002, 0.821743], "properties": {"magmom": -0.449}, "label": "O", "xyz": [6.477062143407991, 0.15117977512299924, 2.7277373663920033]}]}, "task_ids": null, "uncorrected_energy_per_atom": null, "energy_per_atom": -6.799044637142857, "formation_energy_per_atom": -0.8447807164285711, "energy_above_hull": 0.37457024999999905, "is_stable": false, "equilibrium_reaction_energy_per_atom": null, "decomposes_to": null, "xas": null, "grain_boundaries": null, "band_gap": 0.0, "cbm": null, "vbm": null, "efermi": 1.83786553, "is_gap_direct": null, "is_metal": null, "es_source_calc_id": null, "bandstructure": null, "dos": null, "dos_energy_up": null, "dos_energy_down": null, "is_magnetic": null, "ordering": null, "total_magnetization": 24.0017402, "total_magnetization_normalized_vol": null, "total_magnetization_normalized_formula_units": null, "num_magnetic_sites": null, "num_unique_magnetic_sites": null, "types_of_magnetic_species": null, "bulk_modulus": null, "shear_modulus": null, "universal_anisotropy": null, "homogeneous_poisson": null, "e_total": null, "e_ionic": null, "e_electronic": null, "n": null, "e_ij_max": null, "weighted_surface_energy_EV_PER_ANG2": null, "weighted_surface_energy": null, "weighted_work_function": null, "surface_anisotropy": null, "shape_factor": null, "has_reconstructed": null, "possible_species": null, "has_props": null, "theoretical": null, "database_IDs": null, "fields_not_requested": ["builder_meta", "nsites", "elements", "nelements", "composition", "composition_reduced", "chemsys", "symmetry", "property_name", "deprecated", "deprecation_reasons", "last_updated", "origins", "warnings", "task_ids", "uncorrected_energy_per_atom", "equilibrium_reaction_energy_per_atom", "decomposes_to", "xas", "grain_boundaries", "cbm", "vbm", "is_gap_direct", "is_metal", "es_source_calc_id", "bandstructure", "dos", "dos_energy_up", "dos_energy_down", "is_magnetic", "ordering", "total_magnetization_normalized_vol", "total_magnetization_normalized_formula_units", "num_magnetic_sites", "num_unique_magnetic_sites", "types_of_magnetic_species", "bulk_modulus", "shear_modulus", "universal_anisotropy", "homogeneous_poisson", "e_total", "e_ionic", "e_electronic", "n", "e_ij_max", "weighted_surface_energy_EV_PER_ANG2", "weighted_surface_energy", "weighted_work_function", "surface_anisotropy", "shape_factor", "has_reconstructed", "possible_species", "has_props", "theoretical", "database_IDs"]}