{"builder_meta": null, "nsites": null, "elements": null, "nelements": null, "composition": null, "composition_reduced": null, "formula_pretty": "Fe2O3", "formula_anonymous": "A2B3", "chemsys": null, "volume": 103.1107530196113, "density": 5.143372282900504, "density_atomic": 10.311075301961129, "symmetry": null, "property_name": null, "material_id": "mp-19770", "deprecated": null, "deprecation_reasons": null, "last_updated": null, "origins": null, "warnings": null, "structure": {"@module": "pymatgen.core.structure", "@class": "Structure", "charge": 0, "lattice": {"matrix": [[-1.638855089999999, -4.20342639, 2.36066547], [1.61751201, 4.18948008, 3.09136582], [-2.87378085, 4.20344328, 0.00052831]], "pbc": [true, true, true], "a": 5.0918936441581, "b": 5.452029995907517, "c": 5.091910452974928, "alpha": 62.16260543536899, "beta": 119.98513390956244, "gamma": 117.83716377417755, "volume": 103.1107530196113}, "properties": {}, "sites": [{"species": [{"element": "Fe", "occu": 1}], "abc": [0.35471223, 0.06434118, 0.64519388], "properties": {"magmom": 4.191}, "label": "Fe", "xyz": [-2.3313951291143766, 1.4905852226790712, 1.0365999001969086]}, {"species": [{"element": "Fe", "occu": 1}], "abc": [0.14519072, 0.43565251, 0.85471358], "properties": {"magmom": 4.191}, "label": "Fe", "xyz": [-1.9895329018200627, 4.807599062591643, 1.6899595518110964]}, {"species": [{"element": "Fe", "occu": 1}], "abc": [0.64528296, 0.93565173, 0.35480774], "properties": {"magmom": 4.191}, "label": "Fe", "xyz": [-0.5637370416777674, 2.698909071966212, 4.415926428074379]}, {"species": [{"element": "Fe", "occu": 1}], "abc": [0.85480256, 0.56433974, 0.14528604], "properties": {"magmom": 4.191}, "label": "Fe", "xyz": [-0.9055914587550862, -0.6181079113453677, 3.762560226231082]}, {"species": [{"element": "O", "occu": 1}], "abc": [0.55535593, 0.75000405, 0.055351990000000004], "properties": {"magmom": 0.435}, "label": "O", "xyz": [0.14392317691006581, 1.0403982057894583, 3.6295756955521448]}, {"species": [{"element": "O", "occu": 1}], "abc": [0.24997731, 0.74996658, 0.44458318], "properties": {"magmom": 0.435}, "label": "O", "xyz": [-0.474231265545485, 3.9599890061925462, 2.9087687332946075]}, {"species": [{"element": "O", "occu": 1}], "abc": [0.05541939, 0.24997195, 0.25001683], "properties": {"magmom": 0.435}, "label": "O", "xyz": [-0.40498529632978114, 1.8652327425904565, 0.9037134689216696]}, {"species": [{"element": "O", "occu": 1}], "abc": [0.7500203400000001, 0.25003518, 0.55541461], "properties": {"magmom": 0.435}, "label": "O", "xyz": [-2.4208796152682366, 0.22951592573476276, 2.5437907587778166]}, {"species": [{"element": "O", "occu": 1}], "abc": [0.44465124, 0.2500032, 0.9446496400000001], "properties": {"magmom": 0.435}, "label": "O", "xyz": [-3.0390518148017733, 3.149105850986452, 1.823023243682615]}, {"species": [{"element": "O", "occu": 1}], "abc": [0.94458732, 0.75003389, 0.7499815], "properties": {"magmom": 0.435}, "label": "O", "xyz": [-2.4901353849037138, 2.3242534692318566, 4.548880023837746]}]}, "task_ids": null, "uncorrected_energy_per_atom": null, "energy_per_atom": -8.06387644, "formation_energy_per_atom": -1.7070913529999991, "energy_above_hull": 0.0, "is_stable": true, "equilibrium_reaction_energy_per_atom": null, "decomposes_to": null, "xas": null, "grain_boundaries": null, "band_gap": 0.0, "cbm": null, "vbm": null, "efermi": 2.88380023, "is_gap_direct": null, "is_metal": null, "es_source_calc_id": null, "bandstructure": null, "dos": null, "dos_energy_up": null, "dos_energy_down": null, "is_magnetic": null, "ordering": null, "total_magnetization": 19.9980745, "total_magnetization_normalized_vol": null, "total_magnetization_normalized_formula_units": null, "num_magnetic_sites": null, "num_unique_magnetic_sites": null, "types_of_magnetic_species": null, "bulk_modulus": null, "shear_modulus": null, "universal_anisotropy": null, "homogeneous_poisson": null, "e_total": null, "e_ionic": null, "e_electronic": null, "n": null, "e_ij_max": null, "weighted_surface_energy_EV_PER_ANG2": null, "weighted_surface_energy": null, "weighted_work_function": null, "surface_anisotropy": null, "shape_factor": null, "has_reconstructed": null, "possible_species": null, "has_props": null, "theoretical": null, "database_IDs": null, "fields_not_requested": ["builder_meta", "nsites", "elements", "nelements", "composition", "composition_reduced", "chemsys", "symmetry", "property_name", "deprecated", "deprecation_reasons", "last_updated", "origins", "warnings", "task_ids", "uncorrected_energy_per_atom", "equilibrium_reaction_energy_per_atom", "decomposes_to", "xas", "grain_boundaries", "cbm", "vbm", "is_gap_direct", "is_metal", "es_source_calc_id", "bandstructure", "dos", "dos_energy_up", "dos_energy_down", "is_magnetic", "ordering", "total_magnetization_normalized_vol", "total_magnetization_normalized_formula_units", "num_magnetic_sites", "num_unique_magnetic_sites", "types_of_magnetic_species", "bulk_modulus", "shear_modulus", "universal_anisotropy", "homogeneous_poisson", "e_total", "e_ionic", "e_electronic", "n", "e_ij_max", "weighted_surface_energy_EV_PER_ANG2", "weighted_surface_energy", "weighted_work_function", "surface_anisotropy", "shape_factor", "has_reconstructed", "possible_species", "has_props", "theoretical", "database_IDs"]}