{"builder_meta": null, "nsites": null, "elements": null, "nelements": null, "composition": null, "composition_reduced": null, "formula_pretty": "Fe2P", "formula_anonymous": "AB2", "chemsys": null, "volume": 98.26088270730288, "density": 7.232748485319211, "density_atomic": 10.917875856366987, "symmetry": null, "property_name": null, "material_id": "mp-778", "deprecated": null, "deprecation_reasons": null, "last_updated": null, "origins": null, "warnings": null, "structure": {"@module": "pymatgen.core.structure", "@class": "Structure", "charge": 0, "lattice": {"matrix": [[5.78151718, 0.00012498, 0.0], [-2.89064931, 5.00684631, 0.0], [0.0, 0.0, 3.394448]], "pbc": [true, true, true], "a": 5.781517181350856, "b": 5.781380752498844, "c": 3.394448, "alpha": 90.0, "beta": 90.0, "gamma": 119.99829148559333, "volume": 98.26088270730288}, "properties": {}, "sites": [{"species": [{"element": "Fe", "occu": 1}], "abc": [0.58845627, 3.0810000000000005e-05, 0.5], "properties": {"magmom": 2.473}, "label": "Fe", "xyz": [3.402080973778477, 0.00022780619943570004, 1.697224]}, {"species": [{"element": "Fe", "occu": 1}], "abc": [0.41158567, 0.411634399999999, 0.5], "properties": {"magmom": 2.473}, "label": "Fe", "xyz": [1.1896989278145496, 2.061041616686096, 1.697224]}, {"species": [{"element": "Fe", "occu": 1}], "abc": [-1.7850000000000004e-05, 0.58835481, 0.5], "properties": {"magmom": 2.473}, "label": "Fe", "xyz": [-1.700830625643344, 2.9458021071883587, 1.697224]}, {"species": [{"element": "Fe", "occu": 1}], "abc": [-1.0920000000000002e-05, 0.25748461, -0.0], "properties": {"magmom": 0.812}, "label": "Fe", "xyz": [-0.7443608443997247, 1.2891858680955075, 0.0]}, {"species": [{"element": "Fe", "occu": 1}], "abc": [0.7425254800000001, 0.74252336, -0.0], "properties": {"magmom": 0.811}, "label": "Fe", "xyz": [2.1465491809648656, 3.7177931459392917, 0.0]}, {"species": [{"element": "Fe", "occu": 1}], "abc": [0.257463899999999, -1.3000000000000001e-05, -0.0], "properties": {"magmom": 0.81}, "label": "Fe", "xyz": [1.4885695395208263, -3.291116380800012e-05, 0.0]}, {"species": [{"element": "P", "occu": 1}], "abc": [0.66663787, 0.33331768, -0.0], "properties": {"magmom": -0.042}, "label": "P", "xyz": [2.8906737765408055, 1.6689537125667535, 0.0]}, {"species": [{"element": "P", "occu": 1}], "abc": [0.33334959000000003, 0.666678099999999, -0.0], "properties": {"magmom": -0.042}, "label": "P", "xyz": [0.0001337917738479799, 3.337996446974565, 0.0]}, {"species": [{"element": "P", "occu": 1}], "abc": [9e-06, 0.99999023, 0.5], "properties": {"magmom": -0.036000000000000004}, "label": "P", "xyz": [-2.8905690347016213, 5.006797394236371, 1.697224]}]}, "task_ids": null, "uncorrected_energy_per_atom": null, "energy_per_atom": -7.908926971111111, "formation_energy_per_atom": -0.45708832265872906, "energy_above_hull": 0.0, "is_stable": true, "equilibrium_reaction_energy_per_atom": null, "decomposes_to": null, "xas": null, "grain_boundaries": null, "band_gap": 0.0, "cbm": null, "vbm": null, "efermi": 8.24292508, "is_gap_direct": null, "is_metal": null, "es_source_calc_id": null, "bandstructure": null, "dos": null, "dos_energy_up": null, "dos_energy_down": null, "is_magnetic": null, "ordering": null, "total_magnetization": 9.3168944, "total_magnetization_normalized_vol": null, "total_magnetization_normalized_formula_units": null, "num_magnetic_sites": null, "num_unique_magnetic_sites": null, "types_of_magnetic_species": null, "bulk_modulus": null, "shear_modulus": null, "universal_anisotropy": null, "homogeneous_poisson": null, "e_total": null, "e_ionic": null, "e_electronic": null, "n": null, "e_ij_max": null, "weighted_surface_energy_EV_PER_ANG2": null, "weighted_surface_energy": null, "weighted_work_function": null, "surface_anisotropy": null, "shape_factor": null, "has_reconstructed": null, "possible_species": null, "has_props": null, "theoretical": null, "database_IDs": null, "fields_not_requested": ["builder_meta", "nsites", "elements", "nelements", "composition", "composition_reduced", "chemsys", "symmetry", "property_name", "deprecated", "deprecation_reasons", "last_updated", "origins", "warnings", "task_ids", "uncorrected_energy_per_atom", "equilibrium_reaction_energy_per_atom", "decomposes_to", "xas", "grain_boundaries", "cbm", "vbm", "is_gap_direct", "is_metal", "es_source_calc_id", "bandstructure", "dos", "dos_energy_up", "dos_energy_down", "is_magnetic", "ordering", "total_magnetization_normalized_vol", "total_magnetization_normalized_formula_units", "num_magnetic_sites", "num_unique_magnetic_sites", "types_of_magnetic_species", "bulk_modulus", "shear_modulus", "universal_anisotropy", "homogeneous_poisson", "e_total", "e_ionic", "e_electronic", "n", "e_ij_max", "weighted_surface_energy_EV_PER_ANG2", "weighted_surface_energy", "weighted_work_function", "surface_anisotropy", "shape_factor", "has_reconstructed", "possible_species", "has_props", "theoretical", "database_IDs"]}