{"builder_meta": null, "nsites": null, "elements": null, "nelements": null, "composition": null, "composition_reduced": null, "formula_pretty": "Fe2Re3", "formula_anonymous": "A2B3", "chemsys": null, "volume": 265.8733098110027, "density": 16.74598481604564, "density_atomic": 13.293665490550135, "symmetry": null, "property_name": null, "material_id": "mp-639789", "deprecated": null, "deprecation_reasons": null, "last_updated": null, "origins": null, "warnings": null, "structure": {"@module": "pymatgen.core.structure", "@class": "Structure", "charge": 0, "lattice": {"matrix": [[6.43019807, 2.5200000000000003e-05, -1.798e-05], [2.5240000000000002e-05, 6.43020859, 3.2340000000000005e-05], [-1.8010000000000002e-05, 3.247e-05, 6.43021257]], "pbc": [true, true, true], "a": 6.430198070074518, "b": 6.430208590130862, "c": 6.430212570107202, "alpha": 89.99942251729219, "beta": 90.00032068459858, "gamma": 89.99955055947888, "volume": 265.8733098110027}, "properties": {}, "sites": [{"species": [{"element": "Fe", "occu": 1}], "abc": [0.18937295, 0.8106500000000001, 0.3106066], "properties": {"magmom": 2.238}, "label": "Fe", "xyz": [1.2177204443813405, 5.212663451078143, 1.9972892751403213]}, {"species": [{"element": "Fe", "occu": 1}], "abc": [0.31064002, 0.18935473, 0.8106321], "properties": {"magmom": 2.237}, "label": "Fe", "xyz": [1.9974670368980258, 1.217624560755922, 5.212537257489905]}, {"species": [{"element": "Fe", "occu": 1}], "abc": [0.81062975, 0.3106099, 0.18933059], "properties": {"magmom": 2.237}, "label": "Fe", "xyz": [5.212514283884533, 1.9973130225529983, 1.2174314097047774]}, {"species": [{"element": "Fe", "occu": 1}], "abc": [0.689356299999999, 0.68936637, 0.68936525], "properties": {"magmom": 2.238}, "label": "Fe", "xyz": [4.432702533941362, 4.432809309499546, 4.432774995353324]}, {"species": [{"element": "Fe", "occu": 1}], "abc": [0.56064966, 0.43935236, 0.93935418], "properties": {"magmom": 2.238}, "label": "Fe", "xyz": [3.6050825331629412, 2.825171948510429, 6.040251184092478]}, {"species": [{"element": "Fe", "occu": 1}], "abc": [0.43938848, 0.93936684, 0.56062778], "properties": {"magmom": 2.237}, "label": "Fe", "xyz": [2.825368568788958, 6.040353999902868, 3.60497827696593]}, {"species": [{"element": "Fe", "occu": 1}], "abc": [0.93935376, 0.5606174700000001, 0.43934983], "properties": {"magmom": 2.238}, "label": "Fe", "xyz": [6.040236971893749, 3.6049252087017996, 2.825114040281738]}, {"species": [{"element": "Fe", "occu": 1}], "abc": [0.060625160000000004, 0.06064571, 0.06060828], "properties": {"magmom": 2.237}, "label": "Fe", "xyz": [0.38983222596803885, 0.38996806109353255, 0.3897249951439642]}, {"species": [{"element": "Re", "occu": 1}], "abc": [0.80107613, 0.94896064, 0.37503688], "properties": {"magmom": -0.162}, "label": "Re", "xyz": [5.151095382401414, 6.102047223465869, 2.411583146027862]}, {"species": [{"element": "Re", "occu": 1}], "abc": [0.69894578, 0.05103567, 0.87503755], "properties": {"magmom": -0.162}, "label": "Re", "xyz": [4.49434533430468, 0.32821602953330986, 5.626666536680447]}, {"species": [{"element": "Re", "occu": 1}], "abc": [0.19893456, 0.44893473, 0.12498115], "properties": {"magmom": -0.162}, "label": "Re", "xyz": [1.2791977039703728, 2.8867530284841836, 0.8036663034488349]}, {"species": [{"element": "Re", "occu": 1}], "abc": [0.301045499999999, 0.55107293, 0.6250209800000001], "properties": {"magmom": -0.162}, "label": "Re", "xyz": [1.9357848455350821, 3.543541768980289, 4.0190301710101854]}, {"species": [{"element": "Re", "occu": 1}], "abc": [0.9489816400000001, 0.37504046, 0.80106806], "properties": {"magmom": -0.162}, "label": "Re", "xyz": [6.102134948778885, 2.411638312506788, 5.151032974956103]}, {"species": [{"element": "Re", "occu": 1}], "abc": [0.05107809, 0.87500031, 0.6989391500000001], "properties": {"magmom": -0.162}, "label": "Re", "xyz": [0.32845173285101925, 5.626458491336732, 4.494354687121083]}, {"species": [{"element": "Re", "occu": 1}], "abc": [0.44891778, 0.12503415, 0.1989618], "properties": {"magmom": -0.162}, "label": "Re", "xyz": [2.8866298151046124, 0.8040134383910507, 1.2793626393725526]}, {"species": [{"element": "Re", "occu": 1}], "abc": [0.5510270700000001, 0.62495891, 0.30106909], "properties": {"magmom": -0.162}, "label": "Re", "xyz": [3.543223553740333, 4.018639813074554, 1.935948550660892]}, {"species": [{"element": "Re", "occu": 1}], "abc": [0.37504921, 0.8010963, 0.94895927], "properties": {"magmom": -0.162}, "label": "Re", "xyz": [2.4116438352111844, 5.1512565736248055, 6.10202899044157]}, {"species": [{"element": "Re", "occu": 1}], "abc": [0.87496777, 0.69898363, 0.05107011], "properties": {"magmom": -0.162}, "label": "Re", "xyz": [5.626232788540344, 4.494634249329657, 0.3283985364833723]}, {"species": [{"element": "Re", "occu": 1}], "abc": [0.12496034, 0.19889756, 0.44893962], "properties": {"magmom": -0.163}, "label": "Re", "xyz": [0.8035166718664021, 1.27897052491207, 2.8867813732552006]}, {"species": [{"element": "Re", "occu": 1}], "abc": [0.62500106, 0.30102332, 0.55104073], "properties": {"magmom": -0.162}, "label": "Re", "xyz": [4.018878283345004, 1.935676380373534, 3.5433075262030864]}]}, "task_ids": null, "uncorrected_energy_per_atom": null, "energy_per_atom": -10.865998360499997, "formation_energy_per_atom": -0.009121351999999, "energy_above_hull": 0.0, "is_stable": true, "equilibrium_reaction_energy_per_atom": null, "decomposes_to": null, "xas": null, "grain_boundaries": null, "band_gap": 0.0, "cbm": null, "vbm": null, "efermi": 7.19024036, "is_gap_direct": null, "is_metal": null, "es_source_calc_id": null, "bandstructure": null, "dos": null, "dos_energy_up": null, "dos_energy_down": null, "is_magnetic": null, "ordering": null, "total_magnetization": 15.3679251, "total_magnetization_normalized_vol": null, "total_magnetization_normalized_formula_units": null, "num_magnetic_sites": null, "num_unique_magnetic_sites": null, "types_of_magnetic_species": null, "bulk_modulus": null, "shear_modulus": null, "universal_anisotropy": null, "homogeneous_poisson": null, "e_total": null, "e_ionic": null, "e_electronic": null, "n": null, "e_ij_max": null, "weighted_surface_energy_EV_PER_ANG2": null, "weighted_surface_energy": null, "weighted_work_function": null, "surface_anisotropy": null, "shape_factor": null, "has_reconstructed": null, "possible_species": null, "has_props": null, "theoretical": null, "database_IDs": null, "fields_not_requested": ["builder_meta", "nsites", "elements", "nelements", "composition", "composition_reduced", "chemsys", "symmetry", "property_name", "deprecated", "deprecation_reasons", "last_updated", "origins", "warnings", "task_ids", "uncorrected_energy_per_atom", "equilibrium_reaction_energy_per_atom", "decomposes_to", "xas", "grain_boundaries", "cbm", "vbm", "is_gap_direct", "is_metal", "es_source_calc_id", "bandstructure", "dos", "dos_energy_up", "dos_energy_down", "is_magnetic", "ordering", "total_magnetization_normalized_vol", "total_magnetization_normalized_formula_units", "num_magnetic_sites", "num_unique_magnetic_sites", "types_of_magnetic_species", "bulk_modulus", "shear_modulus", "universal_anisotropy", "homogeneous_poisson", "e_total", "e_ionic", "e_electronic", "n", "e_ij_max", "weighted_surface_energy_EV_PER_ANG2", "weighted_surface_energy", "weighted_work_function", "surface_anisotropy", "shape_factor", "has_reconstructed", "possible_species", "has_props", "theoretical", "database_IDs"]}