{
  "builder_meta": null,
  "nsites": null,
  "elements": null,
  "nelements": null,
  "composition": null,
  "composition_reduced": null,
  "formula_pretty": "Fe2S",
  "formula_anonymous": "AB2",
  "chemsys": null,
  "volume": 261.1715005426415,
  "density": 6.39800112631646,
  "density_atomic": 12.436738121078168,
  "symmetry": null,
  "property_name": null,
  "material_id": "mp-684641",
  "deprecated": null,
  "deprecation_reasons": null,
  "last_updated": null,
  "origins": null,
  "warnings": null,
  "structure": {
    "@module": "pymatgen.core.structure",
    "@class": "Structure",
    "charge": 0,
    "lattice": {
      "matrix": [
        [1.529488999999999, 4.373381, 0.0],
        [-1.529488999999999, 4.373381, 0.0],
        [0.0, 0.084002, 19.522351]
      ],
      "pbc": [true, true, true],
      "a": 4.633119680332249,
      "b": 4.633119680332249,
      "c": 19.522531723708507,
      "alpha": 89.76728675046118,
      "beta": 89.76728675046118,
      "gamma": 38.552210847349954,
      "volume": 261.1715005426413
    },
    "properties": {},
    "sites": [
      {
        "species": [{ "element": "Fe", "occu": 1 }],
        "abc": [0.467072, 0.467072, 0.847498],
        "properties": { "magmom": 2.552 },
        "label": "Fe",
        "xyz": [0.0, 4.15655914786, 16.545153427798]
      },
      {
        "species": [{ "element": "Fe", "occu": 1 }],
        "abc": [0.309517999999999, 0.309517999999999, 0.967287999999999],
        "properties": { "magmom": 2.345 },
        "label": "Fe",
        "xyz": [0.0, 2.7885344072919915, 18.88373585408798]
      },
      {
        "species": [{ "element": "Fe", "occu": 1 }],
        "abc": [0.025342, 0.025342, 0.636023999999999],
        "properties": { "magmom": 2.263 },
        "label": "Fe",
        "xyz": [0.0, 0.27508773065199993, 12.416683772423982]
      },
      {
        "species": [{ "element": "Fe", "occu": 1 }],
        "abc": [0.890524, 0.890524, 0.750170999999999],
        "properties": { "magmom": 2.017 },
        "label": "Fe",
        "xyz": [0.0, 7.85221734763, 14.645101572020982]
      },
      {
        "species": [{ "element": "Fe", "occu": 1 }],
        "abc": [0.290391, 0.290391, 0.567898999999999],
        "properties": { "magmom": 0.8160000000000001 },
        "label": "Fe",
        "xyz": [0.0, 2.5876856157400003, 11.086723610548981]
      },
      {
        "species": [{ "element": "Fe", "occu": 1 }],
        "abc": [0.605403999999999, 0.605403999999999, 0.733483],
        "properties": { "magmom": 1.7610000000000001 },
        "label": "Fe",
        "xyz": [0.0, 5.356938740813992, 14.319312578533001]
      },
      {
        "species": [{ "element": "Fe", "occu": 1 }],
        "abc": [0.727221, 0.727221, 0.464661],
        "properties": { "magmom": 2.159 },
        "label": "Fe",
        "xyz": [0.0, 6.399861461724001, 9.071275138011]
      },
      {
        "species": [{ "element": "Fe", "occu": 1 }],
        "abc": [0.43910000000000005, 0.43910000000000005, 0.456053999999999],
        "properties": { "magmom": 1.649 },
        "label": "Fe",
        "xyz": [0.0, 3.8790126423080005, 8.903246262953981]
      },
      {
        "species": [{ "element": "Fe", "occu": 1 }],
        "abc": [0.161417, 0.161417, 0.285725],
        "properties": { "magmom": 1.834 },
        "label": "Fe",
        "xyz": [0.0, 1.4358775532040002, 5.578023739475]
      },
      {
        "species": [{ "element": "Fe", "occu": 1 }],
        "abc": [0.864032999999999, 0.864032999999999, 0.351041],
        "properties": { "magmom": 2.291 },
        "label": "Fe",
        "xyz": [0.0, 7.586979157227992, 6.853145617391]
      },
      {
        "species": [{ "element": "Fe", "occu": 1 }],
        "abc": [0.602663, 0.602663, 0.184033],
        "properties": { "magmom": 2.374 },
        "label": "Fe",
        "xyz": [0.0, 5.286808967271999, 3.592756821583]
      },
      {
        "species": [{ "element": "Fe", "occu": 1 }],
        "abc": [0.317839, 0.317839, 0.17068000000000003],
        "properties": { "magmom": 1.32 },
        "label": "Fe",
        "xyz": [0.0, 2.794399548678, 3.332074868680001]
      },
      {
        "species": [{ "element": "Fe", "occu": 1 }],
        "abc": [0.020600999999999002, 0.020600999999999002, 0.004097],
        "properties": { "magmom": 1.22 },
        "label": "Fe",
        "xyz": [0.0, 0.18053620015599128, 0.079983072047]
      },
      {
        "species": [{ "element": "Fe", "occu": 1 }],
        "abc": [0.732394, 0.732394, 0.065403],
        "properties": { "magmom": 2.572 },
        "label": "Fe",
        "xyz": [0.0, 6.411569991034, 1.2768203224530001]
      },
      {
        "species": [{ "element": "S", "occu": 1 }],
        "abc": [0.62553, 0.62553, 0.936585999999999],
        "properties": { "magmom": 0.016 },
        "label": "S",
        "xyz": [0.0, 5.550037131032, 18.28436063368598]
      },
      {
        "species": [{ "element": "S", "occu": 1 }],
        "abc": [0.228819, 0.228819, 0.800966],
        "properties": { "magmom": 0.002 },
        "label": "S",
        "xyz": [0.0, 2.06870808001, 15.636739391066]
      },
      {
        "species": [{ "element": "S", "occu": 1 }],
        "abc": [0.7678100000000001, 0.7678100000000001, 0.644987],
        "properties": { "magmom": -0.024 },
        "label": "S",
        "xyz": [0.0, 6.770031529194002, 12.591662604437]
      },
      {
        "species": [{ "element": "S", "occu": 1 }],
        "abc": [0.060841, 0.060841, 0.520447],
        "properties": { "magmom": -0.034 },
        "label": "S",
        "xyz": [0.0, 0.5758803357360001, 10.160349010897]
      },
      {
        "species": [{ "element": "S", "occu": 1 }],
        "abc": [0.59499, 0.59499, 0.364075],
        "properties": { "magmom": -0.007 },
        "label": "S",
        "xyz": [0.0, 5.23481895053, 7.107599940325]
      },
      {
        "species": [{ "element": "S", "occu": 1 }],
        "abc": [0.915995, 0.915995, 0.238214999999999],
        "properties": { "magmom": -0.017 },
        "label": "S",
        "xyz": [0.0, 8.03200079462, 4.650516843464981]
      },
      {
        "species": [{ "element": "S", "occu": 1 }],
        "abc": [0.467688, 0.467688, 0.082174],
        "properties": { "magmom": 0.009000000000000001 },
        "label": "S",
        "xyz": [0.0, 4.097658406604, 1.604229671074]
      }
    ]
  },
  "task_ids": null,
  "uncorrected_energy_per_atom": null,
  "energy_per_atom": -7.232182365238094,
  "formation_energy_per_atom": -0.20604836940476,
  "energy_above_hull": 0.298591699761906,
  "is_stable": false,
  "equilibrium_reaction_energy_per_atom": null,
  "decomposes_to": null,
  "xas": null,
  "grain_boundaries": null,
  "band_gap": 0.0,
  "cbm": null,
  "vbm": null,
  "efermi": 7.2491677900000004,
  "is_gap_direct": null,
  "is_metal": null,
  "es_source_calc_id": null,
  "bandstructure": null,
  "dos": null,
  "dos_energy_up": null,
  "dos_energy_down": null,
  "is_magnetic": null,
  "ordering": null,
  "total_magnetization": 27.0404812,
  "total_magnetization_normalized_vol": null,
  "total_magnetization_normalized_formula_units": null,
  "num_magnetic_sites": null,
  "num_unique_magnetic_sites": null,
  "types_of_magnetic_species": null,
  "bulk_modulus": null,
  "shear_modulus": null,
  "universal_anisotropy": null,
  "homogeneous_poisson": null,
  "e_total": null,
  "e_ionic": null,
  "e_electronic": null,
  "n": null,
  "e_ij_max": null,
  "weighted_surface_energy_EV_PER_ANG2": null,
  "weighted_surface_energy": null,
  "weighted_work_function": null,
  "surface_anisotropy": null,
  "shape_factor": null,
  "has_reconstructed": null,
  "possible_species": null,
  "has_props": null,
  "theoretical": null,
  "database_IDs": null,
  "fields_not_requested": [
    "builder_meta",
    "nsites",
    "elements",
    "nelements",
    "composition",
    "composition_reduced",
    "chemsys",
    "symmetry",
    "property_name",
    "deprecated",
    "deprecation_reasons",
    "last_updated",
    "origins",
    "warnings",
    "task_ids",
    "uncorrected_energy_per_atom",
    "equilibrium_reaction_energy_per_atom",
    "decomposes_to",
    "xas",
    "grain_boundaries",
    "cbm",
    "vbm",
    "is_gap_direct",
    "is_metal",
    "es_source_calc_id",
    "bandstructure",
    "dos",
    "dos_energy_up",
    "dos_energy_down",
    "is_magnetic",
    "ordering",
    "total_magnetization_normalized_vol",
    "total_magnetization_normalized_formula_units",
    "num_magnetic_sites",
    "num_unique_magnetic_sites",
    "types_of_magnetic_species",
    "bulk_modulus",
    "shear_modulus",
    "universal_anisotropy",
    "homogeneous_poisson",
    "e_total",
    "e_ionic",
    "e_electronic",
    "n",
    "e_ij_max",
    "weighted_surface_energy_EV_PER_ANG2",
    "weighted_surface_energy",
    "weighted_work_function",
    "surface_anisotropy",
    "shape_factor",
    "has_reconstructed",
    "possible_species",
    "has_props",
    "theoretical",
    "database_IDs"
  ]
}
