{
  "builder_meta": null,
  "nsites": null,
  "elements": null,
  "nelements": null,
  "composition": null,
  "composition_reduced": null,
  "formula_pretty": "Fe2S3",
  "formula_anonymous": "A2B3",
  "chemsys": null,
  "volume": 140.78204604385044,
  "density": 4.9040509576429745,
  "density_atomic": 14.078204604385045,
  "symmetry": null,
  "property_name": null,
  "material_id": "mp-952567",
  "deprecated": null,
  "deprecation_reasons": null,
  "last_updated": null,
  "origins": null,
  "warnings": null,
  "structure": {
    "@module": "pymatgen.core.structure",
    "@class": "Structure",
    "charge": 0,
    "lattice": {
      "matrix": [
        [5.211976, -2.8676500000000003, 0.0],
        [5.211976, 2.8676500000000003, 0.0],
        [3.634183, 0.0, 4.709651]
      ],
      "pbc": [true, true, true],
      "a": 5.948790662569662,
      "b": 5.948790662569662,
      "c": 5.948789676840996,
      "alpha": 57.6395319679662,
      "beta": 57.6395319679662,
      "gamma": 57.639532757945446,
      "volume": 140.7820460438505
    },
    "properties": {},
    "sites": [
      {
        "species": [{ "element": "Fe", "occu": 1 }],
        "abc": [0.845826, 0.845826, 0.845826],
        "properties": { "magmom": 0.852 },
        "label": "Fe",
        "xyz": [11.890736094509998, 0.0, 3.983545266726]
      },
      {
        "species": [{ "element": "Fe", "occu": 1 }],
        "abc": [0.654173999999999, 0.654173999999999, 0.654173999999999],
        "properties": { "magmom": 0.852 },
        "label": "Fe",
        "xyz": [9.196466405489987, 0.0, 3.0809312332739953]
      },
      {
        "species": [{ "element": "Fe", "occu": 1 }],
        "abc": [0.154174, 0.154174, 0.154174],
        "properties": { "magmom": 0.852 },
        "label": "Fe",
        "xyz": [2.1673989054900002, 0.0, 0.7261057332740001]
      },
      {
        "species": [{ "element": "Fe", "occu": 1 }],
        "abc": [0.345825999999999, 0.345825999999999, 0.345825999999999],
        "properties": { "magmom": 0.852 },
        "label": "Fe",
        "xyz": [4.861668594509986, 0.0, 1.6287197667259954]
      },
      {
        "species": [{ "element": "S", "occu": 1 }],
        "abc": [0.75, 0.067411, 0.432589],
        "properties": { "magmom": 0.044 },
        "label": "S",
        "xyz": [5.832434103922999, -1.9574263458499999, 2.037343216439]
      },
      {
        "species": [{ "element": "S", "occu": 1 }],
        "abc": [0.432589, 0.75, 0.067411],
        "properties": { "magmom": 0.044 },
        "label": "S",
        "xyz": [6.408609396076999, 0.91022365415, 0.317482283561]
      },
      {
        "species": [{ "element": "S", "occu": 1 }],
        "abc": [0.067411, 0.432589, 0.75],
        "properties": { "magmom": 0.044 },
        "label": "S",
        "xyz": [5.33162525, 1.0472026917, 3.53223825]
      },
      {
        "species": [{ "element": "S", "occu": 1 }],
        "abc": [0.25, 0.932589, 0.567411],
        "properties": { "magmom": 0.044 },
        "label": "S",
        "xyz": [8.225700896077, 1.9574263458500003, 2.672307783561]
      },
      {
        "species": [{ "element": "S", "occu": 1 }],
        "abc": [0.932589, 0.567411, 0.25],
        "properties": { "magmom": 0.044 },
        "label": "S",
        "xyz": [8.72650975, -1.0472026917000001, 1.17741275]
      },
      {
        "species": [{ "element": "S", "occu": 1 }],
        "abc": [0.567411, 0.25, 0.932589],
        "properties": { "magmom": 0.044 },
        "label": "S",
        "xyz": [7.649525603923001, -0.9102236541500002, 4.392168716439]
      }
    ]
  },
  "task_ids": null,
  "uncorrected_energy_per_atom": null,
  "energy_per_atom": -6.561988341,
  "formation_energy_per_atom": -0.690964116499998,
  "energy_above_hull": 0.11992136500000002,
  "is_stable": false,
  "equilibrium_reaction_energy_per_atom": null,
  "decomposes_to": null,
  "xas": null,
  "grain_boundaries": null,
  "band_gap": 0.0,
  "cbm": null,
  "vbm": null,
  "efermi": 6.7695485600000005,
  "is_gap_direct": null,
  "is_metal": null,
  "es_source_calc_id": null,
  "bandstructure": null,
  "dos": null,
  "dos_energy_up": null,
  "dos_energy_down": null,
  "is_magnetic": null,
  "ordering": null,
  "total_magnetization": 3.7910432,
  "total_magnetization_normalized_vol": null,
  "total_magnetization_normalized_formula_units": null,
  "num_magnetic_sites": null,
  "num_unique_magnetic_sites": null,
  "types_of_magnetic_species": null,
  "bulk_modulus": null,
  "shear_modulus": null,
  "universal_anisotropy": null,
  "homogeneous_poisson": null,
  "e_total": null,
  "e_ionic": null,
  "e_electronic": null,
  "n": null,
  "e_ij_max": null,
  "weighted_surface_energy_EV_PER_ANG2": null,
  "weighted_surface_energy": null,
  "weighted_work_function": null,
  "surface_anisotropy": null,
  "shape_factor": null,
  "has_reconstructed": null,
  "possible_species": null,
  "has_props": null,
  "theoretical": null,
  "database_IDs": null,
  "fields_not_requested": [
    "builder_meta",
    "nsites",
    "elements",
    "nelements",
    "composition",
    "composition_reduced",
    "chemsys",
    "symmetry",
    "property_name",
    "deprecated",
    "deprecation_reasons",
    "last_updated",
    "origins",
    "warnings",
    "task_ids",
    "uncorrected_energy_per_atom",
    "equilibrium_reaction_energy_per_atom",
    "decomposes_to",
    "xas",
    "grain_boundaries",
    "cbm",
    "vbm",
    "is_gap_direct",
    "is_metal",
    "es_source_calc_id",
    "bandstructure",
    "dos",
    "dos_energy_up",
    "dos_energy_down",
    "is_magnetic",
    "ordering",
    "total_magnetization_normalized_vol",
    "total_magnetization_normalized_formula_units",
    "num_magnetic_sites",
    "num_unique_magnetic_sites",
    "types_of_magnetic_species",
    "bulk_modulus",
    "shear_modulus",
    "universal_anisotropy",
    "homogeneous_poisson",
    "e_total",
    "e_ionic",
    "e_electronic",
    "n",
    "e_ij_max",
    "weighted_surface_energy_EV_PER_ANG2",
    "weighted_surface_energy",
    "weighted_work_function",
    "surface_anisotropy",
    "shape_factor",
    "has_reconstructed",
    "possible_species",
    "has_props",
    "theoretical",
    "database_IDs"
  ]
}
