{"builder_meta": null, "nsites": null, "elements": null, "nelements": null, "composition": null, "composition_reduced": null, "formula_pretty": "Fe2Si5", "formula_anonymous": "A2B5", "chemsys": null, "volume": 186.60109853702585, "density": 4.487122116705606, "density_atomic": 13.328649895501846, "symmetry": null, "property_name": null, "material_id": "mp-1225170", "deprecated": null, "deprecation_reasons": null, "last_updated": null, "origins": null, "warnings": null, "structure": {"@module": "pymatgen.core.structure", "@class": "Structure", "charge": 0, "lattice": {"matrix": [[2.684953, 0.0, 0.0], [0.0, 2.684953, 0.0], [0.0, 0.0, 25.884562]], "pbc": [true, true, true], "a": 2.684953, "b": 2.684953, "c": 25.884562, "alpha": 90.0, "beta": 90.0, "gamma": 90.0, "volume": 186.60109853702585}, "properties": {}, "sites": [{"species": [{"element": "Fe", "occu": 1}], "abc": [0.0, 0.0, 0.201822], "properties": {"magmom": -0.004}, "label": "Fe", "xyz": [0.0, 0.0, 5.224074071964]}, {"species": [{"element": "Fe", "occu": 1}], "abc": [0.0, 0.0, 0.400178], "properties": {"magmom": 0.047}, "label": "Fe", "xyz": [0.0, 0.0, 10.358432252036]}, {"species": [{"element": "Fe", "occu": 1}], "abc": [0.0, 0.0, 0.599822], "properties": {"magmom": 0.047}, "label": "Fe", "xyz": [0.0, 0.0, 15.526129747964]}, {"species": [{"element": "Fe", "occu": 1}], "abc": [0.0, 0.0, 0.798177999999999], "properties": {"magmom": -0.004}, "label": "Fe", "xyz": [0.0, 0.0, 20.660487928035973]}, {"species": [{"element": "Si", "occu": 1}], "abc": [0.5, 0.5, 0.145627999999999], "properties": {"magmom": 0.0}, "label": "Si", "xyz": [1.3424765, 1.3424765, 3.7695169949359744]}, {"species": [{"element": "Si", "occu": 1}], "abc": [0.5, 0.5, 0.34537], "properties": {"magmom": -0.001}, "label": "Si", "xyz": [1.3424765, 1.3424765, 8.93975117794]}, {"species": [{"element": "Si", "occu": 1}], "abc": [0.5, 0.5, 0.545339], "properties": {"magmom": -0.001}, "label": "Si", "xyz": [1.3424765, 1.3424765, 14.115861156518]}, {"species": [{"element": "Si", "occu": 1}], "abc": [0.5, 0.5, 0.744819], "properties": {"magmom": -0.0}, "label": "Si", "xyz": [1.3424765, 1.3424765, 19.279313584278]}, {"species": [{"element": "Si", "occu": 1}], "abc": [0.5, 0.5, 0.946350999999999], "properties": {"magmom": 0.0}, "label": "Si", "xyz": [1.3424765, 1.3424765, 24.495881133261975]}, {"species": [{"element": "Si", "occu": 1}], "abc": [0.5, 0.5, 0.053648999999999], "properties": {"magmom": 0.0}, "label": "Si", "xyz": [1.3424765, 1.3424765, 1.3886808667379742]}, {"species": [{"element": "Si", "occu": 1}], "abc": [0.5, 0.5, 0.255181], "properties": {"magmom": -0.0}, "label": "Si", "xyz": [1.3424765, 1.3424765, 6.6052484157219995]}, {"species": [{"element": "Si", "occu": 1}], "abc": [0.5, 0.5, 0.454661], "properties": {"magmom": -0.001}, "label": "Si", "xyz": [1.3424765, 1.3424765, 11.768700843482]}, {"species": [{"element": "Si", "occu": 1}], "abc": [0.5, 0.5, 0.65463], "properties": {"magmom": -0.001}, "label": "Si", "xyz": [1.3424765, 1.3424765, 16.94481082206]}, {"species": [{"element": "Si", "occu": 1}], "abc": [0.5, 0.5, 0.854371999999999], "properties": {"magmom": 0.0}, "label": "Si", "xyz": [1.3424765, 1.3424765, 22.115045005063973]}]}, "task_ids": null, "uncorrected_energy_per_atom": null, "energy_per_atom": -6.554378903571428, "formation_energy_per_atom": -0.259145679285714, "energy_above_hull": 0.07997011500000001, "is_stable": false, "equilibrium_reaction_energy_per_atom": null, "decomposes_to": null, "xas": null, "grain_boundaries": null, "band_gap": 0.0, "cbm": null, "vbm": null, "efermi": 9.03542134, "is_gap_direct": null, "is_metal": null, "es_source_calc_id": null, "bandstructure": null, "dos": null, "dos_energy_up": null, "dos_energy_down": null, "is_magnetic": null, "ordering": null, "total_magnetization": 0.0775212, "total_magnetization_normalized_vol": null, "total_magnetization_normalized_formula_units": null, "num_magnetic_sites": null, "num_unique_magnetic_sites": null, "types_of_magnetic_species": null, "bulk_modulus": null, "shear_modulus": null, "universal_anisotropy": null, "homogeneous_poisson": null, "e_total": null, "e_ionic": null, "e_electronic": null, "n": null, "e_ij_max": null, "weighted_surface_energy_EV_PER_ANG2": null, "weighted_surface_energy": null, "weighted_work_function": null, "surface_anisotropy": null, "shape_factor": null, "has_reconstructed": null, "possible_species": null, "has_props": null, "theoretical": null, "database_IDs": null, "fields_not_requested": ["builder_meta", "nsites", "elements", "nelements", "composition", "composition_reduced", "chemsys", "symmetry", "property_name", "deprecated", "deprecation_reasons", "last_updated", "origins", "warnings", "task_ids", "uncorrected_energy_per_atom", "equilibrium_reaction_energy_per_atom", "decomposes_to", "xas", "grain_boundaries", "cbm", "vbm", "is_gap_direct", "is_metal", "es_source_calc_id", "bandstructure", "dos", "dos_energy_up", "dos_energy_down", "is_magnetic", "ordering", "total_magnetization_normalized_vol", "total_magnetization_normalized_formula_units", "num_magnetic_sites", "num_unique_magnetic_sites", "types_of_magnetic_species", "bulk_modulus", "shear_modulus", "universal_anisotropy", "homogeneous_poisson", "e_total", "e_ionic", "e_electronic", "n", "e_ij_max", "weighted_surface_energy_EV_PER_ANG2", "weighted_surface_energy", "weighted_work_function", "surface_anisotropy", "shape_factor", "has_reconstructed", "possible_species", "has_props", "theoretical", "database_IDs"]}