{"builder_meta": null, "nsites": null, "elements": null, "nelements": null, "composition": null, "composition_reduced": null, "formula_pretty": "Fe2Te3", "formula_anonymous": "A2B3", "chemsys": null, "volume": 179.79575896773233, "density": 9.133919150900539, "density_atomic": 17.979575896773234, "symmetry": null, "property_name": null, "material_id": "mp-685077", "deprecated": null, "deprecation_reasons": null, "last_updated": null, "origins": null, "warnings": null, "structure": {"@module": "pymatgen.core.structure", "@class": "Structure", "charge": 0, "lattice": {"matrix": [[5.339264, -3.220236, 0.0], [5.339264, 3.220236, 0.0], [3.397064, 0.0, 5.228539]], "pbc": [true, true, true], "a": 6.235195262170383, "b": 6.235195262170383, "c": 6.235195577896254, "alpha": 62.19033756476791, "beta": 62.19033756476791, "gamma": 62.19033829200454, "volume": 179.79575896773233}, "properties": {}, "sites": [{"species": [{"element": "Fe", "occu": 1}], "abc": [0.841839, 0.841839, 0.841839], "properties": {"magmom": -0.0}, "label": "Fe", "xyz": [11.849382293688, 0.0, 4.4015880432209995]}, {"species": [{"element": "Fe", "occu": 1}], "abc": [0.158161, 0.158161, 0.158161], "properties": {"magmom": -0.0}, "label": "Fe", "xyz": [2.226209706312, 0.0, 0.8269509567789999]}, {"species": [{"element": "Fe", "occu": 1}], "abc": [0.658161, 0.658161, 0.658161], "properties": {"magmom": -0.0}, "label": "Fe", "xyz": [9.264005706312, 0.0, 3.441220456779]}, {"species": [{"element": "Fe", "occu": 1}], "abc": [0.341839, 0.341839, 0.341839], "properties": {"magmom": -0.0}, "label": "Fe", "xyz": [4.811586293688, 0.0, 1.787318543221]}, {"species": [{"element": "Te", "occu": 1}], "abc": [0.75, 0.082318, 0.417682], "properties": {"magmom": 0.0}, "label": "Te", "xyz": [5.8628580196, -2.150093612952, 2.183866626598]}, {"species": [{"element": "Te", "occu": 1}], "abc": [0.582318, 0.25, 0.917682], "properties": {"magmom": 0.0}, "label": "Te", "xyz": [7.561390019599999, -1.070142387048, 4.798136126598]}, {"species": [{"element": "Te", "occu": 1}], "abc": [0.417682, 0.75, 0.082318], "properties": {"magmom": 0.0}, "label": "Te", "xyz": [6.5142019804, 1.070142387048, 0.43040287340199995]}, {"species": [{"element": "Te", "occu": 1}], "abc": [0.25, 0.917682, 0.582318], "properties": {"magmom": 0.0}, "label": "Te", "xyz": [8.2127339804, 2.150093612952, 3.044672373402]}, {"species": [{"element": "Te", "occu": 1}], "abc": [0.082318, 0.417682, 0.75], "properties": {"magmom": 0.0}, "label": "Te", "xyz": [5.21743, 1.0799512259039998, 3.9214042499999997]}, {"species": [{"element": "Te", "occu": 1}], "abc": [0.917682, 0.582318, 0.25], "properties": {"magmom": 0.0}, "label": "Te", "xyz": [8.858162, -1.0799512259039998, 1.30713475]}]}, "task_ids": null, "uncorrected_energy_per_atom": null, "energy_per_atom": -5.479498968, "formation_energy_per_atom": -0.20550694799999902, "energy_above_hull": 0.21028862050000202, "is_stable": false, "equilibrium_reaction_energy_per_atom": null, "decomposes_to": null, "xas": null, "grain_boundaries": null, "band_gap": 0.0, "cbm": null, "vbm": null, "efermi": 9.8432561, "is_gap_direct": null, "is_metal": null, "es_source_calc_id": null, "bandstructure": null, "dos": null, "dos_energy_up": null, "dos_energy_down": null, "is_magnetic": null, "ordering": null, "total_magnetization": 0.00017099999999900002, "total_magnetization_normalized_vol": null, "total_magnetization_normalized_formula_units": null, "num_magnetic_sites": null, "num_unique_magnetic_sites": null, "types_of_magnetic_species": null, "bulk_modulus": null, "shear_modulus": null, "universal_anisotropy": null, "homogeneous_poisson": null, "e_total": null, "e_ionic": null, "e_electronic": null, "n": null, "e_ij_max": null, "weighted_surface_energy_EV_PER_ANG2": null, "weighted_surface_energy": null, "weighted_work_function": null, "surface_anisotropy": null, "shape_factor": null, "has_reconstructed": null, "possible_species": null, "has_props": null, "theoretical": null, "database_IDs": null, "fields_not_requested": ["builder_meta", "nsites", "elements", "nelements", "composition", "composition_reduced", "chemsys", "symmetry", "property_name", "deprecated", "deprecation_reasons", "last_updated", "origins", "warnings", "task_ids", "uncorrected_energy_per_atom", "equilibrium_reaction_energy_per_atom", "decomposes_to", "xas", "grain_boundaries", "cbm", "vbm", "is_gap_direct", "is_metal", "es_source_calc_id", "bandstructure", "dos", "dos_energy_up", "dos_energy_down", "is_magnetic", "ordering", "total_magnetization_normalized_vol", "total_magnetization_normalized_formula_units", "num_magnetic_sites", "num_unique_magnetic_sites", "types_of_magnetic_species", "bulk_modulus", "shear_modulus", "universal_anisotropy", "homogeneous_poisson", "e_total", "e_ionic", "e_electronic", "n", "e_ij_max", "weighted_surface_energy_EV_PER_ANG2", "weighted_surface_energy", "weighted_work_function", "surface_anisotropy", "shape_factor", "has_reconstructed", "possible_species", "has_props", "theoretical", "database_IDs"]}