{"builder_meta": null, "nsites": null, "elements": null, "nelements": null, "composition": null, "composition_reduced": null, "formula_pretty": "Fe2W", "formula_anonymous": "AB2", "chemsys": null, "volume": 148.7857787103675, "density": 13.193172482098324, "density_atomic": 12.398814892530625, "symmetry": null, "property_name": null, "material_id": "mp-20868", "deprecated": null, "deprecation_reasons": null, "last_updated": null, "origins": null, "warnings": null, "structure": {"@module": "pymatgen.core.structure", "@class": "Structure", "charge": 0, "lattice": {"matrix": [[4.65736356, 0.00029505, -2.643e-05], [-2.32842586, 4.03366014, 2.3450000000000004e-05], [-4.593e-05, 2.0490000000000002e-05, 7.91965196]], "pbc": [true, true, true], "a": 4.657363569420893, "b": 4.6574650949944285, "c": 7.919651960159692, "alpha": 89.9994170152169, "beta": 90.00065742425274, "gamma": 119.99201382783242, "volume": 148.7857787103675}, "properties": {}, "sites": [{"species": [{"element": "Fe", "occu": 1}], "abc": [-9.55e-06, -1.93e-06, -1.626e-05], "properties": {"magmom": 2.65}, "label": "Fe", "xyz": [-3.99832132664e-05, -7.788114965100002e-06, -0.0001287733337216]}, {"species": [{"element": "Fe", "occu": 1}], "abc": [-3.519999999999999e-06, -6.83e-06, 0.50001323], "properties": {"magmom": 2.649}, "label": "Fe", "xyz": [-2.34563787613e-05, -1.7305666249500002e-05, 3.959930756928301]}, {"species": [{"element": "Fe", "occu": 1}], "abc": [0.17034225, 0.82965752, 0.25003337000000003], "properties": {"magmom": -1.783}, "label": "Fe", "xyz": [-1.1384617206657413, 3.3466118509398672, 1.9801922221090822]}, {"species": [{"element": "Fe", "occu": 1}], "abc": [0.3407205, 0.17035711, 0.749964699999999], "properties": {"magmom": -1.7850000000000001}, "label": "Fe", "xyz": [1.1901608946074445, 0.6872785805328235, 5.939454395917219]}, {"species": [{"element": "Fe", "occu": 1}], "abc": [0.82963952, 0.65927256, 0.74996529], "properties": {"magmom": -1.7850000000000001}, "label": "Fe", "xyz": [2.3288311449857204, 2.659541598596927, 5.939457611449487]}, {"species": [{"element": "Fe", "occu": 1}], "abc": [0.1703548, 0.34069676, 0.25003284], "properties": {"magmom": -1.784}, "label": "Fe", "xyz": [0.00010560738053330176, 1.3743103269957782, 1.9801765582320243]}, {"species": [{"element": "Fe", "occu": 1}], "abc": [0.659301199999999, 0.82964045, 0.25003322], "properties": {"magmom": -1.784}, "label": "Fe", "xyz": [1.1388376216364362, 3.346687263696401, 1.9801781105759477]}, {"species": [{"element": "Fe", "occu": 1}], "abc": [0.82964931, 0.17035939, 0.7499651900000001], "properties": {"magmom": -1.784}, "label": "Fe", "xyz": [3.4672748089021415, 0.6874320357333732, 5.939445354211705]}, {"species": [{"element": "W", "occu": 1}], "abc": [0.33332656, 0.66669884, 0.93020095], "properties": {"magmom": 0.073}, "label": "W", "xyz": [2.1430106517970195e-05, 2.6893539441112315, 7.36687460112818]}, {"species": [{"element": "W", "occu": 1}], "abc": [0.66668218, 0.333330199999999, 0.43026965], "properties": {"magmom": 0.073}, "label": "W", "xyz": [2.3288268713493667, 1.344746262000562, 3.407576073134187]}, {"species": [{"element": "W", "occu": 1}], "abc": [0.66666795, 0.33332326, 0.06979061], "properties": {"magmom": 0.073}, "label": "W", "xyz": [2.328793313143681, 1.3447108779851031, 0.5527075376726241]}, {"species": [{"element": "W", "occu": 1}], "abc": [0.33332879, 0.66667266, 0.5697472], "properties": {"magmom": 0.073}, "label": "W", "xyz": [0.000109329857008983, 2.6892409578493903, 4.5122063527784695]}]}, "task_ids": null, "uncorrected_energy_per_atom": null, "energy_per_atom": -9.989326542499997, "formation_energy_per_atom": -0.023268992499996, "energy_above_hull": 0.0, "is_stable": true, "equilibrium_reaction_energy_per_atom": null, "decomposes_to": null, "xas": null, "grain_boundaries": null, "band_gap": 0.0, "cbm": null, "vbm": null, "efermi": 6.552303399999999, "is_gap_direct": null, "is_metal": null, "es_source_calc_id": null, "bandstructure": null, "dos": null, "dos_energy_up": null, "dos_energy_down": null, "is_magnetic": null, "ordering": null, "total_magnetization": 4.8560471, "total_magnetization_normalized_vol": null, "total_magnetization_normalized_formula_units": null, "num_magnetic_sites": null, "num_unique_magnetic_sites": null, "types_of_magnetic_species": null, "bulk_modulus": null, "shear_modulus": null, "universal_anisotropy": null, "homogeneous_poisson": null, "e_total": null, "e_ionic": null, "e_electronic": null, "n": null, "e_ij_max": null, "weighted_surface_energy_EV_PER_ANG2": null, "weighted_surface_energy": null, "weighted_work_function": null, "surface_anisotropy": null, "shape_factor": null, "has_reconstructed": null, "possible_species": null, "has_props": null, "theoretical": null, "database_IDs": null, "fields_not_requested": ["builder_meta", "nsites", "elements", "nelements", "composition", "composition_reduced", "chemsys", "symmetry", "property_name", "deprecated", "deprecation_reasons", "last_updated", "origins", "warnings", "task_ids", "uncorrected_energy_per_atom", "equilibrium_reaction_energy_per_atom", "decomposes_to", "xas", "grain_boundaries", "cbm", "vbm", "is_gap_direct", "is_metal", "es_source_calc_id", "bandstructure", "dos", "dos_energy_up", "dos_energy_down", "is_magnetic", "ordering", "total_magnetization_normalized_vol", "total_magnetization_normalized_formula_units", "num_magnetic_sites", "num_unique_magnetic_sites", "types_of_magnetic_species", "bulk_modulus", "shear_modulus", "universal_anisotropy", "homogeneous_poisson", "e_total", "e_ionic", "e_electronic", "n", "e_ij_max", "weighted_surface_energy_EV_PER_ANG2", "weighted_surface_energy", "weighted_work_function", "surface_anisotropy", "shape_factor", "has_reconstructed", "possible_species", "has_props", "theoretical", "database_IDs"]}