{
  "builder_meta": null,
  "nsites": null,
  "elements": null,
  "nelements": null,
  "composition": null,
  "composition_reduced": null,
  "formula_pretty": "Fe3B",
  "formula_anonymous": "AB3",
  "chemsys": null,
  "volume": 157.14106002611462,
  "density": 7.538462584448077,
  "density_atomic": 9.821316251632163,
  "symmetry": null,
  "property_name": null,
  "material_id": "mp-973682",
  "deprecated": null,
  "deprecation_reasons": null,
  "last_updated": null,
  "origins": null,
  "warnings": null,
  "structure": {
    "@module": "pymatgen.core.structure",
    "@class": "Structure",
    "charge": 0,
    "lattice": {
      "matrix": [
        [4.363495, 0.0, 0.0],
        [0.0, 5.406169, 0.0],
        [0.0, 0.0, 6.661401]
      ],
      "pbc": [true, true, true],
      "a": 4.363495,
      "b": 5.406169,
      "c": 6.661401,
      "alpha": 90.0,
      "beta": 90.0,
      "gamma": 90.0,
      "volume": 157.14106002611462
    },
    "properties": {},
    "sites": [
      {
        "species": [{ "element": "Fe", "occu": 1 }],
        "abc": [0.61799, 0.979870999999999, 0.25],
        "properties": { "magmom": 2.2880000000000003 },
        "label": "Fe",
        "xyz": [2.6965962750500005, 5.297348224198995, 1.66535025]
      },
      {
        "species": [{ "element": "Fe", "occu": 1 }],
        "abc": [0.648556, 0.675813999999999, 0.556024],
        "properties": { "magmom": 1.988999999999999 },
        "label": "Fe",
        "xyz": [2.8299708632200002, 3.653564696565995, 3.7038988296239994]
      },
      {
        "species": [{ "element": "Fe", "occu": 1 }],
        "abc": [0.648556, 0.675813999999999, 0.943975999999999],
        "properties": { "magmom": 1.988999999999999 },
        "label": "Fe",
        "xyz": [2.8299708632200002, 3.653564696565995, 6.288202670375993]
      },
      {
        "species": [{ "element": "Fe", "occu": 1 }],
        "abc": [0.851444, 0.175814, 0.556024],
        "properties": { "magmom": 1.988999999999999 },
        "label": "Fe",
        "xyz": [3.7152716367800003, 0.950480196566, 3.7038988296239994]
      },
      {
        "species": [{ "element": "Fe", "occu": 1 }],
        "abc": [0.851444, 0.175814, 0.943975999999999],
        "properties": { "magmom": 1.988999999999999 },
        "label": "Fe",
        "xyz": [3.7152716367800003, 0.950480196566, 6.288202670375993]
      },
      {
        "species": [{ "element": "Fe", "occu": 1 }],
        "abc": [0.8820100000000001, 0.479871, 0.25],
        "properties": { "magmom": 2.2880000000000003 },
        "label": "Fe",
        "xyz": [3.8486462249500004, 2.594263724199, 1.66535025]
      },
      {
        "species": [{ "element": "Fe", "occu": 1 }],
        "abc": [0.11799000000000001, 0.520129, 0.75],
        "properties": { "magmom": 2.2880000000000003 },
        "label": "Fe",
        "xyz": [0.51484877505, 2.8119052758009997, 4.99605075]
      },
      {
        "species": [{ "element": "Fe", "occu": 1 }],
        "abc": [0.148556, 0.824186, 0.056024],
        "properties": { "magmom": 1.988999999999999 },
        "label": "Fe",
        "xyz": [0.6482233632200001, 4.455688803434, 0.37319832962399996]
      },
      {
        "species": [{ "element": "Fe", "occu": 1 }],
        "abc": [0.148556, 0.824186, 0.443976],
        "properties": { "magmom": 1.988999999999999 },
        "label": "Fe",
        "xyz": [0.6482233632200001, 4.455688803434, 2.957502170376]
      },
      {
        "species": [{ "element": "Fe", "occu": 1 }],
        "abc": [0.351444, 0.324186, 0.056024],
        "properties": { "magmom": 1.988999999999999 },
        "label": "Fe",
        "xyz": [1.53352413678, 1.752604303434, 0.37319832962399996]
      },
      {
        "species": [{ "element": "Fe", "occu": 1 }],
        "abc": [0.351444, 0.324186, 0.443976],
        "properties": { "magmom": 1.988999999999999 },
        "label": "Fe",
        "xyz": [1.53352413678, 1.752604303434, 2.957502170376]
      },
      {
        "species": [{ "element": "Fe", "occu": 1 }],
        "abc": [0.38201, 0.020128999999999002, 0.75],
        "properties": { "magmom": 2.2880000000000003 },
        "label": "Fe",
        "xyz": [1.6668987249500002, 0.10882077580099461, 4.99605075]
      },
      {
        "species": [{ "element": "B", "occu": 1 }],
        "abc": [0.574508999999999, 0.381972, 0.75],
        "properties": { "magmom": -0.156 },
        "label": "B",
        "xyz": [2.506867148954996, 2.065005185268, 4.99605075]
      },
      {
        "species": [{ "element": "B", "occu": 1 }],
        "abc": [0.925491, 0.881972, 0.75],
        "properties": { "magmom": -0.156 },
        "label": "B",
        "xyz": [4.0383753510450004, 4.768089685268, 4.99605075]
      },
      {
        "species": [{ "element": "B", "occu": 1 }],
        "abc": [0.074508999999999, 0.118028, 0.25],
        "properties": { "magmom": -0.156 },
        "label": "B",
        "xyz": [0.3251196489549957, 0.638079314732, 1.66535025]
      },
      {
        "species": [{ "element": "B", "occu": 1 }],
        "abc": [0.425491, 0.618028, 0.25],
        "properties": { "magmom": -0.156 },
        "label": "B",
        "xyz": [1.8566278510450003, 3.3411638147320004, 1.66535025]
      }
    ]
  },
  "task_ids": null,
  "uncorrected_energy_per_atom": null,
  "energy_per_atom": -8.235826479375,
  "formation_energy_per_atom": -0.21346262916666503,
  "energy_above_hull": 0.017157454375000002,
  "is_stable": false,
  "equilibrium_reaction_energy_per_atom": null,
  "decomposes_to": null,
  "xas": null,
  "grain_boundaries": null,
  "band_gap": 0.0,
  "cbm": null,
  "vbm": null,
  "efermi": 5.96112184,
  "is_gap_direct": null,
  "is_metal": null,
  "es_source_calc_id": null,
  "bandstructure": null,
  "dos": null,
  "dos_energy_up": null,
  "dos_energy_down": null,
  "is_magnetic": null,
  "ordering": null,
  "total_magnetization": 24.1709616,
  "total_magnetization_normalized_vol": null,
  "total_magnetization_normalized_formula_units": null,
  "num_magnetic_sites": null,
  "num_unique_magnetic_sites": null,
  "types_of_magnetic_species": null,
  "bulk_modulus": null,
  "shear_modulus": null,
  "universal_anisotropy": null,
  "homogeneous_poisson": null,
  "e_total": null,
  "e_ionic": null,
  "e_electronic": null,
  "n": null,
  "e_ij_max": null,
  "weighted_surface_energy_EV_PER_ANG2": null,
  "weighted_surface_energy": null,
  "weighted_work_function": null,
  "surface_anisotropy": null,
  "shape_factor": null,
  "has_reconstructed": null,
  "possible_species": null,
  "has_props": null,
  "theoretical": null,
  "database_IDs": null,
  "fields_not_requested": [
    "builder_meta",
    "nsites",
    "elements",
    "nelements",
    "composition",
    "composition_reduced",
    "chemsys",
    "symmetry",
    "property_name",
    "deprecated",
    "deprecation_reasons",
    "last_updated",
    "origins",
    "warnings",
    "task_ids",
    "uncorrected_energy_per_atom",
    "equilibrium_reaction_energy_per_atom",
    "decomposes_to",
    "xas",
    "grain_boundaries",
    "cbm",
    "vbm",
    "is_gap_direct",
    "is_metal",
    "es_source_calc_id",
    "bandstructure",
    "dos",
    "dos_energy_up",
    "dos_energy_down",
    "is_magnetic",
    "ordering",
    "total_magnetization_normalized_vol",
    "total_magnetization_normalized_formula_units",
    "num_magnetic_sites",
    "num_unique_magnetic_sites",
    "types_of_magnetic_species",
    "bulk_modulus",
    "shear_modulus",
    "universal_anisotropy",
    "homogeneous_poisson",
    "e_total",
    "e_ionic",
    "e_electronic",
    "n",
    "e_ij_max",
    "weighted_surface_energy_EV_PER_ANG2",
    "weighted_surface_energy",
    "weighted_work_function",
    "surface_anisotropy",
    "shape_factor",
    "has_reconstructed",
    "possible_species",
    "has_props",
    "theoretical",
    "database_IDs"
  ]
}
