{"builder_meta": null, "nsites": null, "elements": null, "nelements": null, "composition": null, "composition_reduced": null, "formula_pretty": "Fe3C", "formula_anonymous": "AB3", "chemsys": null, "volume": 81.27918251844231, "density": 7.336261016709779, "density_atomic": 10.159897814805289, "symmetry": null, "property_name": null, "material_id": "mp-13154", "deprecated": null, "deprecation_reasons": null, "last_updated": null, "origins": null, "warnings": null, "structure": {"@module": "pymatgen.core.structure", "@class": "Structure", "charge": 0, "lattice": {"matrix": [[4.66193104, 6.223e-05, 1.24e-06], [-2.33091177, 4.03739013, 1.22e-06], [1.7e-06, 1.81e-06, 4.31826627]], "pbc": [true, true, true], "a": 4.661931040415505, "b": 4.661938303039567, "c": 4.318266270000714, "alpha": 89.99997548556647, "beta": 89.99996220390474, "gamma": 119.99842086345272, "volume": 81.27918251844233}, "properties": {}, "sites": [{"species": [{"element": "Fe", "occu": 1}], "abc": [-4.119999999999999e-06, 0.68382568, 0.49999675], "properties": {"magmom": 2.451}, "label": "Fe", "xyz": [-1.5939556833016635, 2.760871955810268, 2.159119934896843]}, {"species": [{"element": "Fe", "occu": 1}], "abc": [1.00000161, 0.31616645, 1.00000085], "properties": {"magmom": 2.451}, "label": "Fe", "xyz": [3.9249841461263024, 1.2765513447688672, 4.318271566251394]}, {"species": [{"element": "Fe", "occu": 1}], "abc": [0.68384343, 0.68384559, -4.309999999999998e-06], "properties": {"magmom": 2.451}, "label": "Fe", "xyz": [1.5940471782161458, 2.7609939910788746, -1.6929470150699988e-05]}, {"species": [{"element": "Fe", "occu": 1}], "abc": [0.6838306, -4.9000000000000005e-06, 0.50000417], "properties": {"magmom": 2.451}, "label": "Fe", "xyz": [3.187983371716586, 2.3676574148699997e-05, 2.159151990114312]}, {"species": [{"element": "Fe", "occu": 1}], "abc": [0.31616483, 0.31616401, 0.49999915], "properties": {"magmom": 2.451}, "label": "Fe", "xyz": [0.7369890725724805, 1.2764980333710538, 2.1591302422381515]}, {"species": [{"element": "Fe", "occu": 1}], "abc": [0.31616615, 1.00000372, 1.00000356], "properties": {"magmom": 2.451}, "label": "Fe", "xyz": [-0.8569739525034369, 4.037426634117242, 4.318283255078485]}, {"species": [{"element": "C", "occu": 1}], "abc": [0.66666399, 0.33333359, 0.7500102], "properties": {"magmom": -0.163}, "label": "C", "xyz": [2.3309716349812355, 1.3458405902820267, 3.238744982146281]}, {"species": [{"element": "C", "occu": 1}], "abc": [0.33333351, 0.66666586, 0.24998964], "properties": {"magmom": -0.163}, "label": "C", "xyz": [3.896219236581806e-05, 2.691611358997538, 1.0795230569273442]}]}, "task_ids": null, "uncorrected_energy_per_atom": null, "energy_per_atom": -8.60390197375, "formation_energy_per_atom": 0.055780306875000005, "energy_above_hull": 0.055780306875000005, "is_stable": false, "equilibrium_reaction_energy_per_atom": null, "decomposes_to": null, "xas": null, "grain_boundaries": null, "band_gap": 0.0, "cbm": null, "vbm": null, "efermi": 5.9515405999999995, "is_gap_direct": null, "is_metal": null, "es_source_calc_id": null, "bandstructure": null, "dos": null, "dos_energy_up": null, "dos_energy_down": null, "is_magnetic": null, "ordering": null, "total_magnetization": 13.9537171, "total_magnetization_normalized_vol": null, "total_magnetization_normalized_formula_units": null, "num_magnetic_sites": null, "num_unique_magnetic_sites": null, "types_of_magnetic_species": null, "bulk_modulus": null, "shear_modulus": null, "universal_anisotropy": null, "homogeneous_poisson": null, "e_total": null, "e_ionic": null, "e_electronic": null, "n": null, "e_ij_max": null, "weighted_surface_energy_EV_PER_ANG2": null, "weighted_surface_energy": null, "weighted_work_function": null, "surface_anisotropy": null, "shape_factor": null, "has_reconstructed": null, "possible_species": null, "has_props": null, "theoretical": null, "database_IDs": null, "fields_not_requested": ["builder_meta", "nsites", "elements", "nelements", "composition", "composition_reduced", "chemsys", "symmetry", "property_name", "deprecated", "deprecation_reasons", "last_updated", "origins", "warnings", "task_ids", "uncorrected_energy_per_atom", "equilibrium_reaction_energy_per_atom", "decomposes_to", "xas", "grain_boundaries", "cbm", "vbm", "is_gap_direct", "is_metal", "es_source_calc_id", "bandstructure", "dos", "dos_energy_up", "dos_energy_down", "is_magnetic", "ordering", "total_magnetization_normalized_vol", "total_magnetization_normalized_formula_units", "num_magnetic_sites", "num_unique_magnetic_sites", "types_of_magnetic_species", "bulk_modulus", "shear_modulus", "universal_anisotropy", "homogeneous_poisson", "e_total", "e_ionic", "e_electronic", "n", "e_ij_max", "weighted_surface_energy_EV_PER_ANG2", "weighted_surface_energy", "weighted_work_function", "surface_anisotropy", "shape_factor", "has_reconstructed", "possible_species", "has_props", "theoretical", "database_IDs"]}