{
  "builder_meta": null,
  "nsites": null,
  "elements": null,
  "nelements": null,
  "composition": null,
  "composition_reduced": null,
  "formula_pretty": "Fe3Mo",
  "formula_anonymous": "AB3",
  "chemsys": null,
  "volume": 93.61712608050539,
  "density": 9.34680541669696,
  "density_atomic": 11.702140760063173,
  "symmetry": null,
  "property_name": null,
  "material_id": "mp-985475",
  "deprecated": null,
  "deprecation_reasons": null,
  "last_updated": null,
  "origins": null,
  "warnings": null,
  "structure": {
    "@module": "pymatgen.core.structure",
    "@class": "Structure",
    "charge": 0,
    "lattice": {
      "matrix": [
        [2.564492, -4.441831, 0.0],
        [2.564492, 4.441831, 0.0],
        [0.0, 0.0, 4.109244]
      ],
      "pbc": [true, true, true],
      "a": 5.128984485317244,
      "b": 5.128984485317244,
      "c": 4.109244,
      "alpha": 90.0,
      "beta": 90.0,
      "gamma": 120.00000626017295,
      "volume": 93.61712608050539
    },
    "properties": {},
    "sites": [
      {
        "species": [{ "element": "Fe", "occu": 1 }],
        "abc": [0.839204, 0.160796, 0.75],
        "properties": { "magmom": 0.53 },
        "label": "Fe",
        "xyz": [2.564492, -3.0133736850479993, 3.0819330000000003]
      },
      {
        "species": [{ "element": "Fe", "occu": 1 }],
        "abc": [0.321592, 0.160796, 0.75],
        "properties": { "magmom": 0.533 },
        "label": "Fe",
        "xyz": [1.237080166896, -0.714228657476, 3.0819330000000003]
      },
      {
        "species": [{ "element": "Fe", "occu": 1 }],
        "abc": [0.839204, 0.678408, 0.75],
        "properties": { "magmom": 0.532 },
        "label": "Fe",
        "xyz": [3.891903833104, -0.7142286574759997, 3.0819330000000003]
      },
      {
        "species": [{ "element": "Fe", "occu": 1 }],
        "abc": [0.160796, 0.839204, 0.25],
        "properties": { "magmom": 0.531 },
        "label": "Fe",
        "xyz": [2.564492, 3.0133736850479993, 1.027311]
      },
      {
        "species": [{ "element": "Fe", "occu": 1 }],
        "abc": [0.678408, 0.839204, 0.25],
        "properties": { "magmom": 0.533 },
        "label": "Fe",
        "xyz": [3.891903833104, 0.7142286574759997, 1.027311]
      },
      {
        "species": [{ "element": "Fe", "occu": 1 }],
        "abc": [0.160796, 0.321592, 0.25],
        "properties": { "magmom": 0.533 },
        "label": "Fe",
        "xyz": [1.237080166896, 0.714228657476, 1.027311]
      },
      {
        "species": [{ "element": "Mo", "occu": 1 }],
        "abc": [0.666667, 0.333333, 0.25],
        "properties": { "magmom": -0.27 },
        "label": "Mo",
        "xyz": [2.564492, -1.4806132945539998, 1.027311]
      },
      {
        "species": [{ "element": "Mo", "occu": 1 }],
        "abc": [0.333333, 0.666667, 0.75],
        "properties": { "magmom": -0.27 },
        "label": "Mo",
        "xyz": [2.564492, 1.4806132945539998, 3.0819330000000003]
      }
    ]
  },
  "task_ids": null,
  "uncorrected_energy_per_atom": null,
  "energy_per_atom": -8.98243777375,
  "formation_energy_per_atom": 0.08149066125000101,
  "energy_above_hull": 0.084149853749998,
  "is_stable": false,
  "equilibrium_reaction_energy_per_atom": null,
  "decomposes_to": null,
  "xas": null,
  "grain_boundaries": null,
  "band_gap": 0.0,
  "cbm": null,
  "vbm": null,
  "efermi": 6.63921338,
  "is_gap_direct": null,
  "is_metal": null,
  "es_source_calc_id": null,
  "bandstructure": null,
  "dos": null,
  "dos_energy_up": null,
  "dos_energy_down": null,
  "is_magnetic": null,
  "ordering": null,
  "total_magnetization": 2.6542918,
  "total_magnetization_normalized_vol": null,
  "total_magnetization_normalized_formula_units": null,
  "num_magnetic_sites": null,
  "num_unique_magnetic_sites": null,
  "types_of_magnetic_species": null,
  "bulk_modulus": null,
  "shear_modulus": null,
  "universal_anisotropy": null,
  "homogeneous_poisson": null,
  "e_total": null,
  "e_ionic": null,
  "e_electronic": null,
  "n": null,
  "e_ij_max": null,
  "weighted_surface_energy_EV_PER_ANG2": null,
  "weighted_surface_energy": null,
  "weighted_work_function": null,
  "surface_anisotropy": null,
  "shape_factor": null,
  "has_reconstructed": null,
  "possible_species": null,
  "has_props": null,
  "theoretical": null,
  "database_IDs": null,
  "fields_not_requested": [
    "builder_meta",
    "nsites",
    "elements",
    "nelements",
    "composition",
    "composition_reduced",
    "chemsys",
    "symmetry",
    "property_name",
    "deprecated",
    "deprecation_reasons",
    "last_updated",
    "origins",
    "warnings",
    "task_ids",
    "uncorrected_energy_per_atom",
    "equilibrium_reaction_energy_per_atom",
    "decomposes_to",
    "xas",
    "grain_boundaries",
    "cbm",
    "vbm",
    "is_gap_direct",
    "is_metal",
    "es_source_calc_id",
    "bandstructure",
    "dos",
    "dos_energy_up",
    "dos_energy_down",
    "is_magnetic",
    "ordering",
    "total_magnetization_normalized_vol",
    "total_magnetization_normalized_formula_units",
    "num_magnetic_sites",
    "num_unique_magnetic_sites",
    "types_of_magnetic_species",
    "bulk_modulus",
    "shear_modulus",
    "universal_anisotropy",
    "homogeneous_poisson",
    "e_total",
    "e_ionic",
    "e_electronic",
    "n",
    "e_ij_max",
    "weighted_surface_energy_EV_PER_ANG2",
    "weighted_surface_energy",
    "weighted_work_function",
    "surface_anisotropy",
    "shape_factor",
    "has_reconstructed",
    "possible_species",
    "has_props",
    "theoretical",
    "database_IDs"
  ]
}
