{"builder_meta": null, "nsites": null, "elements": null, "nelements": null, "composition": null, "composition_reduced": null, "formula_pretty": "Fe3Ni2", "formula_anonymous": "A2B3", "chemsys": null, "volume": 113.77037187958861, "density": 8.317170314372055, "density_atomic": 11.37703718795886, "symmetry": null, "property_name": null, "material_id": "mp-1225009", "deprecated": null, "deprecation_reasons": null, "last_updated": null, "origins": null, "warnings": null, "structure": {"@module": "pymatgen.core.structure", "@class": "Structure", "charge": 0, "lattice": {"matrix": [[2.5018190000000002, 0.0, 0.0], [0.0, 2.5018190000000002, 0.0], [0.0, 0.0, 18.176799]], "pbc": [true, true, true], "a": 2.5018190000000002, "b": 2.5018190000000002, "c": 18.176799, "alpha": 90.0, "beta": 90.0, "gamma": 90.0, "volume": 113.77037187958865}, "properties": {}, "sites": [{"species": [{"element": "Fe", "occu": 1}], "abc": [0.0, 0.0, 0.895604], "properties": {"magmom": 2.561}, "label": "Fe", "xyz": [0.0, 0.0, 16.279213891595997]}, {"species": [{"element": "Fe", "occu": 1}], "abc": [0.0, 0.0, 0.104395999999999], "properties": {"magmom": 2.561}, "label": "Fe", "xyz": [0.0, 0.0, 1.8975851084039819]}, {"species": [{"element": "Fe", "occu": 1}], "abc": [0.0, 0.0, 0.301292], "properties": {"magmom": 2.627}, "label": "Fe", "xyz": [0.0, 0.0, 5.476524124308]}, {"species": [{"element": "Fe", "occu": 1}], "abc": [0.0, 0.0, 0.5], "properties": {"magmom": 2.633}, "label": "Fe", "xyz": [0.0, 0.0, 9.0883995]}, {"species": [{"element": "Fe", "occu": 1}], "abc": [0.0, 0.0, 0.698708], "properties": {"magmom": 2.627}, "label": "Fe", "xyz": [0.0, 0.0, 12.700274875692]}, {"species": [{"element": "Fe", "occu": 1}], "abc": [0.5, 0.5, 0.0], "properties": {"magmom": 2.472}, "label": "Fe", "xyz": [1.2509095000000001, 1.2509095000000001, 0.0]}, {"species": [{"element": "Ni", "occu": 1}], "abc": [0.5, 0.5, 0.202885999999999], "properties": {"magmom": 0.659}, "label": "Ni", "xyz": [1.2509095000000001, 1.2509095000000001, 3.6878180419139817]}, {"species": [{"element": "Ni", "occu": 1}], "abc": [0.5, 0.5, 0.400174], "properties": {"magmom": 0.652}, "label": "Ni", "xyz": [1.2509095000000001, 1.2509095000000001, 7.273882363025999]}, {"species": [{"element": "Ni", "occu": 1}], "abc": [0.5, 0.5, 0.599826], "properties": {"magmom": 0.652}, "label": "Ni", "xyz": [1.2509095000000001, 1.2509095000000001, 10.902916636973998]}, {"species": [{"element": "Ni", "occu": 1}], "abc": [0.5, 0.5, 0.797114], "properties": {"magmom": 0.659}, "label": "Ni", "xyz": [1.2509095000000001, 1.2509095000000001, 14.488980958086]}]}, "task_ids": null, "uncorrected_energy_per_atom": null, "energy_per_atom": -7.426228186999999, "formation_energy_per_atom": -0.032160788999998004, "energy_above_hull": 0.021617895, "is_stable": false, "equilibrium_reaction_energy_per_atom": null, "decomposes_to": null, "xas": null, "grain_boundaries": null, "band_gap": 0.0, "cbm": null, "vbm": null, "efermi": 6.08974408, "is_gap_direct": null, "is_metal": null, "es_source_calc_id": null, "bandstructure": null, "dos": null, "dos_energy_up": null, "dos_energy_down": null, "is_magnetic": null, "ordering": null, "total_magnetization": 17.6999576, "total_magnetization_normalized_vol": null, "total_magnetization_normalized_formula_units": null, "num_magnetic_sites": null, "num_unique_magnetic_sites": null, "types_of_magnetic_species": null, "bulk_modulus": null, "shear_modulus": null, "universal_anisotropy": null, "homogeneous_poisson": null, "e_total": null, "e_ionic": null, "e_electronic": null, "n": null, "e_ij_max": null, "weighted_surface_energy_EV_PER_ANG2": null, "weighted_surface_energy": null, "weighted_work_function": null, "surface_anisotropy": null, "shape_factor": null, "has_reconstructed": null, "possible_species": null, "has_props": null, "theoretical": null, "database_IDs": null, "fields_not_requested": ["builder_meta", "nsites", "elements", "nelements", "composition", "composition_reduced", "chemsys", "symmetry", "property_name", "deprecated", "deprecation_reasons", "last_updated", "origins", "warnings", "task_ids", "uncorrected_energy_per_atom", "equilibrium_reaction_energy_per_atom", "decomposes_to", "xas", "grain_boundaries", "cbm", "vbm", "is_gap_direct", "is_metal", "es_source_calc_id", "bandstructure", "dos", "dos_energy_up", "dos_energy_down", "is_magnetic", "ordering", "total_magnetization_normalized_vol", "total_magnetization_normalized_formula_units", "num_magnetic_sites", "num_unique_magnetic_sites", "types_of_magnetic_species", "bulk_modulus", "shear_modulus", "universal_anisotropy", "homogeneous_poisson", "e_total", "e_ionic", "e_electronic", "n", "e_ij_max", "weighted_surface_energy_EV_PER_ANG2", "weighted_surface_energy", "weighted_work_function", "surface_anisotropy", "shape_factor", "has_reconstructed", "possible_species", "has_props", "theoretical", "database_IDs"]}