{"builder_meta": null, "nsites": null, "elements": null, "nelements": null, "composition": null, "composition_reduced": null, "formula_pretty": "Fe3N", "formula_anonymous": "AB3", "chemsys": null, "volume": 81.61142696835876, "density": 7.387619510288772, "density_atomic": 10.201428371044845, "symmetry": null, "property_name": null, "material_id": "mp-1804", "deprecated": null, "deprecation_reasons": null, "last_updated": null, "origins": null, "warnings": null, "structure": {"@module": "pymatgen.core.structure", "@class": "Structure", "charge": 0, "lattice": {"matrix": [[4.68140678, 0.00018054, -2.771e-05], [-2.34054759, 4.05433822, -2.5940000000000006e-05], [-2.54e-05, -4.33e-05, 4.29976725]], "pbc": [true, true, true], "a": 4.681406783563302, "b": 4.681433693205582, "c": 4.299767250293045, "alpha": 90.00064795565434, "beta": 90.00067762834676, "gamma": 119.99539840879213, "volume": 81.61142696835876}, "properties": {}, "sites": [{"species": [{"element": "Fe", "occu": 1}], "abc": [0.34511428, 0.011681470000000001, 0.24984222], "properties": {"magmom": 2.536}, "label": "Fe", "xyz": [1.5882729478182729, 0.0474121190507686, 1.0742535290892645]}, {"species": [{"element": "Fe", "occu": 1}], "abc": [0.66657021, 0.01165656, 0.75012828], "properties": {"magmom": 2.537}, "label": "Fe", "xyz": [3.093184513766021, 0.047347498752912595, 3.2253582386111446]}, {"species": [{"element": "Fe", "occu": 1}], "abc": [0.34508595000000003, 0.333451799999999, 0.75012555], "properties": {"magmom": 2.537}, "label": "Fe", "xyz": [0.8350088459526114, 1.3519561986488902, 3.2253470612068713]}, {"species": [{"element": "Fe", "occu": 1}], "abc": [0.98833138, 0.654886299999999, 0.75014607], "properties": {"magmom": 2.5380000000000003}, "label": "Fe", "xyz": [3.093969618319563, 2.6552765078668963, 3.225409130089046]}, {"species": [{"element": "Fe", "occu": 1}], "abc": [0.66654226, 0.65489717, 0.24986925000000001], "properties": {"magmom": 2.536}, "label": "Fe", "xyz": [1.5875311155002527, 2.655284144701933, 1.0743441600134482]}, {"species": [{"element": "Fe", "occu": 1}], "abc": [0.9883470200000001, 0.333432, 0.24986275], "properties": {"magmom": 2.536}, "label": "Fe", "xyz": [3.8464346298780656, 1.352013718484956, 1.0743156331229333]}, {"species": [{"element": "N", "occu": 1}], "abc": [0.33334199999999903, 0.66666501, 0.49991034], "properties": {"magmom": -0.053}, "label": "N", "xyz": [0.0001356186432934906, 2.7029239654266406, 2.1494715776711857]}, {"species": [{"element": "N", "occu": 1}], "abc": [1.00000291, -5.309999999999997e-06, 0.00011455], "properties": {"magmom": -0.053}, "label": "N", "xyz": [4.681432828291863, 0.00015900702940820001, 0.00046482839559280014]}]}, "task_ids": null, "uncorrected_energy_per_atom": null, "energy_per_atom": -8.59486442625, "formation_energy_per_atom": -0.157779082499999, "energy_above_hull": 0.0, "is_stable": true, "equilibrium_reaction_energy_per_atom": null, "decomposes_to": null, "xas": null, "grain_boundaries": null, "band_gap": 0.0, "cbm": null, "vbm": null, "efermi": 6.23717804, "is_gap_direct": null, "is_metal": null, "es_source_calc_id": null, "bandstructure": null, "dos": null, "dos_energy_up": null, "dos_energy_down": null, "is_magnetic": null, "ordering": null, "total_magnetization": 14.6286057, "total_magnetization_normalized_vol": null, "total_magnetization_normalized_formula_units": null, "num_magnetic_sites": null, "num_unique_magnetic_sites": null, "types_of_magnetic_species": null, "bulk_modulus": null, "shear_modulus": null, "universal_anisotropy": null, "homogeneous_poisson": null, "e_total": null, "e_ionic": null, "e_electronic": null, "n": null, "e_ij_max": null, "weighted_surface_energy_EV_PER_ANG2": null, "weighted_surface_energy": null, "weighted_work_function": null, "surface_anisotropy": null, "shape_factor": null, "has_reconstructed": null, "possible_species": null, "has_props": null, "theoretical": null, "database_IDs": null, "fields_not_requested": ["builder_meta", "nsites", "elements", "nelements", "composition", "composition_reduced", "chemsys", "symmetry", "property_name", "deprecated", "deprecation_reasons", "last_updated", "origins", "warnings", "task_ids", "uncorrected_energy_per_atom", "equilibrium_reaction_energy_per_atom", "decomposes_to", "xas", "grain_boundaries", "cbm", "vbm", "is_gap_direct", "is_metal", "es_source_calc_id", "bandstructure", "dos", "dos_energy_up", "dos_energy_down", "is_magnetic", "ordering", "total_magnetization_normalized_vol", "total_magnetization_normalized_formula_units", "num_magnetic_sites", "num_unique_magnetic_sites", "types_of_magnetic_species", "bulk_modulus", "shear_modulus", "universal_anisotropy", "homogeneous_poisson", "e_total", "e_ionic", "e_electronic", "n", "e_ij_max", "weighted_surface_energy_EV_PER_ANG2", "weighted_surface_energy", "weighted_work_function", "surface_anisotropy", "shape_factor", "has_reconstructed", "possible_species", "has_props", "theoretical", "database_IDs"]}