{"builder_meta": null, "nsites": null, "elements": null, "nelements": null, "composition": null, "composition_reduced": null, "formula_pretty": "Fe3O", "formula_anonymous": "AB3", "chemsys": null, "volume": 103.64319029065518, "density": 5.881062526352389, "density_atomic": 12.955398786331898, "symmetry": null, "property_name": null, "material_id": "mp-1184320", "deprecated": null, "deprecation_reasons": null, "last_updated": null, "origins": null, "warnings": null, "structure": {"@module": "pymatgen.core.structure", "@class": "Structure", "charge": 0, "lattice": {"matrix": [[2.554694999999999, -4.424862, 0.0], [2.554694999999999, 4.424862, 0.0], [0.0, 0.0, 4.584289]], "pbc": [true, true, true], "a": 5.109390400240423, "b": 5.109390400240423, "c": 4.584289, "alpha": 90.0, "beta": 90.0, "gamma": 120.00000518255428, "volume": 103.64319029065513}, "properties": {}, "sites": [{"species": [{"element": "Fe", "occu": 1}], "abc": [0.837356999999999, 0.162642999999999, 0.75], "properties": {"magmom": -3.152}, "label": "Fe", "xyz": [2.5546949999999935, -2.985516339468, 3.43821675]}, {"species": [{"element": "Fe", "occu": 1}], "abc": [0.325285, 0.162642999999999, 0.75], "properties": {"magmom": -3.458}, "label": "Fe", "xyz": [1.2465072219599969, -0.7196684054040043, 3.43821675]}, {"species": [{"element": "Fe", "occu": 1}], "abc": [0.837356999999999, 0.674715, 0.75], "properties": {"magmom": -3.152}, "label": "Fe", "xyz": [3.8628827780399955, -0.7196684054039957, 3.43821675]}, {"species": [{"element": "Fe", "occu": 1}], "abc": [0.162642999999999, 0.837356999999999, 0.25], "properties": {"magmom": -3.152}, "label": "Fe", "xyz": [2.5546949999999935, 2.985516339468, 1.14607225]}, {"species": [{"element": "Fe", "occu": 1}], "abc": [0.674715, 0.837356999999999, 0.25], "properties": {"magmom": -3.458}, "label": "Fe", "xyz": [3.8628827780399955, 0.7196684054039957, 1.14607225]}, {"species": [{"element": "Fe", "occu": 1}], "abc": [0.162642999999999, 0.325285, 0.25], "properties": {"magmom": -3.152}, "label": "Fe", "xyz": [1.2465072219599969, 0.7196684054040043, 1.14607225]}, {"species": [{"element": "O", "occu": 1}], "abc": [0.666667, 0.333333, 0.25], "properties": {"magmom": -0.14400000000000002}, "label": "O", "xyz": [2.554694999999999, -1.474956949908, 1.14607225]}, {"species": [{"element": "O", "occu": 1}], "abc": [0.333333, 0.666667, 0.75], "properties": {"magmom": -0.14400000000000002}, "label": "O", "xyz": [2.554694999999999, 1.474956949908, 3.43821675]}]}, "task_ids": null, "uncorrected_energy_per_atom": null, "energy_per_atom": -6.8193125537500014, "formation_energy_per_atom": 0.7701936050000001, "energy_above_hull": 1.5109532987499992, "is_stable": false, "equilibrium_reaction_energy_per_atom": null, "decomposes_to": null, "xas": null, "grain_boundaries": null, "band_gap": 0.0, "cbm": null, "vbm": null, "efermi": 3.811950979999999, "is_gap_direct": null, "is_metal": null, "es_source_calc_id": null, "bandstructure": null, "dos": null, "dos_energy_up": null, "dos_energy_down": null, "is_magnetic": null, "ordering": null, "total_magnetization": 19.9227736, "total_magnetization_normalized_vol": null, "total_magnetization_normalized_formula_units": null, "num_magnetic_sites": null, "num_unique_magnetic_sites": null, "types_of_magnetic_species": null, "bulk_modulus": null, "shear_modulus": null, "universal_anisotropy": null, "homogeneous_poisson": null, "e_total": null, "e_ionic": null, "e_electronic": null, "n": null, "e_ij_max": null, "weighted_surface_energy_EV_PER_ANG2": null, "weighted_surface_energy": null, "weighted_work_function": null, "surface_anisotropy": null, "shape_factor": null, "has_reconstructed": null, "possible_species": null, "has_props": null, "theoretical": null, "database_IDs": null, "fields_not_requested": ["builder_meta", "nsites", "elements", "nelements", "composition", "composition_reduced", "chemsys", "symmetry", "property_name", "deprecated", "deprecation_reasons", "last_updated", "origins", "warnings", "task_ids", "uncorrected_energy_per_atom", "equilibrium_reaction_energy_per_atom", "decomposes_to", "xas", "grain_boundaries", "cbm", "vbm", "is_gap_direct", "is_metal", "es_source_calc_id", "bandstructure", "dos", "dos_energy_up", "dos_energy_down", "is_magnetic", "ordering", "total_magnetization_normalized_vol", "total_magnetization_normalized_formula_units", "num_magnetic_sites", "num_unique_magnetic_sites", "types_of_magnetic_species", "bulk_modulus", "shear_modulus", "universal_anisotropy", "homogeneous_poisson", "e_total", "e_ionic", "e_electronic", "n", "e_ij_max", "weighted_surface_energy_EV_PER_ANG2", "weighted_surface_energy", "weighted_work_function", "surface_anisotropy", "shape_factor", "has_reconstructed", "possible_species", "has_props", "theoretical", "database_IDs"]}