{"builder_meta": null, "nsites": null, "elements": null, "nelements": null, "composition": null, "composition_reduced": null, "formula_pretty": "Fe3O4", "formula_anonymous": "A3B4", "chemsys": null, "volume": 150.5150568877793, "density": 5.108710522936223, "density_atomic": 10.751075491984237, "symmetry": null, "property_name": null, "material_id": "mp-19306", "deprecated": null, "deprecation_reasons": null, "last_updated": null, "origins": null, "warnings": null, "structure": {"@module": "pymatgen.core.structure", "@class": "Structure", "charge": 0, "lattice": {"matrix": [[1.72398624, 4.87541165, 2.98673909], [-0.00078192, 0.000298, 5.97028591], [5.17085494, 0.0004307, 2.9839514400000002]], "pbc": [true, true, true], "a": 5.971798531799201, "b": 5.97028596864065, "c": 5.970067603662706, "alpha": 60.01949761121378, "beta": 59.99471753942276, "gamma": 59.990501183689, "volume": 150.5150568877793}, "properties": {}, "sites": [{"species": [{"element": "Fe", "occu": 1}], "abc": [0.87486095, 0.87520887, 0.87514198], "properties": {"magmom": 4.029}, "label": "Fe", "xyz": [6.032796126878078, 4.265945003654114, 10.449609753973009]}, {"species": [{"element": "Fe", "occu": 1}], "abc": [3.8580000000000013e-05, 0.5000237200000001, 0.499869099999999], "properties": {"magmom": 4.034}, "label": "Fe", "xyz": [2.5844261379303455, 0.0005523940713869997, 4.476984919332379]}, {"species": [{"element": "Fe", "occu": 1}], "abc": [0.49975642000000003, 0.5002753600000001, 0.50007724], "properties": {"magmom": 4.034}, "label": "Fe", "xyz": [3.447008882957735, 2.4368827375548414, 5.971635168429862]}, {"species": [{"element": "Fe", "occu": 1}], "abc": [0.12485791, 0.12520719, 0.12513777], "properties": {"magmom": 4.029}, "label": "Fe", "xyz": [0.8622246729742374, 0.6088249175888105, 1.4938457517702837]}, {"species": [{"element": "Fe", "occu": 1}], "abc": [0.49994434, 8.791000000000004e-05, 0.500238699999999], "properties": {"magmom": 4.034}, "label": "Fe", "xyz": [3.4485588472614674, 2.437649938592831, 2.986416140145324]}, {"species": [{"element": "Fe", "occu": 1}], "abc": [0.50012994, 0.49994507, 0.99995687], "properties": {"magmom": 4.034}, "label": "Fe", "xyz": [6.032458138749329, 2.43891900104457, 7.462395391246711]}, {"species": [{"element": "O", "occu": 1}], "abc": [0.743663899999999, 0.74325511, 0.26918542], "properties": {"magmom": 0.369}, "label": "O", "xyz": [2.673403923532098, 3.6260050699276043, 7.461811772356353]}, {"species": [{"element": "O", "occu": 1}], "abc": [0.73084474, 0.25610164, 0.25633043], "properties": {"magmom": 0.369}, "label": "O", "xyz": [2.585213494579853, 3.5633556795421417, 4.476720122213099]}, {"species": [{"element": "O", "occu": 1}], "abc": [0.25678137, 0.25611405, 0.25624534], "properties": {"magmom": 0.369}, "label": "O", "xyz": [1.7674947700613521, 1.2521015696557984, 3.0606367107170787]}, {"species": [{"element": "O", "occu": 1}], "abc": [0.26904047000000003, 0.74363617, 0.74363374], "properties": {"magmom": 0.369}, "label": "O", "xyz": [4.308462802318762, 1.3122249283899539, 7.462241205763924]}, {"species": [{"element": "O", "occu": 1}], "abc": [0.25623964, 0.73108131, 0.25626586], "properties": {"magmom": 0.369}, "label": "O", "xyz": [1.766295554538987, 1.249601961984088, 5.894770275322708]}, {"species": [{"element": "O", "occu": 1}], "abc": [0.74374174, 0.74358169, 0.74374672], "properties": {"magmom": 0.369}, "label": "O", "xyz": [5.127425505699409, 3.6265890628431956, 8.880061910602882]}, {"species": [{"element": "O", "occu": 1}], "abc": [0.25635678, 0.25630637, 0.73097179], "properties": {"magmom": 0.369}, "label": "O", "xyz": [4.221504241496019, 1.2502360406167004, 4.477077450636655]}, {"species": [{"element": "O", "occu": 1}], "abc": [0.74374521, 0.26917553, 0.7431980300000001], "properties": {"magmom": 0.369}, "label": "O", "xyz": [5.124965239199261, 3.6264643711651576, 6.046094597606705]}]}, "task_ids": null, "uncorrected_energy_per_atom": null, "energy_per_atom": -8.086998347142856, "formation_energy_per_atom": -1.6295829685714271, "energy_above_hull": 0.013059251428572002, "is_stable": false, "equilibrium_reaction_energy_per_atom": null, "decomposes_to": null, "xas": null, "grain_boundaries": null, "band_gap": 0.0, "cbm": null, "vbm": null, "efermi": 4.15525912, "is_gap_direct": null, "is_metal": null, "es_source_calc_id": null, "bandstructure": null, "dos": null, "dos_energy_up": null, "dos_energy_down": null, "is_magnetic": null, "ordering": null, "total_magnetization": 28.0000002, "total_magnetization_normalized_vol": null, "total_magnetization_normalized_formula_units": null, "num_magnetic_sites": null, "num_unique_magnetic_sites": null, "types_of_magnetic_species": null, "bulk_modulus": null, "shear_modulus": null, "universal_anisotropy": null, "homogeneous_poisson": null, "e_total": null, "e_ionic": null, "e_electronic": null, "n": null, "e_ij_max": null, "weighted_surface_energy_EV_PER_ANG2": null, "weighted_surface_energy": null, "weighted_work_function": null, "surface_anisotropy": null, "shape_factor": null, "has_reconstructed": null, "possible_species": null, "has_props": null, "theoretical": null, "database_IDs": null, "fields_not_requested": ["builder_meta", "nsites", "elements", "nelements", "composition", "composition_reduced", "chemsys", "symmetry", "property_name", "deprecated", "deprecation_reasons", "last_updated", "origins", "warnings", "task_ids", "uncorrected_energy_per_atom", "equilibrium_reaction_energy_per_atom", "decomposes_to", "xas", "grain_boundaries", "cbm", "vbm", "is_gap_direct", "is_metal", "es_source_calc_id", "bandstructure", "dos", "dos_energy_up", "dos_energy_down", "is_magnetic", "ordering", "total_magnetization_normalized_vol", "total_magnetization_normalized_formula_units", "num_magnetic_sites", "num_unique_magnetic_sites", "types_of_magnetic_species", "bulk_modulus", "shear_modulus", "universal_anisotropy", "homogeneous_poisson", "e_total", "e_ionic", "e_electronic", "n", "e_ij_max", "weighted_surface_energy_EV_PER_ANG2", "weighted_surface_energy", "weighted_work_function", "surface_anisotropy", "shape_factor", "has_reconstructed", "possible_species", "has_props", "theoretical", "database_IDs"]}