{"builder_meta": null, "nsites": null, "elements": null, "nelements": null, "composition": null, "composition_reduced": null, "formula_pretty": "Fe3P", "formula_anonymous": "AB3", "chemsys": null, "volume": 181.70916097825895, "density": 7.256245146668001, "density_atomic": 11.356822561141184, "symmetry": null, "property_name": null, "material_id": "mp-18708", "deprecated": null, "deprecation_reasons": null, "last_updated": null, "origins": null, "warnings": null, "structure": {"@module": "pymatgen.core.structure", "@class": "Structure", "charge": 0, "lattice": {"matrix": [[-4.54940298, 4.5503919, 2.1946658], [4.54962119, -4.550199, 2.1946558], [4.54980783, 4.5486418, -2.19422746]], "pbc": [true, true, true], "a": 6.7985065927531565, "b": 6.7985202796323, "c": 6.797464796588108, "alpha": 95.97800259248487, "beta": 95.98238428309897, "gamma": 142.33352360998094, "volume": 181.70916097825895}, "properties": {}, "sites": [{"species": [{"element": "Fe", "occu": 1}], "abc": [0.02885362, 0.363502, 0.38848326], "properties": {"magmom": 2.016}, "label": "Fe", "xyz": [3.2900538351675177, 0.24436003687194607, 0.008665188789476308]}, {"species": [{"element": "Fe", "occu": 1}], "abc": [0.6364406300000001, 0.024949, 0.66522448], "properties": {"magmom": 2.015}, "label": "Fe", "xyz": [0.24472714816591035, 5.808399248843162, -0.008124869134566559]}, {"species": [{"element": "Fe", "occu": 1}], "abc": [0.35973326, 0.97122224, 0.334714499999999], "properties": {"magmom": 2.018}, "label": "Fe", "xyz": [4.305008371168681, -1.2598307869950711, 2.1865530577893324]}, {"species": [{"element": "Fe", "occu": 1}], "abc": [0.97505259, 0.64036595, 0.6114241], "properties": {"magmom": 2.016}, "label": "Fe", "xyz": [1.2593774945024654, 4.3042281210733515, 2.203693868838646]}, {"species": [{"element": "Fe", "occu": 1}], "abc": [0.45634619, 0.41024146, 0.38788281], "properties": {"magmom": 2.536}, "label": "Fe", "xyz": [1.5551327687952936, 1.9742136885887793, 1.0507630627788074]}, {"species": [{"element": "Fe", "occu": 1}], "abc": [0.58969353, 0.97758182, 0.04601812], "properties": {"magmom": 2.535}, "label": "Fe", "xyz": [1.974247063259926, -1.5555352131983573, 3.338661611448255]}, {"species": [{"element": "Fe", "occu": 1}], "abc": [0.93158099, 0.54380658, 0.95390608], "properties": {"magmom": 2.534}, "label": "Fe", "xyz": [2.576065959480686, 6.1036075033427055, 1.1448902885613497]}, {"species": [{"element": "Fe", "occu": 1}], "abc": [0.02235031, 0.06837753, 0.61220724], "properties": {"magmom": 2.536}, "label": "Fe", "xyz": [2.994836586624626, 2.575282743084651, -1.1442053334382385]}, {"species": [{"element": "Fe", "occu": 1}], "abc": [0.65800501, 0.67943885, 0.81506346], "properties": {"magmom": 2.748}, "label": "Fe", "xyz": [3.8060415481751932, 3.6100304156408973, 1.1468008789988768]}, {"species": [{"element": "Fe", "occu": 1}], "abc": [0.32048359, 0.13557625, 0.97865008], "properties": {"magmom": 2.748}, "label": "Fe", "xyz": [3.6114813772877654, 5.292955676306515, -1.146483301428225]}, {"species": [{"element": "Fe", "occu": 1}], "abc": [0.15686792, 0.34190358, 0.02143487], "properties": {"magmom": 2.747}, "label": "Fe", "xyz": [0.9394009291514906, -0.744419269615006, 1.0476003536733698]}, {"species": [{"element": "Fe", "occu": 1}], "abc": [0.8644964700000001, 0.84305304, 0.18503546], "properties": {"magmom": 2.747}, "label": "Fe", "xyz": [0.7445049429960887, 0.9393986629498613, 3.3414821934676264]}, {"species": [{"element": "P", "occu": 1}], "abc": [0.46086918, 0.20947905, 0.66374105], "properties": {"magmom": -0.064}, "label": "P", "xyz": [1.8762649302413346, 4.163084304206583, 0.014789401441800853]}, {"species": [{"element": "P", "occu": 1}], "abc": [0.79059028, 0.45425561000000003, 0.25135131], "properties": {"magmom": -0.065}, "label": "P", "xyz": [-0.38642266853990104, 2.6738492591151, 2.1804942119884894]}, {"species": [{"element": "P", "occu": 1}], "abc": [0.20280928, 0.53910251, 0.74857394], "properties": {"magmom": -0.065}, "label": "P", "xyz": [4.935918633820482, 1.8748327169320342, -0.014298453883710316]}, {"species": [{"element": "P", "occu": 1}], "abc": [0.54582515, 0.79714754, 0.33629023], "properties": {"magmom": -0.065}, "label": "P", "xyz": [2.6735966971779264, 0.3862021991254394, 2.209471004405886]}]}, "task_ids": null, "uncorrected_energy_per_atom": null, "energy_per_atom": -8.060540081875, "formation_energy_per_atom": -0.35415579303571404, "energy_above_hull": 0.0, "is_stable": true, "equilibrium_reaction_energy_per_atom": null, "decomposes_to": null, "xas": null, "grain_boundaries": null, "band_gap": 0.0, "cbm": null, "vbm": null, "efermi": 7.46652162, "is_gap_direct": null, "is_metal": null, "es_source_calc_id": null, "bandstructure": null, "dos": null, "dos_energy_up": null, "dos_energy_down": null, "is_magnetic": null, "ordering": null, "total_magnetization": 27.8501685, "total_magnetization_normalized_vol": null, "total_magnetization_normalized_formula_units": null, "num_magnetic_sites": null, "num_unique_magnetic_sites": null, "types_of_magnetic_species": null, "bulk_modulus": null, "shear_modulus": null, "universal_anisotropy": null, "homogeneous_poisson": null, "e_total": null, "e_ionic": null, "e_electronic": null, "n": null, "e_ij_max": null, "weighted_surface_energy_EV_PER_ANG2": null, "weighted_surface_energy": null, "weighted_work_function": null, "surface_anisotropy": null, "shape_factor": null, "has_reconstructed": null, "possible_species": null, "has_props": null, "theoretical": null, "database_IDs": null, "fields_not_requested": ["builder_meta", "nsites", "elements", "nelements", "composition", "composition_reduced", "chemsys", "symmetry", "property_name", "deprecated", "deprecation_reasons", "last_updated", "origins", "warnings", "task_ids", "uncorrected_energy_per_atom", "equilibrium_reaction_energy_per_atom", "decomposes_to", "xas", "grain_boundaries", "cbm", "vbm", "is_gap_direct", "is_metal", "es_source_calc_id", "bandstructure", "dos", "dos_energy_up", "dos_energy_down", "is_magnetic", "ordering", "total_magnetization_normalized_vol", "total_magnetization_normalized_formula_units", "num_magnetic_sites", "num_unique_magnetic_sites", "types_of_magnetic_species", "bulk_modulus", "shear_modulus", "universal_anisotropy", "homogeneous_poisson", "e_total", "e_ionic", "e_electronic", "n", "e_ij_max", "weighted_surface_energy_EV_PER_ANG2", "weighted_surface_energy", "weighted_work_function", "surface_anisotropy", "shape_factor", "has_reconstructed", "possible_species", "has_props", "theoretical", "database_IDs"]}