{
  "builder_meta": null,
  "nsites": null,
  "elements": null,
  "nelements": null,
  "composition": null,
  "composition_reduced": null,
  "formula_pretty": "Fe3Rh",
  "formula_anonymous": "AB3",
  "chemsys": null,
  "volume": 50.32830306459576,
  "density": 8.922951661303827,
  "density_atomic": 12.58207576614894,
  "symmetry": null,
  "property_name": null,
  "material_id": "mp-1184364",
  "deprecated": null,
  "deprecation_reasons": null,
  "last_updated": null,
  "origins": null,
  "warnings": null,
  "structure": {
    "@module": "pymatgen.core.structure",
    "@class": "Structure",
    "charge": 0,
    "lattice": {
      "matrix": [
        [-0.00019033, 2.93030838, 2.93030838],
        [2.93030838, -0.00019033, 2.93030838],
        [2.93030838, 2.93030838, -0.00019033]
      ],
      "pbc": [true, true, true],
      "a": 4.144081857302285,
      "b": 4.144081857302285,
      "c": 4.144081857302285,
      "alpha": 60.00429718024109,
      "beta": 60.00429718024109,
      "gamma": 60.00429718024108,
      "volume": 50.32830306459576
    },
    "properties": {},
    "sites": [
      {
        "species": [{ "element": "Fe", "occu": 1 }],
        "abc": [
          7.589999999999998e-6, 7.589999999999998e-6, 7.589999999999998e-6
        ],
        "properties": { "magmom": 3.087 },
        "label": "Fe",
        "xyz": [
          4.448063660369999e-5, 4.448063660369999e-5, 4.4480636603699986e-5
        ]
      },
      {
        "species": [{ "element": "Fe", "occu": 1 }],
        "abc": [0.49999398, 0.49999398, 0.49999398],
        "properties": { "magmom": 3.087 },
        "label": "Fe",
        "xyz": [2.9301779352328916, 2.9301779352328916, 2.9301779352328916]
      },
      {
        "species": [{ "element": "Fe", "occu": 1 }],
        "abc": [0.25000153, 0.25000153, 0.25000153],
        "properties": { "magmom": 2.784 },
        "label": "Fe",
        "xyz": [1.465115573952438, 1.465115573952438, 1.465115573952438]
      },
      {
        "species": [{ "element": "Rh", "occu": 1 }],
        "abc": [0.7499978900000001, 0.7499978900000001, 0.7499978900000001],
        "properties": { "magmom": 0.9510000000000001 },
        "label": "Rh",
        "xyz": [4.395307457000233, 4.395307457000233, 4.395307457000233]
      }
    ]
  },
  "task_ids": null,
  "uncorrected_energy_per_atom": null,
  "energy_per_atom": -8.21579834,
  "formation_energy_per_atom": -0.022205464999998002,
  "energy_above_hull": 0.0,
  "is_stable": true,
  "equilibrium_reaction_energy_per_atom": null,
  "decomposes_to": null,
  "xas": null,
  "grain_boundaries": null,
  "band_gap": 0.0,
  "cbm": null,
  "vbm": null,
  "efermi": 5.42578572,
  "is_gap_direct": null,
  "is_metal": null,
  "es_source_calc_id": null,
  "bandstructure": null,
  "dos": null,
  "dos_energy_up": null,
  "dos_energy_down": null,
  "is_magnetic": null,
  "ordering": null,
  "total_magnetization": 9.5787542,
  "total_magnetization_normalized_vol": null,
  "total_magnetization_normalized_formula_units": null,
  "num_magnetic_sites": null,
  "num_unique_magnetic_sites": null,
  "types_of_magnetic_species": null,
  "bulk_modulus": null,
  "shear_modulus": null,
  "universal_anisotropy": null,
  "homogeneous_poisson": null,
  "e_total": null,
  "e_ionic": null,
  "e_electronic": null,
  "n": null,
  "e_ij_max": null,
  "weighted_surface_energy_EV_PER_ANG2": null,
  "weighted_surface_energy": null,
  "weighted_work_function": null,
  "surface_anisotropy": null,
  "shape_factor": null,
  "has_reconstructed": null,
  "possible_species": null,
  "has_props": null,
  "theoretical": null,
  "database_IDs": null,
  "fields_not_requested": [
    "builder_meta",
    "nsites",
    "elements",
    "nelements",
    "composition",
    "composition_reduced",
    "chemsys",
    "symmetry",
    "property_name",
    "deprecated",
    "deprecation_reasons",
    "last_updated",
    "origins",
    "warnings",
    "task_ids",
    "uncorrected_energy_per_atom",
    "equilibrium_reaction_energy_per_atom",
    "decomposes_to",
    "xas",
    "grain_boundaries",
    "cbm",
    "vbm",
    "is_gap_direct",
    "is_metal",
    "es_source_calc_id",
    "bandstructure",
    "dos",
    "dos_energy_up",
    "dos_energy_down",
    "is_magnetic",
    "ordering",
    "total_magnetization_normalized_vol",
    "total_magnetization_normalized_formula_units",
    "num_magnetic_sites",
    "num_unique_magnetic_sites",
    "types_of_magnetic_species",
    "bulk_modulus",
    "shear_modulus",
    "universal_anisotropy",
    "homogeneous_poisson",
    "e_total",
    "e_ionic",
    "e_electronic",
    "n",
    "e_ij_max",
    "weighted_surface_energy_EV_PER_ANG2",
    "weighted_surface_energy",
    "weighted_work_function",
    "surface_anisotropy",
    "shape_factor",
    "has_reconstructed",
    "possible_species",
    "has_props",
    "theoretical",
    "database_IDs"
  ]
}
