{
  "builder_meta": null,
  "nsites": null,
  "elements": null,
  "nelements": null,
  "composition": null,
  "composition_reduced": null,
  "formula_pretty": "Fe3Se4",
  "formula_anonymous": "A3B4",
  "chemsys": null,
  "volume": 114.62378705751898,
  "density": 7.002587263278897,
  "density_atomic": 16.37482672250271,
  "symmetry": null,
  "property_name": null,
  "material_id": "mp-2780",
  "deprecated": null,
  "deprecation_reasons": null,
  "last_updated": null,
  "origins": null,
  "warnings": null,
  "structure": {
    "@module": "pymatgen.core.structure",
    "@class": "Structure",
    "charge": 0,
    "lattice": {
      "matrix": [
        [1.725857, 6.104108, 0.0],
        [-1.725857, 6.104108, 0.0],
        [0.0, 2.719497, 5.440236]
      ],
      "pbc": [true, true, true],
      "a": 6.343399471900931,
      "b": 6.343399471900931,
      "c": 6.082091060540363,
      "alpha": 64.51563410194585,
      "beta": 64.51563410194585,
      "gamma": 31.575118152611235,
      "volume": 114.62378705751898
    },
    "properties": {},
    "sites": [
      {
        "species": [{ "element": "Fe", "occu": 1 }],
        "abc": [0.0, 0.0, 0.0],
        "properties": { "magmom": 0.368 },
        "label": "Fe",
        "xyz": [0.0, 0.0, 0.0]
      },
      {
        "species": [{ "element": "Fe", "occu": 1 }],
        "abc": [0.261445, 0.261445, 0.690263],
        "properties": { "magmom": 1.945 },
        "label": "Fe",
        "xyz": [0.0, 5.068945189831, 3.7551936220679996]
      },
      {
        "species": [{ "element": "Fe", "occu": 1 }],
        "abc": [0.738555, 0.738555, 0.309737],
        "properties": { "magmom": 1.945 },
        "label": "Fe",
        "xyz": [0.0, 9.858767810168999, 1.6850423779319998]
      },
      {
        "species": [{ "element": "Se", "occu": 1 }],
        "abc": [0.365054999999999, 0.365054999999999, 0.9775469999999991],
        "properties": { "magmom": 0.009000000000000001 },
        "label": "Se",
        "xyz": [0.0, 7.115106425738986, 5.3180863810919945]
      },
      {
        "species": [{ "element": "Se", "occu": 1 }],
        "abc": [0.634945, 0.634945, 0.022452999999999],
        "properties": { "magmom": 0.009000000000000001 },
        "label": "Se",
        "xyz": [0.0, 7.812606574260998, 0.12214961890799456]
      },
      {
        "species": [{ "element": "Se", "occu": 1 }],
        "abc": [0.104862, 0.104862, 0.560191],
        "properties": { "magmom": -0.037 },
        "label": "Se",
        "xyz": [0.0, 2.803615690119, 3.047571245076]
      },
      {
        "species": [{ "element": "Se", "occu": 1 }],
        "abc": [0.895138, 0.895138, 0.439809],
        "properties": { "magmom": -0.037 },
        "label": "Se",
        "xyz": [0.0, 12.124097309881002, 2.3926647549239997]
      }
    ]
  },
  "task_ids": null,
  "uncorrected_energy_per_atom": null,
  "energy_per_atom": -6.125462147142857,
  "formation_energy_per_atom": -0.49778935562499904,
  "energy_above_hull": 0.07947149071428501,
  "is_stable": false,
  "equilibrium_reaction_energy_per_atom": null,
  "decomposes_to": null,
  "xas": null,
  "grain_boundaries": null,
  "band_gap": 0.0,
  "cbm": null,
  "vbm": null,
  "efermi": 5.8054455,
  "is_gap_direct": null,
  "is_metal": null,
  "es_source_calc_id": null,
  "bandstructure": null,
  "dos": null,
  "dos_energy_up": null,
  "dos_energy_down": null,
  "is_magnetic": null,
  "ordering": null,
  "total_magnetization": 4.2447108,
  "total_magnetization_normalized_vol": null,
  "total_magnetization_normalized_formula_units": null,
  "num_magnetic_sites": null,
  "num_unique_magnetic_sites": null,
  "types_of_magnetic_species": null,
  "bulk_modulus": null,
  "shear_modulus": null,
  "universal_anisotropy": null,
  "homogeneous_poisson": null,
  "e_total": null,
  "e_ionic": null,
  "e_electronic": null,
  "n": null,
  "e_ij_max": null,
  "weighted_surface_energy_EV_PER_ANG2": null,
  "weighted_surface_energy": null,
  "weighted_work_function": null,
  "surface_anisotropy": null,
  "shape_factor": null,
  "has_reconstructed": null,
  "possible_species": null,
  "has_props": null,
  "theoretical": null,
  "database_IDs": null,
  "fields_not_requested": [
    "builder_meta",
    "nsites",
    "elements",
    "nelements",
    "composition",
    "composition_reduced",
    "chemsys",
    "symmetry",
    "property_name",
    "deprecated",
    "deprecation_reasons",
    "last_updated",
    "origins",
    "warnings",
    "task_ids",
    "uncorrected_energy_per_atom",
    "equilibrium_reaction_energy_per_atom",
    "decomposes_to",
    "xas",
    "grain_boundaries",
    "cbm",
    "vbm",
    "is_gap_direct",
    "is_metal",
    "es_source_calc_id",
    "bandstructure",
    "dos",
    "dos_energy_up",
    "dos_energy_down",
    "is_magnetic",
    "ordering",
    "total_magnetization_normalized_vol",
    "total_magnetization_normalized_formula_units",
    "num_magnetic_sites",
    "num_unique_magnetic_sites",
    "types_of_magnetic_species",
    "bulk_modulus",
    "shear_modulus",
    "universal_anisotropy",
    "homogeneous_poisson",
    "e_total",
    "e_ionic",
    "e_electronic",
    "n",
    "e_ij_max",
    "weighted_surface_energy_EV_PER_ANG2",
    "weighted_surface_energy",
    "weighted_work_function",
    "surface_anisotropy",
    "shape_factor",
    "has_reconstructed",
    "possible_species",
    "has_props",
    "theoretical",
    "database_IDs"
  ]
}
