{
  "builder_meta": null,
  "nsites": null,
  "elements": null,
  "nelements": null,
  "composition": null,
  "composition_reduced": null,
  "formula_pretty": "Fe3S",
  "formula_anonymous": "AB3",
  "chemsys": null,
  "volume": 185.95008670863126,
  "density": 7.129732576305925,
  "density_atomic": 11.621880419289454,
  "symmetry": null,
  "property_name": null,
  "material_id": "mp-1189032",
  "deprecated": null,
  "deprecation_reasons": null,
  "last_updated": null,
  "origins": null,
  "warnings": null,
  "structure": {
    "@module": "pymatgen.core.structure",
    "@class": "Structure",
    "charge": 0,
    "lattice": {
      "matrix": [
        [0.0, 0.0, 5.336413],
        [4.9659379999999995, 0.0, 0.0],
        [0.0, 7.016906, 0.0]
      ],
      "pbc": [true, true, true],
      "a": 5.336413,
      "b": 4.9659379999999995,
      "c": 7.016906,
      "alpha": 90.0,
      "beta": 90.0,
      "gamma": 90.0,
      "volume": 185.95008670863126
    },
    "properties": {},
    "sites": [
      {
        "species": [{ "element": "Fe", "occu": 1 }],
        "abc": [0.096834999999999, 0.7332000000000001, 0.052101999999999],
        "properties": { "magmom": 2.249 },
        "label": "Fe",
        "xyz": [3.6410257416, 0.365594836411993, 0.5167515528549947]
      },
      {
        "species": [{ "element": "Fe", "occu": 1 }],
        "abc": [0.403165, 0.23320000000000002, 0.447897999999999],
        "properties": { "magmom": 2.249 },
        "label": "Fe",
        "xyz": [1.1580567416, 3.142858163587993, 2.151454947145]
      },
      {
        "species": [{ "element": "Fe", "occu": 1 }],
        "abc": [0.903165, 0.26680000000000004, 0.552102],
        "properties": { "magmom": 2.249 },
        "label": "Fe",
        "xyz": [1.3249122584000002, 3.8740478364119997, 4.819661447145]
      },
      {
        "species": [{ "element": "Fe", "occu": 1 }],
        "abc": [0.596835, 0.7668, 0.947897999999999],
        "properties": { "magmom": 2.249 },
        "label": "Fe",
        "xyz": [3.8078812583999997, 6.651311163587993, 3.1849580528550003]
      },
      {
        "species": [{ "element": "Fe", "occu": 1 }],
        "abc": [0.903165, 0.26680000000000004, 0.947897999999999],
        "properties": { "magmom": 2.249 },
        "label": "Fe",
        "xyz": [1.3249122584000002, 6.651311163587993, 4.819661447145]
      },
      {
        "species": [{ "element": "Fe", "occu": 1 }],
        "abc": [0.596835, 0.7668, 0.552102],
        "properties": { "magmom": 2.249 },
        "label": "Fe",
        "xyz": [3.8078812583999997, 3.8740478364119997, 3.1849580528550003]
      },
      {
        "species": [{ "element": "Fe", "occu": 1 }],
        "abc": [0.096834999999999, 0.7332000000000001, 0.447897999999999],
        "properties": { "magmom": 2.249 },
        "label": "Fe",
        "xyz": [3.6410257416, 3.142858163587993, 0.5167515528549947]
      },
      {
        "species": [{ "element": "Fe", "occu": 1 }],
        "abc": [0.403165, 0.23320000000000002, 0.052101999999999],
        "properties": { "magmom": 2.249 },
        "label": "Fe",
        "xyz": [1.1580567416, 0.365594836411993, 2.151454947145]
      },
      {
        "species": [{ "element": "Fe", "occu": 1 }],
        "abc": [0.706016, 0.530789, 0.25],
        "properties": { "magmom": 2.049 },
        "label": "Fe",
        "xyz": [2.6358652650819994, 1.7542265, 3.767592960608]
      },
      {
        "species": [{ "element": "Fe", "occu": 1 }],
        "abc": [0.793983999999999, 0.030788999999999, 0.25],
        "properties": { "magmom": 2.049 },
        "label": "Fe",
        "xyz": [0.15289626508199503, 1.7542265, 4.237026539391995]
      },
      {
        "species": [{ "element": "Fe", "occu": 1 }],
        "abc": [0.293983999999999, 0.469211, 0.75],
        "properties": { "magmom": 2.049 },
        "label": "Fe",
        "xyz": [2.3300727349179997, 5.2626795, 1.5688200393919949]
      },
      {
        "species": [{ "element": "Fe", "occu": 1 }],
        "abc": [0.206015999999999, 0.969210999999999, 0.75],
        "properties": { "magmom": 2.049 },
        "label": "Fe",
        "xyz": [4.813041734917995, 5.2626795, 1.0993864606079948]
      },
      {
        "species": [{ "element": "S", "occu": 1 }],
        "abc": [0.082598999999999, 0.345898, 0.25],
        "properties": { "magmom": -0.004 },
        "label": "S",
        "xyz": [1.7177080223239998, 1.7542265, 0.4407823773869947]
      },
      {
        "species": [{ "element": "S", "occu": 1 }],
        "abc": [0.417400999999999, 0.845897999999999, 0.25],
        "properties": { "magmom": -0.004 },
        "label": "S",
        "xyz": [4.200677022323995, 1.7542265, 2.227424122612995]
      },
      {
        "species": [{ "element": "S", "occu": 1 }],
        "abc": [0.917400999999999, 0.654102, 0.75],
        "properties": { "magmom": -0.004 },
        "label": "S",
        "xyz": [3.2482299776759995, 5.2626795, 4.895630622612995]
      },
      {
        "species": [{ "element": "S", "occu": 1 }],
        "abc": [0.582599, 0.154102, 0.75],
        "properties": { "magmom": -0.004 },
        "label": "S",
        "xyz": [0.7652609776759999, 5.2626795, 3.108988877387]
      }
    ]
  },
  "task_ids": null,
  "uncorrected_energy_per_atom": null,
  "energy_per_atom": -7.602136090625,
  "formation_energy_per_atom": -0.215030291249998,
  "energy_above_hull": 0.16344976062500002,
  "is_stable": false,
  "equilibrium_reaction_energy_per_atom": null,
  "decomposes_to": null,
  "xas": null,
  "grain_boundaries": null,
  "band_gap": 0.0,
  "cbm": null,
  "vbm": null,
  "efermi": 7.41226259,
  "is_gap_direct": null,
  "is_metal": null,
  "es_source_calc_id": null,
  "bandstructure": null,
  "dos": null,
  "dos_energy_up": null,
  "dos_energy_down": null,
  "is_magnetic": null,
  "ordering": null,
  "total_magnetization": 25.7566429,
  "total_magnetization_normalized_vol": null,
  "total_magnetization_normalized_formula_units": null,
  "num_magnetic_sites": null,
  "num_unique_magnetic_sites": null,
  "types_of_magnetic_species": null,
  "bulk_modulus": null,
  "shear_modulus": null,
  "universal_anisotropy": null,
  "homogeneous_poisson": null,
  "e_total": null,
  "e_ionic": null,
  "e_electronic": null,
  "n": null,
  "e_ij_max": null,
  "weighted_surface_energy_EV_PER_ANG2": null,
  "weighted_surface_energy": null,
  "weighted_work_function": null,
  "surface_anisotropy": null,
  "shape_factor": null,
  "has_reconstructed": null,
  "possible_species": null,
  "has_props": null,
  "theoretical": null,
  "database_IDs": null,
  "fields_not_requested": [
    "builder_meta",
    "nsites",
    "elements",
    "nelements",
    "composition",
    "composition_reduced",
    "chemsys",
    "symmetry",
    "property_name",
    "deprecated",
    "deprecation_reasons",
    "last_updated",
    "origins",
    "warnings",
    "task_ids",
    "uncorrected_energy_per_atom",
    "equilibrium_reaction_energy_per_atom",
    "decomposes_to",
    "xas",
    "grain_boundaries",
    "cbm",
    "vbm",
    "is_gap_direct",
    "is_metal",
    "es_source_calc_id",
    "bandstructure",
    "dos",
    "dos_energy_up",
    "dos_energy_down",
    "is_magnetic",
    "ordering",
    "total_magnetization_normalized_vol",
    "total_magnetization_normalized_formula_units",
    "num_magnetic_sites",
    "num_unique_magnetic_sites",
    "types_of_magnetic_species",
    "bulk_modulus",
    "shear_modulus",
    "universal_anisotropy",
    "homogeneous_poisson",
    "e_total",
    "e_ionic",
    "e_electronic",
    "n",
    "e_ij_max",
    "weighted_surface_energy_EV_PER_ANG2",
    "weighted_surface_energy",
    "weighted_work_function",
    "surface_anisotropy",
    "shape_factor",
    "has_reconstructed",
    "possible_species",
    "has_props",
    "theoretical",
    "database_IDs"
  ]
}
