{
  "builder_meta": null,
  "nsites": null,
  "elements": null,
  "nelements": null,
  "composition": null,
  "composition_reduced": null,
  "formula_pretty": "Fe3Sn2",
  "formula_anonymous": "A2B3",
  "chemsys": null,
  "volume": 163.87629355668224,
  "density": 8.206722072127109,
  "density_atomic": 16.387629355668224,
  "symmetry": null,
  "property_name": null,
  "material_id": "mp-27505",
  "deprecated": null,
  "deprecation_reasons": null,
  "last_updated": null,
  "origins": null,
  "warnings": null,
  "structure": {
    "@module": "pymatgen.core.structure",
    "@class": "Structure",
    "charge": 0,
    "lattice": {
      "matrix": [
        [4.98391685, 0.01651833, 5.39263757],
        [2.12141314, 4.50945649, 5.39254433],
        [0.02626082, 0.01657798, 7.34271653]
      ],
      "pbc": [true, true, true],
      "a": 7.343040241229474,
      "b": 7.342692006123022,
      "c": 7.342782204316235,
      "alpha": 42.53851856699523,
      "beta": 42.539322632764815,
      "gamma": 42.53901466337442,
      "volume": 163.87629355668224
    },
    "properties": {},
    "sites": [
      {
        "species": [{ "element": "Fe", "occu": 1 }],
        "abc": [0.60643893, 0.12789059, 0.6064203300000001],
        "properties": { "magmom": 2.612 },
        "label": "Fe",
        "xyz": [3.309675074961794, 0.5967876335583494, 8.41273361501251]
      },
      {
        "species": [{ "element": "Fe", "occu": 1 }],
        "abc": [0.60644918, 0.60642122, 0.12786681],
        "properties": { "magmom": 2.612 },
        "label": "Fe",
        "xyz": [4.312320118634898, 2.7467674073050303, 7.4794036832917445]
      },
      {
        "species": [{ "element": "Fe", "occu": 1 }],
        "abc": [0.12780179, 0.606444099999999, 0.6064579800000001],
        "properties": { "magmom": 2.612 },
        "label": "Fe",
        "xyz": [1.9393980609069772, 2.7468982029722957, 8.412514461680608]
      },
      {
        "species": [{ "element": "Fe", "occu": 1 }],
        "abc": [0.87217629, 0.39353978, 0.39356478],
        "properties": { "magmom": 2.612 },
        "label": "Fe",
        "xyz": [5.192049902152115, 1.7955819198221123, 9.715345954117474]
      },
      {
        "species": [{ "element": "Fe", "occu": 1 }],
        "abc": [0.39360536, 0.8721410900000001, 0.39353752000000003],
        "properties": { "magmom": 2.612 },
        "label": "Fe",
        "xyz": [3.822202572190205, 3.9459080588582327, 9.7152649952081]
      },
      {
        "species": [{ "element": "Fe", "occu": 1 }],
        "abc": [0.39361241, 0.39352528000000003, 0.87214493],
        "properties": { "magmom": 2.612 },
        "label": "Fe",
        "xyz": [2.8194644635029307, 1.795545348762184, 10.6486245816266]
      },
      {
        "species": [{ "element": "Sn", "occu": 1 }],
        "abc": [0.10457294, 0.10464622, 0.10462757],
        "properties": { "magmom": -0.189 },
        "label": "Sn",
        "xyz": [0.7459283096621773, 0.4753594600278666, 1.8964839330990204]
      },
      {
        "species": [{ "element": "Sn", "occu": 1 }],
        "abc": [0.89533759, 0.89538934, 0.89537287],
        "properties": { "magmom": -0.189 },
        "label": "Sn",
        "xyz": [6.385292038303272, 4.067352225644243, 16.23112700728924]
      },
      {
        "species": [{ "element": "Sn", "occu": 1 }],
        "abc": [0.33024368, 0.3302809, 0.33027187],
        "properties": { "magmom": -0.125 },
        "label": "Sn",
        "xyz": [2.355242492638167, 1.5003176625701178, 5.987031589868366]
      },
      {
        "species": [{ "element": "Sn", "occu": 1 }],
        "abc": [0.6697618200000001, 0.66972246, 0.66973435],
        "properties": { "magmom": -0.125 },
        "label": "Sn",
        "xyz": [4.776383020194959, 3.0422504831695387, 12.140960290284035]
      }
    ]
  },
  "task_ids": null,
  "uncorrected_energy_per_atom": null,
  "energy_per_atom": -6.687573390999999,
  "formation_energy_per_atom": -0.001731922999998,
  "energy_above_hull": 0.00044802300000000003,
  "is_stable": false,
  "equilibrium_reaction_energy_per_atom": null,
  "decomposes_to": null,
  "xas": null,
  "grain_boundaries": null,
  "band_gap": 0.0,
  "cbm": null,
  "vbm": null,
  "efermi": 7.76667323,
  "is_gap_direct": null,
  "is_metal": null,
  "es_source_calc_id": null,
  "bandstructure": null,
  "dos": null,
  "dos_energy_up": null,
  "dos_energy_down": null,
  "is_magnetic": null,
  "ordering": null,
  "total_magnetization": 14.5582836,
  "total_magnetization_normalized_vol": null,
  "total_magnetization_normalized_formula_units": null,
  "num_magnetic_sites": null,
  "num_unique_magnetic_sites": null,
  "types_of_magnetic_species": null,
  "bulk_modulus": null,
  "shear_modulus": null,
  "universal_anisotropy": null,
  "homogeneous_poisson": null,
  "e_total": null,
  "e_ionic": null,
  "e_electronic": null,
  "n": null,
  "e_ij_max": null,
  "weighted_surface_energy_EV_PER_ANG2": null,
  "weighted_surface_energy": null,
  "weighted_work_function": null,
  "surface_anisotropy": null,
  "shape_factor": null,
  "has_reconstructed": null,
  "possible_species": null,
  "has_props": null,
  "theoretical": null,
  "database_IDs": null,
  "fields_not_requested": [
    "builder_meta",
    "nsites",
    "elements",
    "nelements",
    "composition",
    "composition_reduced",
    "chemsys",
    "symmetry",
    "property_name",
    "deprecated",
    "deprecation_reasons",
    "last_updated",
    "origins",
    "warnings",
    "task_ids",
    "uncorrected_energy_per_atom",
    "equilibrium_reaction_energy_per_atom",
    "decomposes_to",
    "xas",
    "grain_boundaries",
    "cbm",
    "vbm",
    "is_gap_direct",
    "is_metal",
    "es_source_calc_id",
    "bandstructure",
    "dos",
    "dos_energy_up",
    "dos_energy_down",
    "is_magnetic",
    "ordering",
    "total_magnetization_normalized_vol",
    "total_magnetization_normalized_formula_units",
    "num_magnetic_sites",
    "num_unique_magnetic_sites",
    "types_of_magnetic_species",
    "bulk_modulus",
    "shear_modulus",
    "universal_anisotropy",
    "homogeneous_poisson",
    "e_total",
    "e_ionic",
    "e_electronic",
    "n",
    "e_ij_max",
    "weighted_surface_energy_EV_PER_ANG2",
    "weighted_surface_energy",
    "weighted_work_function",
    "surface_anisotropy",
    "shape_factor",
    "has_reconstructed",
    "possible_species",
    "has_props",
    "theoretical",
    "database_IDs"
  ]
}
