{"builder_meta": null, "nsites": null, "elements": null, "nelements": null, "composition": null, "composition_reduced": null, "formula_pretty": "Fe4C", "formula_anonymous": "AB4", "chemsys": null, "volume": 99.24947323123828, "density": 7.876625246234445, "density_atomic": 9.924947323123828, "symmetry": null, "property_name": null, "material_id": "mp-1078579", "deprecated": null, "deprecation_reasons": null, "last_updated": null, "origins": null, "warnings": null, "structure": {"@module": "pymatgen.core.structure", "@class": "Structure", "charge": 0, "lattice": {"matrix": [[2.652815, 0.0, 0.0], [0.0, 6.008291, 0.0], [0.0, 1.231651, 6.226877]], "pbc": [true, true, true], "a": 2.652815, "b": 6.008291, "c": 6.34751615664978, "alpha": 78.81154502450461, "beta": 90.0, "gamma": 90.0, "volume": 99.24947323123828}, "properties": {}, "sites": [{"species": [{"element": "Fe", "occu": 1}], "abc": [0.75, 0.104502, 0.820136], "properties": {"magmom": 1.924}, "label": "Fe", "xyz": [1.9896112499999998, 1.637999750618, 5.106885995272]}, {"species": [{"element": "Fe", "occu": 1}], "abc": [0.25, 0.895497999999999, 0.179864], "properties": {"magmom": 1.924}, "label": "Fe", "xyz": [0.66320375, 5.6019422493819935, 1.119991004728]}, {"species": [{"element": "Fe", "occu": 1}], "abc": [0.75, 0.827044999999999, 0.534809], "properties": {"magmom": 1.705}, "label": "Fe", "xyz": [1.9896112499999998, 5.627825069753994, 3.330189861493]}, {"species": [{"element": "Fe", "occu": 1}], "abc": [0.25, 0.172955, 0.465190999999999], "properties": {"magmom": 1.705}, "label": "Fe", "xyz": [0.66320375, 1.6121169302459988, 2.896687138506994]}, {"species": [{"element": "Fe", "occu": 1}], "abc": [0.25, 0.316065, 0.064266999999999], "properties": {"magmom": 1.566}, "label": "Fe", "xyz": [0.66320375, 1.9781650097319987, 0.4001827041589938]}, {"species": [{"element": "Fe", "occu": 1}], "abc": [0.75, 0.683935, 0.935732999999999], "properties": {"magmom": 1.566}, "label": "Fe", "xyz": [1.9896112499999998, 5.2617769902679985, 5.826694295840994]}, {"species": [{"element": "Fe", "occu": 1}], "abc": [0.25, 0.477607, 0.682790999999999], "properties": {"magmom": 2.507}, "label": "Fe", "xyz": [0.66320375, 3.7105620575779987, 4.251655573706994]}, {"species": [{"element": "Fe", "occu": 1}], "abc": [0.75, 0.522393, 0.317208999999999], "properties": {"magmom": 2.507}, "label": "Fe", "xyz": [1.9896112499999998, 3.5293799424219987, 1.975221426292994]}, {"species": [{"element": "C", "occu": 1}], "abc": [0.25, 0.876854999999999, 0.753356999999999], "properties": {"magmom": -0.13}, "label": "C", "xyz": [0.66320375, 6.196272907211993, 4.691061376088994]}, {"species": [{"element": "C", "occu": 1}], "abc": [0.75, 0.123144999999999, 0.246643], "properties": {"magmom": -0.13}, "label": "C", "xyz": [1.9896112499999998, 1.0436690927879941, 1.535815623911]}]}, "task_ids": null, "uncorrected_energy_per_atom": null, "energy_per_atom": -8.489211501, "formation_energy_per_atom": 0.1325385655, "energy_above_hull": 0.1325385655, "is_stable": false, "equilibrium_reaction_energy_per_atom": null, "decomposes_to": null, "xas": null, "grain_boundaries": null, "band_gap": 0.0, "cbm": null, "vbm": null, "efermi": 6.24710122, "is_gap_direct": null, "is_metal": null, "es_source_calc_id": null, "bandstructure": null, "dos": null, "dos_energy_up": null, "dos_energy_down": null, "is_magnetic": null, "ordering": null, "total_magnetization": 14.9345267, "total_magnetization_normalized_vol": null, "total_magnetization_normalized_formula_units": null, "num_magnetic_sites": null, "num_unique_magnetic_sites": null, "types_of_magnetic_species": null, "bulk_modulus": null, "shear_modulus": null, "universal_anisotropy": null, "homogeneous_poisson": null, "e_total": null, "e_ionic": null, "e_electronic": null, "n": null, "e_ij_max": null, "weighted_surface_energy_EV_PER_ANG2": null, "weighted_surface_energy": null, "weighted_work_function": null, "surface_anisotropy": null, "shape_factor": null, "has_reconstructed": null, "possible_species": null, "has_props": null, "theoretical": null, "database_IDs": null, "fields_not_requested": ["builder_meta", "nsites", "elements", "nelements", "composition", "composition_reduced", "chemsys", "symmetry", "property_name", "deprecated", "deprecation_reasons", "last_updated", "origins", "warnings", "task_ids", "uncorrected_energy_per_atom", "equilibrium_reaction_energy_per_atom", "decomposes_to", "xas", "grain_boundaries", "cbm", "vbm", "is_gap_direct", "is_metal", "es_source_calc_id", "bandstructure", "dos", "dos_energy_up", "dos_energy_down", "is_magnetic", "ordering", "total_magnetization_normalized_vol", "total_magnetization_normalized_formula_units", "num_magnetic_sites", "num_unique_magnetic_sites", "types_of_magnetic_species", "bulk_modulus", "shear_modulus", "universal_anisotropy", "homogeneous_poisson", "e_total", "e_ionic", "e_electronic", "n", "e_ij_max", "weighted_surface_energy_EV_PER_ANG2", "weighted_surface_energy", "weighted_work_function", "surface_anisotropy", "shape_factor", "has_reconstructed", "possible_species", "has_props", "theoretical", "database_IDs"]}