{"builder_meta": null, "nsites": null, "elements": null, "nelements": null, "composition": null, "composition_reduced": null, "formula_pretty": "Fe4Mo", "formula_anonymous": "AB4", "chemsys": null, "volume": 62.641065178715074, "density": 8.464787966710443, "density_atomic": 12.528213035743015, "symmetry": null, "property_name": null, "material_id": "mp-1225226", "deprecated": null, "deprecation_reasons": null, "last_updated": null, "origins": null, "warnings": null, "structure": {"@module": "pymatgen.core.structure", "@class": "Structure", "charge": 0, "lattice": {"matrix": [[-1.303698, 1.303698, 9.213935], [1.303698, -1.303698, 9.213935], [1.303698, 1.303698, -9.213935]], "pbc": [true, true, true], "a": 9.396587419623838, "b": 9.396587419623838, "c": 9.396587419623838, "alpha": 164.04992552183808, "beta": 164.04992552183808, "gamma": 22.63087118937733, "volume": 62.641065178715074}, "properties": {}, "sites": [{"species": [{"element": "Fe", "occu": 1}], "abc": [0.388434, 0.388434, 0.0], "properties": {"magmom": 2.238}, "label": "Fe", "xyz": [0.0, 0.0, 7.158011255579999]}, {"species": [{"element": "Fe", "occu": 1}], "abc": [0.794146, 0.794146, 0.0], "properties": {"magmom": 2.291}, "label": "Fe", "xyz": [0.0, 0.0, 14.634419249019999]}, {"species": [{"element": "Fe", "occu": 1}], "abc": [0.205853999999999, 0.205853999999999, 0.0], "properties": {"magmom": 2.291}, "label": "Fe", "xyz": [0.0, 0.0, 3.7934507509799813]}, {"species": [{"element": "Fe", "occu": 1}], "abc": [0.611565999999999, 0.611565999999999, 0.0], "properties": {"magmom": 2.238}, "label": "Fe", "xyz": [0.0, 0.0, 11.269858744419981]}, {"species": [{"element": "Mo", "occu": 1}], "abc": [0.0, 0.0, 0.0], "properties": {"magmom": -0.28700000000000003}, "label": "Mo", "xyz": [0.0, 0.0, 0.0]}]}, "task_ids": null, "uncorrected_energy_per_atom": null, "energy_per_atom": -8.76482551, "formation_energy_per_atom": 0.18032148, "energy_above_hull": 0.182448834, "is_stable": false, "equilibrium_reaction_energy_per_atom": null, "decomposes_to": null, "xas": null, "grain_boundaries": null, "band_gap": 0.0, "cbm": null, "vbm": null, "efermi": 5.87111132, "is_gap_direct": null, "is_metal": null, "es_source_calc_id": null, "bandstructure": null, "dos": null, "dos_energy_up": null, "dos_energy_down": null, "is_magnetic": null, "ordering": null, "total_magnetization": 8.7228244, "total_magnetization_normalized_vol": null, "total_magnetization_normalized_formula_units": null, "num_magnetic_sites": null, "num_unique_magnetic_sites": null, "types_of_magnetic_species": null, "bulk_modulus": null, "shear_modulus": null, "universal_anisotropy": null, "homogeneous_poisson": null, "e_total": null, "e_ionic": null, "e_electronic": null, "n": null, "e_ij_max": null, "weighted_surface_energy_EV_PER_ANG2": null, "weighted_surface_energy": null, "weighted_work_function": null, "surface_anisotropy": null, "shape_factor": null, "has_reconstructed": null, "possible_species": null, "has_props": null, "theoretical": null, "database_IDs": null, "fields_not_requested": ["builder_meta", "nsites", "elements", "nelements", "composition", "composition_reduced", "chemsys", "symmetry", "property_name", "deprecated", "deprecation_reasons", "last_updated", "origins", "warnings", "task_ids", "uncorrected_energy_per_atom", "equilibrium_reaction_energy_per_atom", "decomposes_to", "xas", "grain_boundaries", "cbm", "vbm", "is_gap_direct", "is_metal", "es_source_calc_id", "bandstructure", "dos", "dos_energy_up", "dos_energy_down", "is_magnetic", "ordering", "total_magnetization_normalized_vol", "total_magnetization_normalized_formula_units", "num_magnetic_sites", "num_unique_magnetic_sites", "types_of_magnetic_species", "bulk_modulus", "shear_modulus", "universal_anisotropy", "homogeneous_poisson", "e_total", "e_ionic", "e_electronic", "n", "e_ij_max", "weighted_surface_energy_EV_PER_ANG2", "weighted_surface_energy", "weighted_work_function", "surface_anisotropy", "shape_factor", "has_reconstructed", "possible_species", "has_props", "theoretical", "database_IDs"]}