{
  "builder_meta": null,
  "nsites": null,
  "elements": null,
  "nelements": null,
  "composition": null,
  "composition_reduced": null,
  "formula_pretty": "Fe4O5",
  "formula_anonymous": "A4B5",
  "chemsys": null,
  "volume": 189.26723233246906,
  "density": 5.323365848378666,
  "density_atomic": 10.514846240692727,
  "symmetry": null,
  "property_name": null,
  "material_id": "mp-1188678",
  "deprecated": null,
  "deprecation_reasons": null,
  "last_updated": null,
  "origins": null,
  "warnings": null,
  "structure": {
    "@module": "pymatgen.core.structure",
    "@class": "Structure",
    "charge": 0,
    "lattice": {
      "matrix": [
        [1.453759, -5.08328, 0.0],
        [1.453759, 5.08328, 0.0],
        [0.0, 0.0, 12.805867]
      ],
      "pbc": [true, true, true],
      "a": 5.287073934463278,
      "b": 5.287073934463278,
      "c": 12.805867,
      "alpha": 90.0,
      "beta": 90.0,
      "gamma": 148.08017214795862,
      "volume": 189.26723233246906
    },
    "properties": {},
    "sites": [
      {
        "species": [{ "element": "Fe", "occu": 1 }],
        "abc": [0.0, 0.0, 0.5],
        "properties": { "magmom": 4.355 },
        "label": "Fe",
        "xyz": [0.0, 0.0, 6.4029335]
      },
      {
        "species": [{ "element": "Fe", "occu": 1 }],
        "abc": [0.0, 0.0, 0.0],
        "properties": { "magmom": 4.355 },
        "label": "Fe",
        "xyz": [0.0, 0.0, 0.0]
      },
      {
        "species": [{ "element": "Fe", "occu": 1 }],
        "abc": [0.738779, 0.261221, 0.384677],
        "properties": { "magmom": 3.814 },
        "label": "Fe",
        "xyz": [1.4537589999999998, -2.4275610302399997, 4.926122499959]
      },
      {
        "species": [{ "element": "Fe", "occu": 1 }],
        "abc": [0.261221, 0.738779, 0.615323],
        "properties": { "magmom": 3.814 },
        "label": "Fe",
        "xyz": [1.4537589999999998, 2.4275610302399997, 7.879744500040999]
      },
      {
        "species": [{ "element": "Fe", "occu": 1 }],
        "abc": [0.738779, 0.261221, 0.115323],
        "properties": { "magmom": 3.814 },
        "label": "Fe",
        "xyz": [1.4537589999999998, -2.4275610302399997, 1.4768110000409997]
      },
      {
        "species": [{ "element": "Fe", "occu": 1 }],
        "abc": [0.261221, 0.738779, 0.884676999999999],
        "properties": { "magmom": 3.814 },
        "label": "Fe",
        "xyz": [1.4537589999999998, 2.4275610302399997, 11.329055999958987]
      },
      {
        "species": [{ "element": "Fe", "occu": 1 }],
        "abc": [0.495100999999999, 0.504899, 0.25],
        "properties": { "magmom": 4.324 },
        "label": "Fe",
        "xyz": [1.4537589999999985, 0.049805977440005034, 3.20146675]
      },
      {
        "species": [{ "element": "Fe", "occu": 1 }],
        "abc": [0.504899, 0.495100999999999, 0.75],
        "properties": { "magmom": 4.324 },
        "label": "Fe",
        "xyz": [1.4537589999999985, -0.049805977440005034, 9.60440025]
      },
      {
        "species": [{ "element": "O", "occu": 1 }],
        "abc": [0.850410999999999, 0.149589, 0.25],
        "properties": { "magmom": 0.241 },
        "label": "O",
        "xyz": [1.4537589999999987, -3.562474456159995, 3.20146675]
      },
      {
        "species": [{ "element": "O", "occu": 1 }],
        "abc": [0.149589, 0.850410999999999, 0.75],
        "properties": { "magmom": 0.241 },
        "label": "O",
        "xyz": [1.4537589999999987, 3.562474456159995, 9.60440025]
      },
      {
        "species": [{ "element": "O", "occu": 1 }],
        "abc": [0.632083, 0.367917, 0.963758999999999],
        "properties": { "magmom": 0.257 },
        "label": "O",
        "xyz": [1.453759, -1.3428297444799997, 12.341769574052988]
      },
      {
        "species": [{ "element": "O", "occu": 1 }],
        "abc": [0.367917, 0.632083, 0.036240999999999],
        "properties": { "magmom": 0.257 },
        "label": "O",
        "xyz": [1.453759, 1.3428297444799997, 0.4640974259469872]
      },
      {
        "species": [{ "element": "O", "occu": 1 }],
        "abc": [0.632083, 0.367917, 0.536241],
        "properties": { "magmom": 0.257 },
        "label": "O",
        "xyz": [1.453759, -1.3428297444799997, 6.867030925946999]
      },
      {
        "species": [{ "element": "O", "occu": 1 }],
        "abc": [0.367917, 0.632083, 0.463759],
        "properties": { "magmom": 0.257 },
        "label": "O",
        "xyz": [1.453759, 1.3428297444799997, 5.9388360740529995]
      },
      {
        "species": [{ "element": "O", "occu": 1 }],
        "abc": [0.919276, 0.080723999999999, 0.851341999999999],
        "properties": { "magmom": 0.28 },
        "label": "O",
        "xyz": [1.4537589999999985, -4.262594610560005, 10.902172423513987]
      },
      {
        "species": [{ "element": "O", "occu": 1 }],
        "abc": [0.080723999999999, 0.919276, 0.148657999999999],
        "properties": { "magmom": 0.28 },
        "label": "O",
        "xyz": [1.4537589999999985, 4.262594610560005, 1.9036945764859872]
      },
      {
        "species": [{ "element": "O", "occu": 1 }],
        "abc": [0.919276, 0.080723999999999, 0.648658],
        "properties": { "magmom": 0.28 },
        "label": "O",
        "xyz": [1.4537589999999985, -4.262594610560005, 8.306628076486]
      },
      {
        "species": [{ "element": "O", "occu": 1 }],
        "abc": [0.080723999999999, 0.919276, 0.351342],
        "properties": { "magmom": 0.28 },
        "label": "O",
        "xyz": [1.4537589999999985, 4.262594610560005, 4.499238923514]
      }
    ]
  },
  "task_ids": null,
  "uncorrected_energy_per_atom": null,
  "energy_per_atom": -8.032558260555556,
  "formation_energy_per_atom": -1.519237164444444,
  "energy_above_hull": 0.08759998166666501,
  "is_stable": false,
  "equilibrium_reaction_energy_per_atom": null,
  "decomposes_to": null,
  "xas": null,
  "grain_boundaries": null,
  "band_gap": 0.0,
  "cbm": null,
  "vbm": null,
  "efermi": 3.1910806,
  "is_gap_direct": null,
  "is_metal": null,
  "es_source_calc_id": null,
  "bandstructure": null,
  "dos": null,
  "dos_energy_up": null,
  "dos_energy_down": null,
  "is_magnetic": null,
  "ordering": null,
  "total_magnetization": 36.0003149,
  "total_magnetization_normalized_vol": null,
  "total_magnetization_normalized_formula_units": null,
  "num_magnetic_sites": null,
  "num_unique_magnetic_sites": null,
  "types_of_magnetic_species": null,
  "bulk_modulus": null,
  "shear_modulus": null,
  "universal_anisotropy": null,
  "homogeneous_poisson": null,
  "e_total": null,
  "e_ionic": null,
  "e_electronic": null,
  "n": null,
  "e_ij_max": null,
  "weighted_surface_energy_EV_PER_ANG2": null,
  "weighted_surface_energy": null,
  "weighted_work_function": null,
  "surface_anisotropy": null,
  "shape_factor": null,
  "has_reconstructed": null,
  "possible_species": null,
  "has_props": null,
  "theoretical": null,
  "database_IDs": null,
  "fields_not_requested": [
    "builder_meta",
    "nsites",
    "elements",
    "nelements",
    "composition",
    "composition_reduced",
    "chemsys",
    "symmetry",
    "property_name",
    "deprecated",
    "deprecation_reasons",
    "last_updated",
    "origins",
    "warnings",
    "task_ids",
    "uncorrected_energy_per_atom",
    "equilibrium_reaction_energy_per_atom",
    "decomposes_to",
    "xas",
    "grain_boundaries",
    "cbm",
    "vbm",
    "is_gap_direct",
    "is_metal",
    "es_source_calc_id",
    "bandstructure",
    "dos",
    "dos_energy_up",
    "dos_energy_down",
    "is_magnetic",
    "ordering",
    "total_magnetization_normalized_vol",
    "total_magnetization_normalized_formula_units",
    "num_magnetic_sites",
    "num_unique_magnetic_sites",
    "types_of_magnetic_species",
    "bulk_modulus",
    "shear_modulus",
    "universal_anisotropy",
    "homogeneous_poisson",
    "e_total",
    "e_ionic",
    "e_electronic",
    "n",
    "e_ij_max",
    "weighted_surface_energy_EV_PER_ANG2",
    "weighted_surface_energy",
    "weighted_work_function",
    "surface_anisotropy",
    "shape_factor",
    "has_reconstructed",
    "possible_species",
    "has_props",
    "theoretical",
    "database_IDs"
  ]
}
