{
  "builder_meta": null,
  "nsites": null,
  "elements": null,
  "nelements": null,
  "composition": null,
  "composition_reduced": null,
  "formula_pretty": "Fe4Sb3",
  "formula_anonymous": "A3B4",
  "chemsys": null,
  "volume": 139.33346617056088,
  "density": 7.015492787268979,
  "density_atomic": 19.904780881508696,
  "symmetry": null,
  "property_name": null,
  "material_id": "mp-1225139",
  "deprecated": null,
  "deprecation_reasons": null,
  "last_updated": null,
  "origins": null,
  "warnings": null,
  "structure": {
    "@module": "pymatgen.core.structure",
    "@class": "Structure",
    "charge": 0,
    "lattice": {
      "matrix": [
        [2.034339, -3.523578, 0.0],
        [2.034339, 3.523578, 0.0],
        [0.0, 0.0, 9.718925]
      ],
      "pbc": [true, true, true],
      "a": 4.068677560215973,
      "b": 4.068677560215973,
      "c": 9.718925,
      "alpha": 90.0,
      "beta": 90.0,
      "gamma": 119.99999284881214,
      "volume": 139.33346617056088
    },
    "properties": {},
    "sites": [
      {
        "species": [{ "element": "Fe", "occu": 1 }],
        "abc": [0.666667, 0.333333, 0.12301000000000001],
        "properties": { "magmom": 2.513 },
        "label": "Fe",
        "xyz": [2.034339, -1.174528349052, 1.19552496425]
      },
      {
        "species": [{ "element": "Fe", "occu": 1 }],
        "abc": [0.666667, 0.333333, 0.627587999999999],
        "properties": { "magmom": 1.6320000000000001 },
        "label": "Fe",
        "xyz": [2.034339, -1.174528349052, 6.099480702899991]
      },
      {
        "species": [{ "element": "Fe", "occu": 1 }],
        "abc": [0.666667, 0.333333, 0.372411999999999],
        "properties": { "magmom": 1.633 },
        "label": "Fe",
        "xyz": [2.034339, -1.174528349052, 3.6194442970999905]
      },
      {
        "species": [{ "element": "Fe", "occu": 1 }],
        "abc": [0.666667, 0.333333, 0.87699],
        "properties": { "magmom": 2.513 },
        "label": "Fe",
        "xyz": [2.034339, -1.174528349052, 8.52340003575]
      },
      {
        "species": [{ "element": "Sb", "occu": 1 }],
        "abc": [0.333333, 0.666667, 0.5],
        "properties": { "magmom": -0.091 },
        "label": "Sb",
        "xyz": [2.034339, 1.174528349052, 4.8594625]
      },
      {
        "species": [{ "element": "Sb", "occu": 1 }],
        "abc": [0.0, 0.0, 0.240725],
        "properties": { "magmom": -0.096 },
        "label": "Sb",
        "xyz": [0.0, 0.0, 2.339588220625]
      },
      {
        "species": [{ "element": "Sb", "occu": 1 }],
        "abc": [0.0, 0.0, 0.759274999999999],
        "properties": { "magmom": -0.096 },
        "label": "Sb",
        "xyz": [0.0, 0.0, 7.379336779374991]
      }
    ]
  },
  "task_ids": null,
  "uncorrected_energy_per_atom": null,
  "energy_per_atom": -6.255909532857143,
  "formation_energy_per_atom": 0.353674547142857,
  "energy_above_hull": 0.45396270428571206,
  "is_stable": false,
  "equilibrium_reaction_energy_per_atom": null,
  "decomposes_to": null,
  "xas": null,
  "grain_boundaries": null,
  "band_gap": 0.0,
  "cbm": null,
  "vbm": null,
  "efermi": 6.23335186,
  "is_gap_direct": null,
  "is_metal": null,
  "es_source_calc_id": null,
  "bandstructure": null,
  "dos": null,
  "dos_energy_up": null,
  "dos_energy_down": null,
  "is_magnetic": null,
  "ordering": null,
  "total_magnetization": 7.9805041,
  "total_magnetization_normalized_vol": null,
  "total_magnetization_normalized_formula_units": null,
  "num_magnetic_sites": null,
  "num_unique_magnetic_sites": null,
  "types_of_magnetic_species": null,
  "bulk_modulus": null,
  "shear_modulus": null,
  "universal_anisotropy": null,
  "homogeneous_poisson": null,
  "e_total": null,
  "e_ionic": null,
  "e_electronic": null,
  "n": null,
  "e_ij_max": null,
  "weighted_surface_energy_EV_PER_ANG2": null,
  "weighted_surface_energy": null,
  "weighted_work_function": null,
  "surface_anisotropy": null,
  "shape_factor": null,
  "has_reconstructed": null,
  "possible_species": null,
  "has_props": null,
  "theoretical": null,
  "database_IDs": null,
  "fields_not_requested": [
    "builder_meta",
    "nsites",
    "elements",
    "nelements",
    "composition",
    "composition_reduced",
    "chemsys",
    "symmetry",
    "property_name",
    "deprecated",
    "deprecation_reasons",
    "last_updated",
    "origins",
    "warnings",
    "task_ids",
    "uncorrected_energy_per_atom",
    "equilibrium_reaction_energy_per_atom",
    "decomposes_to",
    "xas",
    "grain_boundaries",
    "cbm",
    "vbm",
    "is_gap_direct",
    "is_metal",
    "es_source_calc_id",
    "bandstructure",
    "dos",
    "dos_energy_up",
    "dos_energy_down",
    "is_magnetic",
    "ordering",
    "total_magnetization_normalized_vol",
    "total_magnetization_normalized_formula_units",
    "num_magnetic_sites",
    "num_unique_magnetic_sites",
    "types_of_magnetic_species",
    "bulk_modulus",
    "shear_modulus",
    "universal_anisotropy",
    "homogeneous_poisson",
    "e_total",
    "e_ionic",
    "e_electronic",
    "n",
    "e_ij_max",
    "weighted_surface_energy_EV_PER_ANG2",
    "weighted_surface_energy",
    "weighted_work_function",
    "surface_anisotropy",
    "shape_factor",
    "has_reconstructed",
    "possible_species",
    "has_props",
    "theoretical",
    "database_IDs"
  ]
}
