{
  "builder_meta": null,
  "nsites": null,
  "elements": null,
  "nelements": null,
  "composition": null,
  "composition_reduced": null,
  "formula_pretty": "Fe4Si",
  "formula_anonymous": "AB4",
  "chemsys": null,
  "volume": 58.42299586557684,
  "density": 7.147327528579133,
  "density_atomic": 11.684599173115368,
  "symmetry": null,
  "property_name": null,
  "material_id": "mp-1225135",
  "deprecated": null,
  "deprecation_reasons": null,
  "last_updated": null,
  "origins": null,
  "warnings": null,
  "structure": {
    "@module": "pymatgen.core.structure",
    "@class": "Structure",
    "charge": 0,
    "lattice": {
      "matrix": [
        [0.0, 2.02761, 9.466341],
        [1.521904, 0.0, 9.466341],
        [1.521904, 2.02761, 0.0]
      ],
      "pbc": [true, true, true],
      "a": 9.681054397139858,
      "b": 9.587898816398564,
      "c": 2.5352305806999094,
      "alpha": 84.53216191659915,
      "beta": 80.35719269027217,
      "gamma": 15.11064539312861,
      "volume": 58.42299586557684
    },
    "properties": {},
    "sites": [
      {
        "species": [{ "element": "Fe", "occu": 1 }],
        "abc": [0.405931, 0.405931, 0.594069],
        "properties": { "magmom": 1.963 },
        "label": "Fe",
        "xyz": [1.5219039999999997, 2.02761, 7.685362536942]
      },
      {
        "species": [{ "element": "Fe", "occu": 1 }],
        "abc": [0.802029, 0.802029, 0.197970999999999],
        "properties": { "magmom": 2.559 },
        "label": "Fe",
        "xyz": [1.5219039999999984, 2.027609999999998, 15.184560011778]
      },
      {
        "species": [{ "element": "Fe", "occu": 1 }],
        "abc": [0.197970999999999, 0.197970999999999, 0.802029],
        "properties": { "magmom": 2.559 },
        "label": "Fe",
        "xyz": [1.5219039999999984, 2.027609999999998, 3.7481219882219814]
      },
      {
        "species": [{ "element": "Fe", "occu": 1 }],
        "abc": [0.594069, 0.594069, 0.405931],
        "properties": { "magmom": 1.963 },
        "label": "Fe",
        "xyz": [1.5219039999999997, 2.02761, 11.247319463057998]
      },
      {
        "species": [{ "element": "Si", "occu": 1 }],
        "abc": [0.0, 0.0, 0.0],
        "properties": { "magmom": -0.062 },
        "label": "Si",
        "xyz": [0.0, 0.0, 0.0]
      }
    ]
  },
  "task_ids": null,
  "uncorrected_energy_per_atom": null,
  "energy_per_atom": -7.921627504,
  "formation_energy_per_atom": -0.06054692999999901,
  "energy_above_hull": 0.182708006,
  "is_stable": false,
  "equilibrium_reaction_energy_per_atom": null,
  "decomposes_to": null,
  "xas": null,
  "grain_boundaries": null,
  "band_gap": 0.0,
  "cbm": null,
  "vbm": null,
  "efermi": 6.67034957,
  "is_gap_direct": null,
  "is_metal": null,
  "es_source_calc_id": null,
  "bandstructure": null,
  "dos": null,
  "dos_energy_up": null,
  "dos_energy_down": null,
  "is_magnetic": null,
  "ordering": null,
  "total_magnetization": 8.8318236,
  "total_magnetization_normalized_vol": null,
  "total_magnetization_normalized_formula_units": null,
  "num_magnetic_sites": null,
  "num_unique_magnetic_sites": null,
  "types_of_magnetic_species": null,
  "bulk_modulus": null,
  "shear_modulus": null,
  "universal_anisotropy": null,
  "homogeneous_poisson": null,
  "e_total": null,
  "e_ionic": null,
  "e_electronic": null,
  "n": null,
  "e_ij_max": null,
  "weighted_surface_energy_EV_PER_ANG2": null,
  "weighted_surface_energy": null,
  "weighted_work_function": null,
  "surface_anisotropy": null,
  "shape_factor": null,
  "has_reconstructed": null,
  "possible_species": null,
  "has_props": null,
  "theoretical": null,
  "database_IDs": null,
  "fields_not_requested": [
    "builder_meta",
    "nsites",
    "elements",
    "nelements",
    "composition",
    "composition_reduced",
    "chemsys",
    "symmetry",
    "property_name",
    "deprecated",
    "deprecation_reasons",
    "last_updated",
    "origins",
    "warnings",
    "task_ids",
    "uncorrected_energy_per_atom",
    "equilibrium_reaction_energy_per_atom",
    "decomposes_to",
    "xas",
    "grain_boundaries",
    "cbm",
    "vbm",
    "is_gap_direct",
    "is_metal",
    "es_source_calc_id",
    "bandstructure",
    "dos",
    "dos_energy_up",
    "dos_energy_down",
    "is_magnetic",
    "ordering",
    "total_magnetization_normalized_vol",
    "total_magnetization_normalized_formula_units",
    "num_magnetic_sites",
    "num_unique_magnetic_sites",
    "types_of_magnetic_species",
    "bulk_modulus",
    "shear_modulus",
    "universal_anisotropy",
    "homogeneous_poisson",
    "e_total",
    "e_ionic",
    "e_electronic",
    "n",
    "e_ij_max",
    "weighted_surface_energy_EV_PER_ANG2",
    "weighted_surface_energy",
    "weighted_work_function",
    "surface_anisotropy",
    "shape_factor",
    "has_reconstructed",
    "possible_species",
    "has_props",
    "theoretical",
    "database_IDs"
  ]
}
