{"builder_meta": null, "nsites": null, "elements": null, "nelements": null, "composition": null, "composition_reduced": null, "formula_pretty": "Fe4S5", "formula_anonymous": "A4B5", "chemsys": null, "volume": 629.6110520337843, "density": 2.023970641848148, "density_atomic": 34.978391779654686, "symmetry": null, "property_name": null, "material_id": "mp-850249", "deprecated": null, "deprecation_reasons": null, "last_updated": null, "origins": null, "warnings": null, "structure": {"@module": "pymatgen.core.structure", "@class": "Structure", "charge": 0, "lattice": {"matrix": [[7.8429079999999995, 0.132703, -0.393072], [-0.122076999999999, 7.854016, 0.230848], [0.284298999999999, -0.164268, 10.199464]], "pbc": [true, true, true], "a": 7.853873030540854, "b": 7.858356120798356, "c": 10.204747708028895, "alpha": 89.26431357763967, "beta": 91.28775420986294, "gamma": 90.00550234503208, "volume": 629.6110520337842}, "properties": {}, "sites": [{"species": [{"element": "Fe", "occu": 1}], "abc": [0.292097, 0.096496, 0.996271999999999], "properties": {"magmom": -0.063}, "label": "Fe", "xyz": [2.562349089211999, 0.6329876672310001, 10.068901154831991]}, {"species": [{"element": "Fe", "occu": 1}], "abc": [0.594978999999999, 0.205013, 0.995201999999999], "properties": {"magmom": 0.011}, "label": "Fe", "xyz": [4.924273120328992, 1.5256510383089998, 9.963984227263992]}, {"species": [{"element": "Fe", "occu": 1}], "abc": [0.900884999999999, 0.293827, 0.004510999999999], "properties": {"magmom": 0.001}, "label": "Fe", "xyz": [7.030971127689992, 2.4265310884390003, -0.2402735113200098]}, {"species": [{"element": "Fe", "occu": 1}], "abc": [0.204434999999999, 0.401952, 0.005757], "properties": {"magmom": 0.008}, "label": "Fe", "xyz": [1.5559325120189926, 3.1831208861609994, 0.0711504552240004]}, {"species": [{"element": "Fe", "occu": 1}], "abc": [0.70781, 0.903420999999999, 0.996342], "properties": {"magmom": 0.04}, "label": "Fe", "xyz": [5.724260820321, 7.025744391509992, 10.092486999376]}, {"species": [{"element": "Fe", "occu": 1}], "abc": [0.404802, 0.794549, 0.994856], "properties": {"magmom": 0.024}, "label": "Fe", "xyz": [3.3606652518869997, 6.130695993181999, 10.171301672992]}, {"species": [{"element": "Fe", "occu": 1}], "abc": [0.099234999999999, 0.7061000000000001, 0.004245], "properties": {"magmom": 0.06}, "label": "Fe", "xyz": [0.6932992549349929, 5.558192162145, 0.1672919975600004]}, {"species": [{"element": "Fe", "occu": 1}], "abc": [0.795662, 0.597753, 0.005580000000000001], "properties": {"magmom": -0.058}, "label": "Fe", "xyz": [6.168918360535, 4.799431744993999, -0.11784935999999994]}, {"species": [{"element": "S", "occu": 1}], "abc": [0.7900200000000001, 0.11029699999999901, 0.875404], "properties": {"magmom": -0.0}, "label": "S", "xyz": [6.431465933086999, 0.8273115625399922, 8.643578683872]}, {"species": [{"element": "S", "occu": 1}], "abc": [0.108464999999999, 0.200970999999999, 0.124403], "properties": {"magmom": 0.0}, "label": "S", "xyz": [0.8615147279499924, 1.572387648426992, 1.2726031189200002]}, {"species": [{"element": "S", "occu": 1}], "abc": [0.386069, 0.297795, 0.876850999999999], "properties": {"magmom": -0.001}, "label": "S", "xyz": [3.2408375908859988, 2.246080649159, 8.86040267405599]}, {"species": [{"element": "S", "occu": 1}], "abc": [0.704971, 0.390468999999999, 0.122271999999999], "properties": {"magmom": 0.0}, "label": "S", "xyz": [5.516117218883, 3.1402161632209924, 1.0601434890079897]}, {"species": [{"element": "S", "occu": 1}], "abc": [0.996479, 0.501788999999999, 0.883934], "properties": {"magmom": -0.0}, "label": "S", "xyz": [8.005337777445, 3.9280925170489924, 8.739802004960001]}, {"species": [{"element": "S", "occu": 1}], "abc": [0.203201, 0.893574, 0.874981999999999], "properties": {"magmom": -0.0}, "label": "S", "xyz": [1.7333584229279997, 6.901378332310999, 9.050754556927991]}, {"species": [{"element": "S", "occu": 1}], "abc": [0.898737, 0.794512, 0.12417399999999901], "properties": {"magmom": -0.0}, "label": "S", "xyz": [6.987022509798001, 6.3389772416709995, 1.09665139884799]}, {"species": [{"element": "S", "occu": 1}], "abc": [0.607013999999999, 0.7062200000000001, 0.876249], "properties": {"magmom": 0.001}, "label": "S", "xyz": [4.923658452222992, 5.48327608763, 8.861699398088]}, {"species": [{"element": "S", "occu": 1}], "abc": [0.301871, 0.605545999999999, 0.122291], "properties": {"magmom": -0.0}, "label": "S", "xyz": [2.3283904508350006, 4.775938662060993, 1.2684346973199998]}, {"species": [{"element": "S", "occu": 1}], "abc": [0.503267999999999, 0.997717, 0.116675], "properties": {"magmom": -0.0}, "label": "S", "xyz": [3.858456910959993, 7.883704485975999, 1.2225228769200005]}]}, "task_ids": null, "uncorrected_energy_per_atom": null, "energy_per_atom": -6.7887506816666665, "formation_energy_per_atom": -0.725208161944443, "energy_above_hull": 0.061710484999999, "is_stable": false, "equilibrium_reaction_energy_per_atom": null, "decomposes_to": null, "xas": null, "grain_boundaries": null, "band_gap": 0.0, "cbm": null, "vbm": null, "efermi": -0.10360631000000001, "is_gap_direct": null, "is_metal": null, "es_source_calc_id": null, "bandstructure": null, "dos": null, "dos_energy_up": null, "dos_energy_down": null, "is_magnetic": null, "ordering": null, "total_magnetization": 0.0270683, "total_magnetization_normalized_vol": null, "total_magnetization_normalized_formula_units": null, "num_magnetic_sites": null, "num_unique_magnetic_sites": null, "types_of_magnetic_species": null, "bulk_modulus": null, "shear_modulus": null, "universal_anisotropy": null, "homogeneous_poisson": null, "e_total": null, "e_ionic": null, "e_electronic": null, "n": null, "e_ij_max": null, "weighted_surface_energy_EV_PER_ANG2": null, "weighted_surface_energy": null, "weighted_work_function": null, "surface_anisotropy": null, "shape_factor": null, "has_reconstructed": null, "possible_species": null, "has_props": null, "theoretical": null, "database_IDs": null, "fields_not_requested": ["builder_meta", "nsites", "elements", "nelements", "composition", "composition_reduced", "chemsys", "symmetry", "property_name", "deprecated", "deprecation_reasons", "last_updated", "origins", "warnings", "task_ids", "uncorrected_energy_per_atom", "equilibrium_reaction_energy_per_atom", "decomposes_to", "xas", "grain_boundaries", "cbm", "vbm", "is_gap_direct", "is_metal", "es_source_calc_id", "bandstructure", "dos", "dos_energy_up", "dos_energy_down", "is_magnetic", "ordering", "total_magnetization_normalized_vol", "total_magnetization_normalized_formula_units", "num_magnetic_sites", "num_unique_magnetic_sites", "types_of_magnetic_species", "bulk_modulus", "shear_modulus", "universal_anisotropy", "homogeneous_poisson", "e_total", "e_ionic", "e_electronic", "n", "e_ij_max", "weighted_surface_energy_EV_PER_ANG2", "weighted_surface_energy", "weighted_work_function", "surface_anisotropy", "shape_factor", "has_reconstructed", "possible_species", "has_props", "theoretical", "database_IDs"]}