{"builder_meta": null, "nsites": null, "elements": null, "nelements": null, "composition": null, "composition_reduced": null, "formula_pretty": "Fe5C2", "formula_anonymous": "A2B5", "chemsys": null, "volume": 129.3317147748143, "density": 7.786991688505326, "density_atomic": 9.237979626772448, "symmetry": null, "property_name": null, "material_id": "mp-2794", "deprecated": null, "deprecation_reasons": null, "last_updated": null, "origins": null, "warnings": null, "structure": {"@module": "pymatgen.core.structure", "@class": "Structure", "charge": 0, "lattice": {"matrix": [[2.253661, 5.801294, 0.0], [-2.253661, 5.801294, 0.0], [0.0, 0.657736, 4.946085]], "pbc": [true, true, true], "a": 6.223664513560881, "b": 6.223664513560881, "c": 4.98962658652138, "alpha": 82.94196439491958, "beta": 82.94196439491958, "gamma": 42.45986445890509, "volume": 129.3317147748143}, "properties": {}, "sites": [{"species": [{"element": "Fe", "occu": 1}], "abc": [0.181766999999999, 0.015021999999999001, 0.583006], "properties": {"magmom": 2.142}, "label": "Fe", "xyz": [0.37578670344500004, 1.5250948793819887, 2.88359723151]}, {"species": [{"element": "Fe", "occu": 1}], "abc": [0.9849779999999991, 0.818233, 0.916994], "properties": {"magmom": 2.136}, "label": "Fe", "xyz": [0.3757867034449982, 11.064097120617994, 4.53553026849]}, {"species": [{"element": "Fe", "occu": 1}], "abc": [0.203796999999999, 0.367577, 0.310612], "properties": {"magmom": 1.714}, "label": "Fe", "xyz": [-0.3691045985800023, 3.5190092523879946, 1.53631335402]}, {"species": [{"element": "Fe", "occu": 1}], "abc": [0.632423, 0.796203, 0.189388], "properties": {"magmom": 1.695}, "label": "Fe", "xyz": [-0.3691045985800001, 8.412446747612, 0.93672914598]}, {"species": [{"element": "Fe", "occu": 1}], "abc": [0.796203, 0.632423, 0.689388], "properties": {"magmom": 1.714}, "label": "Fe", "xyz": [0.3691045985800001, 8.741314747612, 3.4097716459800003]}, {"species": [{"element": "Fe", "occu": 1}], "abc": [0.367577, 0.203796999999999, 0.810612], "properties": {"magmom": 1.695}, "label": "Fe", "xyz": [0.3691045985800023, 3.8478772523879945, 4.00935585402]}, {"species": [{"element": "Fe", "occu": 1}], "abc": [0.015021999999999001, 0.181766999999999, 0.083006], "properties": {"magmom": 2.136}, "label": "Fe", "xyz": [-0.37578670344500004, 1.1962268793819886, 0.41055473151]}, {"species": [{"element": "Fe", "occu": 1}], "abc": [0.818233, 0.9849779999999991, 0.416994], "properties": {"magmom": 2.142}, "label": "Fe", "xyz": [-0.3757867034449982, 10.735229120617994, 2.06248776849]}, {"species": [{"element": "Fe", "occu": 1}], "abc": [0.567225, 0.432774999999999, 0.75], "properties": {"magmom": 1.082}, "label": "Fe", "xyz": [0.3030047214500021, 6.294595999999995, 3.70956375]}, {"species": [{"element": "Fe", "occu": 1}], "abc": [0.432774999999999, 0.567225, 0.25], "properties": {"magmom": 1.082}, "label": "Fe", "xyz": [-0.3030047214500021, 5.965727999999995, 1.23652125]}, {"species": [{"element": "C", "occu": 1}], "abc": [0.20141, 0.572475, 0.578711], "properties": {"magmom": -0.096}, "label": "C", "xyz": [-0.8362547189649999, 4.870173465485999, 2.862353796435]}, {"species": [{"element": "C", "occu": 1}], "abc": [0.427525, 0.79859, 0.921288999999999], "properties": {"magmom": -0.097}, "label": "C", "xyz": [-0.8362547189650001, 7.719018534513999, 4.556773703564995]}, {"species": [{"element": "C", "occu": 1}], "abc": [0.79859, 0.427525, 0.421288999999999], "properties": {"magmom": -0.096}, "label": "C", "xyz": [0.8362547189650001, 7.3901505345139995, 2.0837312035649953]}, {"species": [{"element": "C", "occu": 1}], "abc": [0.572475, 0.20141, 0.078711], "properties": {"magmom": -0.097}, "label": "C", "xyz": [0.8362547189649999, 4.5413054654859994, 0.389311296435]}]}, "task_ids": null, "uncorrected_energy_per_atom": null, "energy_per_atom": -8.627579297142857, "formation_energy_per_atom": 0.059197422142856004, "energy_above_hull": 0.059197422142856004, "is_stable": false, "equilibrium_reaction_energy_per_atom": null, "decomposes_to": null, "xas": null, "grain_boundaries": null, "band_gap": 0.0, "cbm": null, "vbm": null, "efermi": 6.8962338899999995, "is_gap_direct": null, "is_metal": null, "es_source_calc_id": null, "bandstructure": null, "dos": null, "dos_energy_up": null, "dos_energy_down": null, "is_magnetic": null, "ordering": null, "total_magnetization": 16.9045176, "total_magnetization_normalized_vol": null, "total_magnetization_normalized_formula_units": null, "num_magnetic_sites": null, "num_unique_magnetic_sites": null, "types_of_magnetic_species": null, "bulk_modulus": null, "shear_modulus": null, "universal_anisotropy": null, "homogeneous_poisson": null, "e_total": null, "e_ionic": null, "e_electronic": null, "n": null, "e_ij_max": null, "weighted_surface_energy_EV_PER_ANG2": null, "weighted_surface_energy": null, "weighted_work_function": null, "surface_anisotropy": null, "shape_factor": null, "has_reconstructed": null, "possible_species": null, "has_props": null, "theoretical": null, "database_IDs": null, "fields_not_requested": ["builder_meta", "nsites", "elements", "nelements", "composition", "composition_reduced", "chemsys", "symmetry", "property_name", "deprecated", "deprecation_reasons", "last_updated", "origins", "warnings", "task_ids", "uncorrected_energy_per_atom", "equilibrium_reaction_energy_per_atom", "decomposes_to", "xas", "grain_boundaries", "cbm", "vbm", "is_gap_direct", "is_metal", "es_source_calc_id", "bandstructure", "dos", "dos_energy_up", "dos_energy_down", "is_magnetic", "ordering", "total_magnetization_normalized_vol", "total_magnetization_normalized_formula_units", "num_magnetic_sites", "num_unique_magnetic_sites", "types_of_magnetic_species", "bulk_modulus", "shear_modulus", "universal_anisotropy", "homogeneous_poisson", "e_total", "e_ionic", "e_electronic", "n", "e_ij_max", "weighted_surface_energy_EV_PER_ANG2", "weighted_surface_energy", "weighted_work_function", "surface_anisotropy", "shape_factor", "has_reconstructed", "possible_species", "has_props", "theoretical", "database_IDs"]}