{"builder_meta": null, "nsites": null, "elements": null, "nelements": null, "composition": null, "composition_reduced": null, "formula_pretty": "Fe5O7", "formula_anonymous": "A5B7", "chemsys": null, "volume": 121.72601544467997, "density": 5.336882339352854, "density_atomic": 10.143834620389997, "symmetry": null, "property_name": null, "material_id": "mp-1095382", "deprecated": null, "deprecation_reasons": null, "last_updated": null, "origins": null, "warnings": null, "structure": {"@module": "pymatgen.core.structure", "@class": "Structure", "charge": 0, "lattice": {"matrix": [[1.45712, 4.873921, 0.0], [-1.45712, 4.873921, 0.0], [0.0, 2.337725, 8.569976]], "pbc": [true, true, true], "a": 5.087072302281638, "b": 5.087072302281638, "c": 8.883098942159826, "alpha": 75.3958948187953, "beta": 75.3958948187953, "gamma": 33.289393588220044, "volume": 121.72601544467997}, "properties": {}, "sites": [{"species": [{"element": "Fe", "occu": 1}], "abc": [0.0, 0.0, 0.0], "properties": {"magmom": 4.351}, "label": "Fe", "xyz": [0.0, 0.0, 0.0]}, {"species": [{"element": "Fe", "occu": 1}], "abc": [0.305415999999999, 0.305415999999999, 0.815898999999999], "properties": {"magmom": 4.147}, "label": "Fe", "xyz": [0.0, 4.884494402046988, 6.992234848423992]}, {"species": [{"element": "Fe", "occu": 1}], "abc": [0.694584, 0.694584, 0.184101], "properties": {"magmom": 4.147}, "label": "Fe", "xyz": [0.0, 7.201072597953, 1.577741151576]}, {"species": [{"element": "Fe", "occu": 1}], "abc": [0.110638, 0.110638, 0.584693], "properties": {"magmom": 4.354}, "label": "Fe", "xyz": [0.0, 2.445333186621, 5.010804977368]}, {"species": [{"element": "Fe", "occu": 1}], "abc": [0.889362, 0.889362, 0.415307], "properties": {"magmom": 4.354}, "label": "Fe", "xyz": [0.0, 9.640233813379, 3.559171022632]}, {"species": [{"element": "O", "occu": 1}], "abc": [0.039380000000000005, 0.039380000000000005, 0.213699], "properties": {"magmom": 0.30000000000000004}, "label": "O", "xyz": [0.0, 0.8834395127350001, 1.831395301224]}, {"species": [{"element": "O", "occu": 1}], "abc": [0.96062, 0.96062, 0.786300999999999], "properties": {"magmom": 0.30000000000000004}, "label": "O", "xyz": [0.0, 11.202127487264999, 6.738580698775992]}, {"species": [{"element": "O", "occu": 1}], "abc": [0.262719, 0.262719, 0.364450999999999], "properties": {"magmom": 0.321}, "label": "O", "xyz": [0.0, 3.412929516372998, 3.123336323175992]}, {"species": [{"element": "O", "occu": 1}], "abc": [0.737281, 0.737281, 0.635548999999999], "properties": {"magmom": 0.321}, "label": "O", "xyz": [0.0, 8.672637483626996, 5.446639676823992]}, {"species": [{"element": "O", "occu": 1}], "abc": [0.347008, 0.347008, 0.051703], "properties": {"magmom": 0.316}, "label": "O", "xyz": [0.0, 3.503446552411, 0.443093469128]}, {"species": [{"element": "O", "occu": 1}], "abc": [0.652992, 0.652992, 0.948297], "properties": {"magmom": 0.316}, "label": "O", "xyz": [0.0, 8.582120447589, 8.126882530872]}, {"species": [{"element": "O", "occu": 1}], "abc": [0.5, 0.5, 0.5], "properties": {"magmom": 0.329}, "label": "O", "xyz": [0.0, 6.0427835000000005, 4.284988]}]}, "task_ids": null, "uncorrected_energy_per_atom": null, "energy_per_atom": -7.915457366666666, "formation_energy_per_atom": -1.49997127625, "energy_above_hull": 0.16952474916666602, "is_stable": false, "equilibrium_reaction_energy_per_atom": null, "decomposes_to": null, "xas": null, "grain_boundaries": null, "band_gap": 0.0, "cbm": null, "vbm": null, "efermi": 4.361499, "is_gap_direct": null, "is_metal": null, "es_source_calc_id": null, "bandstructure": null, "dos": null, "dos_energy_up": null, "dos_energy_down": null, "is_magnetic": null, "ordering": null, "total_magnetization": 23.9978796, "total_magnetization_normalized_vol": null, "total_magnetization_normalized_formula_units": null, "num_magnetic_sites": null, "num_unique_magnetic_sites": null, "types_of_magnetic_species": null, "bulk_modulus": null, "shear_modulus": null, "universal_anisotropy": null, "homogeneous_poisson": null, "e_total": null, "e_ionic": null, "e_electronic": null, "n": null, "e_ij_max": null, "weighted_surface_energy_EV_PER_ANG2": null, "weighted_surface_energy": null, "weighted_work_function": null, "surface_anisotropy": null, "shape_factor": null, "has_reconstructed": null, "possible_species": null, "has_props": null, "theoretical": null, "database_IDs": null, "fields_not_requested": ["builder_meta", "nsites", "elements", "nelements", "composition", "composition_reduced", "chemsys", "symmetry", "property_name", "deprecated", "deprecation_reasons", "last_updated", "origins", "warnings", "task_ids", "uncorrected_energy_per_atom", "equilibrium_reaction_energy_per_atom", "decomposes_to", "xas", "grain_boundaries", "cbm", "vbm", "is_gap_direct", "is_metal", "es_source_calc_id", "bandstructure", "dos", "dos_energy_up", "dos_energy_down", "is_magnetic", "ordering", "total_magnetization_normalized_vol", "total_magnetization_normalized_formula_units", "num_magnetic_sites", "num_unique_magnetic_sites", "types_of_magnetic_species", "bulk_modulus", "shear_modulus", "universal_anisotropy", "homogeneous_poisson", "e_total", "e_ionic", "e_electronic", "n", "e_ij_max", "weighted_surface_energy_EV_PER_ANG2", "weighted_surface_energy", "weighted_work_function", "surface_anisotropy", "shape_factor", "has_reconstructed", "possible_species", "has_props", "theoretical", "database_IDs"]}