{"builder_meta": null, "nsites": null, "elements": null, "nelements": null, "composition": null, "composition_reduced": null, "formula_pretty": "Fe5O8", "formula_anonymous": "A5B8", "chemsys": null, "volume": 596.8766526250672, "density": 4.531623395451715, "density_atomic": 11.478397165866678, "symmetry": null, "property_name": null, "material_id": "mp-510746", "deprecated": null, "deprecation_reasons": null, "last_updated": null, "origins": null, "warnings": null, "structure": {"@module": "pymatgen.core.structure", "@class": "Structure", "charge": 0, "lattice": {"matrix": [[8.419666, 0.0, 0.0], [0.0, 8.419666, 0.0], [0.0, 0.0, 8.419666]], "pbc": [true, true, true], "a": 8.419666, "b": 8.419666, "c": 8.419666, "alpha": 90.0, "beta": 90.0, "gamma": 90.0, "volume": 596.8766526250672}, "properties": {}, "sites": [{"species": [{"element": "Fe", "occu": 1}], "abc": [0.99692, 0.99692, 0.99692], "properties": {"magmom": 4.282}, "label": "Fe", "xyz": [8.39373342872, 8.39373342872, 8.39373342872]}, {"species": [{"element": "Fe", "occu": 1}], "abc": [0.0030800000000000003, 0.49692000000000003, 0.5030800000000001], "properties": {"magmom": 4.282}, "label": "Fe", "xyz": [0.02593257128, 4.18390042872, 4.23576557128]}, {"species": [{"element": "Fe", "occu": 1}], "abc": [0.135233, 0.114767, 0.625], "properties": {"magmom": 4.335}, "label": "Fe", "xyz": [1.1386166921779999, 0.9662998078219999, 5.26229125]}, {"species": [{"element": "Fe", "occu": 1}], "abc": [0.114767, 0.625, 0.135233], "properties": {"magmom": 4.335}, "label": "Fe", "xyz": [0.9662998078219999, 5.26229125, 1.1386166921779999]}, {"species": [{"element": "Fe", "occu": 1}], "abc": [0.125, 0.364767, 0.885232999999999], "properties": {"magmom": 4.335}, "label": "Fe", "xyz": [1.05245825, 3.071216307822, 7.453366192177992]}, {"species": [{"element": "Fe", "occu": 1}], "abc": [0.25308, 0.25308, 0.25308], "properties": {"magmom": 4.282}, "label": "Fe", "xyz": [2.13084907128, 2.13084907128, 2.13084907128]}, {"species": [{"element": "Fe", "occu": 1}], "abc": [0.24692000000000003, 0.74692, 0.7530800000000001], "properties": {"magmom": 4.282}, "label": "Fe", "xyz": [2.07898392872, 6.28881692872, 6.34068207128]}, {"species": [{"element": "Fe", "occu": 1}], "abc": [0.385233, 0.375, 0.635232999999999], "properties": {"magmom": 4.335}, "label": "Fe", "xyz": [3.2435331921779995, 3.15737475, 5.348449692177992]}, {"species": [{"element": "Fe", "occu": 1}], "abc": [0.375, 0.635232999999999, 0.385233], "properties": {"magmom": 4.335}, "label": "Fe", "xyz": [3.15737475, 5.348449692177992, 3.2435331921779995]}, {"species": [{"element": "Fe", "occu": 1}], "abc": [0.364767, 0.885232999999999, 0.125], "properties": {"magmom": 4.335}, "label": "Fe", "xyz": [3.071216307822, 7.453366192177992, 1.05245825]}, {"species": [{"element": "Fe", "occu": 1}], "abc": [0.5030800000000001, 0.0030800000000000003, 0.49692000000000003], "properties": {"magmom": 4.282}, "label": "Fe", "xyz": [4.23576557128, 0.02593257128, 4.18390042872]}, {"species": [{"element": "Fe", "occu": 1}], "abc": [0.49692000000000003, 0.5030800000000001, 0.0030800000000000003], "properties": {"magmom": 4.282}, "label": "Fe", "xyz": [4.18390042872, 4.23576557128, 0.02593257128]}, {"species": [{"element": "Fe", "occu": 1}], "abc": [0.625, 0.135233, 0.114767], "properties": {"magmom": 4.335}, "label": "Fe", "xyz": [5.26229125, 1.1386166921779999, 0.9662998078219999]}, {"species": [{"element": "Fe", "occu": 1}], "abc": [0.635232999999999, 0.385233, 0.375], "properties": {"magmom": 4.335}, "label": "Fe", "xyz": [5.348449692177992, 3.2435331921779995, 3.15737475]}, {"species": [{"element": "Fe", "occu": 1}], "abc": [0.614767, 0.875, 0.864767], "properties": {"magmom": 4.335}, "label": "Fe", "xyz": [5.1761328078219995, 7.3672077499999995, 7.281049307821999]}, {"species": [{"element": "Fe", "occu": 1}], "abc": [0.7530800000000001, 0.24692000000000003, 0.74692], "properties": {"magmom": 4.282}, "label": "Fe", "xyz": [6.34068207128, 2.07898392872, 6.28881692872]}, {"species": [{"element": "Fe", "occu": 1}], "abc": [0.74692, 0.7530800000000001, 0.24692000000000003], "properties": {"magmom": 4.282}, "label": "Fe", "xyz": [6.28881692872, 6.34068207128, 2.07898392872]}, {"species": [{"element": "Fe", "occu": 1}], "abc": [0.885232999999999, 0.125, 0.364767], "properties": {"magmom": 4.335}, "label": "Fe", "xyz": [7.453366192177992, 1.05245825, 3.071216307822]}, {"species": [{"element": "Fe", "occu": 1}], "abc": [0.864767, 0.614767, 0.875], "properties": {"magmom": 4.335}, "label": "Fe", "xyz": [7.281049307821999, 5.1761328078219995, 7.3672077499999995]}, {"species": [{"element": "Fe", "occu": 1}], "abc": [0.875, 0.864767, 0.614767], "properties": {"magmom": 4.335}, "label": "Fe", "xyz": [7.3672077499999995, 7.281049307821999, 5.1761328078219995]}, {"species": [{"element": "O", "occu": 1}], "abc": [0.143998, 0.382468, 0.118132], "properties": {"magmom": 0.241}, "label": "O", "xyz": [1.2124150646679999, 3.2202528156879997, 0.9946319839119999]}, {"species": [{"element": "O", "occu": 1}], "abc": [0.142254, 0.357746, 0.642254], "properties": {"magmom": 0.226}, "label": "O", "xyz": [1.1977311671639999, 3.012101832836, 5.407564167164]}, {"species": [{"element": "O", "occu": 1}], "abc": [0.131867999999999, 0.867532, 0.106002], "properties": {"magmom": 0.241}, "label": "O", "xyz": [1.1102845160879917, 7.304329684311999, 0.8925014353319999]}, {"species": [{"element": "O", "occu": 1}], "abc": [0.118132, 0.143998, 0.382468], "properties": {"magmom": 0.241}, "label": "O", "xyz": [0.9946319839119999, 1.2124150646679999, 3.2202528156879997]}, {"species": [{"element": "O", "occu": 1}], "abc": [0.117532, 0.881868, 0.643998], "properties": {"magmom": 0.241}, "label": "O", "xyz": [0.9895801843119999, 7.4250340160879995, 5.422248064668]}, {"species": [{"element": "O", "occu": 1}], "abc": [0.106002, 0.131867999999999, 0.867532], "properties": {"magmom": 0.241}, "label": "O", "xyz": [0.8925014353319999, 1.1102845160879917, 7.304329684311999]}, {"species": [{"element": "O", "occu": 1}], "abc": [0.132468, 0.606001999999999, 0.368131999999999], "properties": {"magmom": 0.241}, "label": "O", "xyz": [1.1153363156879998, 5.102334435331992, 3.0995484839119913]}, {"species": [{"element": "O", "occu": 1}], "abc": [0.107746, 0.607746, 0.892254], "properties": {"magmom": 0.226}, "label": "O", "xyz": [0.9071853328359999, 5.1170183328359995, 7.512480667164]}, {"species": [{"element": "O", "occu": 1}], "abc": [0.382468, 0.118132, 0.143998], "properties": {"magmom": 0.241}, "label": "O", "xyz": [3.2202528156879997, 0.9946319839119999, 1.2124150646679999]}, {"species": [{"element": "O", "occu": 1}], "abc": [0.392254, 0.392254, 0.392254], "properties": {"magmom": 0.226}, "label": "O", "xyz": [3.3026476671639995, 3.3026476671639995, 3.3026476671639995]}, {"species": [{"element": "O", "occu": 1}], "abc": [0.368131999999999, 0.132468, 0.606001999999999], "properties": {"magmom": 0.241}, "label": "O", "xyz": [3.0995484839119913, 1.1153363156879998, 5.102334435331992]}, {"species": [{"element": "O", "occu": 1}], "abc": [0.367531999999999, 0.393997999999999, 0.868132], "properties": {"magmom": 0.241}, "label": "O", "xyz": [3.0944966843119914, 3.3173315646679913, 7.3093814839119995]}, {"species": [{"element": "O", "occu": 1}], "abc": [0.357746, 0.642254, 0.142254], "properties": {"magmom": 0.226}, "label": "O", "xyz": [3.012101832836, 5.407564167164, 1.1977311671639999]}, {"species": [{"element": "O", "occu": 1}], "abc": [0.393997999999999, 0.868132, 0.367531999999999], "properties": {"magmom": 0.241}, "label": "O", "xyz": [3.3173315646679913, 7.3093814839119995, 3.0944966843119914]}, {"species": [{"element": "O", "occu": 1}], "abc": [0.356002, 0.617532, 0.618132], "properties": {"magmom": 0.241}, "label": "O", "xyz": [2.997417935332, 5.199413184311999, 5.204464983912]}, {"species": [{"element": "O", "occu": 1}], "abc": [0.381868, 0.856001999999999, 0.882467999999999], "properties": {"magmom": 0.241}, "label": "O", "xyz": [3.215201016088, 7.207250935331992, 7.430085815687991]}, {"species": [{"element": "O", "occu": 1}], "abc": [0.642254, 0.142254, 0.357746], "properties": {"magmom": 0.226}, "label": "O", "xyz": [5.407564167164, 1.1977311671639999, 3.012101832836]}, {"species": [{"element": "O", "occu": 1}], "abc": [0.606001999999999, 0.368131999999999, 0.132468], "properties": {"magmom": 0.241}, "label": "O", "xyz": [5.102334435331992, 3.0995484839119913, 1.1153363156879998]}, {"species": [{"element": "O", "occu": 1}], "abc": [0.618132, 0.356002, 0.617532], "properties": {"magmom": 0.241}, "label": "O", "xyz": [5.204464983912, 2.997417935332, 5.199413184311999]}, {"species": [{"element": "O", "occu": 1}], "abc": [0.617532, 0.618132, 0.356002], "properties": {"magmom": 0.241}, "label": "O", "xyz": [5.199413184311999, 5.204464983912, 2.997417935332]}, {"species": [{"element": "O", "occu": 1}], "abc": [0.643998, 0.117532, 0.881868], "properties": {"magmom": 0.241}, "label": "O", "xyz": [5.422248064668, 0.9895801843119999, 7.4250340160879995]}, {"species": [{"element": "O", "occu": 1}], "abc": [0.631868, 0.632467999999999, 0.893998], "properties": {"magmom": 0.241}, "label": "O", "xyz": [5.320117516088, 5.325169315687991, 7.527164564667999]}, {"species": [{"element": "O", "occu": 1}], "abc": [0.607746, 0.892254, 0.107746], "properties": {"magmom": 0.226}, "label": "O", "xyz": [5.1170183328359995, 7.512480667164, 0.9071853328359999]}, {"species": [{"element": "O", "occu": 1}], "abc": [0.632467999999999, 0.893998, 0.631868], "properties": {"magmom": 0.241}, "label": "O", "xyz": [5.325169315687991, 7.527164564667999, 5.320117516088]}, {"species": [{"element": "O", "occu": 1}], "abc": [0.867532, 0.106002, 0.131867999999999], "properties": {"magmom": 0.241}, "label": "O", "xyz": [7.304329684311999, 0.8925014353319999, 1.1102845160879917]}, {"species": [{"element": "O", "occu": 1}], "abc": [0.892254, 0.107746, 0.607746], "properties": {"magmom": 0.226}, "label": "O", "xyz": [7.512480667164, 0.9071853328359999, 5.1170183328359995]}, {"species": [{"element": "O", "occu": 1}], "abc": [0.868132, 0.367531999999999, 0.393997999999999], "properties": {"magmom": 0.241}, "label": "O", "xyz": [7.3093814839119995, 3.0944966843119914, 3.3173315646679913]}, {"species": [{"element": "O", "occu": 1}], "abc": [0.881868, 0.643998, 0.117532], "properties": {"magmom": 0.241}, "label": "O", "xyz": [7.4250340160879995, 5.422248064668, 0.9895801843119999]}, {"species": [{"element": "O", "occu": 1}], "abc": [0.893998, 0.631868, 0.632467999999999], "properties": {"magmom": 0.241}, "label": "O", "xyz": [7.527164564667999, 5.320117516088, 5.325169315687991]}, {"species": [{"element": "O", "occu": 1}], "abc": [0.882467999999999, 0.381868, 0.856001999999999], "properties": {"magmom": 0.241}, "label": "O", "xyz": [7.430085815687991, 3.215201016088, 7.207250935331992]}, {"species": [{"element": "O", "occu": 1}], "abc": [0.856001999999999, 0.882467999999999, 0.381868], "properties": {"magmom": 0.241}, "label": "O", "xyz": [7.207250935331992, 7.430085815687991, 3.215201016088]}, {"species": [{"element": "O", "occu": 1}], "abc": [0.857746, 0.857746, 0.857746], "properties": {"magmom": 0.226}, "label": "O", "xyz": [7.221934832835999, 7.221934832835999, 7.221934832835999]}]}, "task_ids": null, "uncorrected_energy_per_atom": null, "energy_per_atom": -7.780581771346155, "formation_energy_per_atom": -1.47798222596154, "energy_above_hull": 0.16345176730769, "is_stable": false, "equilibrium_reaction_energy_per_atom": null, "decomposes_to": null, "xas": null, "grain_boundaries": null, "band_gap": 0.0, "cbm": null, "vbm": null, "efermi": 2.11089393, "is_gap_direct": null, "is_metal": null, "es_source_calc_id": null, "bandstructure": null, "dos": null, "dos_energy_up": null, "dos_energy_down": null, "is_magnetic": null, "ordering": null, "total_magnetization": 96.0065805, "total_magnetization_normalized_vol": null, "total_magnetization_normalized_formula_units": null, "num_magnetic_sites": null, "num_unique_magnetic_sites": null, "types_of_magnetic_species": null, "bulk_modulus": null, "shear_modulus": null, "universal_anisotropy": null, "homogeneous_poisson": null, "e_total": null, "e_ionic": null, "e_electronic": null, "n": null, "e_ij_max": null, "weighted_surface_energy_EV_PER_ANG2": null, "weighted_surface_energy": null, "weighted_work_function": null, "surface_anisotropy": null, "shape_factor": null, "has_reconstructed": null, "possible_species": null, "has_props": null, "theoretical": null, "database_IDs": null, "fields_not_requested": ["builder_meta", "nsites", "elements", "nelements", "composition", "composition_reduced", "chemsys", "symmetry", "property_name", "deprecated", "deprecation_reasons", "last_updated", "origins", "warnings", "task_ids", "uncorrected_energy_per_atom", "equilibrium_reaction_energy_per_atom", "decomposes_to", "xas", "grain_boundaries", "cbm", "vbm", "is_gap_direct", "is_metal", "es_source_calc_id", "bandstructure", "dos", "dos_energy_up", "dos_energy_down", "is_magnetic", "ordering", "total_magnetization_normalized_vol", "total_magnetization_normalized_formula_units", "num_magnetic_sites", "num_unique_magnetic_sites", "types_of_magnetic_species", "bulk_modulus", "shear_modulus", "universal_anisotropy", "homogeneous_poisson", "e_total", "e_ionic", "e_electronic", "n", "e_ij_max", "weighted_surface_energy_EV_PER_ANG2", "weighted_surface_energy", "weighted_work_function", "surface_anisotropy", "shape_factor", "has_reconstructed", "possible_species", "has_props", "theoretical", "database_IDs"]}