{
  "builder_meta": null,
  "nsites": null,
  "elements": null,
  "nelements": null,
  "composition": null,
  "composition_reduced": null,
  "formula_pretty": "Fe5Sb4",
  "formula_anonymous": "A4B5",
  "chemsys": null,
  "volume": 149.91478465131092,
  "density": 8.487574930169654,
  "density_atomic": 16.657198294590103,
  "symmetry": null,
  "property_name": null,
  "material_id": "mp-1224995",
  "deprecated": null,
  "deprecation_reasons": null,
  "last_updated": null,
  "origins": null,
  "warnings": null,
  "structure": {
    "@module": "pymatgen.core.structure",
    "@class": "Structure",
    "charge": 0,
    "lattice": {
      "matrix": [
        [-2.055844, -3.563514, 0.0],
        [-2.074933, 3.574518, -5.084372],
        [2.074933, -3.574518, -5.084372]
      ],
      "pbc": [true, true, true],
      "a": 4.1140158702333665,
      "b": 6.552355646727137,
      "c": 6.552355646727137,
      "alpha": 78.21552906748492,
      "beta": 71.68215593444553,
      "gamma": 108.31784406555447,
      "volume": 149.91478465131092
    },
    "properties": {},
    "sites": [
      {
        "species": [{ "element": "Fe", "occu": 1 }],
        "abc": [0.0016300000000000002, 0.24657199999999901, 0.243426999999999],
        "properties": { "magmom": 2.165 },
        "label": "Fe",
        "xyz": [-0.009876690005000022, 0.005433331290000121, -2.49133719562799]
      },
      {
        "species": [{ "element": "Fe", "occu": 1 }],
        "abc": [0.99753, 0.751618, 0.756656999999999],
        "properties": { "magmom": 1.215 },
        "label": "Fe",
        "xyz": [-2.040310477933002, -3.5727241166219965, -7.668631178299995]
      },
      {
        "species": [{ "element": "Fe", "occu": 1 }],
        "abc": [0.0016300000000000002, 0.006573, 0.003428],
        "properties": { "magmom": 2.165 },
        "label": "Fe",
        "xyz": [-0.009876690005000001, 0.005433331290000001, -0.050848804372]
      },
      {
        "species": [{ "element": "Fe", "occu": 1 }],
        "abc": [0.99753, 0.493343, 0.498382],
        "properties": { "magmom": 1.215 },
        "label": "Fe",
        "xyz": [-2.040310477933, -3.572724116622, -5.042298821699999]
      },
      {
        "species": [{ "element": "Fe", "occu": 1 }],
        "abc": [0.659397999999999, 0.284767, 0.965233],
        "properties": { "magmom": 1.633 },
        "label": "Fe",
        "xyz": [0.056301936866002045, -4.782111969959996, -6.355465]
      },
      {
        "species": [{ "element": "Sb", "occu": 1 }],
        "abc": [0.668080999999999, 0.54986, 0.213724],
        "properties": { "magmom": -0.09 },
        "label": "Sb",
        "xyz": [-2.0709299942519985, -1.1791918141859965, -3.882345109248]
      },
      {
        "species": [{ "element": "Sb", "occu": 1 }],
        "abc": [0.668080999999999, 0.036275999999999003, 0.7001400000000001],
        "properties": { "magmom": -0.09 },
        "label": "Sb",
        "xyz": [0.004003005748004496, -4.753709814186, -3.7442128907519954]
      },
      {
        "species": [{ "element": "Sb", "occu": 1 }],
        "abc": [0.36561000000000005, 0.490429, 0.759571],
        "properties": { "magmom": -0.062 },
        "label": "Sb",
        "xyz": [-0.1931855073540003, -2.2649092770960007, -6.355465000000001]
      },
      {
        "species": [{ "element": "Sb", "occu": 1 }],
        "abc": [0.307207, 0.932214, 0.317786],
        "properties": { "magmom": -0.08600000000000001 },
        "label": "Sb",
        "xyz": [-1.9064666010320004, 1.1015475003059998, -6.355465000000001]
      }
    ]
  },
  "task_ids": null,
  "uncorrected_energy_per_atom": null,
  "energy_per_atom": -6.608097776666667,
  "formation_energy_per_atom": -0.067418775555555,
  "energy_above_hull": 0.036583757777776005,
  "is_stable": false,
  "equilibrium_reaction_energy_per_atom": null,
  "decomposes_to": null,
  "xas": null,
  "grain_boundaries": null,
  "band_gap": 0.0,
  "cbm": null,
  "vbm": null,
  "efermi": 8.51090263,
  "is_gap_direct": null,
  "is_metal": null,
  "es_source_calc_id": null,
  "bandstructure": null,
  "dos": null,
  "dos_energy_up": null,
  "dos_energy_down": null,
  "is_magnetic": null,
  "ordering": null,
  "total_magnetization": 7.883043,
  "total_magnetization_normalized_vol": null,
  "total_magnetization_normalized_formula_units": null,
  "num_magnetic_sites": null,
  "num_unique_magnetic_sites": null,
  "types_of_magnetic_species": null,
  "bulk_modulus": null,
  "shear_modulus": null,
  "universal_anisotropy": null,
  "homogeneous_poisson": null,
  "e_total": null,
  "e_ionic": null,
  "e_electronic": null,
  "n": null,
  "e_ij_max": null,
  "weighted_surface_energy_EV_PER_ANG2": null,
  "weighted_surface_energy": null,
  "weighted_work_function": null,
  "surface_anisotropy": null,
  "shape_factor": null,
  "has_reconstructed": null,
  "possible_species": null,
  "has_props": null,
  "theoretical": null,
  "database_IDs": null,
  "fields_not_requested": [
    "builder_meta",
    "nsites",
    "elements",
    "nelements",
    "composition",
    "composition_reduced",
    "chemsys",
    "symmetry",
    "property_name",
    "deprecated",
    "deprecation_reasons",
    "last_updated",
    "origins",
    "warnings",
    "task_ids",
    "uncorrected_energy_per_atom",
    "equilibrium_reaction_energy_per_atom",
    "decomposes_to",
    "xas",
    "grain_boundaries",
    "cbm",
    "vbm",
    "is_gap_direct",
    "is_metal",
    "es_source_calc_id",
    "bandstructure",
    "dos",
    "dos_energy_up",
    "dos_energy_down",
    "is_magnetic",
    "ordering",
    "total_magnetization_normalized_vol",
    "total_magnetization_normalized_formula_units",
    "num_magnetic_sites",
    "num_unique_magnetic_sites",
    "types_of_magnetic_species",
    "bulk_modulus",
    "shear_modulus",
    "universal_anisotropy",
    "homogeneous_poisson",
    "e_total",
    "e_ionic",
    "e_electronic",
    "n",
    "e_ij_max",
    "weighted_surface_energy_EV_PER_ANG2",
    "weighted_surface_energy",
    "weighted_work_function",
    "surface_anisotropy",
    "shape_factor",
    "has_reconstructed",
    "possible_species",
    "has_props",
    "theoretical",
    "database_IDs"
  ]
}
