{"builder_meta": null, "nsites": null, "elements": null, "nelements": null, "composition": null, "composition_reduced": null, "formula_pretty": "Fe5Si3", "formula_anonymous": "A3B5", "chemsys": null, "volume": 182.09747641773836, "density": 6.6291443748703465, "density_atomic": 11.381092276108648, "symmetry": null, "property_name": null, "material_id": "mp-449", "deprecated": null, "deprecation_reasons": null, "last_updated": null, "origins": null, "warnings": null, "structure": {"@module": "pymatgen.core.structure", "@class": "Structure", "charge": 0, "lattice": {"matrix": [[3.3492, -5.800985, 0.0], [3.3492, 5.800985, 0.0], [0.0, 0.0, 4.686311]], "pbc": [true, true, true], "a": 6.698400376972475, "b": 6.698400376972475, "c": 4.686311, "alpha": 90.0, "beta": 90.0, "gamma": 120.00000372332146, "volume": 182.09747641773836}, "properties": {}, "sites": [{"species": [{"element": "Fe", "occu": 1}], "abc": [0.0, 0.761438, 0.75], "properties": {"magmom": 1.796}, "label": "Fe", "xyz": [2.5502081496, 4.41709041643, 3.51473325]}, {"species": [{"element": "Fe", "occu": 1}], "abc": [0.0, 0.238562, 0.25], "properties": {"magmom": 1.795}, "label": "Fe", "xyz": [0.7989918504, 1.3838945835699998, 1.17157775]}, {"species": [{"element": "Fe", "occu": 1}], "abc": [0.761438, 0.761438, 0.25], "properties": {"magmom": 1.794}, "label": "Fe", "xyz": [5.1004162992, 0.0, 1.17157775]}, {"species": [{"element": "Fe", "occu": 1}], "abc": [0.761438, 0.0, 0.75], "properties": {"magmom": 1.795}, "label": "Fe", "xyz": [2.5502081496, -4.41709041643, 3.51473325]}, {"species": [{"element": "Fe", "occu": 1}], "abc": [0.238562, 0.238562, 0.75], "properties": {"magmom": 1.795}, "label": "Fe", "xyz": [1.5979837008, 0.0, 3.51473325]}, {"species": [{"element": "Fe", "occu": 1}], "abc": [0.238562, 0.0, 0.25], "properties": {"magmom": 1.794}, "label": "Fe", "xyz": [0.7989918504, -1.3838945835699998, 1.17157775]}, {"species": [{"element": "Fe", "occu": 1}], "abc": [0.333333, 0.666667, 0.5], "properties": {"magmom": 1.283}, "label": "Fe", "xyz": [3.3492, 1.9336655339900002, 2.3431555]}, {"species": [{"element": "Fe", "occu": 1}], "abc": [0.666667, 0.333333, 0.0], "properties": {"magmom": 1.282}, "label": "Fe", "xyz": [3.3492, -1.9336655339900002, 0.0]}, {"species": [{"element": "Fe", "occu": 1}], "abc": [0.666667, 0.333333, 0.5], "properties": {"magmom": 1.283}, "label": "Fe", "xyz": [3.3492, -1.9336655339900002, 2.3431555]}, {"species": [{"element": "Fe", "occu": 1}], "abc": [0.333333, 0.666667, 0.0], "properties": {"magmom": 1.283}, "label": "Fe", "xyz": [3.3492, 1.9336655339900002, 0.0]}, {"species": [{"element": "Si", "occu": 1}], "abc": [0.395401, 0.0, 0.75], "properties": {"magmom": -0.07}, "label": "Si", "xyz": [1.3242770292000001, -2.293715269985, 3.51473325]}, {"species": [{"element": "Si", "occu": 1}], "abc": [0.395401, 0.395401, 0.25], "properties": {"magmom": -0.07}, "label": "Si", "xyz": [2.6485540584000002, 0.0, 1.17157775]}, {"species": [{"element": "Si", "occu": 1}], "abc": [0.0, 0.604599, 0.25], "properties": {"magmom": -0.07}, "label": "Si", "xyz": [2.0249229708, 3.507269730015, 1.17157775]}, {"species": [{"element": "Si", "occu": 1}], "abc": [0.0, 0.395401, 0.75], "properties": {"magmom": -0.07}, "label": "Si", "xyz": [1.3242770292000001, 2.293715269985, 3.51473325]}, {"species": [{"element": "Si", "occu": 1}], "abc": [0.604599, 0.604599, 0.75], "properties": {"magmom": -0.07100000000000001}, "label": "Si", "xyz": [4.0498459416, 0.0, 3.51473325]}, {"species": [{"element": "Si", "occu": 1}], "abc": [0.604599, 0.0, 0.25], "properties": {"magmom": -0.07}, "label": "Si", "xyz": [2.0249229708, -3.507269730015, 1.17157775]}]}, "task_ids": null, "uncorrected_energy_per_atom": null, "energy_per_atom": -7.68430291625, "formation_energy_per_atom": -0.356045398749999, "energy_above_hull": 0.033978619374999006, "is_stable": false, "equilibrium_reaction_energy_per_atom": null, "decomposes_to": null, "xas": null, "grain_boundaries": null, "band_gap": 0.0, "cbm": null, "vbm": null, "efermi": 8.10397613, "is_gap_direct": null, "is_metal": null, "es_source_calc_id": null, "bandstructure": null, "dos": null, "dos_energy_up": null, "dos_energy_down": null, "is_magnetic": null, "ordering": null, "total_magnetization": 14.8842087, "total_magnetization_normalized_vol": null, "total_magnetization_normalized_formula_units": null, "num_magnetic_sites": null, "num_unique_magnetic_sites": null, "types_of_magnetic_species": null, "bulk_modulus": null, "shear_modulus": null, "universal_anisotropy": null, "homogeneous_poisson": null, "e_total": null, "e_ionic": null, "e_electronic": null, "n": null, "e_ij_max": null, "weighted_surface_energy_EV_PER_ANG2": null, "weighted_surface_energy": null, "weighted_work_function": null, "surface_anisotropy": null, "shape_factor": null, "has_reconstructed": null, "possible_species": null, "has_props": null, "theoretical": null, "database_IDs": null, "fields_not_requested": ["builder_meta", "nsites", "elements", "nelements", "composition", "composition_reduced", "chemsys", "symmetry", "property_name", "deprecated", "deprecation_reasons", "last_updated", "origins", "warnings", "task_ids", "uncorrected_energy_per_atom", "equilibrium_reaction_energy_per_atom", "decomposes_to", "xas", "grain_boundaries", "cbm", "vbm", "is_gap_direct", "is_metal", "es_source_calc_id", "bandstructure", "dos", "dos_energy_up", "dos_energy_down", "is_magnetic", "ordering", "total_magnetization_normalized_vol", "total_magnetization_normalized_formula_units", "num_magnetic_sites", "num_unique_magnetic_sites", "types_of_magnetic_species", "bulk_modulus", "shear_modulus", "universal_anisotropy", "homogeneous_poisson", "e_total", "e_ionic", "e_electronic", "n", "e_ij_max", "weighted_surface_energy_EV_PER_ANG2", "weighted_surface_energy", "weighted_work_function", "surface_anisotropy", "shape_factor", "has_reconstructed", "possible_species", "has_props", "theoretical", "database_IDs"]}