{
  "builder_meta": null,
  "nsites": null,
  "elements": null,
  "nelements": null,
  "composition": null,
  "composition_reduced": null,
  "formula_pretty": "Fe6Ge5",
  "formula_anonymous": "A5B6",
  "chemsys": null,
  "volume": 283.7090000524931,
  "density": 8.173900819644391,
  "density_atomic": 12.895863638749686,
  "symmetry": null,
  "property_name": null,
  "material_id": "mp-636946",
  "deprecated": null,
  "deprecation_reasons": null,
  "last_updated": null,
  "origins": null,
  "warnings": null,
  "structure": {
    "@module": "pymatgen.core.structure",
    "@class": "Structure",
    "charge": 0,
    "lattice": {
      "matrix": [
        [3.907855999999999, 4.94365, 0.0],
        [-3.907855999999999, 4.94365, 0.0],
        [0.0, 2.625192, 7.342718]
      ],
      "pbc": [true, true, true],
      "a": 6.301667544327929,
      "b": 6.301667544327929,
      "c": 7.797893347846455,
      "alpha": 74.68624362514707,
      "beta": 74.68624362514707,
      "gamma": 76.65132412114691,
      "volume": 283.70900005249297
    },
    "properties": {},
    "sites": [
      {
        "species": [{ "element": "Fe", "occu": 1 }],
        "abc": [0.123655999999999, 0.123655999999999, 0.9827100000000001],
        "properties": { "magmom": 1.912 },
        "label": "Fe",
        "xyz": [0.0, 3.8024263991199905, 7.2157624057800005]
      },
      {
        "species": [{ "element": "Fe", "occu": 1 }],
        "abc": [0.976247, 0.455615999999999, 0.175547999999999],
        "properties": { "magmom": 1.972 },
        "label": "Fe",
        "xyz": [2.034550977136003, 7.539476725165993, 1.2889994594639926]
      },
      {
        "species": [{ "element": "Fe", "occu": 1 }],
        "abc": [0.421290999999999, 0.421290999999999, 0.27883],
        "properties": { "magmom": 1.186 },
        "label": "Fe",
        "xyz": [0.0, 4.89741278965999, 2.04737005994]
      },
      {
        "species": [{ "element": "Fe", "occu": 1 }],
        "abc": [0.252343, 0.747657, 0.5],
        "properties": { "magmom": 1.342 },
        "label": "Fe",
        "xyz": [-1.9356157867839994, 6.256246, 3.671359]
      },
      {
        "species": [{ "element": "Fe", "occu": 1 }],
        "abc": [0.578709, 0.578709, 0.7211700000000001],
        "properties": { "magmom": 1.186 },
        "label": "Fe",
        "xyz": [0.0, 7.61507921034, 5.29534794006]
      },
      {
        "species": [{ "element": "Fe", "occu": 1 }],
        "abc": [0.023753, 0.544384, 0.824452],
        "properties": { "magmom": 1.972 },
        "label": "Fe",
        "xyz": [-2.034550977135999, 4.973015274833999, 6.053718540535999]
      },
      {
        "species": [{ "element": "Fe", "occu": 1 }],
        "abc": [0.876344, 0.876344, 0.01729],
        "properties": { "magmom": 1.912 },
        "label": "Fe",
        "xyz": [0.0, 8.710065600879998, 0.12695559422]
      },
      {
        "species": [{ "element": "Fe", "occu": 1 }],
        "abc": [0.455615999999999, 0.976247, 0.175547999999999],
        "properties": { "magmom": 1.972 },
        "label": "Fe",
        "xyz": [-2.034550977136003, 7.539476725165993, 1.2889994594639926]
      },
      {
        "species": [{ "element": "Fe", "occu": 1 }],
        "abc": [0.747657, 0.252343, 0.5],
        "properties": { "magmom": 1.342 },
        "label": "Fe",
        "xyz": [1.9356157867839994, 6.256246, 3.671359]
      },
      {
        "species": [{ "element": "Fe", "occu": 1 }],
        "abc": [0.544384, 0.023753, 0.824452],
        "properties": { "magmom": 1.972 },
        "label": "Fe",
        "xyz": [2.034550977135999, 4.973015274833999, 6.053718540535999]
      },
      {
        "species": [{ "element": "Fe", "occu": 1 }],
        "abc": [0.5, 0.0, 0.5],
        "properties": { "magmom": 1.675 },
        "label": "Fe",
        "xyz": [1.9539279999999994, 3.784421, 3.671359]
      },
      {
        "species": [{ "element": "Fe", "occu": 1 }],
        "abc": [0.0, 0.5, 0.5],
        "properties": { "magmom": 1.675 },
        "label": "Fe",
        "xyz": [-1.9539279999999994, 3.784421, 3.671359]
      },
      {
        "species": [{ "element": "Ge", "occu": 1 }],
        "abc": [0.343561, 0.343561, 0.627416],
        "properties": { "magmom": -0.082 },
        "label": "Ge",
        "xyz": [0.0, 5.043978139172, 4.606938756688]
      },
      {
        "species": [{ "element": "Ge", "occu": 1 }],
        "abc": [0.364155, 0.364155, 0.994008999999999],
        "properties": { "magmom": -0.085 },
        "label": "Ge",
        "xyz": [0.0, 6.209974206227997, 7.298727776461993]
      },
      {
        "species": [{ "element": "Ge", "occu": 1 }],
        "abc": [0.242708999999999, 0.84711, 0.787292],
        "properties": { "magmom": -0.093 },
        "label": "Ge",
        "xyz": [-2.3619120742560034, 7.454476359413996, 5.780863139656]
      },
      {
        "species": [{ "element": "Ge", "occu": 1 }],
        "abc": [0.149426, 0.149426, 0.399257],
        "properties": { "magmom": -0.088 },
        "label": "Ge",
        "xyz": [0.0, 2.525545972144, 2.9316315605259997]
      },
      {
        "species": [{ "element": "Ge", "occu": 1 }],
        "abc": [0.84711, 0.242708999999999, 0.787292],
        "properties": { "magmom": -0.093 },
        "label": "Ge",
        "xyz": [2.3619120742560034, 7.454476359413996, 5.780863139656]
      },
      {
        "species": [{ "element": "Ge", "occu": 1 }],
        "abc": [0.635845, 0.635845, 0.005991],
        "properties": { "magmom": -0.085 },
        "label": "Ge",
        "xyz": [0.0, 6.302517793772, 0.043990223537999994]
      },
      {
        "species": [{ "element": "Ge", "occu": 1 }],
        "abc": [0.15289000000000003, 0.757290999999999, 0.212707999999999],
        "properties": { "magmom": -0.093 },
        "label": "Ge",
        "xyz": [-2.3619120742559954, 5.058015640585992, 1.5618548603439926]
      },
      {
        "species": [{ "element": "Ge", "occu": 1 }],
        "abc": [0.850573999999999, 0.850573999999999, 0.600743],
        "properties": { "magmom": -0.088 },
        "label": "Ge",
        "xyz": [0.0, 9.986946027855991, 4.411086439474]
      },
      {
        "species": [{ "element": "Ge", "occu": 1 }],
        "abc": [0.656439, 0.656439, 0.372583999999999],
        "properties": { "magmom": -0.082 },
        "label": "Ge",
        "xyz": [0.0, 7.468513860827997, 2.7357792433119927]
      },
      {
        "species": [{ "element": "Ge", "occu": 1 }],
        "abc": [0.757290999999999, 0.15289000000000003, 0.212707999999999],
        "properties": { "magmom": -0.093 },
        "label": "Ge",
        "xyz": [2.3619120742559954, 5.058015640585992, 1.5618548603439926]
      }
    ]
  },
  "task_ids": null,
  "uncorrected_energy_per_atom": null,
  "energy_per_atom": -6.813130219090909,
  "formation_energy_per_atom": -0.09174235227272601,
  "energy_above_hull": 0.036683335000001004,
  "is_stable": false,
  "equilibrium_reaction_energy_per_atom": null,
  "decomposes_to": null,
  "xas": null,
  "grain_boundaries": null,
  "band_gap": 0.0,
  "cbm": null,
  "vbm": null,
  "efermi": 7.42829183,
  "is_gap_direct": null,
  "is_metal": null,
  "es_source_calc_id": null,
  "bandstructure": null,
  "dos": null,
  "dos_energy_up": null,
  "dos_energy_down": null,
  "is_magnetic": null,
  "ordering": null,
  "total_magnetization": 18.9523444,
  "total_magnetization_normalized_vol": null,
  "total_magnetization_normalized_formula_units": null,
  "num_magnetic_sites": null,
  "num_unique_magnetic_sites": null,
  "types_of_magnetic_species": null,
  "bulk_modulus": null,
  "shear_modulus": null,
  "universal_anisotropy": null,
  "homogeneous_poisson": null,
  "e_total": null,
  "e_ionic": null,
  "e_electronic": null,
  "n": null,
  "e_ij_max": null,
  "weighted_surface_energy_EV_PER_ANG2": null,
  "weighted_surface_energy": null,
  "weighted_work_function": null,
  "surface_anisotropy": null,
  "shape_factor": null,
  "has_reconstructed": null,
  "possible_species": null,
  "has_props": null,
  "theoretical": null,
  "database_IDs": null,
  "fields_not_requested": [
    "builder_meta",
    "nsites",
    "elements",
    "nelements",
    "composition",
    "composition_reduced",
    "chemsys",
    "symmetry",
    "property_name",
    "deprecated",
    "deprecation_reasons",
    "last_updated",
    "origins",
    "warnings",
    "task_ids",
    "uncorrected_energy_per_atom",
    "equilibrium_reaction_energy_per_atom",
    "decomposes_to",
    "xas",
    "grain_boundaries",
    "cbm",
    "vbm",
    "is_gap_direct",
    "is_metal",
    "es_source_calc_id",
    "bandstructure",
    "dos",
    "dos_energy_up",
    "dos_energy_down",
    "is_magnetic",
    "ordering",
    "total_magnetization_normalized_vol",
    "total_magnetization_normalized_formula_units",
    "num_magnetic_sites",
    "num_unique_magnetic_sites",
    "types_of_magnetic_species",
    "bulk_modulus",
    "shear_modulus",
    "universal_anisotropy",
    "homogeneous_poisson",
    "e_total",
    "e_ionic",
    "e_electronic",
    "n",
    "e_ij_max",
    "weighted_surface_energy_EV_PER_ANG2",
    "weighted_surface_energy",
    "weighted_work_function",
    "surface_anisotropy",
    "shape_factor",
    "has_reconstructed",
    "possible_species",
    "has_props",
    "theoretical",
    "database_IDs"
  ]
}
