{"builder_meta": null, "nsites": null, "elements": null, "nelements": null, "composition": null, "composition_reduced": null, "formula_pretty": "Fe7Co", "formula_anonymous": "AB7", "chemsys": null, "volume": 91.92474536878193, "density": 8.126109012760738, "density_atomic": 11.490593171097741, "symmetry": null, "property_name": null, "material_id": "mp-1080603", "deprecated": null, "deprecation_reasons": null, "last_updated": null, "origins": null, "warnings": null, "structure": {"@module": "pymatgen.core.structure", "@class": "Structure", "charge": 0, "lattice": {"matrix": [[-2.84292356, 2.84334352, 2.84305599], [2.84331202, -2.84290781, 2.84300873], [2.84292184, 2.84290609, -2.84262025]], "pbc": [true, true, true], "a": 4.92440697983056, "b": 4.924352414083672, "c": 4.923901858345487, "alpha": 109.46635240333708, "beta": 109.46657693095246, "gamma": 109.47291834186214, "volume": 91.92474536878193}, "properties": {}, "sites": [{"species": [{"element": "Fe", "occu": 1}], "abc": [0.0, 0.5, 0.5], "properties": {"magmom": 2.646}, "label": "Fe", "xyz": [2.84311693, -8.599999998804009e-07, 0.0001942400000001232]}, {"species": [{"element": "Fe", "occu": 1}], "abc": [0.5, 0.5, -0.0], "properties": {"magmom": 2.646}, "label": "Fe", "xyz": [0.00019422999999996193, 0.00021785500000004454, 2.84303236]}, {"species": [{"element": "Fe", "occu": 1}], "abc": [0.5, -0.0, 0.5], "properties": {"magmom": 2.646}, "label": "Fe", "xyz": [-8.600000001024455e-07, 2.843124805, 0.00021786999999995338]}, {"species": [{"element": "Fe", "occu": 1}], "abc": [-0.0, 0.0, 0.5], "properties": {"magmom": 2.746}, "label": "Fe", "xyz": [1.42146092, 1.421453045, -1.421310125]}, {"species": [{"element": "Fe", "occu": 1}], "abc": [0.0, 0.5, 0.0], "properties": {"magmom": 2.746}, "label": "Fe", "xyz": [1.42165601, -1.421453905, 1.421504365]}, {"species": [{"element": "Fe", "occu": 1}], "abc": [0.5, -0.0, -0.0], "properties": {"magmom": 2.746}, "label": "Fe", "xyz": [-1.42146178, 1.42167176, 1.421527995]}, {"species": [{"element": "Fe", "occu": 1}], "abc": [0.5, 0.5, 0.5], "properties": {"magmom": 2.745}, "label": "Fe", "xyz": [1.4216551499999999, 1.4216709, 1.421722235]}, {"species": [{"element": "Co", "occu": 1}], "abc": [-0.0, 0.0, 0.0], "properties": {"magmom": 1.792}, "label": "Co", "xyz": [0.0, 0.0, 0.0]}]}, "task_ids": null, "uncorrected_energy_per_atom": null, "energy_per_atom": -8.32321404875, "formation_energy_per_atom": -0.020268399999999003, "energy_above_hull": 0.0005384212500000001, "is_stable": false, "equilibrium_reaction_energy_per_atom": null, "decomposes_to": null, "xas": null, "grain_boundaries": null, "band_gap": 0.0, "cbm": null, "vbm": null, "efermi": 5.17451665, "is_gap_direct": null, "is_metal": null, "es_source_calc_id": null, "bandstructure": null, "dos": null, "dos_energy_up": null, "dos_energy_down": null, "is_magnetic": null, "ordering": null, "total_magnetization": 19.8978244, "total_magnetization_normalized_vol": null, "total_magnetization_normalized_formula_units": null, "num_magnetic_sites": null, "num_unique_magnetic_sites": null, "types_of_magnetic_species": null, "bulk_modulus": null, "shear_modulus": null, "universal_anisotropy": null, "homogeneous_poisson": null, "e_total": null, "e_ionic": null, "e_electronic": null, "n": null, "e_ij_max": null, "weighted_surface_energy_EV_PER_ANG2": null, "weighted_surface_energy": null, "weighted_work_function": null, "surface_anisotropy": null, "shape_factor": null, "has_reconstructed": null, "possible_species": null, "has_props": null, "theoretical": null, "database_IDs": null, "fields_not_requested": ["builder_meta", "nsites", "elements", "nelements", "composition", "composition_reduced", "chemsys", "symmetry", "property_name", "deprecated", "deprecation_reasons", "last_updated", "origins", "warnings", "task_ids", "uncorrected_energy_per_atom", "equilibrium_reaction_energy_per_atom", "decomposes_to", "xas", "grain_boundaries", "cbm", "vbm", "is_gap_direct", "is_metal", "es_source_calc_id", "bandstructure", "dos", "dos_energy_up", "dos_energy_down", "is_magnetic", "ordering", "total_magnetization_normalized_vol", "total_magnetization_normalized_formula_units", "num_magnetic_sites", "num_unique_magnetic_sites", "types_of_magnetic_species", "bulk_modulus", "shear_modulus", "universal_anisotropy", "homogeneous_poisson", "e_total", "e_ionic", "e_electronic", "n", "e_ij_max", "weighted_surface_energy_EV_PER_ANG2", "weighted_surface_energy", "weighted_work_function", "surface_anisotropy", "shape_factor", "has_reconstructed", "possible_species", "has_props", "theoretical", "database_IDs"]}