{"builder_meta": null, "nsites": null, "elements": null, "nelements": null, "composition": null, "composition_reduced": null, "formula_pretty": "Fe7C3", "formula_anonymous": "A3B7", "chemsys": null, "volume": 364.34224719862164, "density": 7.78347660061596, "density_atomic": 9.108556179965541, "symmetry": null, "property_name": null, "material_id": "mp-21717", "deprecated": null, "deprecation_reasons": null, "last_updated": null, "origins": null, "warnings": null, "structure": {"@module": "pymatgen.core.structure", "@class": "Structure", "charge": 0, "lattice": {"matrix": [[4.517344, 0.0, 0.0], [0.0, 6.857112, 0.0], [0.0, 0.0, 11.762107]], "pbc": [true, true, true], "a": 4.517344, "b": 6.857112, "c": 11.762107, "alpha": 90.0, "beta": 90.0, "gamma": 90.0, "volume": 364.34224719862164}, "properties": {}, "sites": [{"species": [{"element": "Fe", "occu": 1}], "abc": [0.942001, 0.563747, 0.190959], "properties": {"magmom": 1.738}, "label": "Fe", "xyz": [4.255342565344, 3.8656763186639997, 2.246080190613]}, {"species": [{"element": "Fe", "occu": 1}], "abc": [0.057998999999999, 0.436253, 0.809041], "properties": {"magmom": 1.738}, "label": "Fe", "xyz": [0.26200143465599546, 2.991435681336, 9.516026809387]}, {"species": [{"element": "Fe", "occu": 1}], "abc": [0.423035999999999, 0.75, 0.127903], "properties": {"magmom": 1.5150000000000001}, "label": "Fe", "xyz": [1.9109991363839953, 5.142834, 1.504408771621]}, {"species": [{"element": "Fe", "occu": 1}], "abc": [0.697773, 0.75, 0.800597999999999], "properties": {"magmom": 1.721}, "label": "Fe", "xyz": [3.1520806749119994, 5.142834, 9.416719339985988]}, {"species": [{"element": "Fe", "occu": 1}], "abc": [0.802226999999999, 0.25, 0.300598], "properties": {"magmom": 1.721}, "label": "Fe", "xyz": [3.623935325087995, 1.714278, 3.5356658399859997]}, {"species": [{"element": "Fe", "occu": 1}], "abc": [0.302226999999999, 0.25, 0.199402], "properties": {"magmom": 1.721}, "label": "Fe", "xyz": [1.3652633250879955, 1.714278, 2.345387660014]}, {"species": [{"element": "Fe", "occu": 1}], "abc": [0.942001, 0.936253, 0.190959], "properties": {"magmom": 1.738}, "label": "Fe", "xyz": [4.255342565344, 6.419991681336, 2.246080190613]}, {"species": [{"element": "Fe", "occu": 1}], "abc": [0.275428, 0.25, 0.412284], "properties": {"magmom": 1.718}, "label": "Fe", "xyz": [1.2442030232319998, 1.714278, 4.849328522388]}, {"species": [{"element": "Fe", "occu": 1}], "abc": [0.224572, 0.75, 0.912284], "properties": {"magmom": 1.718}, "label": "Fe", "xyz": [1.014468976768, 5.142834, 10.730382022388]}, {"species": [{"element": "Fe", "occu": 1}], "abc": [0.442001, 0.563747, 0.309041], "properties": {"magmom": 1.738}, "label": "Fe", "xyz": [1.9966705653439998, 3.8656763186639997, 3.634973309387]}, {"species": [{"element": "Fe", "occu": 1}], "abc": [0.252419, 0.06633, 0.016153], "properties": {"magmom": 1.998}, "label": "Fe", "xyz": [1.1402634551359998, 0.45483223895999997, 0.189993314371]}, {"species": [{"element": "Fe", "occu": 1}], "abc": [0.057998999999999, 0.063747, 0.809041], "properties": {"magmom": 1.738}, "label": "Fe", "xyz": [0.26200143465599546, 0.437120318664, 9.516026809387]}, {"species": [{"element": "Fe", "occu": 1}], "abc": [0.442001, 0.936253, 0.309041], "properties": {"magmom": 1.738}, "label": "Fe", "xyz": [1.9966705653439998, 6.419991681336, 3.634973309387]}, {"species": [{"element": "Fe", "occu": 1}], "abc": [0.576963999999999, 0.25, 0.872097], "properties": {"magmom": 1.5150000000000001}, "label": "Fe", "xyz": [2.6063448636159956, 1.714278, 10.257698228379]}, {"species": [{"element": "Fe", "occu": 1}], "abc": [0.747580999999999, 0.56633, 0.983846999999999], "properties": {"magmom": 1.998}, "label": "Fe", "xyz": [3.3770805448639956, 3.88338823896, 11.572113685628988]}, {"species": [{"element": "Fe", "occu": 1}], "abc": [0.247581, 0.9336700000000001, 0.516153], "properties": {"magmom": 1.998}, "label": "Fe", "xyz": [1.118408544864, 6.402279761040001, 6.071046814371]}, {"species": [{"element": "Fe", "occu": 1}], "abc": [0.197773, 0.75, 0.699402], "properties": {"magmom": 1.721}, "label": "Fe", "xyz": [0.8934086749119999, 5.142834, 8.226441160014]}, {"species": [{"element": "Fe", "occu": 1}], "abc": [0.747580999999999, 0.9336700000000001, 0.983846999999999], "properties": {"magmom": 1.998}, "label": "Fe", "xyz": [3.3770805448639956, 6.402279761040001, 11.572113685628988]}, {"species": [{"element": "Fe", "occu": 1}], "abc": [0.247581, 0.56633, 0.516153], "properties": {"magmom": 1.998}, "label": "Fe", "xyz": [1.118408544864, 3.88338823896, 6.071046814371]}, {"species": [{"element": "Fe", "occu": 1}], "abc": [0.557999, 0.063747, 0.690959], "properties": {"magmom": 1.738}, "label": "Fe", "xyz": [2.520673434656, 0.437120318664, 8.127133690613]}, {"species": [{"element": "Fe", "occu": 1}], "abc": [0.775428, 0.25, 0.087716], "properties": {"magmom": 1.718}, "label": "Fe", "xyz": [3.502875023232, 1.714278, 1.031724977612]}, {"species": [{"element": "Fe", "occu": 1}], "abc": [0.923036, 0.75, 0.372096999999999], "properties": {"magmom": 1.5150000000000001}, "label": "Fe", "xyz": [4.169671136383999, 5.142834, 4.376644728378989]}, {"species": [{"element": "Fe", "occu": 1}], "abc": [0.724572, 0.75, 0.587716], "properties": {"magmom": 1.718}, "label": "Fe", "xyz": [3.2731409767679995, 5.142834, 6.912778477612]}, {"species": [{"element": "Fe", "occu": 1}], "abc": [0.252419, 0.43367000000000006, 0.016153], "properties": {"magmom": 1.998}, "label": "Fe", "xyz": [1.1402634551359998, 2.9737237610400005, 0.189993314371]}, {"species": [{"element": "Fe", "occu": 1}], "abc": [0.752419, 0.43367000000000006, 0.48384699999999903], "properties": {"magmom": 1.998}, "label": "Fe", "xyz": [3.3989354551359994, 2.9737237610400005, 5.691060185628989]}, {"species": [{"element": "Fe", "occu": 1}], "abc": [0.076963999999999, 0.25, 0.627903], "properties": {"magmom": 1.5150000000000001}, "label": "Fe", "xyz": [0.3476728636159955, 1.714278, 7.385462271621]}, {"species": [{"element": "Fe", "occu": 1}], "abc": [0.752419, 0.06633, 0.48384699999999903], "properties": {"magmom": 1.998}, "label": "Fe", "xyz": [3.3989354551359994, 0.45483223895999997, 5.691060185628989]}, {"species": [{"element": "Fe", "occu": 1}], "abc": [0.557999, 0.436253, 0.690959], "properties": {"magmom": 1.738}, "label": "Fe", "xyz": [2.520673434656, 2.991435681336, 8.127133690613]}, {"species": [{"element": "C", "occu": 1}], "abc": [0.043554999999999004, 0.026071999999999002, 0.352068], "properties": {"magmom": -0.10200000000000001}, "label": "C", "xyz": [0.1967529179199955, 0.17877862406399314, 4.141061487276]}, {"species": [{"element": "C", "occu": 1}], "abc": [0.956445, 0.9739279999999991, 0.647932], "properties": {"magmom": -0.10200000000000001}, "label": "C", "xyz": [4.32059108208, 6.678333375935994, 7.621045512724]}, {"species": [{"element": "C", "occu": 1}], "abc": [0.543555, 0.473927999999999, 0.147931999999999], "properties": {"magmom": -0.10200000000000001}, "label": "C", "xyz": [2.45542491792, 3.2497773759359934, 1.7399920127239883]}, {"species": [{"element": "C", "occu": 1}], "abc": [0.46738, 0.25, 0.561338999999999], "properties": {"magmom": -0.094}, "label": "C", "xyz": [2.1113162387199997, 1.714278, 6.602529381272989]}, {"species": [{"element": "C", "occu": 1}], "abc": [0.456445, 0.9739279999999991, 0.852067999999999], "properties": {"magmom": -0.10200000000000001}, "label": "C", "xyz": [2.0619190820799997, 6.678333375935994, 10.02211498727599]}, {"species": [{"element": "C", "occu": 1}], "abc": [0.456445, 0.526072, 0.852067999999999], "properties": {"magmom": -0.10200000000000001}, "label": "C", "xyz": [2.0619190820799997, 3.607334624064, 10.02211498727599]}, {"species": [{"element": "C", "occu": 1}], "abc": [0.043554999999999004, 0.473927999999999, 0.352068], "properties": {"magmom": -0.10200000000000001}, "label": "C", "xyz": [0.1967529179199955, 3.2497773759359934, 4.141061487276]}, {"species": [{"element": "C", "occu": 1}], "abc": [0.9673800000000001, 0.25, 0.938661], "properties": {"magmom": -0.094}, "label": "C", "xyz": [4.36998823872, 1.714278, 11.040631118727]}, {"species": [{"element": "C", "occu": 1}], "abc": [0.956445, 0.526072, 0.647932], "properties": {"magmom": -0.10200000000000001}, "label": "C", "xyz": [4.32059108208, 3.607334624064, 7.621045512724]}, {"species": [{"element": "C", "occu": 1}], "abc": [0.03262, 0.75, 0.061339], "properties": {"magmom": -0.094}, "label": "C", "xyz": [0.14735576128, 5.142834, 0.721475881273]}, {"species": [{"element": "C", "occu": 1}], "abc": [0.5326200000000001, 0.75, 0.438660999999999], "properties": {"magmom": -0.094}, "label": "C", "xyz": [2.4060277612800003, 5.142834, 5.159577618726988]}, {"species": [{"element": "C", "occu": 1}], "abc": [0.543555, 0.026071999999999002, 0.147931999999999], "properties": {"magmom": -0.10200000000000001}, "label": "C", "xyz": [2.45542491792, 0.17877862406399314, 1.7399920127239883]}]}, "task_ids": null, "uncorrected_energy_per_atom": null, "energy_per_atom": -8.63312537625, "formation_energy_per_atom": 0.06448911850000001, "energy_above_hull": 0.06448911850000001, "is_stable": false, "equilibrium_reaction_energy_per_atom": null, "decomposes_to": null, "xas": null, "grain_boundaries": null, "band_gap": 0.0, "cbm": null, "vbm": null, "efermi": 6.90180201, "is_gap_direct": null, "is_metal": null, "es_source_calc_id": null, "bandstructure": null, "dos": null, "dos_energy_up": null, "dos_energy_down": null, "is_magnetic": null, "ordering": null, "total_magnetization": 47.9675041, "total_magnetization_normalized_vol": null, "total_magnetization_normalized_formula_units": null, "num_magnetic_sites": null, "num_unique_magnetic_sites": null, "types_of_magnetic_species": null, "bulk_modulus": null, "shear_modulus": null, "universal_anisotropy": null, "homogeneous_poisson": null, "e_total": null, "e_ionic": null, "e_electronic": null, "n": null, "e_ij_max": null, "weighted_surface_energy_EV_PER_ANG2": null, "weighted_surface_energy": null, "weighted_work_function": null, "surface_anisotropy": null, "shape_factor": null, "has_reconstructed": null, "possible_species": null, "has_props": null, "theoretical": null, "database_IDs": null, "fields_not_requested": ["builder_meta", "nsites", "elements", "nelements", "composition", "composition_reduced", "chemsys", "symmetry", "property_name", "deprecated", "deprecation_reasons", "last_updated", "origins", "warnings", "task_ids", "uncorrected_energy_per_atom", "equilibrium_reaction_energy_per_atom", "decomposes_to", "xas", "grain_boundaries", "cbm", "vbm", "is_gap_direct", "is_metal", "es_source_calc_id", "bandstructure", "dos", "dos_energy_up", "dos_energy_down", "is_magnetic", "ordering", "total_magnetization_normalized_vol", "total_magnetization_normalized_formula_units", "num_magnetic_sites", "num_unique_magnetic_sites", "types_of_magnetic_species", "bulk_modulus", "shear_modulus", "universal_anisotropy", "homogeneous_poisson", "e_total", "e_ionic", "e_electronic", "n", "e_ij_max", "weighted_surface_energy_EV_PER_ANG2", "weighted_surface_energy", "weighted_work_function", "surface_anisotropy", "shape_factor", "has_reconstructed", "possible_species", "has_props", "theoretical", "database_IDs"]}