{"builder_meta": null, "nsites": null, "elements": null, "nelements": null, "composition": null, "composition_reduced": null, "formula_pretty": "Fe7Ge4", "formula_anonymous": "A4B7", "chemsys": null, "volume": 280.8436126582701, "density": 8.058690384304253, "density_atomic": 12.765618757194096, "symmetry": null, "property_name": null, "material_id": "mp-1212970", "deprecated": null, "deprecation_reasons": null, "last_updated": null, "origins": null, "warnings": null, "structure": {"@module": "pymatgen.core.structure", "@class": "Structure", "charge": 0, "lattice": {"matrix": [[4.04152336, -6.9996457, -6.936e-05], [4.04161144, 6.99969717, -2.299999999999999e-07], [-4.3320000000000005e-05, 2.4240000000000002e-05, 4.96371771]], "pbc": [true, true, true], "a": 8.082632677523147, "b": 8.082721293205955, "c": 4.963717710248221, "alpha": 90.00000935633028, "beta": 90.00098401825632, "gamma": 119.9962525948977, "volume": 280.8436126582701}, "properties": {}, "sites": [{"species": [{"element": "Fe", "occu": 1}], "abc": [0.15883617, 0.31770667, 0.24995766], "properties": {"magmom": 2.513}, "label": "Fe", "xyz": [1.9259761753384048, 1.1120596235178333, 1.2407081737428733]}, {"species": [{"element": "Fe", "occu": 1}], "abc": [0.84114765, 0.68233717, 0.7500423900000001], "properties": {"magmom": 2.5140000000000002}, "label": "Fe", "xyz": [6.157227097056994, -1.1115637925252622, 3.722940195555174]}, {"species": [{"element": "Fe", "occu": 1}], "abc": [0.6823136200000001, 0.8411490500000001, 0.24996439], "properties": {"magmom": 2.513}, "label": "Fe", "xyz": [6.15717322884392, 1.1118410876855682, 1.2407051507753823]}, {"species": [{"element": "Fe", "occu": 1}], "abc": [0.31768576, 0.15883144, 0.7500358300000001], "properties": {"magmom": 2.5140000000000002}, "label": "Fe", "xyz": [1.9258368935628714, -1.111897601991688, 3.7229440612900047]}, {"species": [{"element": "Fe", "occu": 1}], "abc": [0.15884816000000002, 0.84116071, 0.24995734], "properties": {"magmom": 2.513}, "label": "Fe", "xyz": [4.041622469595571, 4.775995460171201, 1.2407064641271504]}, {"species": [{"element": "Fe", "occu": 1}], "abc": [0.84117582, 0.15881846, 0.75004271], "properties": {"magmom": 2.5140000000000002}, "label": "Fe", "xyz": [4.041481739366141, -4.776233405365925, 3.7229419024002732]}, {"species": [{"element": "Fe", "occu": 1}], "abc": [1.46e-06, 4.8e-07, 1.00001529], "properties": {"magmom": 2.741}, "label": "Fe", "xyz": [-3.5480064766e-05, 1.73807425492e-05, 4.96379360514241]}, {"species": [{"element": "Fe", "occu": 1}], "abc": [1.559999999999999e-06, 4.7e-07, 0.49998479999999906], "properties": {"magmom": 2.741}, "label": "Fe", "xyz": [-1.3455007717599965e-05, 4.490041929899986e-06, 2.4817834063824935]}, {"species": [{"element": "Fe", "occu": 1}], "abc": [0.49997519999999906, -4.992e-05, 1.0000208], "properties": {"magmom": 2.487}, "label": "Fe", "xyz": [2.0204163720765274, -3.499974443165168, 4.963786277059977]}, {"species": [{"element": "Fe", "occu": 1}], "abc": [1.00004775, 0.50002538, 1.00003454], "properties": {"magmom": 2.487}, "label": "Fe", "xyz": [6.062581317342515, -3.4999294549307516, 4.963819678491926]}, {"species": [{"element": "Fe", "occu": 1}], "abc": [0.499975299999999, -4.988e-05, 0.499979299999999], "properties": {"magmom": 2.487}, "label": "Fe", "xyz": [2.020438599691101, -3.4999869841478106, 2.4817214277680626]}, {"species": [{"element": "Fe", "occu": 1}], "abc": [0.49997253, 0.50002253, 1.00001951], "properties": {"magmom": 2.487}, "label": "Fe", "xyz": [4.041504116013871, 0.00039995891754087803, 4.9637797590326596]}, {"species": [{"element": "Fe", "occu": 1}], "abc": [1.00004758, 0.5000253, 0.49996557], "properties": {"magmom": 2.487}, "label": "Fe", "xyz": [6.062601969942408, -3.4999409466385876, 2.4816184758932773]}, {"species": [{"element": "Fe", "occu": 1}], "abc": [0.49997267, 0.5000226, 0.49998063000000004], "properties": {"magmom": 2.487}, "label": "Fe", "xyz": [4.041526626424224, 0.0003873480034939373, 2.4817279146783684]}, {"species": [{"element": "Ge", "occu": 1}], "abc": [0.8101823300000001, 0.62036579, 0.25002845], "properties": {"magmom": -0.136}, "label": "Ge", "xyz": [5.781637455170412, -1.3286105370830392, 1.2410143083383092]}, {"species": [{"element": "Ge", "occu": 1}], "abc": [0.18983033, 0.37964857, 0.7499715100000001], "properties": {"magmom": -0.136}, "label": "Ge", "xyz": [2.3015632280573364, 1.3286981472188688, 3.7226336122315824]}, {"species": [{"element": "Ge", "occu": 1}], "abc": [0.37960321, 0.18980247, 0.25001895], "properties": {"magmom": -0.136}, "label": "Ge", "xyz": [2.3012722440173285, -1.3285221040053392, 1.2409971170173908]}, {"species": [{"element": "Ge", "occu": 1}], "abc": [0.62035744, 0.81018335, 0.74998124], "properties": {"magmom": -0.136}, "label": "Ge", "xyz": [5.781602891980006, 1.3287739943623684, 3.7226519488215515]}, {"species": [{"element": "Ge", "occu": 1}], "abc": [0.81018003, 0.18980397000000002, 0.25002826], "properties": {"magmom": -0.136}, "label": "Ge", "xyz": [4.041464582335695, -4.342396790866585, 1.2410134644206907]}, {"species": [{"element": "Ge", "occu": 1}], "abc": [0.18982113, 0.81018322, 0.74997174], "properties": {"magmom": -0.136}, "label": "Ge", "xyz": [4.041579812788856, 4.342374715156824, 3.722634655501798]}, {"species": [{"element": "Ge", "occu": 1}], "abc": [0.33335135, 0.6666750100000001, 0.25000333], "properties": {"magmom": -0.112}, "label": "Ge", "xyz": [4.041677785146396, 2.3331878972707463, 1.2409226820950863]}, {"species": [{"element": "Ge", "occu": 1}], "abc": [0.6666769100000001, 0.33333814, 0.74999679], "properties": {"magmom": -0.112}, "label": "Ge", "xyz": [4.041581055488996, -2.3332179512375344, 3.722726031587901]}]}, "task_ids": null, "uncorrected_energy_per_atom": null, "energy_per_atom": -7.14732003, "formation_energy_per_atom": -0.076205494545454, "energy_above_hull": 0.06478050560606001, "is_stable": false, "equilibrium_reaction_energy_per_atom": null, "decomposes_to": null, "xas": null, "grain_boundaries": null, "band_gap": 0.0, "cbm": null, "vbm": null, "efermi": 5.96358232, "is_gap_direct": null, "is_metal": null, "es_source_calc_id": null, "bandstructure": null, "dos": null, "dos_energy_up": null, "dos_energy_down": null, "is_magnetic": null, "ordering": null, "total_magnetization": 33.6322753, "total_magnetization_normalized_vol": null, "total_magnetization_normalized_formula_units": null, "num_magnetic_sites": null, "num_unique_magnetic_sites": null, "types_of_magnetic_species": null, "bulk_modulus": null, "shear_modulus": null, "universal_anisotropy": null, "homogeneous_poisson": null, "e_total": null, "e_ionic": null, "e_electronic": null, "n": null, "e_ij_max": null, "weighted_surface_energy_EV_PER_ANG2": null, "weighted_surface_energy": null, "weighted_work_function": null, "surface_anisotropy": null, "shape_factor": null, "has_reconstructed": null, "possible_species": null, "has_props": null, "theoretical": null, "database_IDs": null, "fields_not_requested": ["builder_meta", "nsites", "elements", "nelements", "composition", "composition_reduced", "chemsys", "symmetry", "property_name", "deprecated", "deprecation_reasons", "last_updated", "origins", "warnings", "task_ids", "uncorrected_energy_per_atom", "equilibrium_reaction_energy_per_atom", "decomposes_to", "xas", "grain_boundaries", "cbm", "vbm", "is_gap_direct", "is_metal", "es_source_calc_id", "bandstructure", "dos", "dos_energy_up", "dos_energy_down", "is_magnetic", "ordering", "total_magnetization_normalized_vol", "total_magnetization_normalized_formula_units", "num_magnetic_sites", "num_unique_magnetic_sites", "types_of_magnetic_species", "bulk_modulus", "shear_modulus", "universal_anisotropy", "homogeneous_poisson", "e_total", "e_ionic", "e_electronic", "n", "e_ij_max", "weighted_surface_energy_EV_PER_ANG2", "weighted_surface_energy", "weighted_work_function", "surface_anisotropy", "shape_factor", "has_reconstructed", "possible_species", "has_props", "theoretical", "database_IDs"]}