{
  "builder_meta": null,
  "nsites": null,
  "elements": null,
  "nelements": null,
  "composition": null,
  "composition_reduced": null,
  "formula_pretty": "Fe7Mo6",
  "formula_anonymous": "A6B7",
  "chemsys": null,
  "volume": 166.9425198520041,
  "density": 9.614101541898435,
  "density_atomic": 12.841732296308008,
  "symmetry": null,
  "property_name": null,
  "material_id": "mp-569594",
  "deprecated": null,
  "deprecation_reasons": null,
  "last_updated": null,
  "origins": null,
  "warnings": null,
  "structure": {
    "@module": "pymatgen.core.structure",
    "@class": "Structure",
    "charge": 0,
    "lattice": {
      "matrix": [
        [8.618047, -2.380015, 0.0],
        [8.618047, 2.380015, 0.0],
        [7.960767, 0.0, 4.069568999999999]
      ],
      "pbc": [true, true, true],
      "a": 8.940649053308938,
      "b": 8.940649053308938,
      "c": 8.94064891795053,
      "alpha": 30.876723978249974,
      "beta": 30.876723978249974,
      "gamma": 30.876727479422534,
      "volume": 166.942519852004
    },
    "properties": {},
    "sites": [
      {
        "species": [{ "element": "Fe", "occu": 1 }],
        "abc": [0.589133999999999, 0.091518999999999, 0.091518999999999],
        "properties": { "magmom": 1.162 },
        "label": "Fe",
        "xyz": [6.5944609797639755, -1.184331164225, 0.37244288531099584]
      },
      {
        "species": [{ "element": "Fe", "occu": 1 }],
        "abc": [0.091518999999999, 0.091518999999999, 0.589133999999999],
        "properties": { "magmom": 1.162 },
        "label": "Fe",
        "xyz": [6.267388592563975, 0.0, 2.397521463245995]
      },
      {
        "species": [{ "element": "Fe", "occu": 1 }],
        "abc": [0.908481, 0.908481, 0.410866],
        "properties": { "magmom": 1.162 },
        "label": "Fe",
        "xyz": [18.929472407436002, 0.0, 1.6720475367539995]
      },
      {
        "species": [{ "element": "Fe", "occu": 1 }],
        "abc": [0.908481, 0.410866, 0.908481],
        "properties": { "magmom": 1.162 },
        "label": "Fe",
        "xyz": [18.602400020236, -1.1843311642249998, 3.6971261146889987]
      },
      {
        "species": [{ "element": "Fe", "occu": 1 }],
        "abc": [0.0, 0.0, 0.0],
        "properties": { "magmom": 1.673 },
        "label": "Fe",
        "xyz": [0.0, 0.0, 0.0]
      },
      {
        "species": [{ "element": "Fe", "occu": 1 }],
        "abc": [0.091518999999999, 0.589133999999999, 0.091518999999999],
        "properties": { "magmom": 1.162 },
        "label": "Fe",
        "xyz": [6.5944609797639755, 1.184331164225, 0.37244288531099584]
      },
      {
        "species": [{ "element": "Fe", "occu": 1 }],
        "abc": [0.410866, 0.908481, 0.908481],
        "properties": { "magmom": 1.162 },
        "label": "Fe",
        "xyz": [18.602400020236, 1.1843311642249998, 3.6971261146889987]
      },
      {
        "species": [{ "element": "Mo", "occu": 1 }],
        "abc": [0.346558, 0.346558, 0.346558],
        "properties": { "magmom": -0.005 },
        "label": "Mo",
        "xyz": [8.732173754438, 0.0, 1.4103416935019994]
      },
      {
        "species": [{ "element": "Mo", "occu": 1 }],
        "abc": [0.165890999999999, 0.165890999999999, 0.165890999999999],
        "properties": { "magmom": -0.101 },
        "label": "Mo",
        "xyz": [4.179932468150975, 0.0, 0.6751048709789957]
      },
      {
        "species": [{ "element": "Mo", "occu": 1 }],
        "abc": [0.549307, 0.549307, 0.549307],
        "properties": { "magmom": -0.20700000000000002 },
        "label": "Mo",
        "xyz": [13.840812125327, 0.0, 2.235442738682999]
      },
      {
        "species": [{ "element": "Mo", "occu": 1 }],
        "abc": [0.653442, 0.653442, 0.653442],
        "properties": { "magmom": -0.005 },
        "label": "Mo",
        "xyz": [16.464687245562, 0.0, 2.659227306497999]
      },
      {
        "species": [{ "element": "Mo", "occu": 1 }],
        "abc": [0.450692999999999, 0.450692999999999, 0.450692999999999],
        "properties": { "magmom": -0.20700000000000002 },
        "label": "Mo",
        "xyz": [11.356048874672975, 0.0, 1.8341262613169953]
      },
      {
        "species": [{ "element": "Mo", "occu": 1 }],
        "abc": [0.834109, 0.834109, 0.834109],
        "properties": { "magmom": -0.101 },
        "label": "Mo",
        "xyz": [21.016928531849, 0.0, 3.394464129020999]
      }
    ]
  },
  "task_ids": null,
  "uncorrected_energy_per_atom": null,
  "energy_per_atom": -9.563557935384615,
  "formation_energy_per_atom": 0.0029073823076920004,
  "energy_above_hull": 0.006872568757396001,
  "is_stable": false,
  "equilibrium_reaction_energy_per_atom": null,
  "decomposes_to": null,
  "xas": null,
  "grain_boundaries": null,
  "band_gap": 0.0,
  "cbm": null,
  "vbm": null,
  "efermi": 7.29872202,
  "is_gap_direct": null,
  "is_metal": null,
  "es_source_calc_id": null,
  "bandstructure": null,
  "dos": null,
  "dos_energy_up": null,
  "dos_energy_down": null,
  "is_magnetic": null,
  "ordering": null,
  "total_magnetization": 7.99874,
  "total_magnetization_normalized_vol": null,
  "total_magnetization_normalized_formula_units": null,
  "num_magnetic_sites": null,
  "num_unique_magnetic_sites": null,
  "types_of_magnetic_species": null,
  "bulk_modulus": null,
  "shear_modulus": null,
  "universal_anisotropy": null,
  "homogeneous_poisson": null,
  "e_total": null,
  "e_ionic": null,
  "e_electronic": null,
  "n": null,
  "e_ij_max": null,
  "weighted_surface_energy_EV_PER_ANG2": null,
  "weighted_surface_energy": null,
  "weighted_work_function": null,
  "surface_anisotropy": null,
  "shape_factor": null,
  "has_reconstructed": null,
  "possible_species": null,
  "has_props": null,
  "theoretical": null,
  "database_IDs": null,
  "fields_not_requested": [
    "builder_meta",
    "nsites",
    "elements",
    "nelements",
    "composition",
    "composition_reduced",
    "chemsys",
    "symmetry",
    "property_name",
    "deprecated",
    "deprecation_reasons",
    "last_updated",
    "origins",
    "warnings",
    "task_ids",
    "uncorrected_energy_per_atom",
    "equilibrium_reaction_energy_per_atom",
    "decomposes_to",
    "xas",
    "grain_boundaries",
    "cbm",
    "vbm",
    "is_gap_direct",
    "is_metal",
    "es_source_calc_id",
    "bandstructure",
    "dos",
    "dos_energy_up",
    "dos_energy_down",
    "is_magnetic",
    "ordering",
    "total_magnetization_normalized_vol",
    "total_magnetization_normalized_formula_units",
    "num_magnetic_sites",
    "num_unique_magnetic_sites",
    "types_of_magnetic_species",
    "bulk_modulus",
    "shear_modulus",
    "universal_anisotropy",
    "homogeneous_poisson",
    "e_total",
    "e_ionic",
    "e_electronic",
    "n",
    "e_ij_max",
    "weighted_surface_energy_EV_PER_ANG2",
    "weighted_surface_energy",
    "weighted_work_function",
    "surface_anisotropy",
    "shape_factor",
    "has_reconstructed",
    "possible_species",
    "has_props",
    "theoretical",
    "database_IDs"
  ]
}
