{"builder_meta": null, "nsites": null, "elements": null, "nelements": null, "composition": null, "composition_reduced": null, "formula_pretty": "Fe7O8", "formula_anonymous": "A7B8", "chemsys": null, "volume": 331.91560120287204, "density": 5.192107005723737, "density_atomic": 11.063853373429067, "symmetry": null, "property_name": null, "material_id": "mp-715333", "deprecated": null, "deprecation_reasons": null, "last_updated": null, "origins": null, "warnings": null, "structure": {"@module": "pymatgen.core.structure", "@class": "Structure", "charge": 0, "lattice": {"matrix": [[6.087029, 0.0, 0.0], [3.020336, 5.372657, 0.0], [3.022969, 1.737784, 10.149232]], "pbc": [true, true, true], "a": 6.087029, "b": 6.163430278063102, "c": 10.73150245750524, "alpha": 73.78770652041776, "beta": 73.63883770934697, "gamma": 60.65669731124239, "volume": 331.91560120287204}, "properties": {}, "sites": [{"species": [{"element": "Fe", "occu": 1}], "abc": [0.0, 0.5, 0.0], "properties": {"magmom": 3.785}, "label": "Fe", "xyz": [1.510168, 2.6863285, 0.0]}, {"species": [{"element": "Fe", "occu": 1}], "abc": [0.5, 0.0, 0.5], "properties": {"magmom": 3.7960000000000003}, "label": "Fe", "xyz": [4.5549990000000005, 0.868892, 5.074616]}, {"species": [{"element": "Fe", "occu": 1}], "abc": [0.260244, 0.243938, 0.748428], "properties": {"magmom": 3.805}, "label": "Fe", "xyz": [4.583362140976, 2.611201406818, 7.595969407296]}, {"species": [{"element": "Fe", "occu": 1}], "abc": [0.739756, 0.756062, 0.251571999999999], "properties": {"magmom": 3.805}, "label": "Fe", "xyz": [7.546971859023997, 4.499239593181999, 2.55326259270399]}, {"species": [{"element": "Fe", "occu": 1}], "abc": [0.5, 0.5, 0.0], "properties": {"magmom": 3.787}, "label": "Fe", "xyz": [4.5536825, 2.6863285, 0.0]}, {"species": [{"element": "Fe", "occu": 1}], "abc": [0.0, 0.0, 0.5], "properties": {"magmom": 3.801}, "label": "Fe", "xyz": [1.5114845, 0.868892, 5.074616]}, {"species": [{"element": "Fe", "occu": 1}], "abc": [0.5, 0.0, 0.0], "properties": {"magmom": 4.335}, "label": "Fe", "xyz": [3.0435145, 0.0, 0.0]}, {"species": [{"element": "Fe", "occu": 1}], "abc": [0.0, 0.5, 0.5], "properties": {"magmom": 4.331}, "label": "Fe", "xyz": [3.0216525, 3.5552205, 5.074616]}, {"species": [{"element": "Fe", "occu": 1}], "abc": [0.751031999999999, 0.257661, 0.750004999999999], "properties": {"magmom": 3.792}, "label": "Fe", "xyz": [7.6170182228689916, 2.687670864196998, 7.61197474615999]}, {"species": [{"element": "Fe", "occu": 1}], "abc": [0.248968, 0.742339, 0.249995], "properties": {"magmom": 3.792}, "label": "Fe", "xyz": [4.513315777131, 4.422770135803, 2.53725725384]}, {"species": [{"element": "Fe", "occu": 1}], "abc": [0.241702, 0.751348999999999, 0.751796999999999], "properties": {"magmom": 3.798}, "label": "Fe", "xyz": [6.013232541914994, 5.343201262140994, 7.63016216990399]}, {"species": [{"element": "Fe", "occu": 1}], "abc": [0.758297999999999, 0.248650999999999, 0.248202999999999], "properties": {"magmom": 3.798}, "label": "Fe", "xyz": [6.117101458084988, 1.767239737858993, 2.5190698300959897]}, {"species": [{"element": "Fe", "occu": 1}], "abc": [0.0, 0.0, 0.0], "properties": {"magmom": 4.317}, "label": "Fe", "xyz": [0.0, 0.0, 0.0]}, {"species": [{"element": "Fe", "occu": 1}], "abc": [0.5, 0.5, 0.5], "properties": {"magmom": 4.316}, "label": "Fe", "xyz": [6.065167, 3.5552205, 5.074616]}, {"species": [{"element": "O", "occu": 1}], "abc": [0.878710999999999, 0.854668, 0.382378], "properties": {"magmom": 0.187}, "label": "O", "xyz": [9.086040708348994, 5.256328383228, 3.880843033696]}, {"species": [{"element": "O", "occu": 1}], "abc": [0.383013999999999, 0.35424000000000005, 0.881216999999999], "properties": {"magmom": 0.188}, "label": "O", "xyz": [6.065232823318992, 3.4345748188079988, 8.94367577534399]}, {"species": [{"element": "O", "occu": 1}], "abc": [0.121289, 0.145332, 0.617622], "properties": {"magmom": 0.187}, "label": "O", "xyz": [3.044293291651, 1.854112616772, 6.268388966304]}, {"species": [{"element": "O", "occu": 1}], "abc": [0.616985999999999, 0.64576, 0.118783], "properties": {"magmom": 0.188}, "label": "O", "xyz": [6.065101176680995, 3.675866181192, 1.2055562246559999]}, {"species": [{"element": "O", "occu": 1}], "abc": [0.145679, 0.614232999999999, 0.616198999999999], "properties": {"magmom": 0.242}, "label": "O", "xyz": [4.604692814809994, 4.370883990096994, 6.25394660916799]}, {"species": [{"element": "O", "occu": 1}], "abc": [0.645639, 0.119656, 0.116023999999999], "properties": {"magmom": 0.241}, "label": "O", "xyz": [4.642161596202997, 0.8444952968079983, 1.1775544935679898]}, {"species": [{"element": "O", "occu": 1}], "abc": [0.37622099999999903, 0.841058, 0.379756999999999], "properties": {"magmom": 0.20800000000000002}, "label": "O", "xyz": [5.978339531429991, 5.1786517895939985, 3.8542418966239897]}, {"species": [{"element": "O", "occu": 1}], "abc": [0.885455999999999, 0.344221, 0.880925], "properties": {"magmom": 0.20400000000000001}, "label": "O", "xyz": [9.092468394804994, 3.380238735397, 8.9407121996]}, {"species": [{"element": "O", "occu": 1}], "abc": [0.371077, 0.373122, 0.392177], "properties": {"magmom": 0.248}, "label": "O", "xyz": [4.571249182738, 2.686175440922, 3.9802953580639997]}, {"species": [{"element": "O", "occu": 1}], "abc": [0.865078, 0.879493, 0.891469], "properties": {"magmom": 0.248}, "label": "O", "xyz": [10.617002394371, 6.274394787597, 9.047725701808]}, {"species": [{"element": "O", "occu": 1}], "abc": [0.628923, 0.626877999999999, 0.607823], "properties": {"magmom": 0.248}, "label": "O", "xyz": [7.559084817261997, 4.424265559077995, 6.168936641936]}, {"species": [{"element": "O", "occu": 1}], "abc": [0.134922, 0.120506999999999, 0.108530999999999], "properties": {"magmom": 0.248}, "label": "O", "xyz": [1.513331605628994, 0.8360462124029929, 1.1015062981919899]}, {"species": [{"element": "O", "occu": 1}], "abc": [0.623779, 0.158942, 0.620243], "properties": {"magmom": 0.20800000000000002}, "label": "O", "xyz": [6.151994468569999, 1.931789210406, 6.294990103376]}, {"species": [{"element": "O", "occu": 1}], "abc": [0.11454399999999901, 0.655779, 0.119075], "properties": {"magmom": 0.20400000000000001}, "label": "O", "xyz": [3.0378656051949937, 3.730202264603, 1.2085198004]}, {"species": [{"element": "O", "occu": 1}], "abc": [0.854321, 0.385766999999999, 0.383801], "properties": {"magmom": 0.242}, "label": "O", "xyz": [7.525641185189997, 2.739557009902995, 3.895285390832]}, {"species": [{"element": "O", "occu": 1}], "abc": [0.354361, 0.880344, 0.883976], "properties": {"magmom": 0.241}, "label": "O", "xyz": [7.488172403797, 6.265945703192001, 8.971677506432]}]}, "task_ids": null, "uncorrected_energy_per_atom": null, "energy_per_atom": -8.085442245, "formation_energy_per_atom": -1.493853144333332, "energy_above_hull": 0.06285689833333301, "is_stable": false, "equilibrium_reaction_energy_per_atom": null, "decomposes_to": null, "xas": null, "grain_boundaries": null, "band_gap": 1.0723, "cbm": null, "vbm": null, "efermi": 3.5873711200000002, "is_gap_direct": null, "is_metal": null, "es_source_calc_id": null, "bandstructure": null, "dos": null, "dos_energy_up": null, "dos_energy_down": null, "is_magnetic": null, "ordering": null, "total_magnetization": 60.0003671, "total_magnetization_normalized_vol": null, "total_magnetization_normalized_formula_units": null, "num_magnetic_sites": null, "num_unique_magnetic_sites": null, "types_of_magnetic_species": null, "bulk_modulus": null, "shear_modulus": null, "universal_anisotropy": null, "homogeneous_poisson": null, "e_total": null, "e_ionic": null, "e_electronic": null, "n": null, "e_ij_max": null, "weighted_surface_energy_EV_PER_ANG2": null, "weighted_surface_energy": null, "weighted_work_function": null, "surface_anisotropy": null, "shape_factor": null, "has_reconstructed": null, "possible_species": null, "has_props": null, "theoretical": null, "database_IDs": null, "fields_not_requested": ["builder_meta", "nsites", "elements", "nelements", "composition", "composition_reduced", "chemsys", "symmetry", "property_name", "deprecated", "deprecation_reasons", "last_updated", "origins", "warnings", "task_ids", "uncorrected_energy_per_atom", "equilibrium_reaction_energy_per_atom", "decomposes_to", "xas", "grain_boundaries", "cbm", "vbm", "is_gap_direct", "is_metal", "es_source_calc_id", "bandstructure", "dos", "dos_energy_up", "dos_energy_down", "is_magnetic", "ordering", "total_magnetization_normalized_vol", "total_magnetization_normalized_formula_units", "num_magnetic_sites", "num_unique_magnetic_sites", "types_of_magnetic_species", "bulk_modulus", "shear_modulus", "universal_anisotropy", "homogeneous_poisson", "e_total", "e_ionic", "e_electronic", "n", "e_ij_max", "weighted_surface_energy_EV_PER_ANG2", "weighted_surface_energy", "weighted_work_function", "surface_anisotropy", "shape_factor", "has_reconstructed", "possible_species", "has_props", "theoretical", "database_IDs"]}