{"builder_meta": null, "nsites": null, "elements": null, "nelements": null, "composition": null, "composition_reduced": null, "formula_pretty": "Fe7Se8", "formula_anonymous": "A7B8", "chemsys": null, "volume": 732.0966425491691, "density": 6.958339301613919, "density_atomic": 16.268814278870426, "symmetry": null, "property_name": null, "material_id": "mp-540702", "deprecated": null, "deprecation_reasons": null, "last_updated": null, "origins": null, "warnings": null, "structure": {"@module": "pymatgen.core.structure", "@class": "Structure", "charge": 0, "lattice": {"matrix": [[3.631555, -6.290039, 0.0], [3.631555, 6.290039, 0.0], [0.0, 0.0, 16.024794]], "pbc": [true, true, true], "a": 7.263111064794892, "b": 7.263111064794892, "c": 16.024794, "alpha": 90.0, "beta": 90.0, "gamma": 120.00000969918548, "volume": 732.0966425491691}, "properties": {}, "sites": [{"species": [{"element": "Fe", "occu": 1}], "abc": [0.986683, 0.986683, 0.0], "properties": {"magmom": 2.519}, "label": "Fe", "xyz": [7.16638716413, 0.0, 0.0]}, {"species": [{"element": "Fe", "occu": 1}], "abc": [0.013316999999999002, 0.0, 0.333333], "properties": {"magmom": 2.52}, "label": "Fe", "xyz": [0.048361417934996376, -0.08376444936299372, 5.341592658402]}, {"species": [{"element": "Fe", "occu": 1}], "abc": [0.0, 0.013316999999999002, 0.666667], "properties": {"magmom": 2.521}, "label": "Fe", "xyz": [0.048361417934996376, 0.08376444936299372, 10.683201341598]}, {"species": [{"element": "Fe", "occu": 1}], "abc": [0.512852, 0.996128999999999, 0.004631], "properties": {"magmom": 2.192}, "label": "Fe", "xyz": [5.479947495454996, 3.039831177802994, 0.07421082101399999]}, {"species": [{"element": "Fe", "occu": 1}], "abc": [0.003871, 0.516722999999999, 0.337964], "properties": {"magmom": 2.19}, "label": "Fe", "xyz": [1.8905657436699965, 3.225859081227994, 5.415803479416]}, {"species": [{"element": "Fe", "occu": 1}], "abc": [0.483276999999999, 0.487147999999999, 0.671296999999999], "properties": {"magmom": 2.196}, "label": "Fe", "xyz": [3.524151760874993, 0.02434874096899975, 10.757396137817985]}, {"species": [{"element": "Fe", "occu": 1}], "abc": [0.996128999999999, 0.512852, 0.995369], "properties": {"magmom": 2.193}, "label": "Fe", "xyz": [5.479947495454996, -3.039831177802994, 15.950583178986]}, {"species": [{"element": "Fe", "occu": 1}], "abc": [0.487147999999999, 0.483276999999999, 0.328702999999999], "properties": {"magmom": 2.195}, "label": "Fe", "xyz": [3.524151760874993, -0.02434874096899975, 5.267397862181984]}, {"species": [{"element": "Fe", "occu": 1}], "abc": [0.516722999999999, 0.003871, 0.662036], "properties": {"magmom": 2.192}, "label": "Fe", "xyz": [1.8905657436699965, -3.225859081227994, 10.608990520584]}, {"species": [{"element": "Fe", "occu": 1}], "abc": [0.0, 0.029567999999999, 0.166666999999999], "properties": {"magmom": 2.112}, "label": "Fe", "xyz": [0.10737781823999637, 0.18598387315199372, 2.670804341597984]}, {"species": [{"element": "Fe", "occu": 1}], "abc": [0.970432, 0.970432, 0.5], "properties": {"magmom": 2.114}, "label": "Fe", "xyz": [7.04835436352, 0.0, 8.012397]}, {"species": [{"element": "Fe", "occu": 1}], "abc": [0.029567999999999, 0.0, 0.833333], "properties": {"magmom": 2.112}, "label": "Fe", "xyz": [0.10737781823999637, -0.18598387315199372, 13.353989658402]}, {"species": [{"element": "Fe", "occu": 1}], "abc": [0.527818, 0.527818, 0.5], "properties": {"magmom": 0.593}, "label": "Fe", "xyz": [3.83360019398, 0.0, 8.012397]}, {"species": [{"element": "Fe", "occu": 1}], "abc": [0.472182, 0.0, 0.833333], "properties": {"magmom": 0.579}, "label": "Fe", "xyz": [1.71475490301, -2.970043195098, 13.353989658402]}, {"species": [{"element": "Fe", "occu": 1}], "abc": [0.0, 0.472182, 0.166666999999999], "properties": {"magmom": 0.591}, "label": "Fe", "xyz": [1.71475490301, 2.970043195098, 2.670804341597984]}, {"species": [{"element": "Fe", "occu": 1}], "abc": [0.519436999999999, 0.006421, 0.170546], "properties": {"magmom": 1.484999999999999}, "label": "Fe", "xyz": [1.9096822491899965, -3.226890647623994, 2.732964517524]}, {"species": [{"element": "Fe", "occu": 1}], "abc": [0.993579, 0.513016, 0.503879], "properties": {"magmom": 1.484}, "label": "Fe", "xyz": [5.471282605225, -3.022760011957, 8.074557175926]}, {"species": [{"element": "Fe", "occu": 1}], "abc": [0.486984, 0.480562999999999, 0.837212], "properties": {"magmom": 1.487}, "label": "Fe", "xyz": [3.5137001455849965, -0.040388340419005964, 13.416149834328]}, {"species": [{"element": "Fe", "occu": 1}], "abc": [0.513016, 0.993579, 0.496121], "properties": {"magmom": 1.482}, "label": "Fe", "xyz": [5.471282605225, 3.022760011957, 7.950236824074]}, {"species": [{"element": "Fe", "occu": 1}], "abc": [0.006421, 0.519436999999999, 0.829453999999999], "properties": {"magmom": 1.486}, "label": "Fe", "xyz": [1.9096822491899965, 3.226890647623994, 13.291829482475984]}, {"species": [{"element": "Fe", "occu": 1}], "abc": [0.480562999999999, 0.486984, 0.162788], "properties": {"magmom": 1.487}, "label": "Fe", "xyz": [3.5137001455849965, 0.040388340419005964, 2.6086441656719996]}, {"species": [{"element": "Se", "occu": 1}], "abc": [0.166507, 0.34238, 0.076293], "properties": {"magmom": -0.005}, "label": "Se", "xyz": [1.848051129285, 1.1062480290470003, 1.222579608642]}, {"species": [{"element": "Se", "occu": 1}], "abc": [0.6576200000000001, 0.824126999999999, 0.409626999999999], "properties": {"magmom": -0.005}, "label": "Se", "xyz": [5.381045726584997, 1.0473355237729942, 6.564188291837985]}, {"species": [{"element": "Se", "occu": 1}], "abc": [0.175873, 0.833492999999999, 0.7429600000000001], "properties": {"magmom": -0.005}, "label": "Se", "xyz": [3.6655681441299963, 4.136455447179994, 11.90578095024]}, {"species": [{"element": "Se", "occu": 1}], "abc": [0.171097, 0.339562, 0.425564999999999], "properties": {"magmom": 0.009000000000000001}, "label": "Se", "xyz": [1.854486244745, 1.0596514201349998, 6.819591458609985]}, {"species": [{"element": "Se", "occu": 1}], "abc": [0.660438, 0.831534, 0.758899], "properties": {"magmom": 0.009000000000000001}, "label": "Se", "xyz": [5.41817837646, 1.0762005127440002, 12.161200141805999]}, {"species": [{"element": "Se", "occu": 1}], "abc": [0.168466, 0.828903, 0.092232], "properties": {"magmom": 0.009000000000000001}, "label": "Se", "xyz": [3.6220003787949997, 4.154174487043, 1.477998800208]}, {"species": [{"element": "Se", "occu": 1}], "abc": [0.162039, 0.337518, 0.75558], "properties": {"magmom": -0.022}, "label": "Se", "xyz": [1.814168721135, 1.1037697536809998, 12.10801385052]}, {"species": [{"element": "Se", "occu": 1}], "abc": [0.662482, 0.824522, 0.088912999999999], "properties": {"magmom": -0.022}, "label": "Se", "xyz": [5.40013681122, 1.01923791956, 1.424812508921984]}, {"species": [{"element": "Se", "occu": 1}], "abc": [0.175478, 0.837961, 0.422245999999999], "properties": {"magmom": -0.022}, "label": "Se", "xyz": [3.6803594676449998, 4.167043906837, 6.766405167323984]}, {"species": [{"element": "Se", "occu": 1}], "abc": [0.337518, 0.162039, 0.24442000000000003], "properties": {"magmom": -0.022}, "label": "Se", "xyz": [1.814168721135, -1.1037697536809998, 3.9167801494800005]}, {"species": [{"element": "Se", "occu": 1}], "abc": [0.837961, 0.175478, 0.577754], "properties": {"magmom": -0.022}, "label": "Se", "xyz": [3.6803594676449998, -4.167043906837, 9.258388832676]}, {"species": [{"element": "Se", "occu": 1}], "abc": [0.824522, 0.662482, 0.911087], "properties": {"magmom": -0.022}, "label": "Se", "xyz": [5.40013681122, -1.01923791956, 14.599981491078]}, {"species": [{"element": "Se", "occu": 1}], "abc": [0.339562, 0.171097, 0.574435], "properties": {"magmom": 0.01}, "label": "Se", "xyz": [1.854486244745, -1.0596514201349998, 9.205202541390001]}, {"species": [{"element": "Se", "occu": 1}], "abc": [0.828903, 0.168466, 0.907767999999999], "properties": {"magmom": 0.009000000000000001}, "label": "Se", "xyz": [3.6220003787949997, -4.154174487043, 14.546795199791985]}, {"species": [{"element": "Se", "occu": 1}], "abc": [0.831534, 0.660438, 0.241100999999999], "properties": {"magmom": 0.009000000000000001}, "label": "Se", "xyz": [5.41817837646, -1.0762005127440002, 3.863593858193984]}, {"species": [{"element": "Se", "occu": 1}], "abc": [0.34238, 0.166507, 0.923707], "properties": {"magmom": -0.005}, "label": "Se", "xyz": [1.848051129285, -1.1062480290470003, 14.802214391358]}, {"species": [{"element": "Se", "occu": 1}], "abc": [0.833492999999999, 0.175873, 0.25704000000000005], "properties": {"magmom": -0.005}, "label": "Se", "xyz": [3.6655681441299963, -4.136455447179994, 4.11901304976]}, {"species": [{"element": "Se", "occu": 1}], "abc": [0.824126999999999, 0.6576200000000001, 0.590372999999999], "properties": {"magmom": -0.005}, "label": "Se", "xyz": [5.381045726584997, -1.0473355237729942, 9.460605708161985]}, {"species": [{"element": "Se", "occu": 1}], "abc": [0.67334, 0.335883999999999, 0.087377], "properties": {"magmom": -0.028}, "label": "Se", "xyz": [3.665052463319997, -2.122611400784006, 1.400198425338]}, {"species": [{"element": "Se", "occu": 1}], "abc": [0.664115999999999, 0.337457, 0.420711], "properties": {"magmom": -0.028}, "label": "Se", "xyz": [3.637267436014997, -2.0546978497009936, 6.741807108534]}, {"species": [{"element": "Se", "occu": 1}], "abc": [0.662543, 0.32666, 0.754043999999999], "properties": {"magmom": -0.028}, "label": "Se", "xyz": [3.592345100665, -2.1127171694370004, 12.083399766935985]}, {"species": [{"element": "Se", "occu": 1}], "abc": [0.32666, 0.662543, 0.245955999999999], "properties": {"magmom": -0.028}, "label": "Se", "xyz": [3.592345100665, 2.1127171694370004, 3.941394233063984]}, {"species": [{"element": "Se", "occu": 1}], "abc": [0.337457, 0.664115999999999, 0.579288999999999], "properties": {"magmom": -0.028}, "label": "Se", "xyz": [3.637267436014997, 2.0546978497009936, 9.282986891465985]}, {"species": [{"element": "Se", "occu": 1}], "abc": [0.335883999999999, 0.67334, 0.912623], "properties": {"magmom": -0.028}, "label": "Se", "xyz": [3.665052463319997, 2.122611400784006, 14.624595574661999]}]}, "task_ids": null, "uncorrected_energy_per_atom": null, "energy_per_atom": -6.203759224444444, "formation_energy_per_atom": -0.38659653836111, "energy_above_hull": 0.15368186255555502, "is_stable": false, "equilibrium_reaction_energy_per_atom": null, "decomposes_to": null, "xas": null, "grain_boundaries": null, "band_gap": 0.0, "cbm": null, "vbm": null, "efermi": 5.63092962, "is_gap_direct": null, "is_metal": null, "es_source_calc_id": null, "bandstructure": null, "dos": null, "dos_energy_up": null, "dos_energy_down": null, "is_magnetic": null, "ordering": null, "total_magnetization": 38.0688916, "total_magnetization_normalized_vol": null, "total_magnetization_normalized_formula_units": null, "num_magnetic_sites": null, "num_unique_magnetic_sites": null, "types_of_magnetic_species": null, "bulk_modulus": null, "shear_modulus": null, "universal_anisotropy": null, "homogeneous_poisson": null, "e_total": null, "e_ionic": null, "e_electronic": null, "n": null, "e_ij_max": null, "weighted_surface_energy_EV_PER_ANG2": null, "weighted_surface_energy": null, "weighted_work_function": null, "surface_anisotropy": null, "shape_factor": null, "has_reconstructed": null, "possible_species": null, "has_props": null, "theoretical": null, "database_IDs": null, "fields_not_requested": ["builder_meta", "nsites", "elements", "nelements", "composition", "composition_reduced", "chemsys", "symmetry", "property_name", "deprecated", "deprecation_reasons", "last_updated", "origins", "warnings", "task_ids", "uncorrected_energy_per_atom", "equilibrium_reaction_energy_per_atom", "decomposes_to", "xas", "grain_boundaries", "cbm", "vbm", "is_gap_direct", "is_metal", "es_source_calc_id", "bandstructure", "dos", "dos_energy_up", "dos_energy_down", "is_magnetic", "ordering", "total_magnetization_normalized_vol", "total_magnetization_normalized_formula_units", "num_magnetic_sites", "num_unique_magnetic_sites", "types_of_magnetic_species", "bulk_modulus", "shear_modulus", "universal_anisotropy", "homogeneous_poisson", "e_total", "e_ionic", "e_electronic", "n", "e_ij_max", "weighted_surface_energy_EV_PER_ANG2", "weighted_surface_energy", "weighted_work_function", "surface_anisotropy", "shape_factor", "has_reconstructed", "possible_species", "has_props", "theoretical", "database_IDs"]}