{"builder_meta": null, "nsites": null, "elements": null, "nelements": null, "composition": null, "composition_reduced": null, "formula_pretty": "Fe7Se3", "formula_anonymous": "A3B7", "chemsys": null, "volume": 570.6432837601474, "density": 7.307389067628602, "density_atomic": 14.266082094003684, "symmetry": null, "property_name": null, "material_id": "mp-1055905", "deprecated": null, "deprecation_reasons": null, "last_updated": null, "origins": null, "warnings": null, "structure": {"@module": "pymatgen.core.structure", "@class": "Structure", "charge": 0, "lattice": {"matrix": [[5.95417, 0.000327, 0.324835999999999], [0.000808, 7.838986, 0.001983], [6.651464, 0.003819, 12.588856]], "pbc": [true, true, true], "a": 5.9630243100900575, "b": 7.8389862924582925, "c": 14.238022451056642, "alpha": 89.96905777551028, "beta": 59.02702614523806, "gamma": 89.99017149355677, "volume": 570.6432837601474}, "properties": {}, "sites": [{"species": [{"element": "Fe", "occu": 1}], "abc": [0.724468, 0.498737999999999, 0.195803999999999], "properties": {"magmom": 2.41}, "label": "Fe", "xyz": [5.616391868919994, 3.9105848761799926, 2.701270644925987]}, {"species": [{"element": "Fe", "occu": 1}], "abc": [0.16514, 0.409305, 0.012577], "properties": {"magmom": 2.629}, "label": "Fe", "xyz": [1.067257814968, 3.208638197073, 0.21278511076699982]}, {"species": [{"element": "Fe", "occu": 1}], "abc": [0.446362999999999, 0.249955999999999, 0.317102999999999], "properties": {"magmom": 2.66}, "label": "Fe", "xyz": [4.7671223369499875, 1.9607585616739922, 4.137454438383987]}, {"species": [{"element": "Fe", "occu": 1}], "abc": [0.182794999999999, 0.088569, 0.497345999999999], "properties": {"magmom": 2.571}, "label": "Fe", "xyz": [4.396543083445987, 0.6962502893729999, 6.320571205122987]}, {"species": [{"element": "Fe", "occu": 1}], "abc": [0.805142999999999, 0.503603999999999, 0.6899400000000001], "properties": {"magmom": 2.136}, "label": "Fe", "xyz": [9.383476280501995, 3.950642868164993, 8.94809338692]}, {"species": [{"element": "Fe", "occu": 1}], "abc": [0.532857999999999, 0.249701999999999, 0.823074], "properties": {"magmom": 2.468}, "label": "Fe", "xyz": [8.647575957411995, 1.9607280463439922, 10.535146683697999]}, {"species": [{"element": "Fe", "occu": 1}], "abc": [0.467142, 0.750298, 0.176926], "properties": {"magmom": 2.468}, "label": "Fe", "xyz": [3.9588660425880002, 5.882403953656, 2.3805283163019997]}, {"species": [{"element": "Fe", "occu": 1}], "abc": [0.052920999999999004, 0.750112999999999, 0.589928999999999], "properties": {"magmom": 2.33}, "label": "Fe", "xyz": [4.239598227929988, 5.8823955494359925, 7.445209351258987]}, {"species": [{"element": "Fe", "occu": 1}], "abc": [0.275627, 0.998138, 0.804209], "properties": {"magmom": 2.406}, "label": "Fe", "xyz": [6.99110372207, 7.827551212268, 10.21558417473]}, {"species": [{"element": "Fe", "occu": 1}], "abc": [0.553636999999999, 0.750043999999999, 0.682897], "properties": {"magmom": 2.66}, "label": "Fe", "xyz": [7.839319663049994, 5.882373438325993, 8.778220561616]}, {"species": [{"element": "Fe", "occu": 1}], "abc": [0.275532, 0.501262, 0.804195999999999], "properties": {"magmom": 2.41}, "label": "Fe", "xyz": [6.990050131079993, 3.93254712382, 10.214404355073988]}, {"species": [{"element": "Fe", "occu": 1}], "abc": [0.947079, 0.249887, 0.410070999999999], "properties": {"magmom": 2.33}, "label": "Fe", "xyz": [8.366843772069995, 1.960736450564, 5.470465648740987]}, {"species": [{"element": "Fe", "occu": 1}], "abc": [0.070292, 0.250135, 0.694376], "properties": {"magmom": 2.694}, "label": "Fe", "xyz": [5.0373495931839996, 1.963479570538, 8.764728863673]}, {"species": [{"element": "Fe", "occu": 1}], "abc": [0.805465, 0.9967300000000001, 0.689982], "properties": {"magmom": 2.128}, "label": "Fe", "xyz": [9.386071330538, 7.816250944093001, 8.949704584922]}, {"species": [{"element": "Fe", "occu": 1}], "abc": [0.194857, 0.496396, 0.31006], "properties": {"magmom": 2.136}, "label": "Fe", "xyz": [3.222965719498, 3.892489131835, 3.96758161308]}, {"species": [{"element": "Fe", "occu": 1}], "abc": [0.929708, 0.749865, 0.305624], "properties": {"magmom": 2.694}, "label": "Fe", "xyz": [7.569092406816001, 5.879652429462, 4.150946136326999]}, {"species": [{"element": "Fe", "occu": 1}], "abc": [0.817205, 0.911431, 0.502653999999999], "properties": {"magmom": 2.571}, "label": "Fe", "xyz": [8.209898916553993, 7.1468817106269995, 6.595103794876986]}, {"species": [{"element": "Fe", "occu": 1}], "abc": [0.19453499999999901, 0.0032700000000000003, 0.310017999999999], "properties": {"magmom": 2.128}, "label": "Fe", "xyz": [3.2203706694619876, 0.026881055906999997, 3.965970415077987]}, {"species": [{"element": "Fe", "occu": 1}], "abc": [0.817062, 0.588293, 0.502514999999999], "properties": {"magmom": 2.571}, "label": "Fe", "xyz": [8.207861821243993, 4.6138068749570005, 6.592666709690987]}, {"species": [{"element": "Fe", "occu": 1}], "abc": [0.83486, 0.590695, 0.987422999999999], "properties": {"magmom": 2.629}, "label": "Fe", "xyz": [11.539184185031996, 4.634493802927, 12.702889889232988]}, {"species": [{"element": "Fe", "occu": 1}], "abc": [0.165551, 0.089216999999999, 0.012475], "properties": {"magmom": 2.62}, "label": "Fe", "xyz": [1.068767898406, 0.6994725911639922, 0.21099982054699984]}, {"species": [{"element": "Fe", "occu": 1}], "abc": [0.013741, 0.749776999999999, 0.788532], "properties": {"magmom": 2.783}, "label": "Fe", "xyz": [5.327314280634, 5.880507303136993, 9.932666178659]}, {"species": [{"element": "Fe", "occu": 1}], "abc": [0.252919, 0.7497600000000001, 0.909701], "properties": {"magmom": 2.360999999999999}, "label": "Fe", "xyz": [7.5573719805740005, 5.8809149959920015, 11.535738862419999]}, {"species": [{"element": "Fe", "occu": 1}], "abc": [0.986259, 0.250223, 0.211468], "properties": {"magmom": 2.783}, "label": "Fe", "xyz": [7.2791277193660004, 1.962624696863, 2.983008821340999]}, {"species": [{"element": "Fe", "occu": 1}], "abc": [0.724372999999999, 0.001862, 0.195791], "properties": {"magmom": 2.406}, "label": "Fe", "xyz": [5.615338277929994, 0.015580787732, 2.7000908252699984]}, {"species": [{"element": "Fe", "occu": 1}], "abc": [0.834449, 0.910783, 0.987525], "properties": {"magmom": 2.62}, "label": "Fe", "xyz": [11.537674101594, 7.143659408836, 12.704675179453]}, {"species": [{"element": "Fe", "occu": 1}], "abc": [0.182938, 0.411707, 0.497484999999999], "properties": {"magmom": 2.571}, "label": "Fe", "xyz": [4.398580178755994, 3.2293251250429997, 6.323008290308987]}, {"species": [{"element": "Fe", "occu": 1}], "abc": [0.747081, 0.25024, 0.090298999999999], "properties": {"magmom": 2.360999999999999}, "label": "Fe", "xyz": [5.049070019425994, 1.9622170040080003, 1.3799361375799868]}, {"species": [{"element": "Se", "occu": 1}], "abc": [0.980302, 0.750462, 0.111501999999999], "properties": {"magmom": 0.024}, "label": "Se", "xyz": [6.579142671563993, 5.883607496423999, 1.7236081683299866]}, {"species": [{"element": "Se", "occu": 1}], "abc": [0.24403699999999903, 0.750122, 0.391335], "properties": {"magmom": 0.008}, "label": "Se", "xyz": [4.056594547305994, 5.8817701647559995, 5.007219457618]}, {"species": [{"element": "Se", "occu": 1}], "abc": [0.594465, 0.540025, 0.880091], "properties": {"magmom": -0.004}, "label": "Se", "xyz": [9.393875612474, 4.236803872234001, 11.273513368210999]}, {"species": [{"element": "Se", "occu": 1}], "abc": [0.697294, 0.467831999999999, 0.370502999999999], "properties": {"magmom": 0.024}, "label": "Se", "xyz": [6.616572390627994, 3.6689714644469924, 4.891642819207987]}, {"species": [{"element": "Se", "occu": 1}], "abc": [0.405535, 0.459974999999999, 0.119908999999999], "properties": {"magmom": -0.004}, "label": "Se", "xyz": [3.2125663875259933, 3.6063281277659924, 1.642161631788987]}, {"species": [{"element": "Se", "occu": 1}], "abc": [0.755962999999999, 0.249878, 0.608665], "properties": {"magmom": 0.008}, "label": "Se", "xyz": [8.549847452693996, 1.961361835244, 7.908455542381999]}, {"species": [{"element": "Se", "occu": 1}], "abc": [0.302706, 0.532168, 0.629497], "properties": {"magmom": 0.024}, "label": "Se", "xyz": [5.9898696093720005, 4.174160535553001, 8.024032180791998]}, {"species": [{"element": "Se", "occu": 1}], "abc": [0.698135, 0.031906, 0.370324], "properties": {"magmom": 0.024}, "label": "Se", "xyz": [6.620037007334, 0.25175324481699995, 4.888798159801999]}, {"species": [{"element": "Se", "occu": 1}], "abc": [0.594940999999999, 0.959164999999999, 0.879988], "properties": {"magmom": -0.004}, "label": "Se", "xyz": [9.396363361721994, 7.522436226568993, 11.273202492599]}, {"species": [{"element": "Se", "occu": 1}], "abc": [0.405059, 0.040834999999999004, 0.120012], "properties": {"magmom": -0.004}, "label": "Se", "xyz": [3.210078638278, 0.3206957734309922, 1.6424725074009996]}, {"species": [{"element": "Se", "occu": 1}], "abc": [0.019698, 0.249537999999999, 0.888498], "properties": {"magmom": 0.024}, "label": "Se", "xyz": [6.0272993284359995, 1.9595245035759923, 11.192066831670001]}, {"species": [{"element": "Se", "occu": 1}], "abc": [0.301865, 0.968094, 0.629676], "properties": {"magmom": 0.024}, "label": "Se", "xyz": [5.986404992666, 7.591378755183, 8.026876840198]}]}, "task_ids": null, "uncorrected_energy_per_atom": null, "energy_per_atom": -7.021696849749999, "formation_energy_per_atom": -0.043908559453123004, "energy_above_hull": 0.26084269725000203, "is_stable": false, "equilibrium_reaction_energy_per_atom": null, "decomposes_to": null, "xas": null, "grain_boundaries": null, "band_gap": 0.0, "cbm": null, "vbm": null, "efermi": 5.92962661, "is_gap_direct": null, "is_metal": null, "es_source_calc_id": null, "bandstructure": null, "dos": null, "dos_energy_up": null, "dos_energy_down": null, "is_magnetic": null, "ordering": null, "total_magnetization": 69.900955, "total_magnetization_normalized_vol": null, "total_magnetization_normalized_formula_units": null, "num_magnetic_sites": null, "num_unique_magnetic_sites": null, "types_of_magnetic_species": null, "bulk_modulus": null, "shear_modulus": null, "universal_anisotropy": null, "homogeneous_poisson": null, "e_total": null, "e_ionic": null, "e_electronic": null, "n": null, "e_ij_max": null, "weighted_surface_energy_EV_PER_ANG2": null, "weighted_surface_energy": null, "weighted_work_function": null, "surface_anisotropy": null, "shape_factor": null, "has_reconstructed": null, "possible_species": null, "has_props": null, "theoretical": null, "database_IDs": null, "fields_not_requested": ["builder_meta", "nsites", "elements", "nelements", "composition", "composition_reduced", "chemsys", "symmetry", "property_name", "deprecated", "deprecation_reasons", "last_updated", "origins", "warnings", "task_ids", "uncorrected_energy_per_atom", "equilibrium_reaction_energy_per_atom", "decomposes_to", "xas", "grain_boundaries", "cbm", "vbm", "is_gap_direct", "is_metal", "es_source_calc_id", "bandstructure", "dos", "dos_energy_up", "dos_energy_down", "is_magnetic", "ordering", "total_magnetization_normalized_vol", "total_magnetization_normalized_formula_units", "num_magnetic_sites", "num_unique_magnetic_sites", "types_of_magnetic_species", "bulk_modulus", "shear_modulus", "universal_anisotropy", "homogeneous_poisson", "e_total", "e_ionic", "e_electronic", "n", "e_ij_max", "weighted_surface_energy_EV_PER_ANG2", "weighted_surface_energy", "weighted_work_function", "surface_anisotropy", "shape_factor", "has_reconstructed", "possible_species", "has_props", "theoretical", "database_IDs"]}