{"builder_meta": null, "nsites": null, "elements": null, "nelements": null, "composition": null, "composition_reduced": null, "formula_pretty": "Fe7W6", "formula_anonymous": "A6B7", "chemsys": null, "volume": 170.41138238084707, "density": 14.557540738084068, "density_atomic": 13.108567875449776, "symmetry": null, "property_name": null, "material_id": "mp-1473", "deprecated": null, "deprecation_reasons": null, "last_updated": null, "origins": null, "warnings": null, "structure": {"@module": "pymatgen.core.structure", "@class": "Structure", "charge": 0, "lattice": {"matrix": [[8.751534, -2.385808, 0.0], [8.751534, 2.385808, 0.0], [8.101125, 0.0, 4.080834]], "pbc": [true, true, true], "a": 9.070911043881974, "b": 9.070911043881974, "c": 9.070911332450615, "alpha": 30.49836507780805, "beta": 30.49836507780805, "gamma": 30.498366559682374, "volume": 170.41138238084707}, "properties": {}, "sites": [{"species": [{"element": "Fe", "occu": 1}], "abc": [0.0, 0.0, 0.0], "properties": {"magmom": 0.499}, "label": "Fe", "xyz": [0.0, 0.0, 0.0]}, {"species": [{"element": "Fe", "occu": 1}], "abc": [0.589221, 0.090782, 0.090782], "properties": {"magmom": 1.099}, "label": "Fe", "xyz": [6.686505704351999, -1.1891797537120001, 0.37046627218800005]}, {"species": [{"element": "Fe", "occu": 1}], "abc": [0.090782, 0.090782, 0.589221], "properties": {"magmom": 1.099}, "label": "Fe", "xyz": [6.362316492801, 0.0, 2.404513090314]}, {"species": [{"element": "Fe", "occu": 1}], "abc": [0.090782, 0.589221, 0.090782], "properties": {"magmom": 1.099}, "label": "Fe", "xyz": [6.686505704351999, 1.1891797537120001, 0.37046627218800005]}, {"species": [{"element": "Fe", "occu": 1}], "abc": [0.909218, 0.410779, 0.909218], "properties": {"magmom": 1.099}, "label": "Fe", "xyz": [18.917687295647998, -1.1891797537119997, 3.710367727812]}, {"species": [{"element": "Fe", "occu": 1}], "abc": [0.410779, 0.909218, 0.909218], "properties": {"magmom": 1.099}, "label": "Fe", "xyz": [18.917687295647998, 1.1891797537119997, 3.710367727812]}, {"species": [{"element": "Fe", "occu": 1}], "abc": [0.909218, 0.909218, 0.410779], "properties": {"magmom": 1.099}, "label": "Fe", "xyz": [19.241876507199, 0.0, 1.6763209096860001]}, {"species": [{"element": "W", "occu": 1}], "abc": [0.1661, 0.1661, 0.1661], "properties": {"magmom": -0.085}, "label": "W", "xyz": [4.2528564573, 0.0, 0.6778265274]}, {"species": [{"element": "W", "occu": 1}], "abc": [0.8339000000000001, 0.8339000000000001, 0.8339000000000001], "properties": {"magmom": -0.085}, "label": "W", "xyz": [21.351336542700004, 0.0, 3.4030074726000006]}, {"species": [{"element": "W", "occu": 1}], "abc": [0.347437, 0.347437, 0.347437], "properties": {"magmom": -0.098}, "label": "W", "xyz": [8.895844003340999, 0.0, 1.417832722458]}, {"species": [{"element": "W", "occu": 1}], "abc": [0.652563, 0.652563, 0.652563], "properties": {"magmom": -0.098}, "label": "W", "xyz": [16.708348996658998, 0.0, 2.663001277542]}, {"species": [{"element": "W", "occu": 1}], "abc": [0.45037000000000005, 0.45037000000000005, 0.45037000000000005], "properties": {"magmom": -0.179}, "label": "W", "xyz": [11.531360401410002, 0.0, 1.8378852085800004]}, {"species": [{"element": "W", "occu": 1}], "abc": [0.5496300000000001, 0.5496300000000001, 0.5496300000000001], "properties": {"magmom": -0.179}, "label": "W", "xyz": [14.07283259859, 0.0, 2.2429487914200004]}]}, "task_ids": null, "uncorrected_energy_per_atom": null, "energy_per_atom": -10.557585792307693, "formation_energy_per_atom": -0.016129649999999, "energy_above_hull": 0.0026645362499960004, "is_stable": false, "equilibrium_reaction_energy_per_atom": null, "decomposes_to": null, "xas": null, "grain_boundaries": null, "band_gap": 0.0, "cbm": null, "vbm": null, "efermi": 6.50990656, "is_gap_direct": null, "is_metal": null, "es_source_calc_id": null, "bandstructure": null, "dos": null, "dos_energy_up": null, "dos_energy_down": null, "is_magnetic": null, "ordering": null, "total_magnetization": 6.2580666, "total_magnetization_normalized_vol": null, "total_magnetization_normalized_formula_units": null, "num_magnetic_sites": null, "num_unique_magnetic_sites": null, "types_of_magnetic_species": null, "bulk_modulus": null, "shear_modulus": null, "universal_anisotropy": null, "homogeneous_poisson": null, "e_total": null, "e_ionic": null, "e_electronic": null, "n": null, "e_ij_max": null, "weighted_surface_energy_EV_PER_ANG2": null, "weighted_surface_energy": null, "weighted_work_function": null, "surface_anisotropy": null, "shape_factor": null, "has_reconstructed": null, "possible_species": null, "has_props": null, "theoretical": null, "database_IDs": null, "fields_not_requested": ["builder_meta", "nsites", "elements", "nelements", "composition", "composition_reduced", "chemsys", "symmetry", "property_name", "deprecated", "deprecation_reasons", "last_updated", "origins", "warnings", "task_ids", "uncorrected_energy_per_atom", "equilibrium_reaction_energy_per_atom", "decomposes_to", "xas", "grain_boundaries", "cbm", "vbm", "is_gap_direct", "is_metal", "es_source_calc_id", "bandstructure", "dos", "dos_energy_up", "dos_energy_down", "is_magnetic", "ordering", "total_magnetization_normalized_vol", "total_magnetization_normalized_formula_units", "num_magnetic_sites", "num_unique_magnetic_sites", "types_of_magnetic_species", "bulk_modulus", "shear_modulus", "universal_anisotropy", "homogeneous_poisson", "e_total", "e_ionic", "e_electronic", "n", "e_ij_max", "weighted_surface_energy_EV_PER_ANG2", "weighted_surface_energy", "weighted_work_function", "surface_anisotropy", "shape_factor", "has_reconstructed", "possible_species", "has_props", "theoretical", "database_IDs"]}