{"builder_meta": null, "nsites": null, "elements": null, "nelements": null, "composition": null, "composition_reduced": null, "formula_pretty": "Fe8N3", "formula_anonymous": "A3B8", "chemsys": null, "volume": 327.26723218664796, "density": 7.440144058453357, "density_atomic": 9.917188854140846, "symmetry": null, "property_name": null, "material_id": "mp-673174", "deprecated": null, "deprecation_reasons": null, "last_updated": null, "origins": null, "warnings": null, "structure": {"@module": "pymatgen.core.structure", "@class": "Structure", "charge": 0, "lattice": {"matrix": [[8.111237, 4.306781, 0.0], [-8.111237, 4.306781, 0.0], [0.0, 0.002516, 4.68417]], "pbc": [true, true, true], "a": 9.183709939459652, "b": 9.183709939459652, "c": 4.68417067570728, "alpha": 89.9855677117969, "beta": 89.9855677117969, "gamma": 124.06654598274044, "volume": 327.26723218664796}, "properties": {}, "sites": [{"species": [{"element": "Fe", "occu": 1}], "abc": [0.915613, 0.832616999999999, 0.672354999999999], "properties": {"magmom": 1.974}, "label": "Fe", "xyz": [0.6732002260520078, 7.5309353928099965, 3.1494251203499957]}, {"species": [{"element": "Fe", "occu": 1}], "abc": [0.666381999999999, 0.083728, 0.165936], "properties": {"magmom": 1.472}, "label": "Fe", "xyz": [4.726044682997991, 3.230976990885996, 0.7772724331199999]}, {"species": [{"element": "Fe", "occu": 1}], "abc": [0.834669, 0.912621999999999, 0.161976999999999], "properties": {"magmom": 2.024}, "label": "Fe", "xyz": [-0.6322952578609922, 7.525607214402996, 0.7587278040899954]}, {"species": [{"element": "Fe", "occu": 1}], "abc": [0.8311600000000001, 0.420097999999999, 0.336619], "properties": {"magmom": 2.077}, "label": "Fe", "xyz": [3.334221303694009, 5.389741113901996, 1.57678062123]}, {"species": [{"element": "Fe", "occu": 1}], "abc": [0.419498, 0.332912999999999, 0.6628400000000001], "properties": {"magmom": 2.064}, "label": "Fe", "xyz": [0.7023114556450074, 3.242137104430996, 3.1048552428000002]}, {"species": [{"element": "Fe", "occu": 1}], "abc": [0.579902, 0.16884000000000002, 0.663381], "properties": {"magmom": 2.077}, "label": "Fe", "xyz": [3.334221303693999, 3.226336886098, 3.1073893787699998]}, {"species": [{"element": "Fe", "occu": 1}], "abc": [0.749525, 0.998290999999999, 0.66566], "properties": {"magmom": 1.53}, "label": "Fe", "xyz": [-2.017799983541992, 7.529135540855995, 3.1180646022]}, {"species": [{"element": "Fe", "occu": 1}], "abc": [0.748904, 0.498509, 0.828405], "properties": {"magmom": 2.075}, "label": "Fe", "xyz": [2.0310131886150007, 5.374418874533, 3.8803898488499997]}, {"species": [{"element": "Fe", "occu": 1}], "abc": [0.916272, 0.333617, 0.834063999999999], "properties": {"magmom": 1.472}, "label": "Fe", "xyz": [4.726052794234999, 5.385096702333, 3.9068975668799952]}, {"species": [{"element": "Fe", "occu": 1}], "abc": [0.580792, 0.667069, 0.8354300000000001], "properties": {"magmom": 2.063}, "label": "Fe", "xyz": [-0.6998131946489998, 5.376365987321001, 3.9132961431000006]}, {"species": [{"element": "Fe", "occu": 1}], "abc": [0.16920000000000002, 0.583067, 0.160697999999999], "properties": {"magmom": 2.159}, "label": "Fe", "xyz": [-3.356973323478999, 3.2402535386949998, 0.7527367506599953]}, {"species": [{"element": "Fe", "occu": 1}], "abc": [0.332931, 0.419207999999999, 0.16457000000000002], "properties": {"magmom": 2.063}, "label": "Fe", "xyz": [-0.6998131946489923, 3.239712012678996, 0.7708738569000001]}, {"species": [{"element": "Fe", "occu": 1}], "abc": [0.501491, 0.251096, 0.171595], "properties": {"magmom": 2.075}, "label": "Fe", "xyz": [2.0310131886150002, 3.2416591254669997, 0.80378015115]}, {"species": [{"element": "Fe", "occu": 1}], "abc": [0.500294999999999, 0.748606999999999, 0.326045], "properties": {"magmom": 2.002}, "label": "Fe", "xyz": [-2.014117481944, 5.379567733681991, 1.5272502076499999]}, {"species": [{"element": "Fe", "occu": 1}], "abc": [0.33052000000000004, 0.914356, 0.329136999999999], "properties": {"magmom": 1.484}, "label": "Fe", "xyz": [-4.7356321651319995, 5.362236412848, 1.5417336612899954]}, {"species": [{"element": "Fe", "occu": 1}], "abc": [0.667087, 0.580502, 0.33716], "properties": {"magmom": 2.064}, "label": "Fe", "xyz": [0.7023114556449999, 5.373940895569, 1.5793147572000001]}, {"species": [{"element": "Fe", "occu": 1}], "abc": [0.085644, 0.6694800000000001, 0.670863], "properties": {"magmom": 1.484}, "label": "Fe", "xyz": [-4.7356321651319995, 3.2538415871520003, 3.14243633871]}, {"species": [{"element": "Fe", "occu": 1}], "abc": [0.251393, 0.499704999999999, 0.673955], "properties": {"magmom": 2.002}, "label": "Fe", "xyz": [-2.014117481943992, 3.2365102663179957, 3.1569197923499996]}, {"species": [{"element": "Fe", "occu": 1}], "abc": [0.247027, 0.001987999999999, 0.838530999999999], "properties": {"magmom": 2.114}, "label": "Fe", "xyz": [1.987569403243008, 1.0745628147109958, 3.9278217542699956]}, {"species": [{"element": "Fe", "occu": 1}], "abc": [0.087378, 0.165331, 0.838023], "properties": {"magmom": 2.023}, "label": "Fe", "xyz": [-0.6322952578610002, 1.090470785597, 3.9254421959099997]}, {"species": [{"element": "Fe", "occu": 1}], "abc": [0.416933, 0.8308000000000001, 0.839302], "properties": {"magmom": 2.158}, "label": "Fe", "xyz": [-3.3569733234790005, 5.375824461305, 3.93143324934]}, {"species": [{"element": "Fe", "occu": 1}], "abc": [0.998012, 0.752973, 0.161469], "properties": {"magmom": 2.114}, "label": "Fe", "xyz": [1.9875694032430005, 7.5415151852890006, 0.75634824573]}, {"species": [{"element": "Fe", "occu": 1}], "abc": [0.001709, 0.250475, 0.33434], "properties": {"magmom": 1.532}, "label": "Fe", "xyz": [-2.017799983542, 1.086942459144, 1.5661053978000001]}, {"species": [{"element": "Fe", "occu": 1}], "abc": [0.167383, 0.084386999999999, 0.327644999999999], "properties": {"magmom": 1.974}, "label": "Fe", "xyz": [0.673200226052008, 1.0851426071899957, 1.5347448796499954]}, {"species": [{"element": "N", "occu": 1}], "abc": [0.878674, 0.121325999999999, 0.0], "properties": {"magmom": -0.074}, "label": "N", "xyz": [6.143029119476007, 4.3067809999999955, 0.0]}, {"species": [{"element": "N", "occu": 1}], "abc": [0.958328, 0.542033, 0.994371999999999], "properties": {"magmom": -0.066}, "label": "N", "xyz": [3.376667406914999, 6.464228087893, 4.657807491239995]}, {"species": [{"element": "N", "occu": 1}], "abc": [0.7880400000000001, 0.21196, 0.5], "properties": {"magmom": -0.064}, "label": "N", "xyz": [4.67272141096, 4.308039000000001, 2.342085]}, {"species": [{"element": "N", "occu": 1}], "abc": [0.708098999999999, 0.790899, 0.5008319999999991], "properties": {"magmom": -0.069}, "label": "N", "xyz": [-0.6716104236000078, 6.457116198749996, 2.3459822294399957]}, {"species": [{"element": "N", "occu": 1}], "abc": [0.541329, 0.458671, 0.0], "properties": {"magmom": -0.08}, "label": "N", "xyz": [0.6704586279459996, 4.306780999999999, 0.0]}, {"species": [{"element": "N", "occu": 1}], "abc": [0.457966999999999, 0.041672, 0.005627999999999], "properties": {"magmom": -0.066}, "label": "N", "xyz": [3.376667406914992, 2.1518499121069956, 0.026362508759995316]}, {"species": [{"element": "N", "occu": 1}], "abc": [0.295143, 0.704857, 0.5], "properties": {"magmom": -0.076}, "label": "N", "xyz": [-3.3232873562179996, 4.308039, 2.342085]}, {"species": [{"element": "N", "occu": 1}], "abc": [0.121832, 0.878168, 0.5], "properties": {"magmom": -0.082}, "label": "N", "xyz": [-6.134820547631999, 4.308039, 2.342085]}, {"species": [{"element": "N", "occu": 1}], "abc": [0.209100999999999, 0.291900999999999, 0.499168], "properties": {"magmom": -0.069}, "label": "N", "xyz": [-0.6716104236, 2.1589618012499914, 2.33818777056]}]}, "task_ids": null, "uncorrected_energy_per_atom": null, "energy_per_atom": -8.588540698484849, "formation_energy_per_atom": -0.15444952439393902, "energy_above_hull": 0.017508316742423, "is_stable": false, "equilibrium_reaction_energy_per_atom": null, "decomposes_to": null, "xas": null, "grain_boundaries": null, "band_gap": 0.0, "cbm": null, "vbm": null, "efermi": 6.40145958, "is_gap_direct": null, "is_metal": null, "es_source_calc_id": null, "bandstructure": null, "dos": null, "dos_energy_up": null, "dos_energy_down": null, "is_magnetic": null, "ordering": null, "total_magnetization": 44.8375166, "total_magnetization_normalized_vol": null, "total_magnetization_normalized_formula_units": null, "num_magnetic_sites": null, "num_unique_magnetic_sites": null, "types_of_magnetic_species": null, "bulk_modulus": null, "shear_modulus": null, "universal_anisotropy": null, "homogeneous_poisson": null, "e_total": null, "e_ionic": null, "e_electronic": null, "n": null, "e_ij_max": null, "weighted_surface_energy_EV_PER_ANG2": null, "weighted_surface_energy": null, "weighted_work_function": null, "surface_anisotropy": null, "shape_factor": null, "has_reconstructed": null, "possible_species": null, "has_props": null, "theoretical": null, "database_IDs": null, "fields_not_requested": ["builder_meta", "nsites", "elements", "nelements", "composition", "composition_reduced", "chemsys", "symmetry", "property_name", "deprecated", "deprecation_reasons", "last_updated", "origins", "warnings", "task_ids", "uncorrected_energy_per_atom", "equilibrium_reaction_energy_per_atom", "decomposes_to", "xas", "grain_boundaries", "cbm", "vbm", "is_gap_direct", "is_metal", "es_source_calc_id", "bandstructure", "dos", "dos_energy_up", "dos_energy_down", "is_magnetic", "ordering", "total_magnetization_normalized_vol", "total_magnetization_normalized_formula_units", "num_magnetic_sites", "num_unique_magnetic_sites", "types_of_magnetic_species", "bulk_modulus", "shear_modulus", "universal_anisotropy", "homogeneous_poisson", "e_total", "e_ionic", "e_electronic", "n", "e_ij_max", "weighted_surface_energy_EV_PER_ANG2", "weighted_surface_energy", "weighted_work_function", "surface_anisotropy", "shape_factor", "has_reconstructed", "possible_species", "has_props", "theoretical", "database_IDs"]}