{"builder_meta": null, "nsites": null, "elements": null, "nelements": null, "composition": null, "composition_reduced": null, "formula_pretty": "Fe8N", "formula_anonymous": "AB8", "chemsys": null, "volume": 100.78516745114275, "density": 7.591604253763501, "density_atomic": 11.198351939015861, "symmetry": null, "property_name": null, "material_id": "mp-555", "deprecated": null, "deprecation_reasons": null, "last_updated": null, "origins": null, "warnings": null, "structure": {"@module": "pymatgen.core.structure", "@class": "Structure", "charge": 0, "lattice": {"matrix": [[4.71788361, 0.0318077, -1.89893944], [-2.57375284, 4.19205161, -1.28654624], [0.019022, -0.03098423, 5.08442509]], "pbc": [true, true, true], "a": 5.085804605376954, "b": 5.084555202765508, "c": 5.084555079337247, "alpha": 105.0665990873644, "beta": 111.7118191603381, "gamma": 111.71180938969106, "volume": 100.78516745114277}, "properties": {}, "sites": [{"species": [{"element": "Fe", "occu": 1}], "abc": [0.5, 0.25, 0.75], "properties": {"magmom": 2.983}, "label": "Fe", "xyz": [1.7297700950000001, 1.04067858, 2.5422125375]}, {"species": [{"element": "Fe", "occu": 1}], "abc": [-0.0, 0.29861277, 0.29861277], "properties": {"magmom": 2.577}, "label": "Fe", "xyz": [-0.7628752527368269, 1.2425478564984427, 1.1340951235229146]}, {"species": [{"element": "Fe", "occu": 1}], "abc": [0.0, 0.70138723, 0.70138723], "properties": {"magmom": 2.577}, "label": "Fe", "xyz": [-1.7918555872631732, 2.9185195235015575, 2.6637837264770856]}, {"species": [{"element": "Fe", "occu": 1}], "abc": [0.48213635, 0.24106767, 0.24106767], "properties": {"magmom": 2.6710000000000003}, "label": "Fe", "xyz": [1.658800172374281, 1.0184344663894995, -1.925160864502118e-06]}, {"species": [{"element": "Fe", "occu": 1}], "abc": [0.0, 0.24135287, 0.7586471300000001], "properties": {"magmom": 2.674}, "label": "Fe", "xyz": [-0.6067516488977909, 0.9882575900968608, 3.5467728748167833]}, {"species": [{"element": "Fe", "occu": 1}], "abc": [-0.0, 0.7586471300000001, 0.24135287], "properties": {"magmom": 2.674}, "label": "Fe", "xyz": [-1.9479791911022093, 3.1728097899031398, 0.251105975183217]}, {"species": [{"element": "Fe", "occu": 1}], "abc": [0.51786365, 0.75893233, 0.75893233], "properties": {"magmom": 2.6710000000000003}, "label": "Fe", "xyz": [0.5043525976257193, 3.1744406136105003, 1.8989413351608646]}, {"species": [{"element": "Fe", "occu": 1}], "abc": [0.5, 0.75, 0.25], "properties": {"magmom": 2.983}, "label": "Fe", "xyz": [0.43338267500000016, 3.1521965, -0.6432731275000001]}, {"species": [{"element": "N", "occu": 1}], "abc": [-0.0, 0.0, -0.0], "properties": {"magmom": -0.038}, "label": "N", "xyz": [0.0, 0.0, 0.0]}]}, "task_ids": null, "uncorrected_energy_per_atom": null, "energy_per_atom": -8.52441552888889, "formation_energy_per_atom": -0.069032481666667, "energy_above_hull": 0.0010915550000000001, "is_stable": false, "equilibrium_reaction_energy_per_atom": null, "decomposes_to": null, "xas": null, "grain_boundaries": null, "band_gap": 0.0, "cbm": null, "vbm": null, "efermi": 5.36052563, "is_gap_direct": null, "is_metal": null, "es_source_calc_id": null, "bandstructure": null, "dos": null, "dos_energy_up": null, "dos_energy_down": null, "is_magnetic": null, "ordering": null, "total_magnetization": 21.0435155, "total_magnetization_normalized_vol": null, "total_magnetization_normalized_formula_units": null, "num_magnetic_sites": null, "num_unique_magnetic_sites": null, "types_of_magnetic_species": null, "bulk_modulus": null, "shear_modulus": null, "universal_anisotropy": null, "homogeneous_poisson": null, "e_total": null, "e_ionic": null, "e_electronic": null, "n": null, "e_ij_max": null, "weighted_surface_energy_EV_PER_ANG2": null, "weighted_surface_energy": null, "weighted_work_function": null, "surface_anisotropy": null, "shape_factor": null, "has_reconstructed": null, "possible_species": null, "has_props": null, "theoretical": null, "database_IDs": null, "fields_not_requested": ["builder_meta", "nsites", "elements", "nelements", "composition", "composition_reduced", "chemsys", "symmetry", "property_name", "deprecated", "deprecation_reasons", "last_updated", "origins", "warnings", "task_ids", "uncorrected_energy_per_atom", "equilibrium_reaction_energy_per_atom", "decomposes_to", "xas", "grain_boundaries", "cbm", "vbm", "is_gap_direct", "is_metal", "es_source_calc_id", "bandstructure", "dos", "dos_energy_up", "dos_energy_down", "is_magnetic", "ordering", "total_magnetization_normalized_vol", "total_magnetization_normalized_formula_units", "num_magnetic_sites", "num_unique_magnetic_sites", "types_of_magnetic_species", "bulk_modulus", "shear_modulus", "universal_anisotropy", "homogeneous_poisson", "e_total", "e_ionic", "e_electronic", "n", "e_ij_max", "weighted_surface_energy_EV_PER_ANG2", "weighted_surface_energy", "weighted_work_function", "surface_anisotropy", "shape_factor", "has_reconstructed", "possible_species", "has_props", "theoretical", "database_IDs"]}