{
  "builder_meta": null,
  "nsites": null,
  "elements": null,
  "nelements": null,
  "composition": null,
  "composition_reduced": null,
  "formula_pretty": "FeAg3",
  "formula_anonymous": "AB3",
  "chemsys": null,
  "volume": 134.1000796708095,
  "density": 9.397323046376977,
  "density_atomic": 16.762509958851187,
  "symmetry": null,
  "property_name": null,
  "material_id": "mp-1184294",
  "deprecated": null,
  "deprecation_reasons": null,
  "last_updated": null,
  "origins": null,
  "warnings": null,
  "structure": {
    "@module": "pymatgen.core.structure",
    "@class": "Structure",
    "charge": 0,
    "lattice": {
      "matrix": [
        [2.888523, -5.003069, 0.0],
        [2.888523, 5.003069, 0.0],
        [0.0, 0.0, 4.639666]
      ],
      "pbc": [true, true, true],
      "a": 5.777046350886411,
      "b": 5.777046350886411,
      "c": 4.639666,
      "alpha": 90.0,
      "beta": 90.0,
      "gamma": 120.00000401839564,
      "volume": 134.1000796708095
    },
    "properties": {},
    "sites": [
      {
        "species": [{ "element": "Fe", "occu": 1 }],
        "abc": [0.333333, 0.666667, 0.75],
        "properties": { "magmom": 3.031 },
        "label": "Fe",
        "xyz": [2.888523, 1.667693002046, 3.4797495]
      },
      {
        "species": [{ "element": "Fe", "occu": 1 }],
        "abc": [0.666667, 0.333333, 0.25],
        "properties": { "magmom": 3.028 },
        "label": "Fe",
        "xyz": [2.888523, -1.667693002046, 1.1599165]
      },
      {
        "species": [{ "element": "Ag", "occu": 1 }],
        "abc": [0.169406, 0.338812, 0.25],
        "properties": { "magmom": 0.003 },
        "label": "Ag",
        "xyz": [1.4679993820140003, 0.847549907014, 1.1599165]
      },
      {
        "species": [{ "element": "Ag", "occu": 1 }],
        "abc": [0.661188, 0.830593999999999, 0.25],
        "properties": { "magmom": -0.002 },
        "label": "Ag",
        "xyz": [4.309046617985998, 0.8475499070139949, 1.1599165]
      },
      {
        "species": [{ "element": "Ag", "occu": 1 }],
        "abc": [0.169406, 0.830593999999999, 0.25],
        "properties": { "magmom": 0.006 },
        "label": "Ag",
        "xyz": [2.8885229999999975, 3.307969185971995, 1.1599165]
      },
      {
        "species": [{ "element": "Ag", "occu": 1 }],
        "abc": [0.830593999999999, 0.661188, 0.75],
        "properties": { "magmom": 0.005 },
        "label": "Ag",
        "xyz": [4.309046617985998, -0.8475499070139949, 3.4797495]
      },
      {
        "species": [{ "element": "Ag", "occu": 1 }],
        "abc": [0.338812, 0.169406, 0.75],
        "properties": { "magmom": 0.006 },
        "label": "Ag",
        "xyz": [1.4679993820140003, -0.847549907014, 3.4797495]
      },
      {
        "species": [{ "element": "Ag", "occu": 1 }],
        "abc": [0.830593999999999, 0.169406, 0.75],
        "properties": { "magmom": -0.002 },
        "label": "Ag",
        "xyz": [2.8885229999999975, -3.307969185971995, 3.4797495]
      }
    ]
  },
  "task_ids": null,
  "uncorrected_energy_per_atom": null,
  "energy_per_atom": -3.90294989625,
  "formation_energy_per_atom": 0.346758665000001,
  "energy_above_hull": 0.346758665000001,
  "is_stable": false,
  "equilibrium_reaction_energy_per_atom": null,
  "decomposes_to": null,
  "xas": null,
  "grain_boundaries": null,
  "band_gap": 0.0,
  "cbm": null,
  "vbm": null,
  "efermi": 2.97574125,
  "is_gap_direct": null,
  "is_metal": null,
  "es_source_calc_id": null,
  "bandstructure": null,
  "dos": null,
  "dos_energy_up": null,
  "dos_energy_down": null,
  "is_magnetic": null,
  "ordering": null,
  "total_magnetization": 6.0578454,
  "total_magnetization_normalized_vol": null,
  "total_magnetization_normalized_formula_units": null,
  "num_magnetic_sites": null,
  "num_unique_magnetic_sites": null,
  "types_of_magnetic_species": null,
  "bulk_modulus": null,
  "shear_modulus": null,
  "universal_anisotropy": null,
  "homogeneous_poisson": null,
  "e_total": null,
  "e_ionic": null,
  "e_electronic": null,
  "n": null,
  "e_ij_max": null,
  "weighted_surface_energy_EV_PER_ANG2": null,
  "weighted_surface_energy": null,
  "weighted_work_function": null,
  "surface_anisotropy": null,
  "shape_factor": null,
  "has_reconstructed": null,
  "possible_species": null,
  "has_props": null,
  "theoretical": null,
  "database_IDs": null,
  "fields_not_requested": [
    "builder_meta",
    "nsites",
    "elements",
    "nelements",
    "composition",
    "composition_reduced",
    "chemsys",
    "symmetry",
    "property_name",
    "deprecated",
    "deprecation_reasons",
    "last_updated",
    "origins",
    "warnings",
    "task_ids",
    "uncorrected_energy_per_atom",
    "equilibrium_reaction_energy_per_atom",
    "decomposes_to",
    "xas",
    "grain_boundaries",
    "cbm",
    "vbm",
    "is_gap_direct",
    "is_metal",
    "es_source_calc_id",
    "bandstructure",
    "dos",
    "dos_energy_up",
    "dos_energy_down",
    "is_magnetic",
    "ordering",
    "total_magnetization_normalized_vol",
    "total_magnetization_normalized_formula_units",
    "num_magnetic_sites",
    "num_unique_magnetic_sites",
    "types_of_magnetic_species",
    "bulk_modulus",
    "shear_modulus",
    "universal_anisotropy",
    "homogeneous_poisson",
    "e_total",
    "e_ionic",
    "e_electronic",
    "n",
    "e_ij_max",
    "weighted_surface_energy_EV_PER_ANG2",
    "weighted_surface_energy",
    "weighted_work_function",
    "surface_anisotropy",
    "shape_factor",
    "has_reconstructed",
    "possible_species",
    "has_props",
    "theoretical",
    "database_IDs"
  ]
}
