{"builder_meta": null, "nsites": null, "elements": null, "nelements": null, "composition": null, "composition_reduced": null, "formula_pretty": "FeAs2", "formula_anonymous": "AB2", "chemsys": null, "volume": 89.86017320542841, "density": 7.60188367003951, "density_atomic": 14.976695534238068, "symmetry": null, "property_name": null, "material_id": "mp-2008", "deprecated": null, "deprecation_reasons": null, "last_updated": null, "origins": null, "warnings": null, "structure": {"@module": "pymatgen.core.structure", "@class": "Structure", "charge": 0, "lattice": {"matrix": [[2.87388077, 0.0, 0.0], [0.0, 5.24609782, 0.0], [0.0, -0.0, 5.9602176700000005]], "pbc": [true, true, true], "a": 2.87388077, "b": 5.24609782, "c": 5.9602176700000005, "alpha": 90.0, "beta": 90.0, "gamma": 90.0, "volume": 89.86017320542842}, "properties": {}, "sites": [{"species": [{"element": "Fe", "occu": 1}], "abc": [0.0, 0.0, 0.0], "properties": {"magmom": -0.0}, "label": "Fe", "xyz": [0.0, 0.0, 0.0]}, {"species": [{"element": "Fe", "occu": 1}], "abc": [0.5, 0.5, 0.5], "properties": {"magmom": -0.0}, "label": "Fe", "xyz": [1.436940385, 2.62304891, 2.9801088350000002]}, {"species": [{"element": "As", "occu": 1}], "abc": [-0.0, 0.17883368, 0.36276647], "properties": {"magmom": 0.0}, "label": "As", "xyz": [0.0, 0.9381789787905775, 2.162167124577525]}, {"species": [{"element": "As", "occu": 1}], "abc": [-0.0, 0.82116632, 0.63723353], "properties": {"magmom": 0.0}, "label": "As", "xyz": [0.0, 4.307918841209423, 3.7980505454224756]}, {"species": [{"element": "As", "occu": 1}], "abc": [0.5, 0.67883368, 0.13723353], "properties": {"magmom": 0.0}, "label": "As", "xyz": [1.436940385, 3.5612278887905777, 0.8179417104224751]}, {"species": [{"element": "As", "occu": 1}], "abc": [0.5, 0.32116632, 0.8627664700000001], "properties": {"magmom": 0.0}, "label": "As", "xyz": [1.436940385, 1.6848699312094224, 5.142275959577526]}]}, "task_ids": null, "uncorrected_energy_per_atom": null, "energy_per_atom": -6.193539033333335, "formation_energy_per_atom": -0.256783608333336, "energy_above_hull": 0.0, "is_stable": true, "equilibrium_reaction_energy_per_atom": null, "decomposes_to": null, "xas": null, "grain_boundaries": null, "band_gap": 0.28299999999999903, "cbm": null, "vbm": null, "efermi": 6.3776090100000005, "is_gap_direct": null, "is_metal": null, "es_source_calc_id": null, "bandstructure": null, "dos": null, "dos_energy_up": null, "dos_energy_down": null, "is_magnetic": null, "ordering": null, "total_magnetization": 0.0, "total_magnetization_normalized_vol": null, "total_magnetization_normalized_formula_units": null, "num_magnetic_sites": null, "num_unique_magnetic_sites": null, "types_of_magnetic_species": null, "bulk_modulus": null, "shear_modulus": null, "universal_anisotropy": null, "homogeneous_poisson": null, "e_total": null, "e_ionic": null, "e_electronic": null, "n": null, "e_ij_max": null, "weighted_surface_energy_EV_PER_ANG2": null, "weighted_surface_energy": null, "weighted_work_function": null, "surface_anisotropy": null, "shape_factor": null, "has_reconstructed": null, "possible_species": null, "has_props": null, "theoretical": null, "database_IDs": null, "fields_not_requested": ["builder_meta", "nsites", "elements", "nelements", "composition", "composition_reduced", "chemsys", "symmetry", "property_name", "deprecated", "deprecation_reasons", "last_updated", "origins", "warnings", "task_ids", "uncorrected_energy_per_atom", "equilibrium_reaction_energy_per_atom", "decomposes_to", "xas", "grain_boundaries", "cbm", "vbm", "is_gap_direct", "is_metal", "es_source_calc_id", "bandstructure", "dos", "dos_energy_up", "dos_energy_down", "is_magnetic", "ordering", "total_magnetization_normalized_vol", "total_magnetization_normalized_formula_units", "num_magnetic_sites", "num_unique_magnetic_sites", "types_of_magnetic_species", "bulk_modulus", "shear_modulus", "universal_anisotropy", "homogeneous_poisson", "e_total", "e_ionic", "e_electronic", "n", "e_ij_max", "weighted_surface_energy_EV_PER_ANG2", "weighted_surface_energy", "weighted_work_function", "surface_anisotropy", "shape_factor", "has_reconstructed", "possible_species", "has_props", "theoretical", "database_IDs"]}