{
  "builder_meta": null,
  "nsites": null,
  "elements": null,
  "nelements": null,
  "composition": null,
  "composition_reduced": null,
  "formula_pretty": "FeAs",
  "formula_anonymous": "AB",
  "chemsys": null,
  "volume": 114.06618720487754,
  "density": 7.614633336220441,
  "density_atomic": 14.258273400609692,
  "symmetry": null,
  "property_name": null,
  "material_id": "mp-427",
  "deprecated": null,
  "deprecation_reasons": null,
  "last_updated": null,
  "origins": null,
  "warnings": null,
  "structure": {
    "@module": "pymatgen.core.structure",
    "@class": "Structure",
    "charge": 0,
    "lattice": {
      "matrix": [
        [3.39399216, 0.0, 0.0],
        [0.0, 5.57941526, -0.00311488],
        [0.0, -0.00338726, 6.02361964]
      ],
      "pbc": [true, true, true],
      "a": 3.39399216,
      "b": 5.579416129488666,
      "c": 6.023620592378311,
      "alpha": 90.06420623900738,
      "beta": 90.0,
      "gamma": 90.0,
      "volume": 114.06618720487754
    },
    "properties": {},
    "sites": [
      {
        "species": [{ "element": "Fe", "occu": 1 }],
        "abc": [0.75, -0.00863756, 0.81187866],
        "properties": { "magmom": 2.26 },
        "label": "Fe",
        "xyz": [2.54549412, -0.050942578183037206, 4.890475146635775]
      },
      {
        "species": [{ "element": "Fe", "occu": 1 }],
        "abc": [0.25, 0.00863505, 0.18812421000000001],
        "properties": { "magmom": 2.26 },
        "label": "Fe",
        "xyz": [0.84849804, 0.0475413041292984, 1.1331617889709404]
      },
      {
        "species": [{ "element": "Fe", "occu": 1 }],
        "abc": [0.75, 0.49232663, 0.68814713],
        "properties": { "magmom": 2.2720000000000002 },
        "label": "Fe",
        "xyz": [2.54549412, 2.7445637790788098, 4.143603029104379]
      },
      {
        "species": [{ "element": "Fe", "occu": 1 }],
        "abc": [0.25, 0.50766827, 0.31184525],
        "properties": { "magmom": 2.2720000000000002 },
        "label": "Fe",
        "xyz": [0.84849804, 2.8314357917142856, 1.8768558467998524]
      },
      {
        "species": [{ "element": "As", "occu": 1 }],
        "abc": [0.75, 0.80628583, 0.41969375000000003],
        "properties": { "magmom": -0.111 },
        "label": "As",
        "xyz": [2.54549412, 4.497181851972141, 2.5255640316790995]
      },
      {
        "species": [{ "element": "As", "occu": 1 }],
        "abc": [0.25, 0.19373664000000002, 0.5802947900000001],
        "properties": { "magmom": -0.111 },
        "label": "As",
        "xyz": [0.84849804, 1.078971556306751, 3.4948716276484726]
      },
      {
        "species": [{ "element": "As", "occu": 1 }],
        "abc": [0.75, 0.3063172, 0.07975997],
        "properties": { "magmom": -0.111 },
        "label": "As",
        "xyz": [2.54549412, 1.7088006923244898, 0.47948958045787476]
      },
      {
        "species": [{ "element": "As", "occu": 1 }],
        "abc": [0.25, 0.6936669400000001, 0.92025526],
        "properties": { "magmom": -0.111 },
        "label": "As",
        "xyz": [0.84849804, 3.867138766561517, 5.541106968671238]
      }
    ]
  },
  "task_ids": null,
  "uncorrected_energy_per_atom": null,
  "energy_per_atom": -6.7677790725,
  "formation_energy_per_atom": -0.19770720125000002,
  "energy_above_hull": 0.0,
  "is_stable": true,
  "equilibrium_reaction_energy_per_atom": null,
  "decomposes_to": null,
  "xas": null,
  "grain_boundaries": null,
  "band_gap": 0.0,
  "cbm": null,
  "vbm": null,
  "efermi": 6.99688027,
  "is_gap_direct": null,
  "is_metal": null,
  "es_source_calc_id": null,
  "bandstructure": null,
  "dos": null,
  "dos_energy_up": null,
  "dos_energy_down": null,
  "is_magnetic": null,
  "ordering": null,
  "total_magnetization": 8.226752,
  "total_magnetization_normalized_vol": null,
  "total_magnetization_normalized_formula_units": null,
  "num_magnetic_sites": null,
  "num_unique_magnetic_sites": null,
  "types_of_magnetic_species": null,
  "bulk_modulus": null,
  "shear_modulus": null,
  "universal_anisotropy": null,
  "homogeneous_poisson": null,
  "e_total": null,
  "e_ionic": null,
  "e_electronic": null,
  "n": null,
  "e_ij_max": null,
  "weighted_surface_energy_EV_PER_ANG2": null,
  "weighted_surface_energy": null,
  "weighted_work_function": null,
  "surface_anisotropy": null,
  "shape_factor": null,
  "has_reconstructed": null,
  "possible_species": null,
  "has_props": null,
  "theoretical": null,
  "database_IDs": null,
  "fields_not_requested": [
    "builder_meta",
    "nsites",
    "elements",
    "nelements",
    "composition",
    "composition_reduced",
    "chemsys",
    "symmetry",
    "property_name",
    "deprecated",
    "deprecation_reasons",
    "last_updated",
    "origins",
    "warnings",
    "task_ids",
    "uncorrected_energy_per_atom",
    "equilibrium_reaction_energy_per_atom",
    "decomposes_to",
    "xas",
    "grain_boundaries",
    "cbm",
    "vbm",
    "is_gap_direct",
    "is_metal",
    "es_source_calc_id",
    "bandstructure",
    "dos",
    "dos_energy_up",
    "dos_energy_down",
    "is_magnetic",
    "ordering",
    "total_magnetization_normalized_vol",
    "total_magnetization_normalized_formula_units",
    "num_magnetic_sites",
    "num_unique_magnetic_sites",
    "types_of_magnetic_species",
    "bulk_modulus",
    "shear_modulus",
    "universal_anisotropy",
    "homogeneous_poisson",
    "e_total",
    "e_ionic",
    "e_electronic",
    "n",
    "e_ij_max",
    "weighted_surface_energy_EV_PER_ANG2",
    "weighted_surface_energy",
    "weighted_work_function",
    "surface_anisotropy",
    "shape_factor",
    "has_reconstructed",
    "possible_species",
    "has_props",
    "theoretical",
    "database_IDs"
  ]
}
