{
  "builder_meta": null,
  "nsites": null,
  "elements": null,
  "nelements": null,
  "composition": null,
  "composition_reduced": null,
  "formula_pretty": "FeB",
  "formula_anonymous": "AB",
  "chemsys": null,
  "volume": 32.17254362154013,
  "density": 6.880705071089496,
  "density_atomic": 8.043135905385032,
  "symmetry": null,
  "property_name": null,
  "material_id": "mp-1007881",
  "deprecated": null,
  "deprecation_reasons": null,
  "last_updated": null,
  "origins": null,
  "warnings": null,
  "structure": {
    "@module": "pymatgen.core.structure",
    "@class": "Structure",
    "charge": 0,
    "lattice": {
      "matrix": [
        [-2.90490244, 2e-8, -0.0],
        [0.0, 0.0, -2.92077102],
        [-1.45245017, -3.79189528, 0.0]
      ],
      "pbc": [true, true, true],
      "a": 2.90490244,
      "b": 2.92077102,
      "c": 4.060551848064411,
      "alpha": 90.0,
      "beta": 69.04112763439325,
      "gamma": 90.0,
      "volume": 32.17254362154013
    },
    "properties": {},
    "sites": [
      {
        "species": [{ "element": "Fe", "occu": 1 }],
        "abc": [0.14576987, 0.75, 0.70846027],
        "properties": { "magmom": 2.042 },
        "label": "Fe",
        "xyz": [-1.4524504906412288, -2.6864071509651284, -2.190578265]
      },
      {
        "species": [{ "element": "Fe", "occu": 1 }],
        "abc": [0.85423013, 0.25, 0.29153973],
        "properties": { "magmom": 2.042 },
        "label": "Fe",
        "xyz": [-2.904902119358771, -1.1054881090348718, -0.730192755]
      },
      {
        "species": [{ "element": "B", "occu": 1 }],
        "abc": [0.43339027, 0.75, 0.13321946],
        "properties": { "magmom": -0.07 },
        "label": "B",
        "xyz": [-1.452451080119567, -0.5051542329103434, -2.190578265]
      },
      {
        "species": [{ "element": "B", "occu": 1 }],
        "abc": [0.56660973, 0.25, 0.86678054],
        "properties": { "magmom": -0.07 },
        "label": "B",
        "xyz": [-2.9049015298804335, -3.2867410270896564, -0.730192755]
      }
    ]
  },
  "task_ids": null,
  "uncorrected_energy_per_atom": null,
  "energy_per_atom": -7.96265300375,
  "formation_energy_per_atom": -0.387946513333332,
  "energy_above_hull": 0.0,
  "is_stable": true,
  "equilibrium_reaction_energy_per_atom": null,
  "decomposes_to": null,
  "xas": null,
  "grain_boundaries": null,
  "band_gap": 0.0,
  "cbm": null,
  "vbm": null,
  "efermi": 7.81118761,
  "is_gap_direct": null,
  "is_metal": null,
  "es_source_calc_id": null,
  "bandstructure": null,
  "dos": null,
  "dos_energy_up": null,
  "dos_energy_down": null,
  "is_magnetic": null,
  "ordering": null,
  "total_magnetization": 3.8281656,
  "total_magnetization_normalized_vol": null,
  "total_magnetization_normalized_formula_units": null,
  "num_magnetic_sites": null,
  "num_unique_magnetic_sites": null,
  "types_of_magnetic_species": null,
  "bulk_modulus": null,
  "shear_modulus": null,
  "universal_anisotropy": null,
  "homogeneous_poisson": null,
  "e_total": null,
  "e_ionic": null,
  "e_electronic": null,
  "n": null,
  "e_ij_max": null,
  "weighted_surface_energy_EV_PER_ANG2": null,
  "weighted_surface_energy": null,
  "weighted_work_function": null,
  "surface_anisotropy": null,
  "shape_factor": null,
  "has_reconstructed": null,
  "possible_species": null,
  "has_props": null,
  "theoretical": null,
  "database_IDs": null,
  "fields_not_requested": [
    "builder_meta",
    "nsites",
    "elements",
    "nelements",
    "composition",
    "composition_reduced",
    "chemsys",
    "symmetry",
    "property_name",
    "deprecated",
    "deprecation_reasons",
    "last_updated",
    "origins",
    "warnings",
    "task_ids",
    "uncorrected_energy_per_atom",
    "equilibrium_reaction_energy_per_atom",
    "decomposes_to",
    "xas",
    "grain_boundaries",
    "cbm",
    "vbm",
    "is_gap_direct",
    "is_metal",
    "es_source_calc_id",
    "bandstructure",
    "dos",
    "dos_energy_up",
    "dos_energy_down",
    "is_magnetic",
    "ordering",
    "total_magnetization_normalized_vol",
    "total_magnetization_normalized_formula_units",
    "num_magnetic_sites",
    "num_unique_magnetic_sites",
    "types_of_magnetic_species",
    "bulk_modulus",
    "shear_modulus",
    "universal_anisotropy",
    "homogeneous_poisson",
    "e_total",
    "e_ionic",
    "e_electronic",
    "n",
    "e_ij_max",
    "weighted_surface_energy_EV_PER_ANG2",
    "weighted_surface_energy",
    "weighted_work_function",
    "surface_anisotropy",
    "shape_factor",
    "has_reconstructed",
    "possible_species",
    "has_props",
    "theoretical",
    "database_IDs"
  ]
}
