{"builder_meta": null, "nsites": null, "elements": null, "nelements": null, "composition": null, "composition_reduced": null, "formula_pretty": "FeB2", "formula_anonymous": "AB2", "chemsys": null, "volume": 86.7227772916286, "density": 5.933250012956842, "density_atomic": 7.226898107635717, "symmetry": null, "property_name": null, "material_id": "mp-1101938", "deprecated": null, "deprecation_reasons": null, "last_updated": null, "origins": null, "warnings": null, "structure": {"@module": "pymatgen.core.structure", "@class": "Structure", "charge": 0, "lattice": {"matrix": [[0.0, 0.0, -3.741804], [0.0, -4.808048, 0.0], [-4.820403, 0.0, 0.0]], "pbc": [true, true, true], "a": 3.741804, "b": 4.808048, "c": 4.820403, "alpha": 90.0, "beta": 90.0, "gamma": 90.0, "volume": 86.7227772916286}, "properties": {}, "sites": [{"species": [{"element": "Fe", "occu": 1}], "abc": [0.124047999999999, 0.75, 0.019566999999999002], "properties": {"magmom": -0.0}, "label": "Fe", "xyz": [-0.09432082550099519, -3.6060360000000005, -0.4641633025919963]}, {"species": [{"element": "Fe", "occu": 1}], "abc": [0.375952, 0.75, 0.519567], "properties": {"magmom": -0.0}, "label": "Fe", "xyz": [-2.504522325501, -3.6060360000000005, -1.406738697408]}, {"species": [{"element": "Fe", "occu": 1}], "abc": [0.875952, 0.25, 0.980433], "properties": {"magmom": -0.0}, "label": "Fe", "xyz": [-4.726082174499, -1.202012, -3.277640697408]}, {"species": [{"element": "Fe", "occu": 1}], "abc": [0.624047999999999, 0.25, 0.480433], "properties": {"magmom": -0.0}, "label": "Fe", "xyz": [-2.3158806744989997, -1.202012, -2.3350653025919965]}, {"species": [{"element": "B", "occu": 1}], "abc": [0.393397999999999, 0.430716, 0.839092], "properties": {"magmom": 0.0}, "label": "B", "xyz": [-4.044761594075999, -2.070903202368, -1.4720182099919965]}, {"species": [{"element": "B", "occu": 1}], "abc": [0.106601999999999, 0.069284, 0.339092], "properties": {"magmom": 0.0}, "label": "B", "xyz": [-1.634560094076, -0.33312079763200003, -0.3988837900079963]}, {"species": [{"element": "B", "occu": 1}], "abc": [0.606602, 0.930716, 0.160908], "properties": {"magmom": 0.0}, "label": "B", "xyz": [-0.775641405924, -4.474927202368001, -2.269785790008]}, {"species": [{"element": "B", "occu": 1}], "abc": [0.893397999999999, 0.569284, 0.660907999999999], "properties": {"magmom": 0.0}, "label": "B", "xyz": [-3.1858429059239954, -2.7371447976320002, -3.3429202099919966]}, {"species": [{"element": "B", "occu": 1}], "abc": [0.606602, 0.569284, 0.160908], "properties": {"magmom": 0.0}, "label": "B", "xyz": [-0.775641405924, -2.7371447976320002, -2.269785790008]}, {"species": [{"element": "B", "occu": 1}], "abc": [0.893397999999999, 0.930716, 0.660907999999999], "properties": {"magmom": 0.0}, "label": "B", "xyz": [-3.1858429059239954, -4.474927202368001, -3.3429202099919966]}, {"species": [{"element": "B", "occu": 1}], "abc": [0.393397999999999, 0.069284, 0.839092], "properties": {"magmom": 0.0}, "label": "B", "xyz": [-4.044761594075999, -0.33312079763200003, -1.4720182099919965]}, {"species": [{"element": "B", "occu": 1}], "abc": [0.106601999999999, 0.430716, 0.339092], "properties": {"magmom": 0.0}, "label": "B", "xyz": [-1.634560094076, -2.070903202368, -0.3988837900079963]}]}, "task_ids": null, "uncorrected_energy_per_atom": null, "energy_per_atom": -7.572315125833334, "formation_energy_per_atom": -0.296046875277777, "energy_above_hull": 0.0, "is_stable": true, "equilibrium_reaction_energy_per_atom": null, "decomposes_to": null, "xas": null, "grain_boundaries": null, "band_gap": 0.5153999999999991, "cbm": null, "vbm": null, "efermi": 8.29298741, "is_gap_direct": null, "is_metal": null, "es_source_calc_id": null, "bandstructure": null, "dos": null, "dos_energy_up": null, "dos_energy_down": null, "is_magnetic": null, "ordering": null, "total_magnetization": 0.0008397, "total_magnetization_normalized_vol": null, "total_magnetization_normalized_formula_units": null, "num_magnetic_sites": null, "num_unique_magnetic_sites": null, "types_of_magnetic_species": null, "bulk_modulus": null, "shear_modulus": null, "universal_anisotropy": null, "homogeneous_poisson": null, "e_total": null, "e_ionic": null, "e_electronic": null, "n": null, "e_ij_max": null, "weighted_surface_energy_EV_PER_ANG2": null, "weighted_surface_energy": null, "weighted_work_function": null, "surface_anisotropy": null, "shape_factor": null, "has_reconstructed": null, "possible_species": null, "has_props": null, "theoretical": null, "database_IDs": null, "fields_not_requested": ["builder_meta", "nsites", "elements", "nelements", "composition", "composition_reduced", "chemsys", "symmetry", "property_name", "deprecated", "deprecation_reasons", "last_updated", "origins", "warnings", "task_ids", "uncorrected_energy_per_atom", "equilibrium_reaction_energy_per_atom", "decomposes_to", "xas", "grain_boundaries", "cbm", "vbm", "is_gap_direct", "is_metal", "es_source_calc_id", "bandstructure", "dos", "dos_energy_up", "dos_energy_down", "is_magnetic", "ordering", "total_magnetization_normalized_vol", "total_magnetization_normalized_formula_units", "num_magnetic_sites", "num_unique_magnetic_sites", "types_of_magnetic_species", "bulk_modulus", "shear_modulus", "universal_anisotropy", "homogeneous_poisson", "e_total", "e_ionic", "e_electronic", "n", "e_ij_max", "weighted_surface_energy_EV_PER_ANG2", "weighted_surface_energy", "weighted_work_function", "surface_anisotropy", "shape_factor", "has_reconstructed", "possible_species", "has_props", "theoretical", "database_IDs"]}