{"builder_meta": null, "nsites": null, "elements": null, "nelements": null, "composition": null, "composition_reduced": null, "formula_pretty": "FeB4", "formula_anonymous": "AB4", "chemsys": null, "volume": 70.96412453258056, "density": 4.637305304732799, "density_atomic": 7.096412453258056, "symmetry": null, "property_name": null, "material_id": "mp-1079437", "deprecated": null, "deprecation_reasons": null, "last_updated": null, "origins": null, "warnings": null, "structure": {"@module": "pymatgen.core.structure", "@class": "Structure", "charge": 0, "lattice": {"matrix": [[0.0, 0.0, 2.99712967], [4.50957005, -0.0, 0.0], [0.0, 5.25046997, 0.0]], "pbc": [true, true, true], "a": 2.99712967, "b": 4.50957005, "c": 5.25046997, "alpha": 90.0, "beta": 90.0, "gamma": 90.0, "volume": 70.96412453258056}, "properties": {}, "sites": [{"species": [{"element": "Fe", "occu": 1}], "abc": [0.0, 0.5, -0.0], "properties": {"magmom": -0.0}, "label": "Fe", "xyz": [2.254785025, 0.0, 0.0]}, {"species": [{"element": "Fe", "occu": 1}], "abc": [0.5, -0.0, 0.5], "properties": {"magmom": -0.0}, "label": "Fe", "xyz": [0.0, 2.625234985, 1.498564835]}, {"species": [{"element": "B", "occu": 1}], "abc": [0.5, 0.16254798, 0.87291057], "properties": {"magmom": 0.0}, "label": "B", "xyz": [0.733021502295999, 4.583190734280583, 1.498564835]}, {"species": [{"element": "B", "occu": 1}], "abc": [0.5, 0.83745202, 0.12708943], "properties": {"magmom": 0.0}, "label": "B", "xyz": [3.776548547704001, 0.6672792357194172, 1.498564835]}, {"species": [{"element": "B", "occu": 1}], "abc": [-0.0, 0.66254798, 0.6270894300000001], "properties": {"magmom": 0.0}, "label": "B", "xyz": [2.987806527295999, 3.2925142207194176, 0.0]}, {"species": [{"element": "B", "occu": 1}], "abc": [0.0, 0.33745202, 0.37291057], "properties": {"magmom": 0.0}, "label": "B", "xyz": [1.521763522704001, 1.957955749280583, 0.0]}, {"species": [{"element": "B", "occu": 1}], "abc": [0.5, 0.75203348, 0.8126457300000001], "properties": {"magmom": -0.0}, "label": "B", "xyz": [3.391347658005274, 4.266772001613728, 1.498564835]}, {"species": [{"element": "B", "occu": 1}], "abc": [0.5, 0.24796652, 0.18735427000000002], "properties": {"magmom": -0.0}, "label": "B", "xyz": [1.1182223919947258, 0.983697968386272, 1.498564835]}, {"species": [{"element": "B", "occu": 1}], "abc": [-0.0, 0.25203348000000003, 0.68735427], "properties": {"magmom": -0.0}, "label": "B", "xyz": [1.136562633005274, 3.6089329533862724, 0.0]}, {"species": [{"element": "B", "occu": 1}], "abc": [0.0, 0.74796652, 0.31264573], "properties": {"magmom": -0.0}, "label": "B", "xyz": [3.3730074169947257, 1.6415370166137282, 0.0]}]}, "task_ids": null, "uncorrected_energy_per_atom": null, "energy_per_atom": -7.208300637000001, "formation_energy_per_atom": -0.170782978333333, "energy_above_hull": 0.0068451468333330006, "is_stable": false, "equilibrium_reaction_energy_per_atom": null, "decomposes_to": null, "xas": null, "grain_boundaries": null, "band_gap": 0.0, "cbm": null, "vbm": null, "efermi": 8.01105746, "is_gap_direct": null, "is_metal": null, "es_source_calc_id": null, "bandstructure": null, "dos": null, "dos_energy_up": null, "dos_energy_down": null, "is_magnetic": null, "ordering": null, "total_magnetization": 7.9e-06, "total_magnetization_normalized_vol": null, "total_magnetization_normalized_formula_units": null, "num_magnetic_sites": null, "num_unique_magnetic_sites": null, "types_of_magnetic_species": null, "bulk_modulus": null, "shear_modulus": null, "universal_anisotropy": null, "homogeneous_poisson": null, "e_total": null, "e_ionic": null, "e_electronic": null, "n": null, "e_ij_max": null, "weighted_surface_energy_EV_PER_ANG2": null, "weighted_surface_energy": null, "weighted_work_function": null, "surface_anisotropy": null, "shape_factor": null, "has_reconstructed": null, "possible_species": null, "has_props": null, "theoretical": null, "database_IDs": null, "fields_not_requested": ["builder_meta", "nsites", "elements", "nelements", "composition", "composition_reduced", "chemsys", "symmetry", "property_name", "deprecated", "deprecation_reasons", "last_updated", "origins", "warnings", "task_ids", "uncorrected_energy_per_atom", "equilibrium_reaction_energy_per_atom", "decomposes_to", "xas", "grain_boundaries", "cbm", "vbm", "is_gap_direct", "is_metal", "es_source_calc_id", "bandstructure", "dos", "dos_energy_up", "dos_energy_down", "is_magnetic", "ordering", "total_magnetization_normalized_vol", "total_magnetization_normalized_formula_units", "num_magnetic_sites", "num_unique_magnetic_sites", "types_of_magnetic_species", "bulk_modulus", "shear_modulus", "universal_anisotropy", "homogeneous_poisson", "e_total", "e_ionic", "e_electronic", "n", "e_ij_max", "weighted_surface_energy_EV_PER_ANG2", "weighted_surface_energy", "weighted_work_function", "surface_anisotropy", "shape_factor", "has_reconstructed", "possible_species", "has_props", "theoretical", "database_IDs"]}