{"builder_meta": null, "nsites": null, "elements": null, "nelements": null, "composition": null, "composition_reduced": null, "formula_pretty": "FeBr3", "formula_anonymous": "AB3", "chemsys": null, "volume": 229.82811797217516, "density": 4.270878160926458, "density_atomic": 28.728514746521896, "symmetry": null, "property_name": null, "material_id": "mp-23232", "deprecated": null, "deprecation_reasons": null, "last_updated": null, "origins": null, "warnings": null, "structure": {"@module": "pymatgen.core.structure", "@class": "Structure", "charge": 0, "lattice": {"matrix": [[5.84915632, 0.03683947, 4.4382603], [2.22386259, 5.40991206, 4.43828723], [0.05538601, 0.036372840000000004, 7.34230603]], "pbc": [true, true, true], "a": 7.342488766957829, "b": 7.342418324511075, "c": 7.34260501673403, "alpha": 52.38286825042251, "beta": 52.37636998632568, "gamma": 52.38473937844522, "volume": 229.82811797217514}, "properties": {}, "sites": [{"species": [{"element": "Fe", "occu": 1}], "abc": [0.33369938, 0.33374212000000003, 0.33369289], "properties": {"magmom": -3.9210000000000003}, "label": "Fe", "xyz": [2.7125383706248414, 1.8299461863136035, 5.412363418112868]}, {"species": [{"element": "Fe", "occu": 1}], "abc": [0.66630062, 0.66625788, 0.66630711], "properties": {"magmom": -3.9210000000000003}, "label": "Fe", "xyz": [5.415866549375159, 3.653178183686396, 10.806490141887132]}, {"species": [{"element": "Br", "occu": 1}], "abc": [0.72021008, 0.43467523, 0.07650201], "properties": {"magmom": -0.253}, "label": "Br", "xyz": [5.183516465047231, 2.38086952196554, 5.687394497560256]}, {"species": [{"element": "Br", "occu": 1}], "abc": [0.07658975, 0.72018019, 0.43462715], "properties": {"magmom": -0.253}, "label": "Br", "xyz": [2.073639466535983, 3.9147416448381303, 6.727457331634614]}, {"species": [{"element": "Br", "occu": 1}], "abc": [0.43462888, 0.07658895, 0.72016928], "properties": {"magmom": -0.253}, "label": "Br", "xyz": [2.752422863962675, 0.4565455838479858, 7.556623109246331]}, {"species": [{"element": "Br", "occu": 1}], "abc": [0.27978992, 0.56532477, 0.92349799], "properties": {"magmom": -0.253}, "label": "Br", "xyz": [2.9448884549527685, 3.1022548480344607, 10.531459062439744]}, {"species": [{"element": "Br", "occu": 1}], "abc": [0.92341025, 0.27981981, 0.56537285], "properties": {"magmom": -0.253}, "label": "Br", "xyz": [6.054765453464015, 1.56838272516187, 9.491396228365387]}, {"species": [{"element": "Br", "occu": 1}], "abc": [0.56537112, 0.92341105, 0.27983072000000003], "properties": {"magmom": -0.253}, "label": "Br", "xyz": [5.375982056037325, 5.026578786152014, 8.66223045075367]}]}, "task_ids": null, "uncorrected_energy_per_atom": null, "energy_per_atom": -4.108832406249999, "formation_energy_per_atom": -0.7636172024999981, "energy_above_hull": 0.0, "is_stable": true, "equilibrium_reaction_energy_per_atom": null, "decomposes_to": null, "xas": null, "grain_boundaries": null, "band_gap": 0.0, "cbm": null, "vbm": null, "efermi": 1.2886007, "is_gap_direct": null, "is_metal": null, "es_source_calc_id": null, "bandstructure": null, "dos": null, "dos_energy_up": null, "dos_energy_down": null, "is_magnetic": null, "ordering": null, "total_magnetization": 10.0000001, "total_magnetization_normalized_vol": null, "total_magnetization_normalized_formula_units": null, "num_magnetic_sites": null, "num_unique_magnetic_sites": null, "types_of_magnetic_species": null, "bulk_modulus": null, "shear_modulus": null, "universal_anisotropy": null, "homogeneous_poisson": null, "e_total": null, "e_ionic": null, "e_electronic": null, "n": null, "e_ij_max": null, "weighted_surface_energy_EV_PER_ANG2": null, "weighted_surface_energy": null, "weighted_work_function": null, "surface_anisotropy": null, "shape_factor": null, "has_reconstructed": null, "possible_species": null, "has_props": null, "theoretical": null, "database_IDs": null, "fields_not_requested": ["builder_meta", "nsites", "elements", "nelements", "composition", "composition_reduced", "chemsys", "symmetry", "property_name", "deprecated", "deprecation_reasons", "last_updated", "origins", "warnings", "task_ids", "uncorrected_energy_per_atom", "equilibrium_reaction_energy_per_atom", "decomposes_to", "xas", "grain_boundaries", "cbm", "vbm", "is_gap_direct", "is_metal", "es_source_calc_id", "bandstructure", "dos", "dos_energy_up", "dos_energy_down", "is_magnetic", "ordering", "total_magnetization_normalized_vol", "total_magnetization_normalized_formula_units", "num_magnetic_sites", "num_unique_magnetic_sites", "types_of_magnetic_species", "bulk_modulus", "shear_modulus", "universal_anisotropy", "homogeneous_poisson", "e_total", "e_ionic", "e_electronic", "n", "e_ij_max", "weighted_surface_energy_EV_PER_ANG2", "weighted_surface_energy", "weighted_work_function", "surface_anisotropy", "shape_factor", "has_reconstructed", "possible_species", "has_props", "theoretical", "database_IDs"]}