{"builder_meta": null, "nsites": null, "elements": null, "nelements": null, "composition": null, "composition_reduced": null, "formula_pretty": "FeBr2", "formula_anonymous": "AB2", "chemsys": null, "volume": 79.34406624645486, "density": 4.51325786880112, "density_atomic": 26.44802208215162, "symmetry": null, "property_name": null, "material_id": "mp-22880", "deprecated": null, "deprecation_reasons": null, "last_updated": null, "origins": null, "warnings": null, "structure": {"@module": "pymatgen.core.structure", "@class": "Structure", "charge": 0, "lattice": {"matrix": [[1.8616336900000001, -3.28391017, -0.00812901], [1.85555711, 3.28050625, 0.01053957], [0.0041789, 0.01984217, 6.50335994]], "pbc": [true, true, true], "a": 3.7748923270970294, "b": 3.7689420965698583, "c": 6.503391552421884, "alpha": 89.66949212577461, "beta": 90.25730205407311, "gamma": 120.95762501162018, "volume": 79.34406624645486}, "properties": {}, "sites": [{"species": [{"element": "Fe", "occu": 1}], "abc": [-9.49e-06, -1.519999999999999e-06, -4e-07], "properties": {"magmom": 3.565}, "label": "Fe", "xyz": [-2.04890220853e-05, 2.6170001145300006e-05, -2.5402198174999998e-06]}, {"species": [{"element": "Br", "occu": 1}], "abc": [0.66625197, 0.33391329000000003, 0.22825766], "properties": {"magmom": 0.126}, "label": "Br", "xyz": [1.8608661586992354, -1.0879778579689503, 1.482545055609376]}, {"species": [{"element": "Br", "occu": 1}], "abc": [0.33375752000000003, 0.6660882300000001, 0.77174275], "properties": {"magmom": 0.126}, "label": "Br", "xyz": [1.8605240303646393, 1.1043899381662268, 5.023228049644041]}]}, "task_ids": null, "uncorrected_energy_per_atom": null, "energy_per_atom": -4.711305606666667, "formation_energy_per_atom": -0.7966675133333341, "energy_above_hull": 0.0, "is_stable": true, "equilibrium_reaction_energy_per_atom": null, "decomposes_to": null, "xas": null, "grain_boundaries": null, "band_gap": 0.0, "cbm": null, "vbm": null, "efermi": 2.12277628, "is_gap_direct": null, "is_metal": null, "es_source_calc_id": null, "bandstructure": null, "dos": null, "dos_energy_up": null, "dos_energy_down": null, "is_magnetic": null, "ordering": null, "total_magnetization": 4.0, "total_magnetization_normalized_vol": null, "total_magnetization_normalized_formula_units": null, "num_magnetic_sites": null, "num_unique_magnetic_sites": null, "types_of_magnetic_species": null, "bulk_modulus": null, "shear_modulus": null, "universal_anisotropy": null, "homogeneous_poisson": null, "e_total": null, "e_ionic": null, "e_electronic": null, "n": null, "e_ij_max": null, "weighted_surface_energy_EV_PER_ANG2": null, "weighted_surface_energy": null, "weighted_work_function": null, "surface_anisotropy": null, "shape_factor": null, "has_reconstructed": null, "possible_species": null, "has_props": null, "theoretical": null, "database_IDs": null, "fields_not_requested": ["builder_meta", "nsites", "elements", "nelements", "composition", "composition_reduced", "chemsys", "symmetry", "property_name", "deprecated", "deprecation_reasons", "last_updated", "origins", "warnings", "task_ids", "uncorrected_energy_per_atom", "equilibrium_reaction_energy_per_atom", "decomposes_to", "xas", "grain_boundaries", "cbm", "vbm", "is_gap_direct", "is_metal", "es_source_calc_id", "bandstructure", "dos", "dos_energy_up", "dos_energy_down", "is_magnetic", "ordering", "total_magnetization_normalized_vol", "total_magnetization_normalized_formula_units", "num_magnetic_sites", "num_unique_magnetic_sites", "types_of_magnetic_species", "bulk_modulus", "shear_modulus", "universal_anisotropy", "homogeneous_poisson", "e_total", "e_ionic", "e_electronic", "n", "e_ij_max", "weighted_surface_energy_EV_PER_ANG2", "weighted_surface_energy", "weighted_work_function", "surface_anisotropy", "shape_factor", "has_reconstructed", "possible_species", "has_props", "theoretical", "database_IDs"]}