{
  "builder_meta": null,
  "nsites": null,
  "elements": null,
  "nelements": null,
  "composition": null,
  "composition_reduced": null,
  "formula_pretty": "FeCl4",
  "formula_anonymous": "AB4",
  "chemsys": null,
  "volume": 246.91805244749287,
  "density": 2.6585109272782033,
  "density_atomic": 24.691805244749286,
  "symmetry": null,
  "property_name": null,
  "material_id": "mp-1225059",
  "deprecated": null,
  "deprecation_reasons": null,
  "last_updated": null,
  "origins": null,
  "warnings": null,
  "structure": {
    "@module": "pymatgen.core.structure",
    "@class": "Structure",
    "charge": 0,
    "lattice": {
      "matrix": [
        [-5.18495729, -0.24130076, -4.60099598],
        [4.94458012, -4.94458012, -0.00087172],
        [-5.42625805, -5.42625805, 0.0]
      ],
      "pbc": [true, true, true],
      "a": 6.936221749906565,
      "b": 6.992692320279378,
      "c": 7.673887727246185,
      "alpha": 90.0,
      "beta": 56.41490088737032,
      "gamma": 120.25795096321268,
      "volume": 246.91805244749287
    },
    "properties": {},
    "sites": [
      {
        "species": [{ "element": "Fe", "occu": 1 }],
        "abc": [0.5, 0.0, 0.5],
        "properties": { "magmom": 3.356 },
        "label": "Fe",
        "xyz": [-5.3056076700000006, -2.833779405, -2.30049799]
      },
      {
        "species": [{ "element": "Fe", "occu": 1 }],
        "abc": [0.5, 0.5, 0.5],
        "properties": { "magmom": 3.356 },
        "label": "Fe",
        "xyz": [-2.83331761, -5.306069465, -2.3009338500000003]
      },
      {
        "species": [{ "element": "Cl", "occu": 1 }],
        "abc": [0.96548867, 0.7328534800000001, 0.26725516],
        "properties": { "magmom": 0.109 },
        "label": "Cl",
        "xyz": [-2.8325602332021242, -5.306821361277246, -4.442848332441133]
      },
      {
        "species": [{ "element": "Cl", "occu": 1 }],
        "abc": [0.96548767, 0.23271427, 0.26725567],
        "properties": { "magmom": 0.109 },
        "label": "Cl",
        "xyz": [-5.305536210634945, -2.8338454923695853, -4.442407750093012]
      },
      {
        "species": [{ "element": "Cl", "occu": 1 }],
        "abc": [0.4999721, 0.24999086, 0.71645647],
        "properties": { "magmom": 0.11900000000000001 },
        "label": "Cl",
        "xyz": [-5.243911835965989, -5.244421172058583, -2.3005875442446375]
      },
      {
        "species": [{ "element": "Cl", "occu": 1 }],
        "abc": [0.4999721, 0.24999086, 0.28357143],
        "properties": { "magmom": 0.11900000000000001 },
        "label": "Cl",
        "xyz": [-2.8949659029414168, -2.895475239034011, -2.3005875442446375]
      },
      {
        "species": [{ "element": "Cl", "occu": 1 }],
        "abc": [0.03451133, 0.26714652, 0.7327448400000001],
        "properties": { "magmom": 0.109 },
        "label": "Cl",
        "xyz": [-2.8340749867978756, -5.3053175687227565, -0.1590193675588678]
      },
      {
        "species": [{ "element": "Cl", "occu": 1 }],
        "abc": [0.03451233, 0.76728573, 0.73274433],
        "properties": { "magmom": 0.109 },
        "label": "Cl",
        "xyz": [-0.36109900936505523, -7.778293437630415, -0.15945994990698903]
      },
      {
        "species": [{ "element": "Cl", "occu": 1 }],
        "abc": [0.5000279, 0.75000914, 0.28354353],
        "properties": { "magmom": 0.11900000000000001 },
        "label": "Cl",
        "xyz": [-0.42272338403401033, -5.367717757941417, -2.3012801557553626]
      },
      {
        "species": [{ "element": "Cl", "occu": 1 }],
        "abc": [0.5000279, 0.75000914, 0.71642857],
        "properties": { "magmom": 0.11900000000000001 },
        "label": "Cl",
        "xyz": [-2.7716693170585827, -7.71666369096599, -2.3012801557553626]
      }
    ]
  },
  "task_ids": null,
  "uncorrected_energy_per_atom": null,
  "energy_per_atom": -4.170437406,
  "formation_energy_per_atom": -0.997598924,
  "energy_above_hull": 0.0,
  "is_stable": true,
  "equilibrium_reaction_energy_per_atom": null,
  "decomposes_to": null,
  "xas": null,
  "grain_boundaries": null,
  "band_gap": 0.2505,
  "cbm": null,
  "vbm": null,
  "efermi": 0.20214343,
  "is_gap_direct": null,
  "is_metal": null,
  "es_source_calc_id": null,
  "bandstructure": null,
  "dos": null,
  "dos_energy_up": null,
  "dos_energy_down": null,
  "is_magnetic": null,
  "ordering": null,
  "total_magnetization": 8.0002191,
  "total_magnetization_normalized_vol": null,
  "total_magnetization_normalized_formula_units": null,
  "num_magnetic_sites": null,
  "num_unique_magnetic_sites": null,
  "types_of_magnetic_species": null,
  "bulk_modulus": null,
  "shear_modulus": null,
  "universal_anisotropy": null,
  "homogeneous_poisson": null,
  "e_total": null,
  "e_ionic": null,
  "e_electronic": null,
  "n": null,
  "e_ij_max": null,
  "weighted_surface_energy_EV_PER_ANG2": null,
  "weighted_surface_energy": null,
  "weighted_work_function": null,
  "surface_anisotropy": null,
  "shape_factor": null,
  "has_reconstructed": null,
  "possible_species": null,
  "has_props": null,
  "theoretical": null,
  "database_IDs": null,
  "fields_not_requested": [
    "builder_meta",
    "nsites",
    "elements",
    "nelements",
    "composition",
    "composition_reduced",
    "chemsys",
    "symmetry",
    "property_name",
    "deprecated",
    "deprecation_reasons",
    "last_updated",
    "origins",
    "warnings",
    "task_ids",
    "uncorrected_energy_per_atom",
    "equilibrium_reaction_energy_per_atom",
    "decomposes_to",
    "xas",
    "grain_boundaries",
    "cbm",
    "vbm",
    "is_gap_direct",
    "is_metal",
    "es_source_calc_id",
    "bandstructure",
    "dos",
    "dos_energy_up",
    "dos_energy_down",
    "is_magnetic",
    "ordering",
    "total_magnetization_normalized_vol",
    "total_magnetization_normalized_formula_units",
    "num_magnetic_sites",
    "num_unique_magnetic_sites",
    "types_of_magnetic_species",
    "bulk_modulus",
    "shear_modulus",
    "universal_anisotropy",
    "homogeneous_poisson",
    "e_total",
    "e_ionic",
    "e_electronic",
    "n",
    "e_ij_max",
    "weighted_surface_energy_EV_PER_ANG2",
    "weighted_surface_energy",
    "weighted_work_function",
    "surface_anisotropy",
    "shape_factor",
    "has_reconstructed",
    "possible_species",
    "has_props",
    "theoretical",
    "database_IDs"
  ]
}
