{
  "builder_meta": null,
  "nsites": null,
  "elements": null,
  "nelements": null,
  "composition": null,
  "composition_reduced": null,
  "formula_pretty": "FeCl6",
  "formula_anonymous": "AB6",
  "chemsys": null,
  "volume": 2508.047921485916,
  "density": 0.177811336666598,
  "density_atomic": 358.2925602122737,
  "symmetry": null,
  "property_name": null,
  "material_id": "mp-1207367",
  "deprecated": null,
  "deprecation_reasons": null,
  "last_updated": null,
  "origins": null,
  "warnings": null,
  "structure": {
    "@module": "pymatgen.core.structure",
    "@class": "Structure",
    "charge": 0,
    "lattice": {
      "matrix": [
        [4.838087, -6.457972, 0.0],
        [4.838087, 6.457972, 0.0],
        [0.0, 0.0, 40.136177]
      ],
      "pbc": [true, true, true],
      "a": 8.069230952969,
      "b": 8.069230952969,
      "c": 40.136177,
      "alpha": 90.0,
      "beta": 90.0,
      "gamma": 106.32146236414545,
      "volume": 2508.047921485916
    },
    "properties": {},
    "sites": [
      {
        "species": [{ "element": "Fe", "occu": 1 }],
        "abc": [0.0, 0.0, 0.0],
        "properties": { "magmom": 3.079 },
        "label": "Fe",
        "xyz": [0.0, 0.0, 0.0]
      },
      {
        "species": [{ "element": "Cl", "occu": 1 }],
        "abc": [0.0, 0.0, 0.249966],
        "properties": { "magmom": 0.674 },
        "label": "Cl",
        "xyz": [0.0, 0.0, 10.032679619982]
      },
      {
        "species": [{ "element": "Cl", "occu": 1 }],
        "abc": [0.0, 0.0, 0.750034],
        "properties": { "magmom": 0.674 },
        "label": "Cl",
        "xyz": [0.0, 0.0, 30.103497380018002]
      },
      {
        "species": [{ "element": "Cl", "occu": 1 }],
        "abc": [0.276738, 0.040521999999999, 0.0],
        "properties": { "magmom": 0.147 },
        "label": "Cl",
        "xyz": [1.534931481619995, -1.5254763139520064, 0.0]
      },
      {
        "species": [{ "element": "Cl", "occu": 1 }],
        "abc": [0.723262, 0.959477999999999, 0.0],
        "properties": { "magmom": 0.147 },
        "label": "Cl",
        "xyz": [8.141242518379995, 1.5254763139519945, 0.0]
      },
      {
        "species": [{ "element": "Cl", "occu": 1 }],
        "abc": [0.040521999999999, 0.276738, 0.0],
        "properties": { "magmom": 0.153 },
        "label": "Cl",
        "xyz": [1.534931481619995, 1.5254763139520064, 0.0]
      },
      {
        "species": [{ "element": "Cl", "occu": 1 }],
        "abc": [0.959477999999999, 0.723262, 0.0],
        "properties": { "magmom": 0.153 },
        "label": "Cl",
        "xyz": [8.141242518379995, -1.5254763139519945, 0.0]
      }
    ]
  },
  "task_ids": null,
  "uncorrected_energy_per_atom": null,
  "energy_per_atom": -3.1709950371428572,
  "formation_energy_per_atom": -0.37652675,
  "energy_above_hull": 0.336043909999999,
  "is_stable": false,
  "equilibrium_reaction_energy_per_atom": null,
  "decomposes_to": null,
  "xas": null,
  "grain_boundaries": null,
  "band_gap": 0.18960000000000002,
  "cbm": null,
  "vbm": null,
  "efermi": -7.23813305,
  "is_gap_direct": null,
  "is_metal": null,
  "es_source_calc_id": null,
  "bandstructure": null,
  "dos": null,
  "dos_energy_up": null,
  "dos_energy_down": null,
  "is_magnetic": null,
  "ordering": null,
  "total_magnetization": 6.0001475,
  "total_magnetization_normalized_vol": null,
  "total_magnetization_normalized_formula_units": null,
  "num_magnetic_sites": null,
  "num_unique_magnetic_sites": null,
  "types_of_magnetic_species": null,
  "bulk_modulus": null,
  "shear_modulus": null,
  "universal_anisotropy": null,
  "homogeneous_poisson": null,
  "e_total": null,
  "e_ionic": null,
  "e_electronic": null,
  "n": null,
  "e_ij_max": null,
  "weighted_surface_energy_EV_PER_ANG2": null,
  "weighted_surface_energy": null,
  "weighted_work_function": null,
  "surface_anisotropy": null,
  "shape_factor": null,
  "has_reconstructed": null,
  "possible_species": null,
  "has_props": null,
  "theoretical": null,
  "database_IDs": null,
  "fields_not_requested": [
    "builder_meta",
    "nsites",
    "elements",
    "nelements",
    "composition",
    "composition_reduced",
    "chemsys",
    "symmetry",
    "property_name",
    "deprecated",
    "deprecation_reasons",
    "last_updated",
    "origins",
    "warnings",
    "task_ids",
    "uncorrected_energy_per_atom",
    "equilibrium_reaction_energy_per_atom",
    "decomposes_to",
    "xas",
    "grain_boundaries",
    "cbm",
    "vbm",
    "is_gap_direct",
    "is_metal",
    "es_source_calc_id",
    "bandstructure",
    "dos",
    "dos_energy_up",
    "dos_energy_down",
    "is_magnetic",
    "ordering",
    "total_magnetization_normalized_vol",
    "total_magnetization_normalized_formula_units",
    "num_magnetic_sites",
    "num_unique_magnetic_sites",
    "types_of_magnetic_species",
    "bulk_modulus",
    "shear_modulus",
    "universal_anisotropy",
    "homogeneous_poisson",
    "e_total",
    "e_ionic",
    "e_electronic",
    "n",
    "e_ij_max",
    "weighted_surface_energy_EV_PER_ANG2",
    "weighted_surface_energy",
    "weighted_work_function",
    "surface_anisotropy",
    "shape_factor",
    "has_reconstructed",
    "possible_species",
    "has_props",
    "theoretical",
    "database_IDs"
  ]
}
