{"builder_meta": null, "nsites": null, "elements": null, "nelements": null, "composition": null, "composition_reduced": null, "formula_pretty": "FeCl3", "formula_anonymous": "AB3", "chemsys": null, "volume": 578.1438476765462, "density": 2.79528438994453, "density_atomic": 24.08932698652276, "symmetry": null, "property_name": null, "material_id": "mp-583463", "deprecated": null, "deprecation_reasons": null, "last_updated": null, "origins": null, "warnings": null, "structure": {"@module": "pymatgen.core.structure", "@class": "Structure", "charge": 0, "lattice": {"matrix": [[6.10045976, 0.00016127, 0.00071891], [-3.05009155, 5.28306673, -0.0004494], [0.0022827, -0.0004282, 17.93827278]], "pbc": [true, true, true], "a": 6.100459804491695, "b": 6.100315790102562, "c": 17.938272930351, "alpha": 90.00905080140437, "beta": 89.98595693976402, "gamma": 119.99776616367471, "volume": 578.1438476765462}, "properties": {}, "sites": [{"species": [{"element": "Fe", "occu": 1}], "abc": [0.33328687, 0.66672273, 0.66669499], "properties": {"magmom": 4.009}, "label": "Fe", "xyz": [0.0011596386590926437, 3.5221089433765798, 11.95929656974822]}, {"species": [{"element": "Fe", "occu": 1}], "abc": [0.66660692, 0.33334004, 0.33314229], "properties": {"magmom": 4.009}, "label": "Fe", "xyz": [3.05065151582226, 1.7610225272702795, 5.976326699940747]}, {"species": [{"element": "Fe", "occu": 1}], "abc": [0.33326534, 0.66669023, 0.33323367], "properties": {"magmom": 4.009}, "label": "Fe", "xyz": [0.00036623158067075417, 3.522080028372936, 5.977576449136719]}, {"species": [{"element": "Fe", "occu": 1}], "abc": [0.00014508000000000001, 0.99994128, 4.5980000000000004e-05], "properties": {"magmom": 4.009}, "label": "Fe", "xyz": [-3.049027288963657, 5.28275651203003, 0.0003755324706552]}, {"species": [{"element": "Fe", "occu": 1}], "abc": [0.66662268, 0.33338972, 0.66680328], "properties": {"magmom": 4.009}, "label": "Fe", "xyz": [3.0513577784617465, 1.7611421189311232, 11.961628543609429]}, {"species": [{"element": "Fe", "occu": 1}], "abc": [0.33348824, 0.66658626, 4.8650000000000003e-05], "properties": {"magmom": 4.009}, "label": "Fe", "xyz": [0.0012825806344745497, 3.5216734536976646, 0.0008128811361214001]}, {"species": [{"element": "Cl", "occu": 1}], "abc": [0.02651084, 0.33312317, 0.92392041], "properties": {"magmom": 0.248}, "label": "Cl", "xyz": [-0.8522188201825082, 1.759520589102739, 16.573405694944825]}, {"species": [{"element": "Cl", "occu": 1}], "abc": [-0.00024605, 0.35994487000000003, 0.25703382], "properties": {"magmom": 0.249}, "label": "Cl", "xyz": [-1.0987790934758825, 1.9015026657689675, 4.610580840733036]}, {"species": [{"element": "Cl", "occu": 1}], "abc": [0.36004444, 0.00025799, 0.25704494], "properties": {"magmom": 0.249}, "label": "Cl", "xyz": [2.1962364813972877, 0.0013109761092035, 4.611200974046387]}, {"species": [{"element": "Cl", "occu": 1}], "abc": [0.6400236300000001, 0.00022748, 0.74290103], "properties": {"magmom": 0.249}, "label": "Cl", "xyz": [3.905440385619516, 0.0009868984095045, 13.326821341841294]}, {"species": [{"element": "Cl", "occu": 1}], "abc": [0.026662540000000002, 0.69325038, 0.07622174], "properties": {"magmom": 0.248}, "label": "Cl", "xyz": [-1.9516493823370005, 3.6624596798566156, 1.3669939851320962]}, {"species": [{"element": "Cl", "occu": 1}], "abc": [0.99969147, 0.64002567, 0.7428950400000001], "properties": {"magmom": 0.249}, "label": "Cl", "xyz": [4.148136503807967, 3.3811414361101977, 13.32668493508761]}, {"species": [{"element": "Cl", "occu": 1}], "abc": [0.30677654, 0.33314025, 0.07620072], "properties": {"magmom": 0.248}, "label": "Cl", "xyz": [0.8555436194756868, 1.7600190159031845, 1.3669801328864228]}, {"species": [{"element": "Cl", "occu": 1}], "abc": [0.30714474, 0.9736398900000001, 0.92394994], "properties": {"magmom": 0.248}, "label": "Cl", "xyz": [-1.0938575738382292, 5.143458407727771, 16.5738493144431]}, {"species": [{"element": "Cl", "occu": 1}], "abc": [0.35990097, 0.35988184, 0.74288654], "properties": {"magmom": 0.249}, "label": "Cl", "xyz": [1.0995846129923732, 1.9010197128481872, 13.326198404617827]}, {"species": [{"element": "Cl", "occu": 1}], "abc": [0.35817573, 0.35846945, 0.40903713], "properties": {"magmom": 0.248}, "label": "Cl", "xyz": [1.0926056965521282, 1.8937006383173096, 7.337516015031546]}, {"species": [{"element": "Cl", "occu": 1}], "abc": [0.64007662, 0.63990996, 0.25704038], "properties": {"magmom": 0.249}, "label": "Cl", "xyz": [1.953564447945399, 3.380680180337422, 4.611033033861717]}, {"species": [{"element": "Cl", "occu": 1}], "abc": [0.66691075, 0.973387, 0.07623162], "properties": {"magmom": 0.248}, "label": "Cl", "xyz": [1.0997167442255444, 5.142543385431479, 1.3675056027107861]}, {"species": [{"element": "Cl", "occu": 1}], "abc": [0.64143866, -8.391e-05, 0.40904816], "properties": {"magmom": 0.248}, "label": "Cl", "xyz": [3.914260401255114, -0.0005150117387281, 7.3380786486132985]}, {"species": [{"element": "Cl", "occu": 1}], "abc": [4.3550000000000015e-05, 0.35854904, 0.59087573], "properties": {"magmom": 0.248}, "label": "Cl", "xyz": [-1.0919929301131928, 1.8939854983331617, 10.599128923191584]}, {"species": [{"element": "Cl", "occu": 1}], "abc": [0.99995933, 0.6417695, 0.40902505], "properties": {"magmom": 0.248}, "label": "Cl", "xyz": [4.143689606785471, 3.3904972126934743, 7.337633390301768]}, {"species": [{"element": "Cl", "occu": 1}], "abc": [0.35837899, -3.1660000000000005e-05, 0.59089018], "properties": {"magmom": 0.248}, "label": "Cl", "xyz": [2.187721998236801, -0.0003624852880305, 10.599806888331004]}, {"species": [{"element": "Cl", "occu": 1}], "abc": [0.66698935, 0.69295807, 0.92395497], "properties": {"magmom": 0.248}, "label": "Cl", "xyz": [1.9574652482222668, 3.6606556527563314, 16.574324378253667]}, {"species": [{"element": "Cl", "occu": 1}], "abc": [0.64143977, 0.64157375, 0.59087175], "properties": {"magmom": 0.248}, "label": "Cl", "xyz": [1.9575676147155674, 3.3893273671746957, 10.599391443717765]}]}, "task_ids": null, "uncorrected_energy_per_atom": null, "energy_per_atom": -4.668593320833335, "formation_energy_per_atom": -1.164680918333334, "energy_above_hull": 0.0, "is_stable": true, "equilibrium_reaction_energy_per_atom": null, "decomposes_to": null, "xas": null, "grain_boundaries": null, "band_gap": 0.4268, "cbm": null, "vbm": null, "efermi": -0.07238041, "is_gap_direct": null, "is_metal": null, "es_source_calc_id": null, "bandstructure": null, "dos": null, "dos_energy_up": null, "dos_energy_down": null, "is_magnetic": null, "ordering": null, "total_magnetization": 30.0000009, "total_magnetization_normalized_vol": null, "total_magnetization_normalized_formula_units": null, "num_magnetic_sites": null, "num_unique_magnetic_sites": null, "types_of_magnetic_species": null, "bulk_modulus": null, "shear_modulus": null, "universal_anisotropy": null, "homogeneous_poisson": null, "e_total": null, "e_ionic": null, "e_electronic": null, "n": null, "e_ij_max": null, "weighted_surface_energy_EV_PER_ANG2": null, "weighted_surface_energy": null, "weighted_work_function": null, "surface_anisotropy": null, "shape_factor": null, "has_reconstructed": null, "possible_species": null, "has_props": null, "theoretical": null, "database_IDs": null, "fields_not_requested": ["builder_meta", "nsites", "elements", "nelements", "composition", "composition_reduced", "chemsys", "symmetry", "property_name", "deprecated", "deprecation_reasons", "last_updated", "origins", "warnings", "task_ids", "uncorrected_energy_per_atom", "equilibrium_reaction_energy_per_atom", "decomposes_to", "xas", "grain_boundaries", "cbm", "vbm", "is_gap_direct", "is_metal", "es_source_calc_id", "bandstructure", "dos", "dos_energy_up", "dos_energy_down", "is_magnetic", "ordering", "total_magnetization_normalized_vol", "total_magnetization_normalized_formula_units", "num_magnetic_sites", "num_unique_magnetic_sites", "types_of_magnetic_species", "bulk_modulus", "shear_modulus", "universal_anisotropy", "homogeneous_poisson", "e_total", "e_ionic", "e_electronic", "n", "e_ij_max", "weighted_surface_energy_EV_PER_ANG2", "weighted_surface_energy", "weighted_work_function", "surface_anisotropy", "shape_factor", "has_reconstructed", "possible_species", "has_props", "theoretical", "database_IDs"]}