{"builder_meta": null, "nsites": null, "elements": null, "nelements": null, "composition": null, "composition_reduced": null, "formula_pretty": "FeCl2", "formula_anonymous": "AB2", "chemsys": null, "volume": 66.48222417419808, "density": 3.165883660557531, "density_atomic": 22.16074139139936, "symmetry": null, "property_name": null, "material_id": "mp-571096", "deprecated": null, "deprecation_reasons": null, "last_updated": null, "origins": null, "warnings": null, "structure": {"@module": "pymatgen.core.structure", "@class": "Structure", "charge": 0, "lattice": {"matrix": [[1.78443946, -3.04158309, 0.01898247], [1.78900461, 3.04429531, -0.016412180000000002], [0.00448202, -0.036156350000000004, 6.1142148]], "pbc": [true, true, true], "a": 3.52644469883569, "b": 3.5310820988390517, "c": 6.1143233469197265, "alpha": 90.53713438473909, "beta": 89.37809592558132, "gamma": 119.16052128400675, "volume": 66.48222417419808}, "properties": {}, "sites": [{"species": [{"element": "Fe", "occu": 1}], "abc": [5.21e-06, 4.89e-06, 5.1e-07], "properties": {"magmom": 3.6}, "label": "Fe", "xyz": [1.80474479597e-05, -9.78483571500002e-07, 3.1368926564999998e-06]}, {"species": [{"element": "Cl", "occu": 1}], "abc": [0.66541816, 0.33429968, 0.77366112], "properties": {"magmom": 0.128}, "label": "Cl", "xyz": [1.7889296553591807, -1.0341904375125255, 4.737474963826129]}, {"species": [{"element": "Cl", "occu": 1}], "abc": [0.33457663, 0.66569543, 0.22633938], "properties": {"magmom": 0.128}, "label": "Cl", "xyz": [1.7889783917196995, 1.0007472494781833, 1.379313164638163]}]}, "task_ids": null, "uncorrected_energy_per_atom": null, "energy_per_atom": -5.203324406666667, "formation_energy_per_atom": -1.1476221366666661, "energy_above_hull": 0.0, "is_stable": true, "equilibrium_reaction_energy_per_atom": null, "decomposes_to": null, "xas": null, "grain_boundaries": null, "band_gap": 0.0, "cbm": null, "vbm": null, "efermi": 2.7128770600000003, "is_gap_direct": null, "is_metal": null, "es_source_calc_id": null, "bandstructure": null, "dos": null, "dos_energy_up": null, "dos_energy_down": null, "is_magnetic": null, "ordering": null, "total_magnetization": 3.9999998, "total_magnetization_normalized_vol": null, "total_magnetization_normalized_formula_units": null, "num_magnetic_sites": null, "num_unique_magnetic_sites": null, "types_of_magnetic_species": null, "bulk_modulus": null, "shear_modulus": null, "universal_anisotropy": null, "homogeneous_poisson": null, "e_total": null, "e_ionic": null, "e_electronic": null, "n": null, "e_ij_max": null, "weighted_surface_energy_EV_PER_ANG2": null, "weighted_surface_energy": null, "weighted_work_function": null, "surface_anisotropy": null, "shape_factor": null, "has_reconstructed": null, "possible_species": null, "has_props": null, "theoretical": null, "database_IDs": null, "fields_not_requested": ["builder_meta", "nsites", "elements", "nelements", "composition", "composition_reduced", "chemsys", "symmetry", "property_name", "deprecated", "deprecation_reasons", "last_updated", "origins", "warnings", "task_ids", "uncorrected_energy_per_atom", "equilibrium_reaction_energy_per_atom", "decomposes_to", "xas", "grain_boundaries", "cbm", "vbm", "is_gap_direct", "is_metal", "es_source_calc_id", "bandstructure", "dos", "dos_energy_up", "dos_energy_down", "is_magnetic", "ordering", "total_magnetization_normalized_vol", "total_magnetization_normalized_formula_units", "num_magnetic_sites", "num_unique_magnetic_sites", "types_of_magnetic_species", "bulk_modulus", "shear_modulus", "universal_anisotropy", "homogeneous_poisson", "e_total", "e_ionic", "e_electronic", "n", "e_ij_max", "weighted_surface_energy_EV_PER_ANG2", "weighted_surface_energy", "weighted_work_function", "surface_anisotropy", "shape_factor", "has_reconstructed", "possible_species", "has_props", "theoretical", "database_IDs"]}