{
  "builder_meta": null,
  "nsites": null,
  "elements": null,
  "nelements": null,
  "composition": null,
  "composition_reduced": null,
  "formula_pretty": "FeCu4",
  "formula_anonymous": "AB4",
  "chemsys": null,
  "volume": 59.09495564145651,
  "density": 8.711661777063359,
  "density_atomic": 11.818991128291302,
  "symmetry": null,
  "property_name": null,
  "material_id": "mp-1224977",
  "deprecated": null,
  "deprecation_reasons": null,
  "last_updated": null,
  "origins": null,
  "warnings": null,
  "structure": {
    "@module": "pymatgen.core.structure",
    "@class": "Structure",
    "charge": 0,
    "lattice": {
      "matrix": [
        [10.515963, -1.275231, 0.0],
        [10.515963, 1.275231, 0.0],
        [10.36132, 0.0, 2.203345]
      ],
      "pbc": [true, true, true],
      "a": 10.5930020259004,
      "b": 10.5930020259004,
      "c": 10.593001526074891,
      "alpha": 13.828564567390567,
      "beta": 13.828564567390567,
      "gamma": 13.82856281210961,
      "volume": 59.09495564145651
    },
    "properties": {},
    "sites": [
      {
        "species": [{ "element": "Fe", "occu": 1 }],
        "abc": [0.0, 0.0, 0.0],
        "properties": { "magmom": 2.395 },
        "label": "Fe",
        "xyz": [0.0, 0.0, 0.0]
      },
      {
        "species": [{ "element": "Cu", "occu": 1 }],
        "abc": [0.599815, 0.599815, 0.599815],
        "properties": { "magmom": 0.023 },
        "label": "Cu",
        "xyz": [18.83013984949, 0.0, 1.321599381175]
      },
      {
        "species": [{ "element": "Cu", "occu": 1 }],
        "abc": [0.199954, 0.199954, 0.199954],
        "properties": { "magmom": -0.014 },
        "label": "Cu",
        "xyz": [6.277205110683999, 0.0, 0.44056764613]
      },
      {
        "species": [{ "element": "Cu", "occu": 1 }],
        "abc": [0.800045999999999, 0.800045999999999, 0.800045999999999],
        "properties": { "magmom": -0.014 },
        "label": "Cu",
        "xyz": [25.11604088931597, 0.0, 1.762777353869998]
      },
      {
        "species": [{ "element": "Cu", "occu": 1 }],
        "abc": [0.400184999999999, 0.400184999999999, 0.400184999999999],
        "properties": { "magmom": 0.023 },
        "label": "Cu",
        "xyz": [12.56310615050997, 0.0, 0.8817456188249979]
      }
    ]
  },
  "task_ids": null,
  "uncorrected_energy_per_atom": null,
  "energy_per_atom": -4.911770692,
  "formation_energy_per_atom": 0.061598886000000005,
  "energy_above_hull": 0.061598885999999006,
  "is_stable": false,
  "equilibrium_reaction_energy_per_atom": null,
  "decomposes_to": null,
  "xas": null,
  "grain_boundaries": null,
  "band_gap": 0.0,
  "cbm": null,
  "vbm": null,
  "efermi": 6.38143902,
  "is_gap_direct": null,
  "is_metal": null,
  "es_source_calc_id": null,
  "bandstructure": null,
  "dos": null,
  "dos_energy_up": null,
  "dos_energy_down": null,
  "is_magnetic": null,
  "ordering": null,
  "total_magnetization": 2.3259569,
  "total_magnetization_normalized_vol": null,
  "total_magnetization_normalized_formula_units": null,
  "num_magnetic_sites": null,
  "num_unique_magnetic_sites": null,
  "types_of_magnetic_species": null,
  "bulk_modulus": null,
  "shear_modulus": null,
  "universal_anisotropy": null,
  "homogeneous_poisson": null,
  "e_total": null,
  "e_ionic": null,
  "e_electronic": null,
  "n": null,
  "e_ij_max": null,
  "weighted_surface_energy_EV_PER_ANG2": null,
  "weighted_surface_energy": null,
  "weighted_work_function": null,
  "surface_anisotropy": null,
  "shape_factor": null,
  "has_reconstructed": null,
  "possible_species": null,
  "has_props": null,
  "theoretical": null,
  "database_IDs": null,
  "fields_not_requested": [
    "builder_meta",
    "nsites",
    "elements",
    "nelements",
    "composition",
    "composition_reduced",
    "chemsys",
    "symmetry",
    "property_name",
    "deprecated",
    "deprecation_reasons",
    "last_updated",
    "origins",
    "warnings",
    "task_ids",
    "uncorrected_energy_per_atom",
    "equilibrium_reaction_energy_per_atom",
    "decomposes_to",
    "xas",
    "grain_boundaries",
    "cbm",
    "vbm",
    "is_gap_direct",
    "is_metal",
    "es_source_calc_id",
    "bandstructure",
    "dos",
    "dos_energy_up",
    "dos_energy_down",
    "is_magnetic",
    "ordering",
    "total_magnetization_normalized_vol",
    "total_magnetization_normalized_formula_units",
    "num_magnetic_sites",
    "num_unique_magnetic_sites",
    "types_of_magnetic_species",
    "bulk_modulus",
    "shear_modulus",
    "universal_anisotropy",
    "homogeneous_poisson",
    "e_total",
    "e_ionic",
    "e_electronic",
    "n",
    "e_ij_max",
    "weighted_surface_energy_EV_PER_ANG2",
    "weighted_surface_energy",
    "weighted_work_function",
    "surface_anisotropy",
    "shape_factor",
    "has_reconstructed",
    "possible_species",
    "has_props",
    "theoretical",
    "database_IDs"
  ]
}
