{"builder_meta": null, "nsites": null, "elements": null, "nelements": null, "composition": null, "composition_reduced": null, "formula_pretty": "FeF2", "formula_anonymous": "AB2", "chemsys": null, "volume": 72.16258851761452, "density": 4.318802548760486, "density_atomic": 12.027098086269087, "symmetry": null, "property_name": null, "material_id": "mp-556911", "deprecated": null, "deprecation_reasons": null, "last_updated": null, "origins": null, "warnings": null, "structure": {"@module": "pymatgen.core.structure", "@class": "Structure", "charge": 0, "lattice": {"matrix": [[3.33813423, 0.0, 0.0], [0.0, 4.64947934, -0.00409835], [0.0, -0.00409835, 4.64947934]], "pbc": [true, true, true], "a": 3.33813423, "b": 4.649481146274233, "c": 4.649481146274233, "alpha": 90.10100834092583, "beta": 90.0, "gamma": 90.0, "volume": 72.16258851761452}, "properties": {}, "sites": [{"species": [{"element": "Fe", "occu": 1}], "abc": [0.5, 0.5, 0.5], "properties": {"magmom": 3.715}, "label": "Fe", "xyz": [1.669067115, 2.3226904950000002, 2.3226904950000002]}, {"species": [{"element": "Fe", "occu": 1}], "abc": [0.0, 0.0, -0.0], "properties": {"magmom": 3.714}, "label": "Fe", "xyz": [0.0, 0.0, 0.0]}, {"species": [{"element": "F", "occu": 1}], "abc": [0.0, 0.69843392, 0.69843392], "properties": {"magmom": 0.096}, "label": "F", "xyz": [0.0, 3.2444916547391807, 3.2444916547391807]}, {"species": [{"element": "F", "occu": 1}], "abc": [0.5, 0.80145895, 0.19854105], "properties": {"magmom": 0.096}, "label": "F", "xyz": [1.669067115, 3.7255531391708256, 0.9198278508291745]}, {"species": [{"element": "F", "occu": 1}], "abc": [-0.0, 0.30156608, 0.30156608], "properties": {"magmom": 0.096}, "label": "F", "xyz": [0.0, 1.4008893352608192, 1.4008893352608192]}, {"species": [{"element": "F", "occu": 1}], "abc": [0.5, 0.19854105, 0.80145895], "properties": {"magmom": 0.096}, "label": "F", "xyz": [1.669067115, 0.9198278508291745, 3.7255531391708256]}]}, "task_ids": null, "uncorrected_energy_per_atom": null, "energy_per_atom": -6.689816664999999, "formation_energy_per_atom": -2.590574678333332, "energy_above_hull": 0.0, "is_stable": true, "equilibrium_reaction_energy_per_atom": null, "decomposes_to": null, "xas": null, "grain_boundaries": null, "band_gap": 1.6921, "cbm": null, "vbm": null, "efermi": 0.97110852, "is_gap_direct": null, "is_metal": null, "es_source_calc_id": null, "bandstructure": null, "dos": null, "dos_energy_up": null, "dos_energy_down": null, "is_magnetic": null, "ordering": null, "total_magnetization": 8.0000005, "total_magnetization_normalized_vol": null, "total_magnetization_normalized_formula_units": null, "num_magnetic_sites": null, "num_unique_magnetic_sites": null, "types_of_magnetic_species": null, "bulk_modulus": null, "shear_modulus": null, "universal_anisotropy": null, "homogeneous_poisson": null, "e_total": null, "e_ionic": null, "e_electronic": null, "n": null, "e_ij_max": null, "weighted_surface_energy_EV_PER_ANG2": null, "weighted_surface_energy": null, "weighted_work_function": null, "surface_anisotropy": null, "shape_factor": null, "has_reconstructed": null, "possible_species": null, "has_props": null, "theoretical": null, "database_IDs": null, "fields_not_requested": ["builder_meta", "nsites", "elements", "nelements", "composition", "composition_reduced", "chemsys", "symmetry", "property_name", "deprecated", "deprecation_reasons", "last_updated", "origins", "warnings", "task_ids", "uncorrected_energy_per_atom", "equilibrium_reaction_energy_per_atom", "decomposes_to", "xas", "grain_boundaries", "cbm", "vbm", "is_gap_direct", "is_metal", "es_source_calc_id", "bandstructure", "dos", "dos_energy_up", "dos_energy_down", "is_magnetic", "ordering", "total_magnetization_normalized_vol", "total_magnetization_normalized_formula_units", "num_magnetic_sites", "num_unique_magnetic_sites", "types_of_magnetic_species", "bulk_modulus", "shear_modulus", "universal_anisotropy", "homogeneous_poisson", "e_total", "e_ionic", "e_electronic", "n", "e_ij_max", "weighted_surface_energy_EV_PER_ANG2", "weighted_surface_energy", "weighted_work_function", "surface_anisotropy", "shape_factor", "has_reconstructed", "possible_species", "has_props", "theoretical", "database_IDs"]}