{"builder_meta": null, "nsites": null, "elements": null, "nelements": null, "composition": null, "composition_reduced": null, "formula_pretty": "FeF3", "formula_anonymous": "AB3", "chemsys": null, "volume": 98.25704624481654, "density": 3.813987565986234, "density_atomic": 12.282130780602067, "symmetry": null, "property_name": null, "material_id": "mp-22398", "deprecated": null, "deprecation_reasons": null, "last_updated": null, "origins": null, "warnings": null, "structure": {"@module": "pymatgen.core.structure", "@class": "Structure", "charge": 0, "lattice": {"matrix": [[1.68698844, 4.24178461, 8.23699048], [-2.80319688, 4.177271, 5.31963161], [-1.6052259800000002, -4.18389248, -2.89936402]], "pbc": [true, true, true], "a": 9.41736050291891, "b": 7.32161090345519, "c": 5.337416833219799, "alpha": 136.61621204303654, "beta": 151.8942977961269, "gamma": 34.52321459511645, "volume": 98.25704624481654}, "properties": {}, "sites": [{"species": [{"element": "Fe", "occu": 1}], "abc": [-2e-08, 0.50000013, 1.899999999999999e-07], "properties": {"magmom": 4.343}, "label": "Fe", "xyz": [-1.4015991431482993, 2.088635163269967, 2.659815780933136]}, {"species": [{"element": "Fe", "occu": 1}], "abc": [4e-08, 2e-08, 2.5e-07], "properties": {"magmom": 4.343}, "label": "Fe", "xyz": [-3.89890895e-07, -7.927563155999999e-07, -2.889687536e-07]}, {"species": [{"element": "F", "occu": 1}], "abc": [0.49983991, 0.37235487, 0.61849133], "properties": {"magmom": 0.187}, "label": "F", "xyz": [-1.1933782111369187, 1.0879392133293568, 4.30473580789955]}, {"species": [{"element": "F", "occu": 1}], "abc": [0.1264107, 0.25035574, 0.25353872], "properties": {"magmom": 0.188}, "label": "F", "xyz": [-0.8955299799457288, 0.5212319901880416, 1.6379429982742226]}, {"species": [{"element": "F", "occu": 1}], "abc": [0.118671199999999, 0.12736539, 0.61850949], "properties": {"magmom": 0.187}, "label": "F", "xyz": [-1.1496808235316072, -1.5523597841587171, -0.13825366202040423]}, {"species": [{"element": "F", "occu": 1}], "abc": [0.50016015, 0.62764492, 0.38150859], "properties": {"magmom": 0.187}, "label": "F", "xyz": [-1.5280553905543517, 3.1472236286622084, 6.352521871146362]}, {"species": [{"element": "F", "occu": 1}], "abc": [0.87358913, 0.74964425, 0.7464609], "properties": {"magmom": 0.188}, "label": "F", "xyz": [-1.8259040888244649, 3.713931966815008, 9.019314719999407]}, {"species": [{"element": "F", "occu": 1}], "abc": [0.88132889, 0.87263466, 0.38149053], "properties": {"magmom": 0.187}, "label": "F", "xyz": [-1.5717536169037984, 5.787523421105028, 10.795512681343839]}]}, "task_ids": null, "uncorrected_energy_per_atom": null, "energy_per_atom": -6.201666599166668, "formation_energy_per_atom": -2.648772015416667, "energy_above_hull": 0.0, "is_stable": true, "equilibrium_reaction_energy_per_atom": null, "decomposes_to": null, "xas": null, "grain_boundaries": null, "band_gap": 3.1061, "cbm": null, "vbm": null, "efermi": -2.05301919, "is_gap_direct": null, "is_metal": null, "es_source_calc_id": null, "bandstructure": null, "dos": null, "dos_energy_up": null, "dos_energy_down": null, "is_magnetic": null, "ordering": null, "total_magnetization": 10.0000003, "total_magnetization_normalized_vol": null, "total_magnetization_normalized_formula_units": null, "num_magnetic_sites": null, "num_unique_magnetic_sites": null, "types_of_magnetic_species": null, "bulk_modulus": null, "shear_modulus": null, "universal_anisotropy": null, "homogeneous_poisson": null, "e_total": null, "e_ionic": null, "e_electronic": null, "n": null, "e_ij_max": null, "weighted_surface_energy_EV_PER_ANG2": null, "weighted_surface_energy": null, "weighted_work_function": null, "surface_anisotropy": null, "shape_factor": null, "has_reconstructed": null, "possible_species": null, "has_props": null, "theoretical": null, "database_IDs": null, "fields_not_requested": ["builder_meta", "nsites", "elements", "nelements", "composition", "composition_reduced", "chemsys", "symmetry", "property_name", "deprecated", "deprecation_reasons", "last_updated", "origins", "warnings", "task_ids", "uncorrected_energy_per_atom", "equilibrium_reaction_energy_per_atom", "decomposes_to", "xas", "grain_boundaries", "cbm", "vbm", "is_gap_direct", "is_metal", "es_source_calc_id", "bandstructure", "dos", "dos_energy_up", "dos_energy_down", "is_magnetic", "ordering", "total_magnetization_normalized_vol", "total_magnetization_normalized_formula_units", "num_magnetic_sites", "num_unique_magnetic_sites", "types_of_magnetic_species", "bulk_modulus", "shear_modulus", "universal_anisotropy", "homogeneous_poisson", "e_total", "e_ionic", "e_electronic", "n", "e_ij_max", "weighted_surface_energy_EV_PER_ANG2", "weighted_surface_energy", "weighted_work_function", "surface_anisotropy", "shape_factor", "has_reconstructed", "possible_species", "has_props", "theoretical", "database_IDs"]}