{"builder_meta": null, "nsites": null, "elements": null, "nelements": null, "composition": null, "composition_reduced": null, "formula_pretty": "FeF4", "formula_anonymous": "AB4", "chemsys": null, "volume": 150.14498306370507, "density": 2.9161569380958112, "density_atomic": 15.014498306370507, "symmetry": null, "property_name": null, "material_id": "mp-1396678", "deprecated": null, "deprecation_reasons": null, "last_updated": null, "origins": null, "warnings": null, "structure": {"@module": "pymatgen.core.structure", "@class": "Structure", "charge": 0, "lattice": {"matrix": [[-2.725603999999999, 2.725603999999999, 5.052721], [2.725603999999999, -2.725603999999999, 5.052721], [2.725603999999999, 2.725603999999999, -5.052721]], "pbc": [true, true, true], "a": 6.355141527414868, "b": 6.355141527414868, "c": 6.355141527414868, "alpha": 129.20677618194105, "beta": 129.20677618194105, "gamma": 74.6780889472754, "volume": 150.14498306370493}, "properties": {}, "sites": [{"species": [{"element": "Fe", "occu": 1}], "abc": [0.0, 0.5, 0.5], "properties": {"magmom": 3.711999999999999}, "label": "Fe", "xyz": [2.725603999999999, 0.0, 0.0]}, {"species": [{"element": "Fe", "occu": 1}], "abc": [0.5, 0.0, 0.5], "properties": {"magmom": 3.711999999999999}, "label": "Fe", "xyz": [0.0, 2.725603999999999, 0.0]}, {"species": [{"element": "F", "occu": 1}], "abc": [0.953631999999999, 0.453632, 0.166821], "properties": {"magmom": 0.052000000000000005}, "label": "F", "xyz": [-0.908114015115997, 1.8174899848839965, 6.267612395402995]}, {"species": [{"element": "F", "occu": 1}], "abc": [0.713189, 0.213189, 0.166821], "properties": {"magmom": 0.052000000000000005}, "label": "F", "xyz": [-0.9081140151159997, 1.8174899848839992, 3.8378296045969997]}, {"species": [{"element": "F", "occu": 1}], "abc": [0.046368, 0.546368, 0.833179], "properties": {"magmom": 0.052000000000000005}, "label": "F", "xyz": [3.6337180151159982, 0.9081140151159997, -1.2148913954030007]}, {"species": [{"element": "F", "occu": 1}], "abc": [0.546368, 0.713189, 0.5], "properties": {"magmom": 0.052000000000000005}, "label": "F", "xyz": [1.8174899848839994, 0.9081140151159994, 3.837829604597]}, {"species": [{"element": "F", "occu": 1}], "abc": [0.286811, 0.786810999999999, 0.833179], "properties": {"magmom": 0.052000000000000005}, "label": "F", "xyz": [3.6337180151159956, 0.9081140151160019, 1.2148913954029945]}, {"species": [{"element": "F", "occu": 1}], "abc": [0.786810999999999, 0.953631999999999, 0.5], "properties": {"magmom": 0.052000000000000005}, "label": "F", "xyz": [1.817489984883999, 0.9081140151159999, 6.267612395402991]}, {"species": [{"element": "F", "occu": 1}], "abc": [0.453632, 0.286811, 0.5], "properties": {"magmom": 0.052000000000000005}, "label": "F", "xyz": [0.9081140151159997, 1.8174899848839992, 1.2148913954029998]}, {"species": [{"element": "F", "occu": 1}], "abc": [0.213189, 0.046368, 0.5], "properties": {"magmom": 0.052000000000000005}, "label": "F", "xyz": [0.9081140151159997, 1.8174899848839992, -1.214891395403]}]}, "task_ids": null, "uncorrected_energy_per_atom": null, "energy_per_atom": -5.18217454, "formation_energy_per_atom": -1.9570883979999991, "energy_above_hull": 0.200879542888888, "is_stable": false, "equilibrium_reaction_energy_per_atom": null, "decomposes_to": null, "xas": null, "grain_boundaries": null, "band_gap": 1.6505, "cbm": null, "vbm": null, "efermi": -3.78347285, "is_gap_direct": null, "is_metal": null, "es_source_calc_id": null, "bandstructure": null, "dos": null, "dos_energy_up": null, "dos_energy_down": null, "is_magnetic": null, "ordering": null, "total_magnetization": 8.0000417, "total_magnetization_normalized_vol": null, "total_magnetization_normalized_formula_units": null, "num_magnetic_sites": null, "num_unique_magnetic_sites": null, "types_of_magnetic_species": null, "bulk_modulus": null, "shear_modulus": null, "universal_anisotropy": null, "homogeneous_poisson": null, "e_total": null, "e_ionic": null, "e_electronic": null, "n": null, "e_ij_max": null, "weighted_surface_energy_EV_PER_ANG2": null, "weighted_surface_energy": null, "weighted_work_function": null, "surface_anisotropy": null, "shape_factor": null, "has_reconstructed": null, "possible_species": null, "has_props": null, "theoretical": null, "database_IDs": null, "fields_not_requested": ["builder_meta", "nsites", "elements", "nelements", "composition", "composition_reduced", "chemsys", "symmetry", "property_name", "deprecated", "deprecation_reasons", "last_updated", "origins", "warnings", "task_ids", "uncorrected_energy_per_atom", "equilibrium_reaction_energy_per_atom", "decomposes_to", "xas", "grain_boundaries", "cbm", "vbm", "is_gap_direct", "is_metal", "es_source_calc_id", "bandstructure", "dos", "dos_energy_up", "dos_energy_down", "is_magnetic", "ordering", "total_magnetization_normalized_vol", "total_magnetization_normalized_formula_units", "num_magnetic_sites", "num_unique_magnetic_sites", "types_of_magnetic_species", "bulk_modulus", "shear_modulus", "universal_anisotropy", "homogeneous_poisson", "e_total", "e_ionic", "e_electronic", "n", "e_ij_max", "weighted_surface_energy_EV_PER_ANG2", "weighted_surface_energy", "weighted_work_function", "surface_anisotropy", "shape_factor", "has_reconstructed", "possible_species", "has_props", "theoretical", "database_IDs"]}