{"builder_meta": null, "nsites": null, "elements": null, "nelements": null, "composition": null, "composition_reduced": null, "formula_pretty": "FeF6", "formula_anonymous": "AB6", "chemsys": null, "volume": 202.4799674244229, "density": 2.785641977932983, "density_atomic": 14.462854816030207, "symmetry": null, "property_name": null, "material_id": "mp-1213622", "deprecated": null, "deprecation_reasons": null, "last_updated": null, "origins": null, "warnings": null, "structure": {"@module": "pymatgen.core.structure", "@class": "Structure", "charge": 0, "lattice": {"matrix": [[-1.46954384, -2.54064919, 0.57626326], [-3.28036206, 3.58420175, -0.28778359000000003], [1.35087246, 2.3332998, -15.41606714]], "pbc": [true, true, true], "a": 2.9910761857825405, "b": 4.86724735595632, "c": 15.650056562992168, "alpha": 83.69288705127818, "beta": 111.02830700331937, "gamma": 107.80411792530155, "volume": 202.4799674244229}, "properties": {}, "sites": [{"species": [{"element": "Fe", "occu": 1}], "abc": [0.999955399999999, 0.99998137, 0.99999454], "properties": {"magmom": 3.3970000000000002}, "label": "Fe", "xyz": [-3.3989141609631885, 3.376886159458366, -15.12752363820653]}, {"species": [{"element": "Fe", "occu": 1}], "abc": [0.50005046, 1.00001468, 0.50001429], "properties": {"magmom": 3.3970000000000002}, "label": "Fe", "xyz": [-3.339800754929754, 3.4804848127777053, -7.707880972018431]}, {"species": [{"element": "F", "occu": 1}], "abc": [0.74195702, 0.64887586, 0.79533135], "properties": {"magmom": -0.001}, "label": "F", "xyz": [-2.1444949037900076, 2.296395970955671, -12.02005474347689]}, {"species": [{"element": "F", "occu": 1}], "abc": [0.25808552, 0.35113892, 0.20467109], "properties": {"magmom": -0.001}, "label": "F", "xyz": [-1.2546462382273906, 1.080406977581163, -3.10755008092931]}, {"species": [{"element": "F", "occu": 1}], "abc": [0.65649534, 0.242436699999999, 0.03620841], "properties": {"magmom": 0.134}, "label": "F", "xyz": [-1.7111158916279159, -0.7144972335942351, -0.2496464386631918]}, {"species": [{"element": "F", "occu": 1}], "abc": [0.40910942, 0.6477118900000001, 0.7045594900000001], "properties": {"magmom": -0.001}, "label": "F", "xyz": [-1.774163726341221, 2.92607509019454, -10.812182526888135]}, {"species": [{"element": "F", "occu": 1}], "abc": [0.34341218, 0.75753446, 0.96376785], "properties": {"magmom": 0.134}, "label": "F", "xyz": [-1.6877191090281476, 4.091425791915601, -14.877620047050453]}, {"species": [{"element": "F", "occu": 1}], "abc": [0.59090242, 0.352290799999999, 0.29544291], "properties": {"magmom": -0.001}, "label": "F", "xyz": [-1.6248926951378786, 0.4507624299412746, -4.315435892853859]}, {"species": [{"element": "F", "occu": 1}], "abc": [0.7789389800000001, 0.15943013, 0.60551309], "properties": {"magmom": 0.12}, "label": "F", "xyz": [-0.8497025720172499, 0.005262634146683043, -8.931637908798553]}, {"species": [{"element": "F", "occu": 1}], "abc": [0.08501782000000001, 0.24233124, 0.46365427000000003], "properties": {"magmom": 0.134}, "label": "F", "xyz": [-0.29353383501557895, 1.7344080144292504, -7.168471664172746]}, {"species": [{"element": "F", "occu": 1}], "abc": [0.22112779000000002, 0.84058557, 0.3945025], "properties": {"magmom": 0.12}, "label": "F", "xyz": [-2.5494594310076377, 3.371512734818257, -6.19615593879265]}, {"species": [{"element": "F", "occu": 1}], "abc": [0.91504618, 0.757680399999999, 0.53636072], "properties": {"magmom": 0.134}, "label": "F", "xyz": [-3.1056115896263807, 1.6423584402949583, -7.959313361626029]}, {"species": [{"element": "F", "occu": 1}], "abc": [0.8788180800000001, 0.15884613, 0.89438746], "properties": {"magmom": 0.12}, "label": "F", "xyz": [-0.6043311258911033, 0.42344221555788053, -13.327219870355329]}, {"species": [{"element": "F", "occu": 1}], "abc": [0.12108436, 0.84114186, 0.10559103], "properties": {"magmom": 0.12}, "label": "F", "xyz": [-2.7945486055301405, 2.953564774635381, -1.8000887640032182]}]}, "task_ids": null, "uncorrected_energy_per_atom": null, "energy_per_atom": -4.447496921428572, "formation_energy_per_atom": -1.5970489985714291, "energy_above_hull": 0.0, "is_stable": true, "equilibrium_reaction_energy_per_atom": null, "decomposes_to": null, "xas": null, "grain_boundaries": null, "band_gap": 0.5263, "cbm": null, "vbm": null, "efermi": -4.8375269, "is_gap_direct": null, "is_metal": null, "es_source_calc_id": null, "bandstructure": null, "dos": null, "dos_energy_up": null, "dos_energy_down": null, "is_magnetic": null, "ordering": null, "total_magnetization": 8.0000004, "total_magnetization_normalized_vol": null, "total_magnetization_normalized_formula_units": null, "num_magnetic_sites": null, "num_unique_magnetic_sites": null, "types_of_magnetic_species": null, "bulk_modulus": null, "shear_modulus": null, "universal_anisotropy": null, "homogeneous_poisson": null, "e_total": null, "e_ionic": null, "e_electronic": null, "n": null, "e_ij_max": null, "weighted_surface_energy_EV_PER_ANG2": null, "weighted_surface_energy": null, "weighted_work_function": null, "surface_anisotropy": null, "shape_factor": null, "has_reconstructed": null, "possible_species": null, "has_props": null, "theoretical": null, "database_IDs": null, "fields_not_requested": ["builder_meta", "nsites", "elements", "nelements", "composition", "composition_reduced", "chemsys", "symmetry", "property_name", "deprecated", "deprecation_reasons", "last_updated", "origins", "warnings", "task_ids", "uncorrected_energy_per_atom", "equilibrium_reaction_energy_per_atom", "decomposes_to", "xas", "grain_boundaries", "cbm", "vbm", "is_gap_direct", "is_metal", "es_source_calc_id", "bandstructure", "dos", "dos_energy_up", "dos_energy_down", "is_magnetic", "ordering", "total_magnetization_normalized_vol", "total_magnetization_normalized_formula_units", "num_magnetic_sites", "num_unique_magnetic_sites", "types_of_magnetic_species", "bulk_modulus", "shear_modulus", "universal_anisotropy", "homogeneous_poisson", "e_total", "e_ionic", "e_electronic", "n", "e_ij_max", "weighted_surface_energy_EV_PER_ANG2", "weighted_surface_energy", "weighted_work_function", "surface_anisotropy", "shape_factor", "has_reconstructed", "possible_species", "has_props", "theoretical", "database_IDs"]}