{"builder_meta": null, "nsites": null, "elements": null, "nelements": null, "composition": null, "composition_reduced": null, "formula_pretty": "FeGe", "formula_anonymous": "AB", "chemsys": null, "volume": 89.02629652270166, "density": 7.189595781433942, "density_atomic": 14.837716087116943, "symmetry": null, "property_name": null, "material_id": "mp-22478", "deprecated": null, "deprecation_reasons": null, "last_updated": null, "origins": null, "warnings": null, "structure": {"@module": "pymatgen.core.structure", "@class": "Structure", "charge": 0, "lattice": {"matrix": [[4.99762036, 0.00015041, 0.0], [-2.49867903, 4.32810028, 0.0], [0.0, 0.0, 4.11576135]], "pbc": [true, true, true], "a": 4.997620362263394, "b": 4.997584309313633, "c": 4.11576135, "alpha": 90.0, "beta": 90.0, "gamma": 119.9967780420273, "volume": 89.02629652270166}, "properties": {}, "sites": [{"species": [{"element": "Fe", "occu": 1}], "abc": [0.5, 0.0, -0.0], "properties": {"magmom": 2.46}, "label": "Fe", "xyz": [2.49881018, 7.5205e-05, 0.0]}, {"species": [{"element": "Fe", "occu": 1}], "abc": [0.5, 0.5, -0.0], "properties": {"magmom": 2.46}, "label": "Fe", "xyz": [1.249470665, 2.164125345, 0.0]}, {"species": [{"element": "Fe", "occu": 1}], "abc": [-0.0, 0.5, -0.0], "properties": {"magmom": 2.46}, "label": "Fe", "xyz": [-1.249339515, 2.16405014, 0.0]}, {"species": [{"element": "Ge", "occu": 1}], "abc": [-0.0, 0.0, -0.0], "properties": {"magmom": -0.089}, "label": "Ge", "xyz": [0.0, 0.0, 0.0]}, {"species": [{"element": "Ge", "occu": 1}], "abc": [0.33330824000000003, 0.6666730200000001, 0.5], "properties": {"magmom": -0.07}, "label": "Ge", "xyz": [-5.384856100421054e-05, 2.8854778174228244, 2.057880675]}, {"species": [{"element": "Ge", "occu": 1}], "abc": [0.66669176, 0.33332698, 0.5], "properties": {"magmom": -0.07}, "label": "Ge", "xyz": [2.498995178561004, 1.442772872577176, 2.057880675]}]}, "task_ids": null, "uncorrected_energy_per_atom": null, "energy_per_atom": -6.668670063333335, "formation_energy_per_atom": -0.12214553083333302, "energy_above_hull": 0.0, "is_stable": true, "equilibrium_reaction_energy_per_atom": null, "decomposes_to": null, "xas": null, "grain_boundaries": null, "band_gap": 0.0, "cbm": null, "vbm": null, "efermi": 6.47528798, "is_gap_direct": null, "is_metal": null, "es_source_calc_id": null, "bandstructure": null, "dos": null, "dos_energy_up": null, "dos_energy_down": null, "is_magnetic": null, "ordering": null, "total_magnetization": 7.0281272, "total_magnetization_normalized_vol": null, "total_magnetization_normalized_formula_units": null, "num_magnetic_sites": null, "num_unique_magnetic_sites": null, "types_of_magnetic_species": null, "bulk_modulus": null, "shear_modulus": null, "universal_anisotropy": null, "homogeneous_poisson": null, "e_total": null, "e_ionic": null, "e_electronic": null, "n": null, "e_ij_max": null, "weighted_surface_energy_EV_PER_ANG2": null, "weighted_surface_energy": null, "weighted_work_function": null, "surface_anisotropy": null, "shape_factor": null, "has_reconstructed": null, "possible_species": null, "has_props": null, "theoretical": null, "database_IDs": null, "fields_not_requested": ["builder_meta", "nsites", "elements", "nelements", "composition", "composition_reduced", "chemsys", "symmetry", "property_name", "deprecated", "deprecation_reasons", "last_updated", "origins", "warnings", "task_ids", "uncorrected_energy_per_atom", "equilibrium_reaction_energy_per_atom", "decomposes_to", "xas", "grain_boundaries", "cbm", "vbm", "is_gap_direct", "is_metal", "es_source_calc_id", "bandstructure", "dos", "dos_energy_up", "dos_energy_down", "is_magnetic", "ordering", "total_magnetization_normalized_vol", "total_magnetization_normalized_formula_units", "num_magnetic_sites", "num_unique_magnetic_sites", "types_of_magnetic_species", "bulk_modulus", "shear_modulus", "universal_anisotropy", "homogeneous_poisson", "e_total", "e_ionic", "e_electronic", "n", "e_ij_max", "weighted_surface_energy_EV_PER_ANG2", "weighted_surface_energy", "weighted_work_function", "surface_anisotropy", "shape_factor", "has_reconstructed", "possible_species", "has_props", "theoretical", "database_IDs"]}