{"builder_meta": null, "nsites": null, "elements": null, "nelements": null, "composition": null, "composition_reduced": null, "formula_pretty": "FeGe2", "formula_anonymous": "AB2", "chemsys": null, "volume": 85.88700149498013, "density": 7.777100468211013, "density_atomic": 14.314500249163354, "symmetry": null, "property_name": null, "material_id": "mp-21117", "deprecated": null, "deprecation_reasons": null, "last_updated": null, "origins": null, "warnings": null, "structure": {"@module": "pymatgen.core.structure", "@class": "Structure", "charge": 0, "lattice": {"matrix": [[4.68123386, -0.03857396, -1.25852499], [-2.75965426, 3.78150039, -1.25852496], [0.02137189, 0.04163055, 4.85315776]], "pbc": [true, true, true], "a": 4.847610086718515, "b": 4.84760991719108, "c": 4.85338336666533, "alpha": 104.79854384306587, "beta": 104.79855867717853, "gamma": 119.24525239376953, "volume": 85.88700149498014}, "properties": {}, "sites": [{"species": [{"element": "Fe", "occu": 1}], "abc": [0.25, 0.25, -0.0], "properties": {"magmom": 1.963}, "label": "Fe", "xyz": [0.48039489999999996, 0.9357316075000001, -0.6292624874999999]}, {"species": [{"element": "Fe", "occu": 1}], "abc": [0.75, 0.75, -0.0], "properties": {"magmom": 1.963}, "label": "Fe", "xyz": [1.4411847, 2.8071948225, -1.8877874625]}, {"species": [{"element": "Ge", "occu": 1}], "abc": [0.65489261, 0.15489261000000001, 0.80978522], "properties": {"magmom": -0.098}, "label": "Ge", "xyz": [2.6555620502122212, 0.5941764678711534, 2.9108804931204375]}, {"species": [{"element": "Ge", "occu": 1}], "abc": [0.15481058, 0.34518942, 0.5], "properties": {"magmom": -0.1}, "label": "Ge", "xyz": [-0.21721297942769044, 1.320177544233377, 1.7973163953556828]}, {"species": [{"element": "Ge", "occu": 1}], "abc": [0.84518942, 0.65481058, 0.5], "properties": {"magmom": -0.1}, "label": "Ge", "xyz": [2.16016446942769, 2.4643794357666233, 0.5387914146443176]}, {"species": [{"element": "Ge", "occu": 1}], "abc": [0.34510739, 0.84510739, 0.19021478], "properties": {"magmom": -0.098}, "label": "Ge", "xyz": [-0.7126105602122218, 3.1903805121288467, -0.5747726831204377]}]}, "task_ids": null, "uncorrected_energy_per_atom": null, "energy_per_atom": -5.968697809999999, "formation_energy_per_atom": -0.06333883666666601, "energy_above_hull": 0.018091517222224, "is_stable": false, "equilibrium_reaction_energy_per_atom": null, "decomposes_to": null, "xas": null, "grain_boundaries": null, "band_gap": 0.0, "cbm": null, "vbm": null, "efermi": 7.87953154, "is_gap_direct": null, "is_metal": null, "es_source_calc_id": null, "bandstructure": null, "dos": null, "dos_energy_up": null, "dos_energy_down": null, "is_magnetic": null, "ordering": null, "total_magnetization": 3.3072868, "total_magnetization_normalized_vol": null, "total_magnetization_normalized_formula_units": null, "num_magnetic_sites": null, "num_unique_magnetic_sites": null, "types_of_magnetic_species": null, "bulk_modulus": null, "shear_modulus": null, "universal_anisotropy": null, "homogeneous_poisson": null, "e_total": null, "e_ionic": null, "e_electronic": null, "n": null, "e_ij_max": null, "weighted_surface_energy_EV_PER_ANG2": null, "weighted_surface_energy": null, "weighted_work_function": null, "surface_anisotropy": null, "shape_factor": null, "has_reconstructed": null, "possible_species": null, "has_props": null, "theoretical": null, "database_IDs": null, "fields_not_requested": ["builder_meta", "nsites", "elements", "nelements", "composition", "composition_reduced", "chemsys", "symmetry", "property_name", "deprecated", "deprecation_reasons", "last_updated", "origins", "warnings", "task_ids", "uncorrected_energy_per_atom", "equilibrium_reaction_energy_per_atom", "decomposes_to", "xas", "grain_boundaries", "cbm", "vbm", "is_gap_direct", "is_metal", "es_source_calc_id", "bandstructure", "dos", "dos_energy_up", "dos_energy_down", "is_magnetic", "ordering", "total_magnetization_normalized_vol", "total_magnetization_normalized_formula_units", "num_magnetic_sites", "num_unique_magnetic_sites", "types_of_magnetic_species", "bulk_modulus", "shear_modulus", "universal_anisotropy", "homogeneous_poisson", "e_total", "e_ionic", "e_electronic", "n", "e_ij_max", "weighted_surface_energy_EV_PER_ANG2", "weighted_surface_energy", "weighted_work_function", "surface_anisotropy", "shape_factor", "has_reconstructed", "possible_species", "has_props", "theoretical", "database_IDs"]}