{"builder_meta": null, "nsites": null, "elements": null, "nelements": null, "composition": null, "composition_reduced": null, "formula_pretty": "FeGe3", "formula_anonymous": "AB3", "chemsys": null, "volume": 132.95548915120187, "density": 6.838340868360297, "density_atomic": 16.619436143900234, "symmetry": null, "property_name": null, "material_id": "mp-1184472", "deprecated": null, "deprecation_reasons": null, "last_updated": null, "origins": null, "warnings": null, "structure": {"@module": "pymatgen.core.structure", "@class": "Structure", "charge": 0, "lattice": {"matrix": [[2.830565, -4.902683, 0.0], [2.830565, 4.902683, 0.0], [0.0, 0.0, 4.790373]], "pbc": [true, true, true], "a": 5.661130524702111, "b": 5.661130524702111, "c": 4.790373, "alpha": 90.0, "beta": 90.0, "gamma": 120.0000061319928, "volume": 132.95548915120187}, "properties": {}, "sites": [{"species": [{"element": "Fe", "occu": 1}], "abc": [0.333333, 0.666667, 0.75], "properties": {"magmom": 2.464}, "label": "Fe", "xyz": [2.830565, 1.634230935122, 3.59277975]}, {"species": [{"element": "Fe", "occu": 1}], "abc": [0.666667, 0.333333, 0.25], "properties": {"magmom": 2.473}, "label": "Fe", "xyz": [2.830565, -1.634230935122, 1.19759325]}, {"species": [{"element": "Ge", "occu": 1}], "abc": [0.17499, 0.349981, 0.25], "properties": {"magmom": -0.023}, "label": "Ge", "xyz": [1.485964538615, 0.857925400853, 1.19759325]}, {"species": [{"element": "Ge", "occu": 1}], "abc": [0.650019, 0.82501, 0.25], "properties": {"magmom": -0.022}, "label": "Ge", "xyz": [4.175165461385, 0.8579254008530004, 1.19759325]}, {"species": [{"element": "Ge", "occu": 1}], "abc": [0.17499, 0.82501, 0.25], "properties": {"magmom": -0.021}, "label": "Ge", "xyz": [2.830565, 3.1868420036600003, 1.19759325]}, {"species": [{"element": "Ge", "occu": 1}], "abc": [0.82501, 0.650019, 0.75], "properties": {"magmom": -0.023}, "label": "Ge", "xyz": [4.175165461385, -0.8579254008530004, 3.59277975]}, {"species": [{"element": "Ge", "occu": 1}], "abc": [0.349981, 0.17499, 0.75], "properties": {"magmom": -0.023}, "label": "Ge", "xyz": [1.485964538615, -0.857925400853, 3.59277975]}, {"species": [{"element": "Ge", "occu": 1}], "abc": [0.82501, 0.17499, 0.75], "properties": {"magmom": -0.021}, "label": "Ge", "xyz": [2.830565, -3.1868420036600003, 3.59277975]}]}, "task_ids": null, "uncorrected_energy_per_atom": null, "energy_per_atom": -5.16144492375, "formation_energy_per_atom": 0.42333127000000004, "energy_above_hull": 0.48440403541666605, "is_stable": false, "equilibrium_reaction_energy_per_atom": null, "decomposes_to": null, "xas": null, "grain_boundaries": null, "band_gap": 0.0, "cbm": null, "vbm": null, "efermi": 6.76137788, "is_gap_direct": null, "is_metal": null, "es_source_calc_id": null, "bandstructure": null, "dos": null, "dos_energy_up": null, "dos_energy_down": null, "is_magnetic": null, "ordering": null, "total_magnetization": 4.7532745, "total_magnetization_normalized_vol": null, "total_magnetization_normalized_formula_units": null, "num_magnetic_sites": null, "num_unique_magnetic_sites": null, "types_of_magnetic_species": null, "bulk_modulus": null, "shear_modulus": null, "universal_anisotropy": null, "homogeneous_poisson": null, "e_total": null, "e_ionic": null, "e_electronic": null, "n": null, "e_ij_max": null, "weighted_surface_energy_EV_PER_ANG2": null, "weighted_surface_energy": null, "weighted_work_function": null, "surface_anisotropy": null, "shape_factor": null, "has_reconstructed": null, "possible_species": null, "has_props": null, "theoretical": null, "database_IDs": null, "fields_not_requested": ["builder_meta", "nsites", "elements", "nelements", "composition", "composition_reduced", "chemsys", "symmetry", "property_name", "deprecated", "deprecation_reasons", "last_updated", "origins", "warnings", "task_ids", "uncorrected_energy_per_atom", "equilibrium_reaction_energy_per_atom", "decomposes_to", "xas", "grain_boundaries", "cbm", "vbm", "is_gap_direct", "is_metal", "es_source_calc_id", "bandstructure", "dos", "dos_energy_up", "dos_energy_down", "is_magnetic", "ordering", "total_magnetization_normalized_vol", "total_magnetization_normalized_formula_units", "num_magnetic_sites", "num_unique_magnetic_sites", "types_of_magnetic_species", "bulk_modulus", "shear_modulus", "universal_anisotropy", "homogeneous_poisson", "e_total", "e_ionic", "e_electronic", "n", "e_ij_max", "weighted_surface_energy_EV_PER_ANG2", "weighted_surface_energy", "weighted_work_function", "surface_anisotropy", "shape_factor", "has_reconstructed", "possible_species", "has_props", "theoretical", "database_IDs"]}