{"builder_meta": null, "nsites": null, "elements": null, "nelements": null, "composition": null, "composition_reduced": null, "formula_pretty": "FeHg3", "formula_anonymous": "AB3", "chemsys": null, "volume": 165.22735892167142, "density": 13.218094211623102, "density_atomic": 20.653419865208928, "symmetry": null, "property_name": null, "material_id": "mp-1184346", "deprecated": null, "deprecation_reasons": null, "last_updated": null, "origins": null, "warnings": null, "structure": {"@module": "pymatgen.core.structure", "@class": "Structure", "charge": 0, "lattice": {"matrix": [[3.217163, -5.572289, 0.0], [3.217163, 5.572289, 0.0], [0.0, 0.0, 4.608348]], "pbc": [true, true, true], "a": 6.434325331228597, "b": 6.434325331228597, "c": 4.608348, "alpha": 90.0, "beta": 90.0, "gamma": 119.99999312351204, "volume": 165.22735892167142}, "properties": {}, "sites": [{"species": [{"element": "Fe", "occu": 1}], "abc": [0.333333, 0.666667, 0.75], "properties": {"magmom": 2.927}, "label": "Fe", "xyz": [3.217163, 1.8574333815259998, 3.4562610000000005]}, {"species": [{"element": "Fe", "occu": 1}], "abc": [0.666667, 0.333333, 0.25], "properties": {"magmom": 2.934}, "label": "Fe", "xyz": [3.217163, -1.8574333815259998, 1.152087]}, {"species": [{"element": "Hg", "occu": 1}], "abc": [0.174437999999999, 0.348875999999999, 0.25], "properties": {"magmom": -0.024}, "label": "Hg", "xyz": [1.6835864381819938, 0.972018948582, 1.152087]}, {"species": [{"element": "Hg", "occu": 1}], "abc": [0.651123999999999, 0.825562, 0.25], "properties": {"magmom": -0.024}, "label": "Hg", "xyz": [4.750739561817998, 0.9720189485820052, 1.152087]}, {"species": [{"element": "Hg", "occu": 1}], "abc": [0.174437999999999, 0.825562, 0.25], "properties": {"magmom": -0.024}, "label": "Hg", "xyz": [3.2171629999999967, 3.628251102836005, 1.152087]}, {"species": [{"element": "Hg", "occu": 1}], "abc": [0.825562, 0.651123999999999, 0.75], "properties": {"magmom": -0.024}, "label": "Hg", "xyz": [4.750739561817998, -0.9720189485820052, 3.4562610000000005]}, {"species": [{"element": "Hg", "occu": 1}], "abc": [0.348875999999999, 0.174437999999999, 0.75], "properties": {"magmom": -0.024}, "label": "Hg", "xyz": [1.6835864381819938, -0.972018948582, 3.4562610000000005]}, {"species": [{"element": "Hg", "occu": 1}], "abc": [0.825562, 0.174437999999999, 0.75], "properties": {"magmom": -0.024}, "label": "Hg", "xyz": [3.2171629999999967, -3.628251102836005, 3.4562610000000005]}]}, "task_ids": null, "uncorrected_energy_per_atom": null, "energy_per_atom": -1.8890353862499991, "formation_energy_per_atom": 0.46072394437499503, "energy_above_hull": 0.46072394437499503, "is_stable": false, "equilibrium_reaction_energy_per_atom": null, "decomposes_to": null, "xas": null, "grain_boundaries": null, "band_gap": 0.0, "cbm": null, "vbm": null, "efermi": 3.23396413, "is_gap_direct": null, "is_metal": null, "es_source_calc_id": null, "bandstructure": null, "dos": null, "dos_energy_up": null, "dos_energy_down": null, "is_magnetic": null, "ordering": null, "total_magnetization": 5.7433081, "total_magnetization_normalized_vol": null, "total_magnetization_normalized_formula_units": null, "num_magnetic_sites": null, "num_unique_magnetic_sites": null, "types_of_magnetic_species": null, "bulk_modulus": null, "shear_modulus": null, "universal_anisotropy": null, "homogeneous_poisson": null, "e_total": null, "e_ionic": null, "e_electronic": null, "n": null, "e_ij_max": null, "weighted_surface_energy_EV_PER_ANG2": null, "weighted_surface_energy": null, "weighted_work_function": null, "surface_anisotropy": null, "shape_factor": null, "has_reconstructed": null, "possible_species": null, "has_props": null, "theoretical": null, "database_IDs": null, "fields_not_requested": ["builder_meta", "nsites", "elements", "nelements", "composition", "composition_reduced", "chemsys", "symmetry", "property_name", "deprecated", "deprecation_reasons", "last_updated", "origins", "warnings", "task_ids", "uncorrected_energy_per_atom", "equilibrium_reaction_energy_per_atom", "decomposes_to", "xas", "grain_boundaries", "cbm", "vbm", "is_gap_direct", "is_metal", "es_source_calc_id", "bandstructure", "dos", "dos_energy_up", "dos_energy_down", "is_magnetic", "ordering", "total_magnetization_normalized_vol", "total_magnetization_normalized_formula_units", "num_magnetic_sites", "num_unique_magnetic_sites", "types_of_magnetic_species", "bulk_modulus", "shear_modulus", "universal_anisotropy", "homogeneous_poisson", "e_total", "e_ionic", "e_electronic", "n", "e_ij_max", "weighted_surface_energy_EV_PER_ANG2", "weighted_surface_energy", "weighted_work_function", "surface_anisotropy", "shape_factor", "has_reconstructed", "possible_species", "has_props", "theoretical", "database_IDs"]}