{"builder_meta": null, "nsites": null, "elements": null, "nelements": null, "composition": null, "composition_reduced": null, "formula_pretty": "FeIr3", "formula_anonymous": "AB3", "chemsys": null, "volume": 55.400643802640644, "density": 18.95798036589193, "density_atomic": 13.850160950660161, "symmetry": null, "property_name": null, "material_id": "mp-1184336", "deprecated": null, "deprecation_reasons": null, "last_updated": null, "origins": null, "warnings": null, "structure": {"@module": "pymatgen.core.structure", "@class": "Structure", "charge": 0, "lattice": {"matrix": [[-1.90845339, 1.90845339, 3.8026968500000002], [1.90845339, -1.90845339, 3.8026968500000002], [1.90845339, 1.90845339, -3.8026968500000002]], "pbc": [true, true, true], "a": 4.663141861085175, "b": 4.663141861085175, "c": 4.663141861085175, "alpha": 131.68285510522358, "beta": 131.68285510522358, "gamma": 70.7303863322955, "volume": 55.400643802640644}, "properties": {}, "sites": [{"species": [{"element": "Fe", "occu": 1}], "abc": [0.0, -0.0, 0.0], "properties": {"magmom": 3.206}, "label": "Fe", "xyz": [0.0, 0.0, 0.0]}, {"species": [{"element": "Ir", "occu": 1}], "abc": [0.75, 0.25, 0.5], "properties": {"magmom": 0.107}, "label": "Ir", "xyz": [0.0, 1.90845339, 1.9013484250000001]}, {"species": [{"element": "Ir", "occu": 1}], "abc": [0.25, 0.75, 0.5], "properties": {"magmom": 0.107}, "label": "Ir", "xyz": [1.90845339, 0.0, 1.9013484250000001]}, {"species": [{"element": "Ir", "occu": 1}], "abc": [0.5, 0.5, 0.0], "properties": {"magmom": 0.132}, "label": "Ir", "xyz": [0.0, 0.0, 3.8026968500000002]}]}, "task_ids": null, "uncorrected_energy_per_atom": null, "energy_per_atom": -8.819415067499996, "formation_energy_per_atom": -0.073084129999996, "energy_above_hull": 0.0, "is_stable": true, "equilibrium_reaction_energy_per_atom": null, "decomposes_to": null, "xas": null, "grain_boundaries": null, "band_gap": 0.0, "cbm": null, "vbm": null, "efermi": 9.09476944, "is_gap_direct": null, "is_metal": null, "es_source_calc_id": null, "bandstructure": null, "dos": null, "dos_energy_up": null, "dos_energy_down": null, "is_magnetic": null, "ordering": null, "total_magnetization": 3.5305195, "total_magnetization_normalized_vol": null, "total_magnetization_normalized_formula_units": null, "num_magnetic_sites": null, "num_unique_magnetic_sites": null, "types_of_magnetic_species": null, "bulk_modulus": null, "shear_modulus": null, "universal_anisotropy": null, "homogeneous_poisson": null, "e_total": null, "e_ionic": null, "e_electronic": null, "n": null, "e_ij_max": null, "weighted_surface_energy_EV_PER_ANG2": null, "weighted_surface_energy": null, "weighted_work_function": null, "surface_anisotropy": null, "shape_factor": null, "has_reconstructed": null, "possible_species": null, "has_props": null, "theoretical": null, "database_IDs": null, "fields_not_requested": ["builder_meta", "nsites", "elements", "nelements", "composition", "composition_reduced", "chemsys", "symmetry", "property_name", "deprecated", "deprecation_reasons", "last_updated", "origins", "warnings", "task_ids", "uncorrected_energy_per_atom", "equilibrium_reaction_energy_per_atom", "decomposes_to", "xas", "grain_boundaries", "cbm", "vbm", "is_gap_direct", "is_metal", "es_source_calc_id", "bandstructure", "dos", "dos_energy_up", "dos_energy_down", "is_magnetic", "ordering", "total_magnetization_normalized_vol", "total_magnetization_normalized_formula_units", "num_magnetic_sites", "num_unique_magnetic_sites", "types_of_magnetic_species", "bulk_modulus", "shear_modulus", "universal_anisotropy", "homogeneous_poisson", "e_total", "e_ionic", "e_electronic", "n", "e_ij_max", "weighted_surface_energy_EV_PER_ANG2", "weighted_surface_energy", "weighted_work_function", "surface_anisotropy", "shape_factor", "has_reconstructed", "possible_species", "has_props", "theoretical", "database_IDs"]}