{"builder_meta": null, "nsites": null, "elements": null, "nelements": null, "composition": null, "composition_reduced": null, "formula_pretty": "FeMo2", "formula_anonymous": "AB2", "chemsys": null, "volume": 43.66321471164788, "density": 9.421134998650219, "density_atomic": 14.554404903882627, "symmetry": null, "property_name": null, "material_id": "mp-1224941", "deprecated": null, "deprecation_reasons": null, "last_updated": null, "origins": null, "warnings": null, "structure": {"@module": "pymatgen.core.structure", "@class": "Structure", "charge": 0, "lattice": {"matrix": [[0.0, 2.144119, 6.441864], [1.580612, 0.0, 6.441864], [1.580612, 2.144119, 0.0]], "pbc": [true, true, true], "a": 6.78931941218389, "b": 6.632943998635899, "c": 2.6637531005528645, "alpha": 81.87111783638066, "beta": 75.27374355170132, "gamma": 22.85513861191801, "volume": 43.66321471164788}, "properties": {}, "sites": [{"species": [{"element": "Fe", "occu": 1}], "abc": [0.0, 0.0, 0.0], "properties": {"magmom": 2.204}, "label": "Fe", "xyz": [0.0, 0.0, 0.0]}, {"species": [{"element": "Mo", "occu": 1}], "abc": [0.338630999999999, 0.338630999999999, 0.661369], "properties": {"magmom": -0.085}, "label": "Mo", "xyz": [1.5806119999999984, 2.1441189999999977, 4.362829696367987]}, {"species": [{"element": "Mo", "occu": 1}], "abc": [0.661369, 0.661369, 0.338630999999999], "properties": {"magmom": -0.085}, "label": "Mo", "xyz": [1.5806119999999984, 2.1441189999999977, 8.520898303632]}]}, "task_ids": null, "uncorrected_energy_per_atom": null, "energy_per_atom": -9.990053956666666, "formation_energy_per_atom": 0.063719853333334, "energy_above_hull": 0.066174492564103, "is_stable": false, "equilibrium_reaction_energy_per_atom": null, "decomposes_to": null, "xas": null, "grain_boundaries": null, "band_gap": 0.0, "cbm": null, "vbm": null, "efermi": 7.52270223, "is_gap_direct": null, "is_metal": null, "es_source_calc_id": null, "bandstructure": null, "dos": null, "dos_energy_up": null, "dos_energy_down": null, "is_magnetic": null, "ordering": null, "total_magnetization": 2.0030486, "total_magnetization_normalized_vol": null, "total_magnetization_normalized_formula_units": null, "num_magnetic_sites": null, "num_unique_magnetic_sites": null, "types_of_magnetic_species": null, "bulk_modulus": null, "shear_modulus": null, "universal_anisotropy": null, "homogeneous_poisson": null, "e_total": null, "e_ionic": null, "e_electronic": null, "n": null, "e_ij_max": null, "weighted_surface_energy_EV_PER_ANG2": null, "weighted_surface_energy": null, "weighted_work_function": null, "surface_anisotropy": null, "shape_factor": null, "has_reconstructed": null, "possible_species": null, "has_props": null, "theoretical": null, "database_IDs": null, "fields_not_requested": ["builder_meta", "nsites", "elements", "nelements", "composition", "composition_reduced", "chemsys", "symmetry", "property_name", "deprecated", "deprecation_reasons", "last_updated", "origins", "warnings", "task_ids", "uncorrected_energy_per_atom", "equilibrium_reaction_energy_per_atom", "decomposes_to", "xas", "grain_boundaries", "cbm", "vbm", "is_gap_direct", "is_metal", "es_source_calc_id", "bandstructure", "dos", "dos_energy_up", "dos_energy_down", "is_magnetic", "ordering", "total_magnetization_normalized_vol", "total_magnetization_normalized_formula_units", "num_magnetic_sites", "num_unique_magnetic_sites", "types_of_magnetic_species", "bulk_modulus", "shear_modulus", "universal_anisotropy", "homogeneous_poisson", "e_total", "e_ionic", "e_electronic", "n", "e_ij_max", "weighted_surface_energy_EV_PER_ANG2", "weighted_surface_energy", "weighted_work_function", "surface_anisotropy", "shape_factor", "has_reconstructed", "possible_species", "has_props", "theoretical", "database_IDs"]}