{"builder_meta": null, "nsites": null, "elements": null, "nelements": null, "composition": null, "composition_reduced": null, "formula_pretty": "FeN2", "formula_anonymous": "AB2", "chemsys": null, "volume": 46.18417511302148, "density": 6.030210517858022, "density_atomic": 7.697362518836914, "symmetry": null, "property_name": null, "material_id": "mp-1080202", "deprecated": null, "deprecation_reasons": null, "last_updated": null, "origins": null, "warnings": null, "structure": {"@module": "pymatgen.core.structure", "@class": "Structure", "charge": 0, "lattice": {"matrix": [[2.576684, 0.0, 0.0], [0.0, 3.87171, 0.0], [0.0, 0.0, 4.629448]], "pbc": [true, true, true], "a": 2.576684, "b": 3.87171, "c": 4.629448, "alpha": 90.0, "beta": 90.0, "gamma": 90.0, "volume": 46.18417511302148}, "properties": {}, "sites": [{"species": [{"element": "Fe", "occu": 1}], "abc": [0.5, 0.0, 0.0], "properties": {"magmom": -0.0}, "label": "Fe", "xyz": [1.288342, 0.0, 0.0]}, {"species": [{"element": "Fe", "occu": 1}], "abc": [0.0, 0.5, 0.5], "properties": {"magmom": -0.0}, "label": "Fe", "xyz": [0.0, 1.935855, 2.314724]}, {"species": [{"element": "N", "occu": 1}], "abc": [0.5, 0.871413999999999, 0.405213999999999], "properties": {"magmom": -0.0}, "label": "N", "xyz": [1.288342, 3.3738622979399966, 1.8759171418719955]}, {"species": [{"element": "N", "occu": 1}], "abc": [0.0, 0.628586, 0.905214], "properties": {"magmom": -0.0}, "label": "N", "xyz": [0.0, 2.43370270206, 4.190641141872]}, {"species": [{"element": "N", "occu": 1}], "abc": [0.5, 0.128586, 0.594785999999999], "properties": {"magmom": -0.0}, "label": "N", "xyz": [1.288342, 0.49784770206000006, 2.7535308581279954]}, {"species": [{"element": "N", "occu": 1}], "abc": [0.0, 0.371413999999999, 0.094786], "properties": {"magmom": -0.0}, "label": "N", "xyz": [0.0, 1.4380072979399963, 0.43880685812799997]}]}, "task_ids": null, "uncorrected_energy_per_atom": null, "energy_per_atom": -8.442880116666666, "formation_energy_per_atom": -0.060687883333334004, "energy_above_hull": 0.148475734999999, "is_stable": false, "equilibrium_reaction_energy_per_atom": null, "decomposes_to": null, "xas": null, "grain_boundaries": null, "band_gap": 0.0, "cbm": null, "vbm": null, "efermi": 6.63001475, "is_gap_direct": null, "is_metal": null, "es_source_calc_id": null, "bandstructure": null, "dos": null, "dos_energy_up": null, "dos_energy_down": null, "is_magnetic": null, "ordering": null, "total_magnetization": 7.85e-05, "total_magnetization_normalized_vol": null, "total_magnetization_normalized_formula_units": null, "num_magnetic_sites": null, "num_unique_magnetic_sites": null, "types_of_magnetic_species": null, "bulk_modulus": null, "shear_modulus": null, "universal_anisotropy": null, "homogeneous_poisson": null, "e_total": null, "e_ionic": null, "e_electronic": null, "n": null, "e_ij_max": null, "weighted_surface_energy_EV_PER_ANG2": null, "weighted_surface_energy": null, "weighted_work_function": null, "surface_anisotropy": null, "shape_factor": null, "has_reconstructed": null, "possible_species": null, "has_props": null, "theoretical": null, "database_IDs": null, "fields_not_requested": ["builder_meta", "nsites", "elements", "nelements", "composition", "composition_reduced", "chemsys", "symmetry", "property_name", "deprecated", "deprecation_reasons", "last_updated", "origins", "warnings", "task_ids", "uncorrected_energy_per_atom", "equilibrium_reaction_energy_per_atom", "decomposes_to", "xas", "grain_boundaries", "cbm", "vbm", "is_gap_direct", "is_metal", "es_source_calc_id", "bandstructure", "dos", "dos_energy_up", "dos_energy_down", "is_magnetic", "ordering", "total_magnetization_normalized_vol", "total_magnetization_normalized_formula_units", "num_magnetic_sites", "num_unique_magnetic_sites", "types_of_magnetic_species", "bulk_modulus", "shear_modulus", "universal_anisotropy", "homogeneous_poisson", "e_total", "e_ionic", "e_electronic", "n", "e_ij_max", "weighted_surface_energy_EV_PER_ANG2", "weighted_surface_energy", "weighted_work_function", "surface_anisotropy", "shape_factor", "has_reconstructed", "possible_species", "has_props", "theoretical", "database_IDs"]}