{
  "builder_meta": null,
  "nsites": null,
  "elements": null,
  "nelements": null,
  "composition": null,
  "composition_reduced": null,
  "formula_pretty": "FeO2",
  "formula_anonymous": "AB2",
  "chemsys": null,
  "volume": 63.25368542732801,
  "density": 4.612160087531484,
  "density_atomic": 10.542280904554667,
  "symmetry": null,
  "property_name": null,
  "material_id": "mp-850222",
  "deprecated": null,
  "deprecation_reasons": null,
  "last_updated": null,
  "origins": null,
  "warnings": null,
  "structure": {
    "@module": "pymatgen.core.structure",
    "@class": "Structure",
    "charge": 0,
    "lattice": {
      "matrix": [
        [4.609413, 0.0, 0.0],
        [0.0, 4.609413, 0.0],
        [0.0, 0.0, 2.977108]
      ],
      "pbc": [true, true, true],
      "a": 4.609413,
      "b": 4.609413,
      "c": 2.977108,
      "alpha": 90.0,
      "beta": 90.0,
      "gamma": 90.0,
      "volume": 63.25368542732801
    },
    "properties": {},
    "sites": [
      {
        "species": [{ "element": "Fe", "occu": 1 }],
        "abc": [0.0, 0.0, 0.0],
        "properties": { "magmom": 4.002 },
        "label": "Fe",
        "xyz": [0.0, 0.0, 0.0]
      },
      {
        "species": [{ "element": "Fe", "occu": 1 }],
        "abc": [0.5, 0.5, 0.5],
        "properties": { "magmom": 4.002 },
        "label": "Fe",
        "xyz": [2.3047065, 2.3047065, 1.488554]
      },
      {
        "species": [{ "element": "O", "occu": 1 }],
        "abc": [0.809456, 0.190544, 0.5],
        "properties": { "magmom": -0.005 },
        "label": "O",
        "xyz": [3.731117009328, 0.8782959906719999, 1.488554]
      },
      {
        "species": [{ "element": "O", "occu": 1 }],
        "abc": [0.309456, 0.309456, 0.0],
        "properties": { "magmom": -0.005 },
        "label": "O",
        "xyz": [1.426410509328, 1.426410509328, 0.0]
      },
      {
        "species": [{ "element": "O", "occu": 1 }],
        "abc": [0.690543999999999, 0.690543999999999, 0.0],
        "properties": { "magmom": -0.005 },
        "label": "O",
        "xyz": [3.1830024906719956, 3.1830024906719956, 0.0]
      },
      {
        "species": [{ "element": "O", "occu": 1 }],
        "abc": [0.190544, 0.809456, 0.5],
        "properties": { "magmom": -0.005 },
        "label": "O",
        "xyz": [0.8782959906719999, 3.731117009328, 1.488554]
      }
    ]
  },
  "task_ids": null,
  "uncorrected_energy_per_atom": null,
  "energy_per_atom": -7.39937863,
  "formation_energy_per_atom": -1.277397556666667,
  "energy_above_hull": 0.14517857083333302,
  "is_stable": false,
  "equilibrium_reaction_energy_per_atom": null,
  "decomposes_to": null,
  "xas": null,
  "grain_boundaries": null,
  "band_gap": 0.0,
  "cbm": null,
  "vbm": null,
  "efermi": 1.7400796,
  "is_gap_direct": null,
  "is_metal": null,
  "es_source_calc_id": null,
  "bandstructure": null,
  "dos": null,
  "dos_energy_up": null,
  "dos_energy_down": null,
  "is_magnetic": null,
  "ordering": null,
  "total_magnetization": 8.0324536,
  "total_magnetization_normalized_vol": null,
  "total_magnetization_normalized_formula_units": null,
  "num_magnetic_sites": null,
  "num_unique_magnetic_sites": null,
  "types_of_magnetic_species": null,
  "bulk_modulus": null,
  "shear_modulus": null,
  "universal_anisotropy": null,
  "homogeneous_poisson": null,
  "e_total": null,
  "e_ionic": null,
  "e_electronic": null,
  "n": null,
  "e_ij_max": null,
  "weighted_surface_energy_EV_PER_ANG2": null,
  "weighted_surface_energy": null,
  "weighted_work_function": null,
  "surface_anisotropy": null,
  "shape_factor": null,
  "has_reconstructed": null,
  "possible_species": null,
  "has_props": null,
  "theoretical": null,
  "database_IDs": null,
  "fields_not_requested": [
    "builder_meta",
    "nsites",
    "elements",
    "nelements",
    "composition",
    "composition_reduced",
    "chemsys",
    "symmetry",
    "property_name",
    "deprecated",
    "deprecation_reasons",
    "last_updated",
    "origins",
    "warnings",
    "task_ids",
    "uncorrected_energy_per_atom",
    "equilibrium_reaction_energy_per_atom",
    "decomposes_to",
    "xas",
    "grain_boundaries",
    "cbm",
    "vbm",
    "is_gap_direct",
    "is_metal",
    "es_source_calc_id",
    "bandstructure",
    "dos",
    "dos_energy_up",
    "dos_energy_down",
    "is_magnetic",
    "ordering",
    "total_magnetization_normalized_vol",
    "total_magnetization_normalized_formula_units",
    "num_magnetic_sites",
    "num_unique_magnetic_sites",
    "types_of_magnetic_species",
    "bulk_modulus",
    "shear_modulus",
    "universal_anisotropy",
    "homogeneous_poisson",
    "e_total",
    "e_ionic",
    "e_electronic",
    "n",
    "e_ij_max",
    "weighted_surface_energy_EV_PER_ANG2",
    "weighted_surface_energy",
    "weighted_work_function",
    "surface_anisotropy",
    "shape_factor",
    "has_reconstructed",
    "possible_species",
    "has_props",
    "theoretical",
    "database_IDs"
  ]
}
