{
  "builder_meta": null,
  "nsites": null,
  "elements": null,
  "nelements": null,
  "composition": null,
  "composition_reduced": null,
  "formula_pretty": "FeO3",
  "formula_anonymous": "AB3",
  "chemsys": null,
  "volume": 122.93865159799667,
  "density": 2.8052315225420443,
  "density_atomic": 15.367331449749583,
  "symmetry": null,
  "property_name": null,
  "material_id": "mp-863316",
  "deprecated": null,
  "deprecation_reasons": null,
  "last_updated": null,
  "origins": null,
  "warnings": null,
  "structure": {
    "@module": "pymatgen.core.structure",
    "@class": "Structure",
    "charge": 0,
    "lattice": {
      "matrix": [
        [1.428491999999999, 7.734757, 0.0],
        [-1.428491999999999, 7.734757, 0.0],
        [0.0, 2.148451, 5.563319]
      ],
      "pbc": [true, true, true],
      "a": 7.865561343166361,
      "b": 7.865561343166361,
      "c": 5.963753850986977,
      "alpha": 69.2518728725625,
      "beta": 69.2518728725625,
      "gamma": 20.92750962365008,
      "volume": 122.9386515979966
    },
    "properties": {},
    "sites": [
      {
        "species": [{ "element": "Fe", "occu": 1 }],
        "abc": [0.187499, 0.187499, 0.718297],
        "properties": { "magmom": 3.836999999999999 },
        "label": "Fe",
        "xyz": [0.0, 4.443744313433, 3.996115347743]
      },
      {
        "species": [{ "element": "Fe", "occu": 1 }],
        "abc": [0.812500999999999, 0.812500999999999, 0.281703],
        "properties": { "magmom": 3.836999999999999 },
        "label": "Fe",
        "xyz": [0.0, 13.174220686566986, 1.5672036522569999]
      },
      {
        "species": [{ "element": "O", "occu": 1 }],
        "abc": [0.67874, 0.67874, 0.923331],
        "properties": { "magmom": 0.034 },
        "label": "O",
        "xyz": [0.0, 12.483509342641002, 5.136784895589]
      },
      {
        "species": [{ "element": "O", "occu": 1 }],
        "abc": [0.325204999999999, 0.325204999999999, 0.485045],
        "properties": { "magmom": 0.10300000000000001 },
        "label": "O",
        "xyz": [0.0, 6.072858715664985, 2.698460064355]
      },
      {
        "species": [{ "element": "O", "occu": 1 }],
        "abc": [0.32126000000000005, 0.32126000000000005, 0.076669],
        "properties": { "magmom": 0.034 },
        "label": "O",
        "xyz": [0.0, 5.134455657359, 0.426534104411]
      },
      {
        "species": [{ "element": "O", "occu": 1 }],
        "abc": [0.981652, 0.981652, 0.110577],
        "properties": { "magmom": 0.795 },
        "label": "O",
        "xyz": [0.0, 15.423248623355, 0.615175125063]
      },
      {
        "species": [{ "element": "O", "occu": 1 }],
        "abc": [0.018348, 0.018348, 0.889423],
        "properties": { "magmom": 0.795 },
        "label": "O",
        "xyz": [0.0, 2.194716376645, 4.948143874937]
      },
      {
        "species": [{ "element": "O", "occu": 1 }],
        "abc": [0.674794999999999, 0.674794999999999, 0.514954999999999],
        "properties": { "magmom": 0.10300000000000001 },
        "label": "O",
        "xyz": [0.0, 11.545106284334983, 2.8648589356449947]
      }
    ]
  },
  "task_ids": null,
  "uncorrected_energy_per_atom": null,
  "energy_per_atom": -6.35503656125,
  "formation_energy_per_atom": -0.5265605050000001,
  "energy_above_hull": 0.5403715906249991,
  "is_stable": false,
  "equilibrium_reaction_energy_per_atom": null,
  "decomposes_to": null,
  "xas": null,
  "grain_boundaries": null,
  "band_gap": 0.30509999999999904,
  "cbm": null,
  "vbm": null,
  "efermi": -1.1241372,
  "is_gap_direct": null,
  "is_metal": null,
  "es_source_calc_id": null,
  "bandstructure": null,
  "dos": null,
  "dos_energy_up": null,
  "dos_energy_down": null,
  "is_magnetic": null,
  "ordering": null,
  "total_magnetization": 10.0,
  "total_magnetization_normalized_vol": null,
  "total_magnetization_normalized_formula_units": null,
  "num_magnetic_sites": null,
  "num_unique_magnetic_sites": null,
  "types_of_magnetic_species": null,
  "bulk_modulus": null,
  "shear_modulus": null,
  "universal_anisotropy": null,
  "homogeneous_poisson": null,
  "e_total": null,
  "e_ionic": null,
  "e_electronic": null,
  "n": null,
  "e_ij_max": null,
  "weighted_surface_energy_EV_PER_ANG2": null,
  "weighted_surface_energy": null,
  "weighted_work_function": null,
  "surface_anisotropy": null,
  "shape_factor": null,
  "has_reconstructed": null,
  "possible_species": null,
  "has_props": null,
  "theoretical": null,
  "database_IDs": null,
  "fields_not_requested": [
    "builder_meta",
    "nsites",
    "elements",
    "nelements",
    "composition",
    "composition_reduced",
    "chemsys",
    "symmetry",
    "property_name",
    "deprecated",
    "deprecation_reasons",
    "last_updated",
    "origins",
    "warnings",
    "task_ids",
    "uncorrected_energy_per_atom",
    "equilibrium_reaction_energy_per_atom",
    "decomposes_to",
    "xas",
    "grain_boundaries",
    "cbm",
    "vbm",
    "is_gap_direct",
    "is_metal",
    "es_source_calc_id",
    "bandstructure",
    "dos",
    "dos_energy_up",
    "dos_energy_down",
    "is_magnetic",
    "ordering",
    "total_magnetization_normalized_vol",
    "total_magnetization_normalized_formula_units",
    "num_magnetic_sites",
    "num_unique_magnetic_sites",
    "types_of_magnetic_species",
    "bulk_modulus",
    "shear_modulus",
    "universal_anisotropy",
    "homogeneous_poisson",
    "e_total",
    "e_ionic",
    "e_electronic",
    "n",
    "e_ij_max",
    "weighted_surface_energy_EV_PER_ANG2",
    "weighted_surface_energy",
    "weighted_work_function",
    "surface_anisotropy",
    "shape_factor",
    "has_reconstructed",
    "possible_species",
    "has_props",
    "theoretical",
    "database_IDs"
  ]
}
