{"builder_meta": null, "nsites": null, "elements": null, "nelements": null, "composition": null, "composition_reduced": null, "formula_pretty": "FeP", "formula_anonymous": "AB", "chemsys": null, "volume": 90.58386212379064, "density": 6.366076368783321, "density_atomic": 11.32298276547383, "symmetry": null, "property_name": null, "material_id": "mp-1005", "deprecated": null, "deprecation_reasons": null, "last_updated": null, "origins": null, "warnings": null, "structure": {"@module": "pymatgen.core.structure", "@class": "Structure", "charge": 0, "lattice": {"matrix": [[3.049142, 0.0, 0.0], [0.0, 5.152674, 0.0], [0.0, 0.0, 5.765547]], "pbc": [true, true, true], "a": 3.049142, "b": 5.152674, "c": 5.765547, "alpha": 90.0, "beta": 90.0, "gamma": 90.0, "volume": 90.58386212379064}, "properties": {}, "sites": [{"species": [{"element": "Fe", "occu": 1}], "abc": [0.25, 0.500888, 0.298135], "properties": {"magmom": 0.543}, "label": "Fe", "xyz": [0.7622855, 2.5809125745120003, 1.718911354845]}, {"species": [{"element": "Fe", "occu": 1}], "abc": [0.75, 0.499112, 0.701865], "properties": {"magmom": 0.543}, "label": "Fe", "xyz": [2.2868565, 2.571761425488, 4.046635645155]}, {"species": [{"element": "Fe", "occu": 1}], "abc": [0.25, 0.000888, 0.201865], "properties": {"magmom": 0.543}, "label": "Fe", "xyz": [0.7622855, 0.004575574512, 1.163862145155]}, {"species": [{"element": "Fe", "occu": 1}], "abc": [0.75, 0.999112, 0.798134999999999], "properties": {"magmom": 0.543}, "label": "Fe", "xyz": [2.2868565, 5.1480984254880005, 4.6016848548449945]}, {"species": [{"element": "P", "occu": 1}], "abc": [0.25, 0.690886, 0.932925], "properties": {"magmom": -0.024}, "label": "P", "xyz": [0.7622855, 3.559910329164, 5.378822934975]}, {"species": [{"element": "P", "occu": 1}], "abc": [0.75, 0.309114, 0.067075], "properties": {"magmom": -0.024}, "label": "P", "xyz": [2.2868565, 1.592763670836, 0.38672406502499995]}, {"species": [{"element": "P", "occu": 1}], "abc": [0.25, 0.190886, 0.567075], "properties": {"magmom": -0.024}, "label": "P", "xyz": [0.7622855, 0.9835733291640001, 3.269497565025]}, {"species": [{"element": "P", "occu": 1}], "abc": [0.75, 0.809114, 0.432925], "properties": {"magmom": -0.024}, "label": "P", "xyz": [2.2868565, 4.169100670836, 2.4960494349749998]}]}, "task_ids": null, "uncorrected_energy_per_atom": null, "energy_per_atom": -7.540084815, "formation_energy_per_atom": -0.597337447321427, "energy_above_hull": 0.0, "is_stable": true, "equilibrium_reaction_energy_per_atom": null, "decomposes_to": null, "xas": null, "grain_boundaries": null, "band_gap": 0.0, "cbm": null, "vbm": null, "efermi": 9.16314288, "is_gap_direct": null, "is_metal": null, "es_source_calc_id": null, "bandstructure": null, "dos": null, "dos_energy_up": null, "dos_energy_down": null, "is_magnetic": null, "ordering": null, "total_magnetization": 1.9171113, "total_magnetization_normalized_vol": null, "total_magnetization_normalized_formula_units": null, "num_magnetic_sites": null, "num_unique_magnetic_sites": null, "types_of_magnetic_species": null, "bulk_modulus": null, "shear_modulus": null, "universal_anisotropy": null, "homogeneous_poisson": null, "e_total": null, "e_ionic": null, "e_electronic": null, "n": null, "e_ij_max": null, "weighted_surface_energy_EV_PER_ANG2": null, "weighted_surface_energy": null, "weighted_work_function": null, "surface_anisotropy": null, "shape_factor": null, "has_reconstructed": null, "possible_species": null, "has_props": null, "theoretical": null, "database_IDs": null, "fields_not_requested": ["builder_meta", "nsites", "elements", "nelements", "composition", "composition_reduced", "chemsys", "symmetry", "property_name", "deprecated", "deprecation_reasons", "last_updated", "origins", "warnings", "task_ids", "uncorrected_energy_per_atom", "equilibrium_reaction_energy_per_atom", "decomposes_to", "xas", "grain_boundaries", "cbm", "vbm", "is_gap_direct", "is_metal", "es_source_calc_id", "bandstructure", "dos", "dos_energy_up", "dos_energy_down", "is_magnetic", "ordering", "total_magnetization_normalized_vol", "total_magnetization_normalized_formula_units", "num_magnetic_sites", "num_unique_magnetic_sites", "types_of_magnetic_species", "bulk_modulus", "shear_modulus", "universal_anisotropy", "homogeneous_poisson", "e_total", "e_ionic", "e_electronic", "n", "e_ij_max", "weighted_surface_energy_EV_PER_ANG2", "weighted_surface_energy", "weighted_work_function", "surface_anisotropy", "shape_factor", "has_reconstructed", "possible_species", "has_props", "theoretical", "database_IDs"]}