{"builder_meta": null, "nsites": null, "elements": null, "nelements": null, "composition": null, "composition_reduced": null, "formula_pretty": "FeP2", "formula_anonymous": "AB2", "chemsys": null, "volume": 75.14771676361988, "density": 5.205722709332147, "density_atomic": 12.524619460603313, "symmetry": null, "property_name": null, "material_id": "mp-20027", "deprecated": null, "deprecation_reasons": null, "last_updated": null, "origins": null, "warnings": null, "structure": {"@module": "pymatgen.core.structure", "@class": "Structure", "charge": 0, "lattice": {"matrix": [[2.71536528, 0.0, 0.0], [0.0, 4.91822373, 0.0], [0.0, -0.0, 5.62703023]], "pbc": [true, true, true], "a": 2.71536528, "b": 4.91822373, "c": 5.62703023, "alpha": 90.0, "beta": 90.0, "gamma": 90.0, "volume": 75.14771676361988}, "properties": {}, "sites": [{"species": [{"element": "Fe", "occu": 1}], "abc": [0.5, 0.5, 0.5], "properties": {"magmom": 0.0}, "label": "Fe", "xyz": [1.35768264, 2.459111865, 2.813515115]}, {"species": [{"element": "Fe", "occu": 1}], "abc": [0.0, -0.0, -0.0], "properties": {"magmom": 0.0}, "label": "Fe", "xyz": [0.0, 0.0, 0.0]}, {"species": [{"element": "P", "occu": 1}], "abc": [0.5, 0.32900046, 0.86940035], "properties": {"magmom": -0.0}, "label": "P", "xyz": [1.35768264, 1.6180978695529158, 4.892142051422581]}, {"species": [{"element": "P", "occu": 1}], "abc": [0.5, 0.6709995400000001, 0.13059965], "properties": {"magmom": -0.0}, "label": "P", "xyz": [1.35768264, 3.3001258604470847, 0.7348881785774195]}, {"species": [{"element": "P", "occu": 1}], "abc": [0.0, 0.17099954, 0.36940135], "properties": {"magmom": -0.0}, "label": "P", "xyz": [0.0, 0.8410139954470842, 2.0786325634528104]}, {"species": [{"element": "P", "occu": 1}], "abc": [-0.0, 0.82900046, 0.6305996500000001], "properties": {"magmom": -0.0}, "label": "P", "xyz": [0.0, 4.077209734552916, 3.5484032935774197]}]}, "task_ids": null, "uncorrected_energy_per_atom": null, "energy_per_atom": -6.968965603333333, "formation_energy_per_atom": -0.53530951642857, "energy_above_hull": 0.0, "is_stable": true, "equilibrium_reaction_energy_per_atom": null, "decomposes_to": null, "xas": null, "grain_boundaries": null, "band_gap": 0.43270000000000003, "cbm": null, "vbm": null, "efermi": 8.53079943, "is_gap_direct": null, "is_metal": null, "es_source_calc_id": null, "bandstructure": null, "dos": null, "dos_energy_up": null, "dos_energy_down": null, "is_magnetic": null, "ordering": null, "total_magnetization": 0.0, "total_magnetization_normalized_vol": null, "total_magnetization_normalized_formula_units": null, "num_magnetic_sites": null, "num_unique_magnetic_sites": null, "types_of_magnetic_species": null, "bulk_modulus": null, "shear_modulus": null, "universal_anisotropy": null, "homogeneous_poisson": null, "e_total": null, "e_ionic": null, "e_electronic": null, "n": null, "e_ij_max": null, "weighted_surface_energy_EV_PER_ANG2": null, "weighted_surface_energy": null, "weighted_work_function": null, "surface_anisotropy": null, "shape_factor": null, "has_reconstructed": null, "possible_species": null, "has_props": null, "theoretical": null, "database_IDs": null, "fields_not_requested": ["builder_meta", "nsites", "elements", "nelements", "composition", "composition_reduced", "chemsys", "symmetry", "property_name", "deprecated", "deprecation_reasons", "last_updated", "origins", "warnings", "task_ids", "uncorrected_energy_per_atom", "equilibrium_reaction_energy_per_atom", "decomposes_to", "xas", "grain_boundaries", "cbm", "vbm", "is_gap_direct", "is_metal", "es_source_calc_id", "bandstructure", "dos", "dos_energy_up", "dos_energy_down", "is_magnetic", "ordering", "total_magnetization_normalized_vol", "total_magnetization_normalized_formula_units", "num_magnetic_sites", "num_unique_magnetic_sites", "types_of_magnetic_species", "bulk_modulus", "shear_modulus", "universal_anisotropy", "homogeneous_poisson", "e_total", "e_ionic", "e_electronic", "n", "e_ij_max", "weighted_surface_energy_EV_PER_ANG2", "weighted_surface_energy", "weighted_work_function", "surface_anisotropy", "shape_factor", "has_reconstructed", "possible_species", "has_props", "theoretical", "database_IDs"]}