{
  "builder_meta": null,
  "nsites": null,
  "elements": null,
  "nelements": null,
  "composition": null,
  "composition_reduced": null,
  "formula_pretty": "FeP4",
  "formula_anonymous": "AB4",
  "chemsys": null,
  "volume": 288.1989015879236,
  "density": 4.142491451453412,
  "density_atomic": 14.40994507939618,
  "symmetry": null,
  "property_name": null,
  "material_id": "mp-570553",
  "deprecated": null,
  "deprecation_reasons": null,
  "last_updated": null,
  "origins": null,
  "warnings": null,
  "structure": {
    "@module": "pymatgen.core.structure",
    "@class": "Structure",
    "charge": 0,
    "lattice": {
      "matrix": [
        [5.03457253, -0.0, 0.10364836000000001],
        [2.51728525, 5.18099869, 0.05182367],
        [0.00454491, -1e-8, 11.04892218]
      ],
      "pbc": [true, true, true],
      "a": 5.0356393379948585,
      "b": 5.76039565901697,
      "c": 11.048923114761132,
      "alpha": 89.47422923197325,
      "beta": 88.79703172497148,
      "gamma": 64.08156064323828,
      "volume": 288.19890158792356
    },
    "properties": {},
    "sites": [
      {
        "species": [{ "element": "Fe", "occu": 1 }],
        "abc": [0.92446809, 0.15106482000000002, 0.75],
        "properties": { "magmom": 0.0 },
        "label": "Fe",
        "xyz": [5.037983576455473, 0.7826666270250859, 8.390339969781122]
      },
      {
        "species": [{ "element": "Fe", "occu": 1 }],
        "abc": [0.07553191000000001, 0.84893518, 0.25],
        "properties": { "magmom": 0.0 },
        "label": "Fe",
        "xyz": [2.5184191135445273, 4.398332052974914, 2.814054240218878]
      },
      {
        "species": [{ "element": "Fe", "occu": 1 }],
        "abc": [-0.0, 0.5, 0.5],
        "properties": { "magmom": -0.0 },
        "label": "Fe",
        "xyz": [1.26091508, 2.59049934, 5.550372925]
      },
      {
        "species": [{ "element": "Fe", "occu": 1 }],
        "abc": [0.5, 0.5, 0.0],
        "properties": { "magmom": -0.0 },
        "label": "Fe",
        "xyz": [3.7759288900000003, 2.590499345, 0.077736015]
      },
      {
        "species": [{ "element": "P", "occu": 1 }],
        "abc": [0.45772013, 0.206160999999999, 0.47588064],
        "properties": { "magmom": 0.0 },
        "label": "P",
        "xyz": [2.825554072030819, 1.0681198661702784, 5.316094118772952]
      },
      {
        "species": [{ "element": "P", "occu": 1 }],
        "abc": [0.66388113, 0.793839, 0.97588064],
        "properties": { "magmom": 0.0 },
        "label": "P",
        "xyz": [5.345112195537651, 4.112878809312104, 10.892379089057172]
      },
      {
        "species": [{ "element": "P", "occu": 1 }],
        "abc": [0.13244056, 0.81431215, 0.45025497000000003],
        "properties": { "magmom": 0.0 },
        "label": "P",
        "xyz": [2.7186839376403076, 4.2189501778985345, 5.030760015668307]
      },
      {
        "species": [{ "element": "P", "occu": 1 }],
        "abc": [0.05324529, 0.81431215, 0.04974503],
        "properties": { "magmom": 0.0 },
        "label": "P",
        "xyz": [2.3181493251609684, 4.218950181903634, 0.5973483964365803]
      },
      {
        "species": [{ "element": "P", "occu": 1 }],
        "abc": [0.54227987, 0.793839, 0.52411936],
        "properties": { "magmom": 0.0 },
        "label": "P",
        "xyz": [4.730848617969178, 4.112878813829717, 5.888300091227048]
      },
      {
        "species": [{ "element": "P", "occu": 1 }],
        "abc": [0.62804257, 0.14532342, 0.28394919],
        "properties": { "magmom": 0.0 },
        "label": "P",
        "xyz": [3.5290368957512803, 0.7529204458068279, 3.2099592787360707]
      },
      {
        "species": [{ "element": "P", "occu": 1 }],
        "abc": [0.7733659900000001, 0.85467658, 0.78394919],
        "properties": { "magmom": 0.0 },
        "label": "P",
        "xyz": [6.048594895757822, 4.428078233514189, 8.786244186965957]
      },
      {
        "species": [{ "element": "P", "occu": 1 }],
        "abc": [0.94675471, 0.18568785000000002, 0.95025497],
        "properties": { "magmom": 0.0 },
        "label": "P",
        "xyz": [5.238253364839031, 0.9620484980963668, 10.60704581356342]
      },
      {
        "species": [{ "element": "P", "occu": 1 }],
        "abc": [0.46852269, 0.46450311, 0.79240384],
        "properties": { "magmom": -0.0 },
        "label": "P",
        "xyz": [3.5316996962742873, 2.4065899964868875, 8.827842227621073]
      },
      {
        "species": [{ "element": "P", "occu": 1 }],
        "abc": [0.37195743000000003, 0.85467658, 0.71605081],
        "properties": { "magmom": 0.0 },
        "label": "P",
        "xyz": [4.027365794248721, 4.428078234193173, 7.994434931263929]
      },
      {
        "species": [{ "element": "P", "occu": 1 }],
        "abc": [0.33611887, 0.206160999999999, 0.02411936],
        "properties": { "magmom": 0.0 },
        "label": "P",
        "xyz": [2.2112904944623466, 1.0681198706878914, 0.31201512094282796]
      },
      {
        "species": [{ "element": "P", "occu": 1 }],
        "abc": [0.22663401, 0.14532342, 0.21605081],
        "properties": { "magmom": 0.0 },
        "label": "P",
        "xyz": [1.5078077942421773, 0.7529204464858117, 2.4181500230340407]
      },
      {
        "species": [{ "element": "P", "occu": 1 }],
        "abc": [0.933025799999999, 0.53549689, 0.29240384],
        "properties": { "magmom": -0.0 },
        "label": "P",
        "xyz": [6.046713434215596, 2.774408682665036, 3.355205281414246]
      },
      {
        "species": [{ "element": "P", "occu": 1 }],
        "abc": [0.8675594400000001, 0.18568785000000002, 0.54974503],
        "properties": { "magmom": 0.0 },
        "label": "P",
        "xyz": [4.837718752359694, 0.9620485021014663, 6.173634194331693]
      },
      {
        "species": [{ "element": "P", "occu": 1 }],
        "abc": [0.0669742, 0.46450311, 0.70759616],
        "properties": { "magmom": -0.0 },
        "label": "P",
        "xyz": [1.509689255784399, 2.4065899973349643, 7.849188928585755]
      },
      {
        "species": [{ "element": "P", "occu": 1 }],
        "abc": [0.53147731, 0.53549689, 0.20759616],
        "properties": { "magmom": -0.0 },
        "label": "P",
        "xyz": [4.024702993725712, 2.7744086835131125, 2.3765519823789267]
      }
    ]
  },
  "task_ids": null,
  "uncorrected_energy_per_atom": null,
  "energy_per_atom": -6.396424983499999,
  "formation_energy_per_atom": -0.37004192121428403,
  "energy_above_hull": 0.0,
  "is_stable": true,
  "equilibrium_reaction_energy_per_atom": null,
  "decomposes_to": null,
  "xas": null,
  "grain_boundaries": null,
  "band_gap": 0.8049000000000001,
  "cbm": null,
  "vbm": null,
  "efermi": 7.92607,
  "is_gap_direct": null,
  "is_metal": null,
  "es_source_calc_id": null,
  "bandstructure": null,
  "dos": null,
  "dos_energy_up": null,
  "dos_energy_down": null,
  "is_magnetic": null,
  "ordering": null,
  "total_magnetization": 0.0,
  "total_magnetization_normalized_vol": null,
  "total_magnetization_normalized_formula_units": null,
  "num_magnetic_sites": null,
  "num_unique_magnetic_sites": null,
  "types_of_magnetic_species": null,
  "bulk_modulus": null,
  "shear_modulus": null,
  "universal_anisotropy": null,
  "homogeneous_poisson": null,
  "e_total": null,
  "e_ionic": null,
  "e_electronic": null,
  "n": null,
  "e_ij_max": null,
  "weighted_surface_energy_EV_PER_ANG2": null,
  "weighted_surface_energy": null,
  "weighted_work_function": null,
  "surface_anisotropy": null,
  "shape_factor": null,
  "has_reconstructed": null,
  "possible_species": null,
  "has_props": null,
  "theoretical": null,
  "database_IDs": null,
  "fields_not_requested": [
    "builder_meta",
    "nsites",
    "elements",
    "nelements",
    "composition",
    "composition_reduced",
    "chemsys",
    "symmetry",
    "property_name",
    "deprecated",
    "deprecation_reasons",
    "last_updated",
    "origins",
    "warnings",
    "task_ids",
    "uncorrected_energy_per_atom",
    "equilibrium_reaction_energy_per_atom",
    "decomposes_to",
    "xas",
    "grain_boundaries",
    "cbm",
    "vbm",
    "is_gap_direct",
    "is_metal",
    "es_source_calc_id",
    "bandstructure",
    "dos",
    "dos_energy_up",
    "dos_energy_down",
    "is_magnetic",
    "ordering",
    "total_magnetization_normalized_vol",
    "total_magnetization_normalized_formula_units",
    "num_magnetic_sites",
    "num_unique_magnetic_sites",
    "types_of_magnetic_species",
    "bulk_modulus",
    "shear_modulus",
    "universal_anisotropy",
    "homogeneous_poisson",
    "e_total",
    "e_ionic",
    "e_electronic",
    "n",
    "e_ij_max",
    "weighted_surface_energy_EV_PER_ANG2",
    "weighted_surface_energy",
    "weighted_work_function",
    "surface_anisotropy",
    "shape_factor",
    "has_reconstructed",
    "possible_species",
    "has_props",
    "theoretical",
    "database_IDs"
  ]
}
